 Entering Gaussian System, Link 0=g09
 Input=Ala-S-opt-freq-ts3-6-31g.com
 Output=Ala-S-opt-freq-ts3-6-31g.log
 Initial command:
 /usr/local/gau/g09/l1.exe "/tmp/Gau-3180.inp" -scrdir="/tmp/"
 Entering Link 1 = /usr/local/gau/g09/l1.exe PID=      3182.
  
 Copyright (c) 1988,1990,1992,1993,1995,1998,2003,2009,2013,
            Gaussian, Inc.  All Rights Reserved.
  
 This is part of the Gaussian(R) 09 program.  It is based on
 the Gaussian(R) 03 system (copyright 2003, Gaussian, Inc.),
 the Gaussian(R) 98 system (copyright 1998, Gaussian, Inc.),
 the Gaussian(R) 94 system (copyright 1995, Gaussian, Inc.),
 the Gaussian 92(TM) system (copyright 1992, Gaussian, Inc.),
 the Gaussian 90(TM) system (copyright 1990, Gaussian, Inc.),
 the Gaussian 88(TM) system (copyright 1988, Gaussian, Inc.),
 the Gaussian 86(TM) system (copyright 1986, Carnegie Mellon
 University), and the Gaussian 82(TM) system (copyright 1983,
 Carnegie Mellon University). Gaussian is a federally registered
 trademark of Gaussian, Inc.
  
 This software contains proprietary and confidential information,
 including trade secrets, belonging to Gaussian, Inc.
  
 This software is provided under written license and may be
 used, copied, transmitted, or stored only in accord with that
 written license.
  
 The following legend is applicable only to US Government
 contracts under FAR:
  
                    RESTRICTED RIGHTS LEGEND
  
 Use, reproduction and disclosure by the US Government is
 subject to restrictions as set forth in subparagraphs (a)
 and (c) of the Commercial Computer Software - Restricted
 Rights clause in FAR 52.227-19.
  
 Gaussian, Inc.
 340 Quinnipiac St., Bldg. 40, Wallingford CT 06492
  
  
 ---------------------------------------------------------------
 Warning -- This program may not be used in any manner that
 competes with the business of Gaussian, Inc. or will provide
 assistance to any competitor of Gaussian, Inc.  The licensee
 of this program is prohibited from giving any competitor of
 Gaussian, Inc. access to this program.  By using this program,
 the user acknowledges that Gaussian, Inc. is engaged in the
 business of creating and licensing software in the field of
 computational chemistry and represents and warrants to the
 licensee that it is not a competitor of Gaussian, Inc. and that
 it will not use this program in any manner prohibited above.
 ---------------------------------------------------------------
  

 Cite this work as:
 Gaussian 09, Revision D.01,
 M. J. Frisch, G. W. Trucks, H. B. Schlegel, G. E. Scuseria, 
 M. A. Robb, J. R. Cheeseman, G. Scalmani, V. Barone, B. Mennucci, 
 G. A. Petersson, H. Nakatsuji, M. Caricato, X. Li, H. P. Hratchian, 
 A. F. Izmaylov, J. Bloino, G. Zheng, J. L. Sonnenberg, M. Hada, 
 M. Ehara, K. Toyota, R. Fukuda, J. Hasegawa, M. Ishida, T. Nakajima, 
 Y. Honda, O. Kitao, H. Nakai, T. Vreven, J. A. Montgomery, Jr., 
 J. E. Peralta, F. Ogliaro, M. Bearpark, J. J. Heyd, E. Brothers, 
 K. N. Kudin, V. N. Staroverov, T. Keith, R. Kobayashi, J. Normand, 
 K. Raghavachari, A. Rendell, J. C. Burant, S. S. Iyengar, J. Tomasi, 
 M. Cossi, N. Rega, J. M. Millam, M. Klene, J. E. Knox, J. B. Cross, 
 V. Bakken, C. Adamo, J. Jaramillo, R. Gomperts, R. E. Stratmann, 
 O. Yazyev, A. J. Austin, R. Cammi, C. Pomelli, J. W. Ochterski, 
 R. L. Martin, K. Morokuma, V. G. Zakrzewski, G. A. Voth, 
 P. Salvador, J. J. Dannenberg, S. Dapprich, A. D. Daniels, 
 O. Farkas, J. B. Foresman, J. V. Ortiz, J. Cioslowski, 
 and D. J. Fox, Gaussian, Inc., Wallingford CT, 2013.
 
 ******************************************
 Gaussian 09:  ES64L-G09RevD.01 24-Apr-2013
                 3-Apr-2016 
 ******************************************
 %chk=Ala-S-opt-freq-ts3-6-31g.chk
 -----------------------------------------------
 # opt=(calcfc,ts) freq rb3lyp/6-31g iop(1/11=1)
 -----------------------------------------------
 1/5=1,10=4,11=1,14=-1,18=20,26=3,38=1/1,3;
 2/9=110,12=2,17=6,18=5,40=1/2;
 3/5=1,6=6,11=2,16=1,25=1,30=1,71=2,74=-5,116=1,140=1/1,2,3;
 4//1;
 5/5=2,38=5/2;
 8/6=4,10=90,11=11/1;
 11/6=1,8=1,9=11,15=111,16=1/1,2,10;
 10/6=1,13=1/2;
 6/7=2,8=2,9=2,10=2,28=1/1;
 7/10=1,18=20,25=1/1,2,3,16;
 1/5=1,10=4,11=1,14=-1,18=20,26=3/3(2);
 2/9=110/2;
 99//99;
 2/9=110/2;
 3/5=1,6=6,11=2,16=1,25=1,30=1,71=1,74=-5,116=1/1,2,3;
 4/5=5,16=3,69=1/1;
 5/5=2,38=5/2;
 7//1,2,3,16;
 1/5=1,11=1,14=-1,18=20,26=3/3(-5);
 2/9=110/2;
 6/7=2,8=2,9=2,10=2,19=2,28=1/1;
 99/9=1/99;
 ------------------------
 Ala-S-opt-freq-ts3-6-31g
 ------------------------
 Symbolic Z-matrix:
 Charge =  0 Multiplicity = 1
 N                     1.28352   1.30693   0.02725 
 H                     2.28075   1.38286  -0.05522 
 C                     0.66558   0.05851   0.00201 
 H                    -1.90772  -1.4236   -0.70361 
 C                     1.5736   -1.13958  -0.00567 
 C                    -0.67546  -0.04799  -0.00447 
 H                     2.21912  -1.14249   0.88299 
 H                     0.99234  -2.06208  -0.00865 
 H                     2.22883  -1.13253  -0.8882 
 O                    -1.48475   1.10322  -0.09577 
 H                     0.72117   2.13471  -0.06948 
 O                    -1.36571  -1.26352   0.09964 
 H                    -0.30125   0.83904   0.77024 
 

 GradGradGradGradGradGradGradGradGradGradGradGradGradGradGradGradGradGrad
 Berny optimization.
 Initialization pass.
                           ----------------------------
                           !    Initial Parameters    !
                           ! (Angstroms and Degrees)  !
 --------------------------                            --------------------------
 ! Name  Definition              Value          Derivative Info.                !
 --------------------------------------------------------------------------------
 ! R1    R(1,2)                  1.0035         calculate D2E/DX2 analytically  !
 ! R2    R(1,3)                  1.3932         calculate D2E/DX2 analytically  !
 ! R3    R(1,11)                 1.0054         calculate D2E/DX2 analytically  !
 ! R4    R(3,5)                  1.5033         calculate D2E/DX2 analytically  !
 ! R5    R(3,6)                  1.3453         calculate D2E/DX2 analytically  !
 ! R6    R(4,12)                 0.9822         calculate D2E/DX2 analytically  !
 ! R7    R(5,7)                  1.0984         calculate D2E/DX2 analytically  !
 ! R8    R(5,8)                  1.0904         calculate D2E/DX2 analytically  !
 ! R9    R(5,9)                  1.0992         calculate D2E/DX2 analytically  !
 ! R10   R(6,10)                 1.4102         calculate D2E/DX2 analytically  !
 ! R11   R(6,12)                 1.4017         calculate D2E/DX2 analytically  !
 ! R12   R(6,13)                 1.2357         calculate D2E/DX2 analytically  !
 ! A1    A(2,1,3)              120.4689         calculate D2E/DX2 analytically  !
 ! A2    A(2,1,11)             119.0538         calculate D2E/DX2 analytically  !
 ! A3    A(3,1,11)             119.2059         calculate D2E/DX2 analytically  !
 ! A4    A(1,3,5)              116.508          calculate D2E/DX2 analytically  !
 ! A5    A(1,3,6)              120.8748         calculate D2E/DX2 analytically  !
 ! A6    A(5,3,6)              122.6153         calculate D2E/DX2 analytically  !
 ! A7    A(3,5,7)              110.6686         calculate D2E/DX2 analytically  !
 ! A8    A(3,5,8)              110.6273         calculate D2E/DX2 analytically  !
 ! A9    A(3,5,9)              111.0413         calculate D2E/DX2 analytically  !
 ! A10   A(7,5,8)              108.2564         calculate D2E/DX2 analytically  !
 ! A11   A(7,5,9)              107.4144         calculate D2E/DX2 analytically  !
 ! A12   A(8,5,9)              108.7238         calculate D2E/DX2 analytically  !
 ! A13   A(3,6,10)             120.5154         calculate D2E/DX2 analytically  !
 ! A14   A(3,6,12)             123.9986         calculate D2E/DX2 analytically  !
 ! A15   A(3,6,13)              68.7942         calculate D2E/DX2 analytically  !
 ! A16   A(10,6,12)            115.4764         calculate D2E/DX2 analytically  !
 ! A17   A(10,6,13)             68.1844         calculate D2E/DX2 analytically  !
 ! A18   A(12,6,13)            136.4718         calculate D2E/DX2 analytically  !
 ! A19   A(4,12,6)             110.6311         calculate D2E/DX2 analytically  !
 ! D1    D(2,1,3,5)              6.2762         calculate D2E/DX2 analytically  !
 ! D2    D(2,1,3,6)           -174.2135         calculate D2E/DX2 analytically  !
 ! D3    D(11,1,3,5)           173.2777         calculate D2E/DX2 analytically  !
 ! D4    D(11,1,3,6)            -7.2119         calculate D2E/DX2 analytically  !
 ! D5    D(1,3,5,7)             59.0596         calculate D2E/DX2 analytically  !
 ! D6    D(1,3,5,8)            179.0434         calculate D2E/DX2 analytically  !
 ! D7    D(1,3,5,9)            -60.1392         calculate D2E/DX2 analytically  !
 ! D8    D(6,3,5,7)           -120.4415         calculate D2E/DX2 analytically  !
 ! D9    D(6,3,5,8)             -0.4577         calculate D2E/DX2 analytically  !
 ! D10   D(6,3,5,9)            120.3597         calculate D2E/DX2 analytically  !
 ! D11   D(1,3,6,10)             5.1914         calculate D2E/DX2 analytically  !
 ! D12   D(1,3,6,12)          -173.6291         calculate D2E/DX2 analytically  !
 ! D13   D(1,3,6,13)           -41.0689         calculate D2E/DX2 analytically  !
 ! D14   D(5,3,6,10)          -175.3288         calculate D2E/DX2 analytically  !
 ! D15   D(5,3,6,12)             5.8507         calculate D2E/DX2 analytically  !
 ! D16   D(5,3,6,13)           138.4109         calculate D2E/DX2 analytically  !
 ! D17   D(3,6,12,4)          -118.4765         calculate D2E/DX2 analytically  !
 ! D18   D(10,6,12,4)           62.649          calculate D2E/DX2 analytically  !
 ! D19   D(13,6,12,4)          147.1339         calculate D2E/DX2 analytically  !
 --------------------------------------------------------------------------------
 Trust Radius=3.00D-01 FncErr=1.00D-07 GrdErr=1.00D-06
 Number of steps in this run=     60 maximum allowed number of steps=    100.
 Search for a saddle point of order  1.
 GradGradGradGradGradGradGradGradGradGradGradGradGradGradGradGradGradGrad

                          Input orientation:                          
 ---------------------------------------------------------------------
 Center     Atomic      Atomic             Coordinates (Angstroms)
 Number     Number       Type             X           Y           Z
 ---------------------------------------------------------------------
      1          7           0        1.283519    1.306929    0.027246
      2          1           0        2.280749    1.382855   -0.055218
      3          6           0        0.665578    0.058509    0.002012
      4          1           0       -1.907724   -1.423597   -0.703614
      5          6           0        1.573604   -1.139575   -0.005668
      6          6           0       -0.675464   -0.047989   -0.004465
      7          1           0        2.219121   -1.142487    0.882988
      8          1           0        0.992337   -2.062083   -0.008648
      9          1           0        2.228829   -1.132525   -0.888197
     10          8           0       -1.484745    1.103218   -0.095767
     11          1           0        0.721171    2.134713   -0.069476
     12          8           0       -1.365712   -1.263520    0.099641
     13          1           0       -0.301250    0.839040    0.770242
 ---------------------------------------------------------------------
                    Distance matrix (angstroms):
                    1          2          3          4          5
     1  N    0.000000
     2  H    1.003510   0.000000
     3  C    1.393212   2.089484   0.000000
     4  H    4.263093   5.083296   3.052283   0.000000
     5  C    2.463862   2.620145   1.503321   3.561944   0.000000
     6  C    2.382105   3.284674   1.345280   1.974733   2.499974
     7  H    2.758131   2.694695   2.152210   4.430257   1.098367
     8  H    3.381762   3.678284   2.145646   3.049753   1.090367
     9  H    2.771747   2.650224   2.157496   4.150887   1.099194
    10  O    2.778474   3.776081   2.392669   2.633094   3.793644
    11  H    1.005394   1.731409   2.078178   4.469317   3.384032
    12  O    3.692001   4.508210   2.425579   0.982151   2.943812
    13  H    1.811755   2.764749   1.460877   3.142059   2.834084
                    6          7          8          9         10
     6  C    0.000000
     7  H    3.219335   0.000000
     8  H    2.614986   1.773604   0.000000
     9  H    3.223681   1.771240   1.779493   0.000000
    10  O    1.410159   4.440695   4.020281   4.406487   0.000000
    11  H    2.592104   3.727074   4.205987   3.690282   2.435311
    12  O    1.401712   3.671418   2.491952   3.730108   2.377772
    13  H    1.235730   3.208026   3.270558   3.610926   1.490108
                   11         12         13
    11  H    0.000000
    12  O    3.991449   0.000000
    13  H    1.851820   2.450213   0.000000
 Stoichiometry    C3H7NO2
 Framework group  C1[X(C3H7NO2)]
 Deg. of freedom    33
 Full point group                 C1      NOp   1
 Largest Abelian subgroup         C1      NOp   1
 Largest concise Abelian subgroup C1      NOp   1
                         Standard orientation:                         
 ---------------------------------------------------------------------
 Center     Atomic      Atomic             Coordinates (Angstroms)
 Number     Number       Type             X           Y           Z
 ---------------------------------------------------------------------
      1          7           0        1.349575   -1.207070   -0.010915
      2          1           0        2.348414   -1.201549    0.085640
      3          6           0        0.631300   -0.013450    0.008927
      4          1           0       -2.064281    1.250544    0.681678
      5          6           0        1.438091    1.254810    0.032976
      6          6           0       -0.713917   -0.016958   -0.003545
      7          1           0        2.093651    1.313991   -0.846313
      8          1           0        0.783334    2.126697    0.030185
      9          1           0        2.079211    1.297858    0.924795
     10          8           0       -1.427532   -1.230818    0.072925
     11          1           0        0.855512   -2.078428    0.075419
     12          8           0       -1.499740    1.138484   -0.114159
     13          1           0       -0.257538   -0.867360   -0.775271
 ---------------------------------------------------------------------
 Rotational constants (GHZ):      4.8903454      3.3154850      2.0226597
 Standard basis: 6-31G (6D, 7F)
 There are    68 symmetry adapted cartesian basis functions of A   symmetry.
 There are    68 symmetry adapted basis functions of A   symmetry.
    68 basis functions,   160 primitive gaussians,    68 cartesian basis functions
    24 alpha electrons       24 beta electrons
       nuclear repulsion energy       247.6091726824 Hartrees.
 NAtoms=   13 NActive=   13 NUniq=   13 SFac= 1.00D+00 NAtFMM=   60 NAOKFM=F Big=F
 Integral buffers will be    131072 words long.
 Raffenetti 2 integral format.
 Two-electron integral symmetry is turned on.
 One-electron integrals computed using PRISM.
 NBasis=    68 RedAO= T EigKep=  2.74D-03  NBF=    68
 NBsUse=    68 1.00D-06 EigRej= -1.00D+00 NBFU=    68
 ExpMin= 1.61D-01 ExpMax= 5.48D+03 ExpMxC= 8.25D+02 IAcc=1 IRadAn=         1 AccDes= 0.00D+00
 Harris functional with IExCor=  402 and IRadAn=       1 diagonalized for initial guess.
 HarFok:  IExCor=  402 AccDes= 0.00D+00 IRadAn=         1 IDoV= 1 UseB2=F ITyADJ=14
 ICtDFT=  3500011 ScaDFX=  1.000000  1.000000  1.000000  1.000000
 FoFCou: FMM=F IPFlag=           0 FMFlag=      100000 FMFlg1=           0
         NFxFlg=           0 DoJE=T BraDBF=F KetDBF=T FulRan=T
         wScrn=  0.000000 ICntrl=     500 IOpCl=  0 I1Cent=   200000004 NGrid=           0
         NMat0=    1 NMatS0=      1 NMatT0=    0 NMatD0=    1 NMtDS0=    0 NMtDT0=    0
 Petite list used in FoFCou.
 Keep R1 ints in memory in canonical form, NReq=3676491.
 Requested convergence on RMS density matrix=1.00D-08 within 128 cycles.
 Requested convergence on MAX density matrix=1.00D-06.
 Requested convergence on             energy=1.00D-06.
 No special actions if energy rises.
 Integral accuracy reduced to 1.0D-05 until final iterations.
 EnCoef did     1 forward-backward iterations
 Initial convergence to 1.0D-05 achieved.  Increase integral accuracy.
 SCF Done:  E(RB3LYP) =  -323.457076245     A.U. after   16 cycles
            NFock= 16  Conv=0.47D-08     -V/T= 2.0048
 DoSCS=F DFT=T ScalE2(SS,OS)=  1.000000  1.000000
 Range of M.O.s used for correlation:     1    68
 NBasis=    68 NAE=    24 NBE=    24 NFC=     0 NFV=     0
 NROrb=     68 NOA=    24 NOB=    24 NVA=    44 NVB=    44
 Symmetrizing basis deriv contribution to polar:
 IMax=3 JMax=2 DiffMx= 0.00D+00
 G2DrvN: will do    14 centers at a time, making    1 passes.
 Calling FoFCou, ICntrl=  3107 FMM=F I1Cent=   0 AccDes= 0.00D+00.
 End of G2Drv F.D. properties file   721 does not exist.
 End of G2Drv F.D. properties file   722 does not exist.
 End of G2Drv F.D. properties file   788 does not exist.
          IDoAtm=1111111111111
          Differentiating once with respect to nuclear coordinates.
 Keep R1 ints in memory in canonical form, NReq=3645290.
          There are    42 degrees of freedom in the 1st order CPHF.  IDoFFX=6 NUNeed=     0.
     36 vectors produced by pass  0 Test12= 2.51D-15 2.38D-09 XBig12= 2.18D-01 1.47D-01.
 AX will form    36 AO Fock derivatives at one time.
     36 vectors produced by pass  1 Test12= 2.51D-15 2.38D-09 XBig12= 4.14D-02 3.20D-02.
     36 vectors produced by pass  2 Test12= 2.51D-15 2.38D-09 XBig12= 1.60D-04 1.97D-03.
     36 vectors produced by pass  3 Test12= 2.51D-15 2.38D-09 XBig12= 2.48D-07 6.78D-05.
     36 vectors produced by pass  4 Test12= 2.51D-15 2.38D-09 XBig12= 1.82D-10 2.33D-06.
     16 vectors produced by pass  5 Test12= 2.51D-15 2.38D-09 XBig12= 9.57D-14 4.10D-08.
 InvSVY:  IOpt=1 It=  1 EMax= 1.44D-15
 Solved reduced A of dimension   196 with    36 vectors.
 End of Minotr F.D. properties file   721 does not exist.
 End of Minotr F.D. properties file   722 does not exist.
 End of Minotr F.D. properties file   788 does not exist.

 **********************************************************************

            Population analysis using the SCF density.

 **********************************************************************

 Orbital symmetries:
       Occupied  (A) (A) (A) (A) (A) (A) (A) (A) (A) (A) (A) (A)
                 (A) (A) (A) (A) (A) (A) (A) (A) (A) (A) (A) (A)
       Virtual   (A) (A) (A) (A) (A) (A) (A) (A) (A) (A) (A) (A)
                 (A) (A) (A) (A) (A) (A) (A) (A) (A) (A) (A) (A)
                 (A) (A) (A) (A) (A) (A) (A) (A) (A) (A) (A) (A)
                 (A) (A) (A) (A) (A) (A) (A) (A)
 The electronic state is 1-A.
 Alpha  occ. eigenvalues --  -19.16539 -19.10543 -14.34939 -10.29424 -10.25605
 Alpha  occ. eigenvalues --  -10.19898  -1.06576  -0.98640  -0.92320  -0.78819
 Alpha  occ. eigenvalues --   -0.72117  -0.59670  -0.56196  -0.51390  -0.49474
 Alpha  occ. eigenvalues --   -0.45873  -0.42513  -0.40973  -0.39552  -0.35537
 Alpha  occ. eigenvalues --   -0.31226  -0.29711  -0.24931  -0.18502
 Alpha virt. eigenvalues --   -0.00048   0.04225   0.06796   0.09197   0.11827
 Alpha virt. eigenvalues --    0.13297   0.16449   0.16621   0.20185   0.22463
 Alpha virt. eigenvalues --    0.24528   0.35863   0.42005   0.51061   0.55141
 Alpha virt. eigenvalues --    0.56152   0.59964   0.62871   0.65262   0.66694
 Alpha virt. eigenvalues --    0.71810   0.73201   0.75161   0.80922   0.82205
 Alpha virt. eigenvalues --    0.85412   0.87377   0.90699   0.91705   0.92331
 Alpha virt. eigenvalues --    0.94871   0.96444   1.00135   1.07363   1.09440
 Alpha virt. eigenvalues --    1.12406   1.18357   1.20515   1.23126   1.32759
 Alpha virt. eigenvalues --    1.44398   1.56677   1.74989   1.99279
          Condensed to atoms (all electrons):
               1          2          3          4          5          6
     1  N    7.135528   0.326915   0.214184  -0.000133  -0.068009  -0.121830
     2  H    0.326915   0.384450  -0.025730   0.000002  -0.005223   0.007858
     3  C    0.214184  -0.025730   5.736256   0.002366   0.279033   0.126770
     4  H   -0.000133   0.000002   0.002366   0.395365   0.000434  -0.024688
     5  C   -0.068009  -0.005223   0.279033   0.000434   5.142953   0.001414
     6  C   -0.121830   0.007858   0.126770  -0.024688   0.001414   5.188066
     7  H    0.004138   0.001092  -0.039073  -0.000057   0.362221  -0.000457
     8  H    0.003675  -0.000010  -0.034280  -0.000322   0.373155  -0.002178
     9  H   -0.002432   0.001507  -0.040099   0.000083   0.371737  -0.000391
    10  O    0.000059   0.000465  -0.169518   0.003022   0.003054   0.251725
    11  H    0.305903  -0.017739  -0.038290  -0.000015   0.005036   0.000955
    12  O    0.002549  -0.000004  -0.130800   0.236090  -0.004216   0.177277
    13  H   -0.005911   0.001290  -0.137693   0.001005   0.001743   0.155019
               7          8          9         10         11         12
     1  N    0.004138   0.003675  -0.002432   0.000059   0.305903   0.002549
     2  H    0.001092  -0.000010   0.001507   0.000465  -0.017739  -0.000004
     3  C   -0.039073  -0.034280  -0.040099  -0.169518  -0.038290  -0.130800
     4  H   -0.000057  -0.000322   0.000083   0.003022  -0.000015   0.236090
     5  C    0.362221   0.373155   0.371737   0.003054   0.005036  -0.004216
     6  C   -0.000457  -0.002178  -0.000391   0.251725   0.000955   0.177277
     7  H    0.576708  -0.023951  -0.037129   0.000022  -0.000106   0.000251
     8  H   -0.023951   0.508016  -0.023210   0.000171  -0.000171   0.011070
     9  H   -0.037129  -0.023210   0.568744  -0.000051  -0.000061   0.000376
    10  O    0.000022   0.000171  -0.000051   8.454146   0.020181  -0.088850
    11  H   -0.000106  -0.000171  -0.000061   0.020181   0.378310   0.000411
    12  O    0.000251   0.011070   0.000376  -0.088850   0.000411   8.370904
    13  H   -0.001069  -0.000123   0.000151   0.091587   0.005517   0.009370
              13
     1  N   -0.005911
     2  H    0.001290
     3  C   -0.137693
     4  H    0.001005
     5  C    0.001743
     6  C    0.155019
     7  H   -0.001069
     8  H   -0.000123
     9  H    0.000151
    10  O    0.091587
    11  H    0.005517
    12  O    0.009370
    13  H    0.526437
 Mulliken charges:
               1
     1  N   -0.794635
     2  H    0.325127
     3  C    0.256875
     4  H    0.386849
     5  C   -0.463331
     6  C    0.240460
     7  H    0.157412
     8  H    0.188160
     9  H    0.160775
    10  O   -0.566010
    11  H    0.340069
    12  O   -0.584429
    13  H    0.352678
 Sum of Mulliken charges =   0.00000
 Mulliken charges with hydrogens summed into heavy atoms:
               1
     1  N   -0.129439
     3  C    0.256875
     5  C    0.043016
     6  C    0.593138
    10  O   -0.566010
    12  O   -0.197579
 APT charges:
               1
     1  N   -1.300443
     2  H    0.734694
     3  C    0.309129
     4  H    0.677796
     5  C   -1.246407
     6  C   -0.125724
     7  H    0.435448
     8  H    0.374511
     9  H    0.466416
    10  O   -0.494294
    11  H    0.544738
    12  O   -0.722220
    13  H    0.346355
 Sum of APT charges =   0.00000
 APT charges with hydrogens summed into heavy atoms:
               1
     1  N   -0.021011
     3  C    0.309129
     5  C    0.029968
     6  C    0.220631
    10  O   -0.494294
    12  O   -0.044425
 Electronic spatial extent (au):  <R**2>=            600.1148
 Charge=              0.0000 electrons
 Dipole moment (field-independent basis, Debye):
    X=              3.9735    Y=              1.1628    Z=              1.1018  Tot=              4.2842
 Quadrupole moment (field-independent basis, Debye-Ang):
   XX=            -34.1874   YY=            -36.4844   ZZ=            -36.4085
   XY=             -6.0015   XZ=             -2.5884   YZ=              2.8709
 Traceless Quadrupole moment (field-independent basis, Debye-Ang):
   XX=              1.5060   YY=             -0.7910   ZZ=             -0.7151
   XY=             -6.0015   XZ=             -2.5884   YZ=              2.8709
 Octapole moment (field-independent basis, Debye-Ang**2):
  XXX=              7.3247  YYY=             -4.8753  ZZZ=              1.0675  XYY=              8.0386
  XXY=              6.6676  XXZ=              9.4512  XZZ=             -4.7857  YZZ=              1.8137
  YYZ=              3.4325  XYZ=             -6.0379
 Hexadecapole moment (field-independent basis, Debye-Ang**3):
 XXXX=           -353.6226 YYYY=           -266.4919 ZZZZ=            -44.0484 XXXY=            -42.6873
 XXXZ=            -13.4442 YYYX=            -24.9030 YYYZ=              3.3656 ZZZX=             -2.2317
 ZZZY=              1.7210 XXYY=           -110.6876 XXZZ=            -71.4175 YYZZ=            -55.9570
 XXYZ=              8.1126 YYXZ=             -4.2860 ZZXY=             -1.8684
 N-N= 2.476091726824D+02 E-N=-1.252838401870D+03  KE= 3.219078647172D+02
  Exact polarizability:   0.000   0.000   0.000   0.000   0.000   0.000
 Approx polarizability: 115.288  11.808  74.430  -6.084   1.902  37.869
 Calling FoFJK, ICntrl=    100147 FMM=F ISym2X=0 I1Cent= 0 IOpClX= 0 NMat=1 NMatS=1 NMatT=0.
 ***** Axes restored to original set *****
 -------------------------------------------------------------------
 Center     Atomic                   Forces (Hartrees/Bohr)
 Number     Number              X              Y              Z
 -------------------------------------------------------------------
      1        7           0.013884383    0.012849739   -0.007669687
      2        1           0.000096133   -0.000983744    0.000759393
      3        6           0.058926502   -0.027821790   -0.023293978
      4        1          -0.001327239    0.006411387    0.002828110
      5        6           0.001383951   -0.000288746    0.011411882
      6        6          -0.064210762    0.009518888   -0.019924346
      7        1           0.001494083   -0.001679489   -0.000424919
      8        1          -0.000465593    0.000576311   -0.000140181
      9        1          -0.001945191    0.002515297   -0.000556884
     10        8           0.018667805    0.001615352    0.005772510
     11        1           0.000036179    0.004223760   -0.006878637
     12        8           0.017169520   -0.006650777    0.003744120
     13        1          -0.043709771   -0.000286189    0.034372616
 -------------------------------------------------------------------
 Cartesian Forces:  Max     0.064210762 RMS     0.018886920
 FormGI is forming the generalized inverse of G from B-inverse, IUseBI=4.

 GradGradGradGradGradGradGradGradGradGradGradGradGradGradGradGradGradGrad
 Berny optimization.
 Internal  Forces:  Max     0.072210034 RMS     0.017095916
 Search for a saddle point.
 Step number   1 out of a maximum of   60
 All quantities printed in internal units (Hartrees-Bohrs-Radians)
 Swapping is turned off.
 Second derivative matrix not updated -- analytic derivatives used.
 ITU=  0
     Eigenvalues ---   -0.13913  -0.01617  -0.00292   0.00120   0.00168
     Eigenvalues ---    0.00752   0.01412   0.03165   0.04021   0.06222
     Eigenvalues ---    0.06290   0.11561   0.12765   0.13184   0.14517
     Eigenvalues ---    0.14691   0.15422   0.16772   0.19446   0.21823
     Eigenvalues ---    0.22992   0.24544   0.33136   0.33386   0.34443
     Eigenvalues ---    0.35398   0.35845   0.38691   0.46611   0.47970
     Eigenvalues ---    0.49690   0.50227   0.67922
 Eigenvectors required to have negative eigenvalues:
                          A17       D19       D13       D16       D18
   1                   -0.55959  -0.37886   0.34413   0.32040   0.30970
                          A15       R12       D14       A18       D17
   1                    0.24845   0.18548  -0.16552   0.14309   0.14218
 RFO step:  Lambda0=9.962244155D-04 Lambda=-6.33202470D-02.
 Linear search not attempted -- option 19 set.
 Maximum step size (   0.300) exceeded in Quadratic search.
    -- Step size scaled by   0.348
 Iteration  1 RMS(Cart)=  0.07871272 RMS(Int)=  0.00766142
 Iteration  2 RMS(Cart)=  0.00660530 RMS(Int)=  0.00287828
 Iteration  3 RMS(Cart)=  0.00002593 RMS(Int)=  0.00287816
 Iteration  4 RMS(Cart)=  0.00000007 RMS(Int)=  0.00287816
 Variable       Old X    -DE/DX   Delta X   Delta X   Delta X     New X
                                 (Linear)    (Quad)   (Total)
    R1        1.89636  -0.00004   0.00000  -0.00029  -0.00029   1.89607
    R2        2.63279   0.02038   0.00000  -0.05486  -0.05486   2.57793
    R3        1.89992   0.00412   0.00000   0.00257   0.00257   1.90249
    R4        2.84087  -0.00067   0.00000  -0.00011  -0.00011   2.84076
    R5        2.54221   0.07221   0.00000   0.04206   0.04206   2.58427
    R6        1.85600  -0.00263   0.00000  -0.00027  -0.00027   1.85573
    R7        2.07561   0.00054   0.00000   0.00001   0.00001   2.07562
    R8        2.06050  -0.00024   0.00000  -0.00055  -0.00055   2.05995
    R9        2.07718  -0.00070   0.00000  -0.00046  -0.00046   2.07671
   R10        2.66481  -0.00977   0.00000   0.05950   0.05950   2.72432
   R11        2.64885  -0.00710   0.00000  -0.00415  -0.00415   2.64470
   R12        2.33519   0.00811   0.00000  -0.10988  -0.10988   2.22531
    A1        2.10258  -0.00268   0.00000   0.01338   0.01332   2.11589
    A2        2.07788  -0.00094   0.00000   0.00149   0.00143   2.07931
    A3        2.08053   0.00271   0.00000  -0.01081  -0.01088   2.06966
    A4        2.03345  -0.00778   0.00000   0.01367   0.01362   2.04706
    A5        2.10966   0.01286   0.00000  -0.00608  -0.00613   2.10354
    A6        2.14004  -0.00506   0.00000  -0.00772  -0.00777   2.13227
    A7        1.93153   0.00453   0.00000   0.00537   0.00537   1.93690
    A8        1.93081  -0.00078   0.00000  -0.00052  -0.00052   1.93029
    A9        1.93804  -0.00534   0.00000  -0.00584  -0.00584   1.93220
   A10        1.88943  -0.00052   0.00000   0.00129   0.00128   1.89071
   A11        1.87473   0.00047   0.00000  -0.00078  -0.00077   1.87396
   A12        1.89759   0.00176   0.00000   0.00057   0.00057   1.89815
   A13        2.10339   0.00108   0.00000   0.01111   0.00586   2.10926
   A14        2.16418  -0.02827   0.00000  -0.02617  -0.02480   2.13938
   A15        1.20069   0.05478   0.00000   0.20387   0.21233   1.41301
   A16        2.01544   0.02732   0.00000   0.01700   0.01531   2.03076
   A17        1.19004  -0.02388   0.00000  -0.02029  -0.01177   1.17827
   A18        2.38188  -0.03719   0.00000  -0.15699  -0.16200   2.21988
   A19        1.93088  -0.00747   0.00000  -0.01653  -0.01653   1.91435
    D1        0.10954  -0.00170   0.00000   0.00618   0.00622   0.11576
    D2       -3.04060   0.00018   0.00000  -0.01157  -0.01162  -3.05221
    D3        3.02427  -0.00639   0.00000   0.02675   0.02680   3.05107
    D4       -0.12587  -0.00451   0.00000   0.00901   0.00897  -0.11691
    D5        1.03078   0.00026   0.00000  -0.00711  -0.00715   1.02364
    D6        3.12490   0.00205   0.00000  -0.00233  -0.00236   3.12253
    D7       -1.04963   0.00018   0.00000  -0.00585  -0.00588  -1.05551
    D8       -2.10210  -0.00175   0.00000   0.01096   0.01099  -2.09111
    D9       -0.00799   0.00004   0.00000   0.01574   0.01578   0.00779
   D10        2.10067  -0.00183   0.00000   0.01222   0.01226   2.11294
   D11        0.09061   0.00052   0.00000   0.13653   0.13202   0.22263
   D12       -3.03040  -0.00815   0.00000   0.01749   0.01455  -3.01585
   D13       -0.71679  -0.02512   0.00000  -0.06080  -0.05354  -0.77033
   D14       -3.06006   0.00251   0.00000   0.11778   0.11340  -2.94666
   D15        0.10211  -0.00616   0.00000  -0.00126  -0.00407   0.09804
   D16        2.41573  -0.02312   0.00000  -0.07955  -0.07217   2.34356
   D17       -2.06781   0.00970   0.00000  -0.00437  -0.00778  -2.07559
   D18        1.09343   0.00167   0.00000  -0.11793  -0.12024   0.97320
   D19        2.56797  -0.02053   0.00000  -0.19036  -0.18464   2.38333
         Item               Value     Threshold  Converged?
 Maximum Force            0.072210     0.000450     NO 
 RMS     Force            0.017096     0.000300     NO 
 Maximum Displacement     0.417529     0.001800     NO 
 RMS     Displacement     0.078067     0.001200     NO 
 Predicted change in Energy=-2.540314D-02
 GradGradGradGradGradGradGradGradGradGradGradGradGradGradGradGradGradGrad

                          Input orientation:                          
 ---------------------------------------------------------------------
 Center     Atomic      Atomic             Coordinates (Angstroms)
 Number     Number       Type             X           Y           Z
 ---------------------------------------------------------------------
      1          7           0        1.311294    1.291079    0.022573
      2          1           0        2.306817    1.377442   -0.067974
      3          6           0        0.701836    0.070893   -0.003963
      4          1           0       -1.887175   -1.402124   -0.655880
      5          6           0        1.589130   -1.142474   -0.019865
      6          6           0       -0.662206   -0.024758    0.015795
      7          1           0        2.245758   -1.160975    0.860430
      8          1           0        0.991834   -2.054344   -0.021241
      9          1           0        2.233657   -1.140894   -0.909960
     10          8           0       -1.488003    1.135341   -0.209087
     11          1           0        0.739374    2.116742   -0.046316
     12          8           0       -1.330107   -1.248521    0.138111
     13          1           0       -0.522197    0.796082    0.848454
 ---------------------------------------------------------------------
                    Distance matrix (angstroms):
                    1          2          3          4          5
     1  N    0.000000
     2  H    1.003356   0.000000
     3  C    1.364183   2.070538   0.000000
     4  H    4.236017   5.065687   3.049222   0.000000
     5  C    2.449729   2.620565   1.503264   3.543533   0.000000
     6  C    2.371956   3.284552   1.367535   1.961844   2.513776
     7  H    2.754595   2.703557   2.156008   4.408910   1.098373
     8  H    3.360927   3.675394   2.145002   3.019412   1.090079
     9  H    2.763126   2.656371   2.153075   4.136913   1.098948
    10  O    2.813181   3.805152   2.443465   2.607239   3.833144
    11  H    1.006756   1.733180   2.046631   4.433141   3.368274
    12  O    3.666049   4.490586   2.426897   0.982008   2.925431
    13  H    2.070939   3.030039   1.658545   2.993041   2.994942
                    6          7          8          9         10
     6  C    0.000000
     7  H    3.234293   0.000000
     8  H    2.618480   1.774198   0.000000
     9  H    3.238642   1.770545   1.779420   0.000000
    10  O    1.441646   4.511974   4.044623   4.418509   0.000000
    11  H    2.560138   3.719518   4.178795   3.686591   2.439436
    12  O    1.399516   3.649140   2.462957   3.716241   2.414182
    13  H    1.177583   3.389954   3.342692   3.799819   1.471826
                   11         12         13
    11  H    0.000000
    12  O    3.954966   0.000000
    13  H    2.033794   2.310348   0.000000
 Stoichiometry    C3H7NO2
 Framework group  C1[X(C3H7NO2)]
 Deg. of freedom    33
 Full point group                 C1      NOp   1
 Largest Abelian subgroup         C1      NOp   1
 Largest concise Abelian subgroup C1      NOp   1
                         Standard orientation:                         
 ---------------------------------------------------------------------
 Center     Atomic      Atomic             Coordinates (Angstroms)
 Number     Number       Type             X           Y           Z
 ---------------------------------------------------------------------
      1          7           0        1.300174   -1.247302   -0.043612
      2          1           0        2.296253   -1.304446    0.062618
      3          6           0        0.651331   -0.048267    0.004501
      4          1           0       -1.994682    1.323431    0.648560
      5          6           0        1.498642    1.191779    0.068923
      6          6           0       -0.714541    0.004520   -0.037405
      7          1           0        2.169425    1.255159   -0.798519
      8          1           0        0.872327    2.083843    0.083863
      9          1           0        2.127431    1.186361    0.970190
     10          8           0       -1.506269   -1.186929    0.141369
     11          1           0        0.754064   -2.092285   -0.007203
     12          8           0       -1.419335    1.209338   -0.139030
     13          1           0       -0.533797   -0.788413   -0.889046
 ---------------------------------------------------------------------
 Rotational constants (GHZ):      4.8499464      3.2865013      2.0139411
 Standard basis: 6-31G (6D, 7F)
 There are    68 symmetry adapted cartesian basis functions of A   symmetry.
 There are    68 symmetry adapted basis functions of A   symmetry.
    68 basis functions,   160 primitive gaussians,    68 cartesian basis functions
    24 alpha electrons       24 beta electrons
       nuclear repulsion energy       246.6196051103 Hartrees.
 NAtoms=   13 NActive=   13 NUniq=   13 SFac= 1.00D+00 NAtFMM=   60 NAOKFM=F Big=F
 Integral buffers will be    131072 words long.
 Raffenetti 2 integral format.
 Two-electron integral symmetry is turned on.
 One-electron integrals computed using PRISM.
 NBasis=    68 RedAO= T EigKep=  2.68D-03  NBF=    68
 NBsUse=    68 1.00D-06 EigRej= -1.00D+00 NBFU=    68
 Initial guess from the checkpoint file:  "Ala-S-opt-freq-ts3-6-31g.chk"
 B after Tr=     0.000000    0.000000    0.000000
         Rot=    0.999727   -0.002208   -0.001558    0.023207 Ang=  -2.68 deg.
 ExpMin= 1.61D-01 ExpMax= 5.48D+03 ExpMxC= 8.25D+02 IAcc=1 IRadAn=         1 AccDes= 0.00D+00
 Harris functional with IExCor=  402 and IRadAn=       1 diagonalized for initial guess.
 HarFok:  IExCor=  402 AccDes= 0.00D+00 IRadAn=         1 IDoV= 1 UseB2=F ITyADJ=14
 ICtDFT=  3500011 ScaDFX=  1.000000  1.000000  1.000000  1.000000
 FoFCou: FMM=F IPFlag=           0 FMFlag=      100000 FMFlg1=           0
         NFxFlg=           0 DoJE=T BraDBF=F KetDBF=T FulRan=T
         wScrn=  0.000000 ICntrl=     500 IOpCl=  0 I1Cent=   200000004 NGrid=           0
         NMat0=    1 NMatS0=      1 NMatT0=    0 NMatD0=    1 NMtDS0=    0 NMtDT0=    0
 Petite list used in FoFCou.
 Keep R1 ints in memory in canonical form, NReq=3676491.
 Requested convergence on RMS density matrix=1.00D-08 within 128 cycles.
 Requested convergence on MAX density matrix=1.00D-06.
 Requested convergence on             energy=1.00D-06.
 No special actions if energy rises.
 Integral accuracy reduced to 1.0D-05 until final iterations.
 EnCoef did     1 forward-backward iterations
 Initial convergence to 1.0D-05 achieved.  Increase integral accuracy.
 SCF Done:  E(RB3LYP) =  -323.481533286     A.U. after   15 cycles
            NFock= 15  Conv=0.48D-08     -V/T= 2.0049
 Calling FoFJK, ICntrl=      2127 FMM=F ISym2X=0 I1Cent= 0 IOpClX= 0 NMat=1 NMatS=1 NMatT=0.
 ***** Axes restored to original set *****
 -------------------------------------------------------------------
 Center     Atomic                   Forces (Hartrees/Bohr)
 Number     Number              X              Y              Z
 -------------------------------------------------------------------
      1        7           0.008274045    0.011078011   -0.005914127
      2        1           0.000863711   -0.000520538    0.002013238
      3        6           0.041230656   -0.028296280   -0.023936915
      4        1          -0.002172744    0.004901749    0.002784364
      5        6           0.001281632   -0.000029026    0.008480566
      6        6          -0.035030014    0.020871554   -0.001242088
      7        1           0.001158731   -0.001236705   -0.000316751
      8        1          -0.000463508    0.000619682   -0.000106168
      9        1          -0.001245633    0.001639051   -0.000418059
     10        8           0.010151907    0.000693007   -0.002070156
     11        1          -0.001004728    0.003456455   -0.005015117
     12        8           0.011654365   -0.006404285    0.000226786
     13        1          -0.034698419   -0.006772674    0.025514427
 -------------------------------------------------------------------
 Cartesian Forces:  Max     0.041230656 RMS     0.013691508

 GradGradGradGradGradGradGradGradGradGradGradGradGradGradGradGradGradGrad
 Berny optimization.
 FormGI is forming the generalized inverse of G from B-inverse, IUseBI=4.
 Internal  Forces:  Max     0.049402214 RMS     0.012516861
 Search for a saddle point.
 Step number   2 out of a maximum of   60
 All quantities printed in internal units (Hartrees-Bohrs-Radians)
 Swapping is turned off.
 Update second derivatives using D2CorX and points    1    2
 ITU=  0  0
     Eigenvalues ---   -0.13947  -0.00524  -0.00441   0.00130   0.00264
     Eigenvalues ---    0.00845   0.01411   0.03253   0.04544   0.06222
     Eigenvalues ---    0.06300   0.11587   0.12780   0.13187   0.14537
     Eigenvalues ---    0.14695   0.15438   0.16874   0.19558   0.21691
     Eigenvalues ---    0.22858   0.24711   0.33138   0.33398   0.34358
     Eigenvalues ---    0.35390   0.35832   0.38847   0.46612   0.47962
     Eigenvalues ---    0.49690   0.50214   0.67894
 Eigenvectors required to have negative eigenvalues:
                          A17       D13       D16       D19       D18
   1                   -0.57551   0.35324   0.33428  -0.32281   0.31124
                          A15       R12       D14       D11       A18
   1                    0.20863   0.20849  -0.18910  -0.17014   0.15026
 RFO step:  Lambda0=1.748448919D-06 Lambda=-4.52588208D-02.
 Linear search not attempted -- option 19 set.
 Maximum step size (   0.300) exceeded in Quadratic search.
    -- Step size scaled by   0.372
 Iteration  1 RMS(Cart)=  0.07796942 RMS(Int)=  0.00918178
 Iteration  2 RMS(Cart)=  0.01018373 RMS(Int)=  0.00281181
 Iteration  3 RMS(Cart)=  0.00016098 RMS(Int)=  0.00280897
 Iteration  4 RMS(Cart)=  0.00000158 RMS(Int)=  0.00280897
 Iteration  5 RMS(Cart)=  0.00000002 RMS(Int)=  0.00280897
 Variable       Old X    -DE/DX   Delta X   Delta X   Delta X     New X
                                 (Linear)    (Quad)   (Total)
    R1        1.89607   0.00063   0.00000   0.00108   0.00108   1.89715
    R2        2.57793   0.01600   0.00000  -0.04659  -0.04659   2.53134
    R3        1.90249   0.00375   0.00000   0.00386   0.00386   1.90635
    R4        2.84076  -0.00045   0.00000  -0.00257  -0.00257   2.83819
    R5        2.58427   0.04940   0.00000   0.03276   0.03276   2.61702
    R6        1.85573  -0.00179   0.00000   0.00060   0.00060   1.85633
    R7        2.07562   0.00046   0.00000   0.00047   0.00047   2.07610
    R8        2.05995  -0.00027   0.00000  -0.00029  -0.00029   2.05966
    R9        2.07671  -0.00039   0.00000  -0.00022  -0.00022   2.07649
   R10        2.72432  -0.00494   0.00000   0.06131   0.06131   2.78562
   R11        2.64470  -0.00294   0.00000   0.00482   0.00482   2.64952
   R12        2.22531   0.00920   0.00000  -0.08126  -0.08126   2.14405
    A1        2.11589  -0.00121   0.00000   0.01818   0.01789   2.13379
    A2        2.07931  -0.00041   0.00000   0.00394   0.00364   2.08296
    A3        2.06966   0.00122   0.00000  -0.01414  -0.01443   2.05523
    A4        2.04706  -0.00276   0.00000   0.01910   0.01896   2.06602
    A5        2.10354   0.00351   0.00000  -0.02541  -0.02552   2.07801
    A6        2.13227  -0.00073   0.00000   0.00562   0.00549   2.13776
    A7        1.93690   0.00335   0.00000   0.00368   0.00368   1.94058
    A8        1.93029  -0.00097   0.00000  -0.00340  -0.00340   1.92688
    A9        1.93220  -0.00350   0.00000   0.00097   0.00097   1.93317
   A10        1.89071  -0.00027   0.00000  -0.00048  -0.00047   1.89024
   A11        1.87396   0.00021   0.00000  -0.00186  -0.00186   1.87211
   A12        1.89815   0.00125   0.00000   0.00108   0.00108   1.89923
   A13        2.10926  -0.00097   0.00000  -0.01423  -0.01823   2.09103
   A14        2.13938  -0.01879   0.00000  -0.01261  -0.01490   2.12449
   A15        1.41301   0.04452   0.00000   0.22834   0.23485   1.64786
   A16        2.03076   0.01875   0.00000   0.01471   0.01153   2.04229
   A17        1.17827  -0.00980   0.00000  -0.01445  -0.00468   1.17360
   A18        2.21988  -0.03046   0.00000  -0.14355  -0.14747   2.07241
   A19        1.91435  -0.00473   0.00000   0.00574   0.00574   1.92009
    D1        0.11576  -0.00207   0.00000  -0.02738  -0.02746   0.08830
    D2       -3.05221  -0.00143   0.00000  -0.05646  -0.05642  -3.10864
    D3        3.05107  -0.00432   0.00000   0.01734   0.01730   3.06837
    D4       -0.11691  -0.00368   0.00000  -0.01174  -0.01166  -0.12856
    D5        1.02364  -0.00015   0.00000  -0.02249  -0.02269   1.00094
    D6        3.12253   0.00107   0.00000  -0.02293  -0.02313   3.09940
    D7       -1.05551  -0.00031   0.00000  -0.02318  -0.02338  -1.07889
    D8       -2.09111  -0.00087   0.00000   0.00760   0.00781  -2.08330
    D9        0.00779   0.00036   0.00000   0.00717   0.00737   0.01516
   D10        2.11294  -0.00102   0.00000   0.00691   0.00712   2.12005
   D11        0.22263   0.00482   0.00000   0.15804   0.15246   0.37508
   D12       -3.01585  -0.00701   0.00000   0.00415   0.00200  -3.01385
   D13       -0.77033  -0.01936   0.00000  -0.01793  -0.01069  -0.78102
   D14       -2.94666   0.00547   0.00000   0.12768   0.12243  -2.82424
   D15        0.09804  -0.00636   0.00000  -0.02621  -0.02803   0.07001
   D16        2.34356  -0.01871   0.00000  -0.04829  -0.04072   2.30284
   D17       -2.07559   0.00898   0.00000   0.23870   0.23592  -1.83966
   D18        0.97320  -0.00327   0.00000   0.08985   0.08796   1.06115
   D19        2.38333  -0.01475   0.00000   0.02663   0.03129   2.41462
         Item               Value     Threshold  Converged?
 Maximum Force            0.049402     0.000450     NO 
 RMS     Force            0.012517     0.000300     NO 
 Maximum Displacement     0.392393     0.001800     NO 
 RMS     Displacement     0.084527     0.001200     NO 
 Predicted change in Energy=-1.824272D-02
 GradGradGradGradGradGradGradGradGradGradGradGradGradGradGradGradGradGrad

                          Input orientation:                          
 ---------------------------------------------------------------------
 Center     Atomic      Atomic             Coordinates (Angstroms)
 Number     Number       Type             X           Y           Z
 ---------------------------------------------------------------------
      1          7           0        1.327752    1.275669    0.016917
      2          1           0        2.323347    1.377570   -0.062346
      3          6           0        0.727477    0.078410   -0.006993
      4          1           0       -1.753259   -1.447603   -0.653369
      5          6           0        1.588952   -1.151380   -0.041583
      6          6           0       -0.653995    0.016918    0.067922
      7          1           0        2.275235   -1.179663    0.815848
      8          1           0        0.971156   -2.048920   -0.015269
      9          1           0        2.203738   -1.170825   -0.952129
     10          8           0       -1.460888    1.194518   -0.299663
     11          1           0        0.741934    2.095860   -0.025263
     12          8           0       -1.331594   -1.203457    0.199601
     13          1           0       -0.729842    0.776389    0.907404
 ---------------------------------------------------------------------
                    Distance matrix (angstroms):
                    1          2          3          4          5
     1  N    0.000000
     2  H    1.003930   0.000000
     3  C    1.339527   2.058563   0.000000
     4  H    4.166309   4.994961   2.983383   0.000000
     5  C    2.441765   2.633507   1.501905   3.410631   0.000000
     6  C    2.348272   3.276112   1.384869   1.968112   2.531348
     7  H    2.750395   2.704252   2.157630   4.296412   1.098623
     8  H    3.343814   3.683948   2.141256   2.862026   1.089927
     9  H    2.773398   2.701914   2.152490   3.977900   1.098833
    10  O    2.807725   3.796085   2.473923   2.681677   3.856341
    11  H    1.008798   1.737291   2.017585   4.379114   3.355931
    12  O    3.640270   4.482065   2.434263   0.982327   2.930950
    13  H    2.296942   3.259417   1.856631   2.903366   3.161278
                    6          7          8          9         10
     6  C    0.000000
     7  H    3.251398   0.000000
     8  H    2.629776   1.773974   0.000000
     9  H    3.258508   1.769445   1.779891   0.000000
    10  O    1.474088   4.565053   4.063940   4.410220   0.000000
    11  H    2.505854   3.713156   4.151125   3.696915   2.395859
    12  O    1.402068   3.659172   2.462445   3.718349   2.452807
    13  H    1.134583   3.586783   3.424484   3.981884   1.471826
                   11         12         13
    11  H    0.000000
    12  O    3.903277   0.000000
    13  H    2.185634   2.186980   0.000000
 Stoichiometry    C3H7NO2
 Framework group  C1[X(C3H7NO2)]
 Deg. of freedom    33
 Full point group                 C1      NOp   1
 Largest Abelian subgroup         C1      NOp   1
 Largest concise Abelian subgroup C1      NOp   1
                         Standard orientation:                         
 ---------------------------------------------------------------------
 Center     Atomic      Atomic             Coordinates (Angstroms)
 Number     Number       Type             X           Y           Z
 ---------------------------------------------------------------------
      1          7           0        1.237524   -1.282660   -0.074709
      2          1           0        2.229505   -1.411329    0.010697
      3          6           0        0.664277   -0.074306    0.000123
      4          1           0       -1.789016    1.476180    0.691438
      5          6           0        1.552899    1.132082    0.103558
      6          6           0       -0.714422    0.022764   -0.087208
      7          1           0        2.250142    1.185462   -0.743776
      8          1           0        0.955965    2.043953    0.113594
      9          1           0        2.156721    1.093608    1.020811
     10          8           0       -1.552245   -1.152040    0.214165
     11          1           0        0.632802   -2.090106   -0.078650
     12          8           0       -1.362530    1.263449   -0.167527
     13          1           0       -0.797122   -0.693657   -0.963097
 ---------------------------------------------------------------------
 Rotational constants (GHZ):      4.7828748      3.2783991      2.0144403
 Standard basis: 6-31G (6D, 7F)
 There are    68 symmetry adapted cartesian basis functions of A   symmetry.
 There are    68 symmetry adapted basis functions of A   symmetry.
    68 basis functions,   160 primitive gaussians,    68 cartesian basis functions
    24 alpha electrons       24 beta electrons
       nuclear repulsion energy       245.8817647163 Hartrees.
 NAtoms=   13 NActive=   13 NUniq=   13 SFac= 1.00D+00 NAtFMM=   60 NAOKFM=F Big=F
 Integral buffers will be    131072 words long.
 Raffenetti 2 integral format.
 Two-electron integral symmetry is turned on.
 One-electron integrals computed using PRISM.
 NBasis=    68 RedAO= T EigKep=  2.49D-03  NBF=    68
 NBsUse=    68 1.00D-06 EigRej= -1.00D+00 NBFU=    68
 Initial guess from the checkpoint file:  "Ala-S-opt-freq-ts3-6-31g.chk"
 B after Tr=     0.000000    0.000000    0.000000
         Rot=    0.999767   -0.001174   -0.003150    0.021299 Ang=  -2.47 deg.
 ExpMin= 1.61D-01 ExpMax= 5.48D+03 ExpMxC= 8.25D+02 IAcc=1 IRadAn=         1 AccDes= 0.00D+00
 Harris functional with IExCor=  402 and IRadAn=       1 diagonalized for initial guess.
 HarFok:  IExCor=  402 AccDes= 0.00D+00 IRadAn=         1 IDoV= 1 UseB2=F ITyADJ=14
 ICtDFT=  3500011 ScaDFX=  1.000000  1.000000  1.000000  1.000000
 FoFCou: FMM=F IPFlag=           0 FMFlag=      100000 FMFlg1=           0
         NFxFlg=           0 DoJE=T BraDBF=F KetDBF=T FulRan=T
         wScrn=  0.000000 ICntrl=     500 IOpCl=  0 I1Cent=   200000004 NGrid=           0
         NMat0=    1 NMatS0=      1 NMatT0=    0 NMatD0=    1 NMtDS0=    0 NMtDT0=    0
 Petite list used in FoFCou.
 Keep R1 ints in memory in canonical form, NReq=3676491.
 Requested convergence on RMS density matrix=1.00D-08 within 128 cycles.
 Requested convergence on MAX density matrix=1.00D-06.
 Requested convergence on             energy=1.00D-06.
 No special actions if energy rises.
 Integral accuracy reduced to 1.0D-05 until final iterations.
 Initial convergence to 1.0D-05 achieved.  Increase integral accuracy.
 SCF Done:  E(RB3LYP) =  -323.497090189     A.U. after   15 cycles
            NFock= 15  Conv=0.72D-08     -V/T= 2.0050
 Calling FoFJK, ICntrl=      2127 FMM=F ISym2X=0 I1Cent= 0 IOpClX= 0 NMat=1 NMatS=1 NMatT=0.
 ***** Axes restored to original set *****
 -------------------------------------------------------------------
 Center     Atomic                   Forces (Hartrees/Bohr)
 Number     Number              X              Y              Z
 -------------------------------------------------------------------
      1        7           0.008289248    0.016650622   -0.005991769
      2        1           0.001709558   -0.000321440    0.002766931
      3        6           0.024008413   -0.032036819   -0.016567101
      4        1          -0.002943191    0.003664253    0.001812893
      5        6           0.001582699    0.000239020    0.005734459
      6        6          -0.026782167    0.025083973    0.004857435
      7        1           0.000757548   -0.000898574   -0.000193001
      8        1          -0.000479718    0.000619352    0.000086748
      9        1          -0.000854508    0.001075627   -0.000293787
     10        8           0.007708010   -0.002026134   -0.007033111
     11        1          -0.001969423    0.003155183   -0.004535935
     12        8           0.008170096   -0.008801769   -0.003900114
     13        1          -0.019196565   -0.006403293    0.023256351
 -------------------------------------------------------------------
 Cartesian Forces:  Max     0.032036819 RMS     0.011279526

 GradGradGradGradGradGradGradGradGradGradGradGradGradGradGradGradGradGrad
 Berny optimization.
 FormGI is forming the generalized inverse of G from B-inverse, IUseBI=4.
 Internal  Forces:  Max     0.033478960 RMS     0.008907188
 Search for a saddle point.
 Step number   3 out of a maximum of   60
 All quantities printed in internal units (Hartrees-Bohrs-Radians)
 Swapping is turned off.
 Update second derivatives using D2CorX and points    2    3
 ITU=  0  0  0
     Eigenvalues ---   -0.13724  -0.00785   0.00046   0.00144   0.00627
     Eigenvalues ---    0.01362   0.01484   0.03261   0.06096   0.06225
     Eigenvalues ---    0.06516   0.11674   0.12795   0.13183   0.14571
     Eigenvalues ---    0.14703   0.15417   0.16777   0.19670   0.20975
     Eigenvalues ---    0.22534   0.24968   0.33139   0.33403   0.34006
     Eigenvalues ---    0.35276   0.35805   0.39119   0.46615   0.47972
     Eigenvalues ---    0.49735   0.50297   0.67871
 Eigenvectors required to have negative eigenvalues:
                          A17       D13       D16       D19       D18
   1                    0.57781  -0.35938  -0.34866   0.31202  -0.27620
                          R12       D14       D11       A18       A15
   1                   -0.23656   0.22268   0.21196  -0.16277  -0.14874
 RFO step:  Lambda0=8.057839812D-04 Lambda=-2.37698697D-02.
 Linear search not attempted -- option 19 set.
 Maximum step size (   0.300) exceeded in Quadratic search.
    -- Step size scaled by   0.767
 Iteration  1 RMS(Cart)=  0.07583345 RMS(Int)=  0.03887651
 Iteration  2 RMS(Cart)=  0.03377800 RMS(Int)=  0.00419108
 Iteration  3 RMS(Cart)=  0.00174064 RMS(Int)=  0.00382981
 Iteration  4 RMS(Cart)=  0.00000886 RMS(Int)=  0.00382980
 Iteration  5 RMS(Cart)=  0.00000013 RMS(Int)=  0.00382980
 Variable       Old X    -DE/DX   Delta X   Delta X   Delta X     New X
                                 (Linear)    (Quad)   (Total)
    R1        1.89715   0.00144   0.00000   0.00337   0.00337   1.90052
    R2        2.53134   0.02087   0.00000   0.00427   0.00427   2.53561
    R3        1.90635   0.00390   0.00000   0.00723   0.00723   1.91358
    R4        2.83819  -0.00039   0.00000  -0.01107  -0.01107   2.82712
    R5        2.61702   0.03348   0.00000   0.02351   0.02351   2.64054
    R6        1.85633  -0.00122   0.00000   0.00037   0.00037   1.85670
    R7        2.07610   0.00034   0.00000   0.00136   0.00136   2.07746
    R8        2.05966  -0.00024   0.00000   0.00045   0.00045   2.06011
    R9        2.07649  -0.00025   0.00000  -0.00036  -0.00036   2.07613
   R10        2.78562  -0.00408   0.00000   0.05019   0.05019   2.83581
   R11        2.64952   0.00175   0.00000  -0.00346  -0.00346   2.64606
   R12        2.14405   0.01420   0.00000   0.05985   0.05985   2.20391
    A1        2.13379  -0.00046   0.00000   0.01023   0.01023   2.14402
    A2        2.08296   0.00009   0.00000   0.01387   0.01387   2.09682
    A3        2.05523   0.00018   0.00000  -0.02349  -0.02349   2.03175
    A4        2.06602  -0.00004   0.00000   0.03157   0.03145   2.09747
    A5        2.07801  -0.00149   0.00000  -0.05747  -0.05751   2.02050
    A6        2.13776   0.00155   0.00000   0.02462   0.02451   2.16226
    A7        1.94058   0.00236   0.00000   0.00856   0.00856   1.94914
    A8        1.92688  -0.00109   0.00000  -0.00981  -0.00980   1.91708
    A9        1.93317  -0.00223   0.00000   0.00237   0.00235   1.93552
   A10        1.89024  -0.00012   0.00000   0.00096   0.00098   1.89122
   A11        1.87211   0.00016   0.00000  -0.00224  -0.00226   1.86984
   A12        1.89923   0.00099   0.00000   0.00025   0.00024   1.89948
   A13        2.09103  -0.00431   0.00000  -0.06857  -0.07132   2.01971
   A14        2.12449  -0.01202   0.00000  -0.02012  -0.02834   2.09615
   A15        1.64786   0.02681   0.00000   0.24139   0.24490   1.89276
   A16        2.04229   0.01339   0.00000   0.04563   0.03829   2.08058
   A17        1.17360   0.00259   0.00000  -0.05190  -0.03816   1.13544
   A18        2.07241  -0.01762   0.00000  -0.06554  -0.07120   2.00121
   A19        1.92009  -0.00233   0.00000  -0.01676  -0.01676   1.90332
    D1        0.08830  -0.00266   0.00000  -0.10501  -0.10521  -0.01692
    D2       -3.10864  -0.00202   0.00000  -0.12945  -0.12925   3.04530
    D3        3.06837  -0.00402   0.00000  -0.09949  -0.09969   2.96868
    D4       -0.12856  -0.00338   0.00000  -0.12393  -0.12373  -0.25229
    D5        1.00094  -0.00001   0.00000   0.00051   0.00017   1.00111
    D6        3.09940   0.00066   0.00000   0.00081   0.00044   3.09984
    D7       -1.07889  -0.00028   0.00000  -0.00380  -0.00416  -1.08305
    D8       -2.08330  -0.00056   0.00000   0.02857   0.02895  -2.05435
    D9        0.01516   0.00011   0.00000   0.02887   0.02922   0.04438
   D10        2.12005  -0.00083   0.00000   0.02427   0.02461   2.14467
   D11        0.37508   0.00457   0.00000   0.09325   0.08389   0.45898
   D12       -3.01385  -0.00760   0.00000  -0.10685  -0.10739  -3.12124
   D13       -0.78102  -0.01504   0.00000  -0.00070   0.00846  -0.77256
   D14       -2.82424   0.00518   0.00000   0.06782   0.05895  -2.76528
   D15        0.07001  -0.00699   0.00000  -0.13228  -0.13233  -0.06231
   D16        2.30284  -0.01443   0.00000  -0.02612  -0.01648   2.28637
   D17       -1.83966   0.00597   0.00000  -0.15663  -0.15703  -1.99669
   D18        1.06115  -0.00814   0.00000  -0.36656  -0.37001   0.69114
   D19        2.41462  -0.00607   0.00000  -0.43510  -0.43126   1.98337
         Item               Value     Threshold  Converged?
 Maximum Force            0.033479     0.000450     NO 
 RMS     Force            0.008907     0.000300     NO 
 Maximum Displacement     0.384109     0.001800     NO 
 RMS     Displacement     0.099196     0.001200     NO 
 Predicted change in Energy=-1.679678D-02
 GradGradGradGradGradGradGradGradGradGradGradGradGradGradGradGradGradGrad

                          Input orientation:                          
 ---------------------------------------------------------------------
 Center     Atomic      Atomic             Coordinates (Angstroms)
 Number     Number       Type             X           Y           Z
 ---------------------------------------------------------------------
      1          7           0        1.316611    1.269682   -0.000280
      2          1           0        2.310950    1.420092   -0.011530
      3          6           0        0.765605    0.046254   -0.003633
      4          1           0       -1.863308   -1.301190   -0.627774
      5          6           0        1.635470   -1.170150   -0.046689
      6          6           0       -0.624268    0.005673    0.134515
      7          1           0        2.343704   -1.192865    0.793814
      8          1           0        1.018734   -2.067896   -0.000377
      9          1           0        2.229028   -1.194940   -0.970856
     10          8           0       -1.361317    1.225558   -0.335151
     11          1           0        0.682983    2.049389   -0.126671
     12          8           0       -1.291075   -1.225162    0.167286
     13          1           0       -0.933104    0.749043    0.978422
 ---------------------------------------------------------------------
                    Distance matrix (angstroms):
                    1          2          3          4          5
     1  N    0.000000
     2  H    1.005714   0.000000
     3  C    1.341788   2.067748   0.000000
     4  H    4.137030   5.020912   3.019328   0.000000
     5  C    2.461017   2.677100   1.496048   3.549123   0.000000
     6  C    2.320108   3.261505   1.397312   1.955555   2.553784
     7  H    2.783818   2.734446   2.159105   4.442025   1.099344
     8  H    3.350844   3.719678   2.129252   3.047561   1.090163
     9  H    2.801586   2.786649   2.148881   4.108066   1.098640
    10  O    2.699145   3.691628   2.454477   2.592697   3.847513
    11  H    1.012622   1.749157   2.008610   4.238051   3.358431
    12  O    3.612804   4.472575   2.423973   0.982522   2.934872
    13  H    2.508015   3.457485   2.084216   2.765610   3.366263
                    6          7          8          9         10
     6  C    0.000000
     7  H    3.268031   0.000000
     8  H    2.649027   1.775377   0.000000
     9  H    3.287038   1.768393   1.780082   0.000000
    10  O    1.500649   4.566236   4.077199   4.376472   0.000000
    11  H    2.440061   3.757326   4.132882   3.691690   2.213893
    12  O    1.400236   3.688522   2.464453   3.699649   2.502680
    13  H    1.166257   3.813470   3.564107   4.192592   1.461474
                   11         12         13
    11  H    0.000000
    12  O    3.834840   0.000000
    13  H    2.350291   2.164156   0.000000
 Stoichiometry    C3H7NO2
 Framework group  C1[X(C3H7NO2)]
 Deg. of freedom    33
 Full point group                 C1      NOp   1
 Largest Abelian subgroup         C1      NOp   1
 Largest concise Abelian subgroup C1      NOp   1
                         Standard orientation:                         
 ---------------------------------------------------------------------
 Center     Atomic      Atomic             Coordinates (Angstroms)
 Number     Number       Type             X           Y           Z
 ---------------------------------------------------------------------
      1          7           0        1.142477   -1.328822   -0.074743
      2          1           0        2.125126   -1.542610   -0.062274
      3          6           0        0.669667   -0.074849   -0.008423
      4          1           0       -1.877124    1.400753    0.664475
      5          6           0        1.613812    1.079493    0.110913
      6          6           0       -0.712940    0.061671   -0.157553
      7          1           0        2.333111    1.103366   -0.720108
      8          1           0        1.055541    2.015861    0.108826
      9          1           0        2.195492    1.015483    1.040731
     10          8           0       -1.531538   -1.132850    0.236102
     11          1           0        0.459359   -2.072393    0.001768
     12          8           0       -1.300367    1.332387   -0.128007
     13          1           0       -1.056832   -0.612893   -1.044603
 ---------------------------------------------------------------------
 Rotational constants (GHZ):      4.6791129      3.3467946      2.0263790
 Standard basis: 6-31G (6D, 7F)
 There are    68 symmetry adapted cartesian basis functions of A   symmetry.
 There are    68 symmetry adapted basis functions of A   symmetry.
    68 basis functions,   160 primitive gaussians,    68 cartesian basis functions
    24 alpha electrons       24 beta electrons
       nuclear repulsion energy       245.5012968073 Hartrees.
 NAtoms=   13 NActive=   13 NUniq=   13 SFac= 1.00D+00 NAtFMM=   60 NAOKFM=F Big=F
 Integral buffers will be    131072 words long.
 Raffenetti 2 integral format.
 Two-electron integral symmetry is turned on.
 One-electron integrals computed using PRISM.
 NBasis=    68 RedAO= T EigKep=  2.68D-03  NBF=    68
 NBsUse=    68 1.00D-06 EigRej= -1.00D+00 NBFU=    68
 Initial guess from the checkpoint file:  "Ala-S-opt-freq-ts3-6-31g.chk"
 B after Tr=     0.000000    0.000000    0.000000
         Rot=    0.999820   -0.003808   -0.002866    0.018356 Ang=  -2.17 deg.
 ExpMin= 1.61D-01 ExpMax= 5.48D+03 ExpMxC= 8.25D+02 IAcc=1 IRadAn=         1 AccDes= 0.00D+00
 Harris functional with IExCor=  402 and IRadAn=       1 diagonalized for initial guess.
 HarFok:  IExCor=  402 AccDes= 0.00D+00 IRadAn=         1 IDoV= 1 UseB2=F ITyADJ=14
 ICtDFT=  3500011 ScaDFX=  1.000000  1.000000  1.000000  1.000000
 FoFCou: FMM=F IPFlag=           0 FMFlag=      100000 FMFlg1=           0
         NFxFlg=           0 DoJE=T BraDBF=F KetDBF=T FulRan=T
         wScrn=  0.000000 ICntrl=     500 IOpCl=  0 I1Cent=   200000004 NGrid=           0
         NMat0=    1 NMatS0=      1 NMatT0=    0 NMatD0=    1 NMtDS0=    0 NMtDT0=    0
 Petite list used in FoFCou.
 Keep R1 ints in memory in canonical form, NReq=3676491.
 Requested convergence on RMS density matrix=1.00D-08 within 128 cycles.
 Requested convergence on MAX density matrix=1.00D-06.
 Requested convergence on             energy=1.00D-06.
 No special actions if energy rises.
 Integral accuracy reduced to 1.0D-05 until final iterations.
 Initial convergence to 1.0D-05 achieved.  Increase integral accuracy.
 SCF Done:  E(RB3LYP) =  -323.508704968     A.U. after   15 cycles
            NFock= 15  Conv=0.79D-08     -V/T= 2.0052
 Calling FoFJK, ICntrl=      2127 FMM=F ISym2X=0 I1Cent= 0 IOpClX= 0 NMat=1 NMatS=1 NMatT=0.
 ***** Axes restored to original set *****
 -------------------------------------------------------------------
 Center     Atomic                   Forces (Hartrees/Bohr)
 Number     Number              X              Y              Z
 -------------------------------------------------------------------
      1        7           0.008424253    0.007577081   -0.009234743
      2        1           0.001100712   -0.000521778    0.000981179
      3        6           0.013221932   -0.011341956    0.002298162
      4        1          -0.001450121    0.000876573    0.001494735
      5        6           0.001193189   -0.000724299    0.004491029
      6        6          -0.019174780    0.028789164    0.008086825
      7        1           0.000224126   -0.000431134   -0.000205798
      8        1          -0.000289213    0.000179098   -0.000031164
      9        1          -0.000829722    0.001089451   -0.000065007
     10        8           0.000373603   -0.006272581   -0.003220353
     11        1          -0.002692951    0.001212826   -0.001225904
     12        8          -0.001261021   -0.007650344   -0.008180808
     13        1           0.001159995   -0.012782102    0.004811846
 -------------------------------------------------------------------
 Cartesian Forces:  Max     0.028789164 RMS     0.007495704

 GradGradGradGradGradGradGradGradGradGradGradGradGradGradGradGradGradGrad
 Berny optimization.
 FormGI is forming the generalized inverse of G from B-inverse, IUseBI=4.
 Internal  Forces:  Max     0.020453184 RMS     0.004723556
 Search for a saddle point.
 Step number   4 out of a maximum of   60
 All quantities printed in internal units (Hartrees-Bohrs-Radians)
 Swapping is turned off.
 Update second derivatives using D2CorX and points    3    4
 ITU=  0  0  0  0
     Eigenvalues ---   -0.13215  -0.00677   0.00139   0.00259   0.01038
     Eigenvalues ---    0.01373   0.01674   0.03049   0.06213   0.06246
     Eigenvalues ---    0.06948   0.11662   0.12805   0.13135   0.14561
     Eigenvalues ---    0.14698   0.15301   0.16198   0.19756   0.19935
     Eigenvalues ---    0.22249   0.25001   0.33136   0.33218   0.33560
     Eigenvalues ---    0.35215   0.35792   0.39116   0.46614   0.47937
     Eigenvalues ---    0.49729   0.50235   0.68134
 Eigenvectors required to have negative eigenvalues:
                          A17       D13       D16       D18       D14
   1                    0.56534  -0.36896  -0.36405  -0.32981   0.24183
                          D19       D11       R12       A18       D17
   1                    0.24133   0.23692  -0.22961  -0.14507  -0.11867
 RFO step:  Lambda0=1.956618604D-03 Lambda=-7.42389727D-03.
 Linear search not attempted -- option 19 set.
 Iteration  1 RMS(Cart)=  0.09251796 RMS(Int)=  0.05649637
 Iteration  2 RMS(Cart)=  0.04385270 RMS(Int)=  0.00781003
 Iteration  3 RMS(Cart)=  0.00605506 RMS(Int)=  0.00099315
 Iteration  4 RMS(Cart)=  0.00008319 RMS(Int)=  0.00098918
 Iteration  5 RMS(Cart)=  0.00000004 RMS(Int)=  0.00098918
 Variable       Old X    -DE/DX   Delta X   Delta X   Delta X     New X
                                 (Linear)    (Quad)   (Total)
    R1        1.90052   0.00100   0.00000  -0.00060  -0.00060   1.89992
    R2        2.53561   0.01032   0.00000   0.01162   0.01162   2.54723
    R3        1.91358   0.00277   0.00000   0.00230   0.00230   1.91587
    R4        2.82712  -0.00004   0.00000   0.00294   0.00294   2.83006
    R5        2.64054   0.02045   0.00000   0.00779   0.00779   2.64833
    R6        1.85670  -0.00043   0.00000  -0.00028  -0.00028   1.85642
    R7        2.07746  -0.00001   0.00000  -0.00116  -0.00116   2.07630
    R8        2.06011   0.00002   0.00000  -0.00079  -0.00079   2.05932
    R9        2.07613  -0.00042   0.00000  -0.00118  -0.00118   2.07495
   R10        2.83581  -0.00427   0.00000  -0.01820  -0.01820   2.81761
   R11        2.64606   0.00708   0.00000   0.02369   0.02369   2.66975
   R12        2.20391  -0.00497   0.00000   0.04135   0.04135   2.24526
    A1        2.14402   0.00001   0.00000  -0.00752  -0.00944   2.13458
    A2        2.09682   0.00131   0.00000   0.01492   0.01300   2.10983
    A3        2.03175  -0.00134   0.00000   0.00824   0.00632   2.03807
    A4        2.09747  -0.00254   0.00000  -0.00311  -0.00343   2.09403
    A5        2.02050   0.00575   0.00000   0.02513   0.02482   2.04532
    A6        2.16226  -0.00310   0.00000  -0.01863  -0.01897   2.14329
    A7        1.94914   0.00130   0.00000   0.00098   0.00097   1.95011
    A8        1.91708  -0.00032   0.00000  -0.00193  -0.00195   1.91513
    A9        1.93552  -0.00208   0.00000  -0.01263  -0.01266   1.92286
   A10        1.89122  -0.00003   0.00000   0.00816   0.00815   1.89937
   A11        1.86984   0.00042   0.00000   0.00485   0.00484   1.87469
   A12        1.89948   0.00076   0.00000   0.00118   0.00113   1.90061
   A13        2.01971   0.00521   0.00000   0.05017   0.05053   2.07024
   A14        2.09615  -0.00512   0.00000  -0.03362  -0.03495   2.06120
   A15        1.89276   0.00460   0.00000   0.00249   0.00067   1.89343
   A16        2.08058  -0.00290   0.00000  -0.01443  -0.01322   2.06736
   A17        1.13544   0.00668   0.00000  -0.14889  -0.14559   0.98984
   A18        2.00121  -0.00188   0.00000   0.12040   0.11968   2.12089
   A19        1.90332   0.00018   0.00000  -0.03587  -0.03587   1.86745
    D1       -0.01692  -0.00138   0.00000  -0.06481  -0.06516  -0.08207
    D2        3.04530  -0.00003   0.00000  -0.02030  -0.02001   3.02529
    D3        2.96868  -0.00145   0.00000   0.05090   0.05062   3.01930
    D4       -0.25229  -0.00010   0.00000   0.09541   0.09576  -0.15653
    D5        1.00111   0.00072   0.00000   0.05598   0.05571   1.05682
    D6        3.09984   0.00131   0.00000   0.06557   0.06529  -3.11806
    D7       -1.08305   0.00072   0.00000   0.05768   0.05742  -1.02563
    D8       -2.05435  -0.00117   0.00000   0.00554   0.00581  -2.04855
    D9        0.04438  -0.00058   0.00000   0.01513   0.01538   0.05976
   D10        2.14467  -0.00117   0.00000   0.00724   0.00752   2.15218
   D11        0.45898   0.00023   0.00000  -0.21395  -0.21433   0.24464
   D12       -3.12124  -0.00708   0.00000  -0.21169  -0.21159   2.95036
   D13       -0.77256  -0.01006   0.00000  -0.05663  -0.05658  -0.82914
   D14       -2.76528   0.00168   0.00000  -0.16670  -0.16694  -2.93222
   D15       -0.06231  -0.00562   0.00000  -0.16444  -0.16419  -0.22651
   D16        2.28637  -0.00860   0.00000  -0.00939  -0.00918   2.27718
   D17       -1.99669   0.00036   0.00000  -0.37904  -0.37757  -2.37426
   D18        0.69114  -0.00522   0.00000  -0.36097  -0.35895   0.33219
   D19        1.98337   0.00096   0.00000  -0.48836  -0.49185   1.49152
         Item               Value     Threshold  Converged?
 Maximum Force            0.020453     0.000450     NO 
 RMS     Force            0.004724     0.000300     NO 
 Maximum Displacement     0.381058     0.001800     NO 
 RMS     Displacement     0.106694     0.001200     NO 
 Predicted change in Energy=-4.927191D-03
 GradGradGradGradGradGradGradGradGradGradGradGradGradGradGradGradGradGrad

                          Input orientation:                          
 ---------------------------------------------------------------------
 Center     Atomic      Atomic             Coordinates (Angstroms)
 Number     Number       Type             X           Y           Z
 ---------------------------------------------------------------------
      1          7           0        1.331119    1.271381   -0.074957
      2          1           0        2.325773    1.417586   -0.064559
      3          6           0        0.782902    0.042271    0.000374
      4          1           0       -2.019465   -1.157176   -0.600028
      5          6           0        1.661560   -1.170482   -0.002367
      6          6           0       -0.611382   -0.030655    0.121526
      7          1           0        2.353839   -1.173242    0.850832
      8          1           0        1.047500   -2.069743    0.040116
      9          1           0        2.267804   -1.196752   -0.917470
     10          8           0       -1.417248    1.192757   -0.155918
     11          1           0        0.691587    2.051041   -0.179802
     12          8           0       -1.227743   -1.292291   -0.034361
     13          1           0       -0.956232    0.728794    0.967690
 ---------------------------------------------------------------------
                    Distance matrix (angstroms):
                    1          2          3          4          5
     1  N    0.000000
     2  H    1.005395   0.000000
     3  C    1.347935   2.067887   0.000000
     4  H    4.171331   5.079096   3.106834   0.000000
     5  C    2.465189   2.672666   1.497604   3.729252   0.000000
     6  C    2.346745   3.280077   1.401436   1.942264   2.545746
     7  H    2.806995   2.747929   2.160693   4.607715   1.098729
     8  H    3.355114   3.715697   2.128896   3.263256   1.089745
     9  H    2.771080   2.750560   2.140689   4.299188   1.098015
    10  O    2.750684   3.750880   2.487710   2.466188   3.884268
    11  H    1.013836   1.756448   2.018900   4.221262   3.369057
    12  O    3.622408   4.468984   2.413494   0.982374   2.892046
    13  H    2.571671   3.508779   2.105137   2.673029   3.376551
                    6          7          8          9         10
     6  C    0.000000
     7  H    3.260356   0.000000
     8  H    2.629904   1.779746   0.000000
     9  H    3.275516   1.770550   1.779952   0.000000
    10  O    1.491017   4.564273   4.093570   4.457502   0.000000
    11  H    2.474264   3.771112   4.141969   3.684668   2.276930
    12  O    1.412773   3.691269   2.405558   3.606641   2.495226
    13  H    1.188140   3.819419   3.564708   4.201900   1.300113
                   11         12         13
    11  H    0.000000
    12  O    3.857830   0.000000
    13  H    2.404243   2.272137   0.000000
 Stoichiometry    C3H7NO2
 Framework group  C1[X(C3H7NO2)]
 Deg. of freedom    33
 Full point group                 C1      NOp   1
 Largest Abelian subgroup         C1      NOp   1
 Largest concise Abelian subgroup C1      NOp   1
                         Standard orientation:                         
 ---------------------------------------------------------------------
 Center     Atomic      Atomic             Coordinates (Angstroms)
 Number     Number       Type             X           Y           Z
 ---------------------------------------------------------------------
      1          7           0        1.146820   -1.351669    0.045551
      2          1           0        2.130449   -1.559737    0.045310
      3          6           0        0.677493   -0.089694   -0.018315
      4          1           0       -2.052220    1.274406    0.565052
      5          6           0        1.630070    1.065475    0.013315
      6          6           0       -0.707779    0.072128   -0.155640
      7          1           0        2.332452    1.036839   -0.831106
      8          1           0        1.073995    2.001945   -0.023422
      9          1           0        2.224550    1.040864    0.936149
     10          8           0       -1.592104   -1.102171    0.093607
     11          1           0        0.458501   -2.091129    0.130878
     12          8           0       -1.246153    1.367585    0.011308
     13          1           0       -1.088110   -0.652271   -1.017192
 ---------------------------------------------------------------------
 Rotational constants (GHZ):      4.7118883      3.3202818      2.0004923
 Standard basis: 6-31G (6D, 7F)
 There are    68 symmetry adapted cartesian basis functions of A   symmetry.
 There are    68 symmetry adapted basis functions of A   symmetry.
    68 basis functions,   160 primitive gaussians,    68 cartesian basis functions
    24 alpha electrons       24 beta electrons
       nuclear repulsion energy       245.1212062467 Hartrees.
 NAtoms=   13 NActive=   13 NUniq=   13 SFac= 1.00D+00 NAtFMM=   60 NAOKFM=F Big=F
 Integral buffers will be    131072 words long.
 Raffenetti 2 integral format.
 Two-electron integral symmetry is turned on.
 One-electron integrals computed using PRISM.
 NBasis=    68 RedAO= T EigKep=  2.71D-03  NBF=    68
 NBsUse=    68 1.00D-06 EigRej= -1.00D+00 NBFU=    68
 Initial guess from the checkpoint file:  "Ala-S-opt-freq-ts3-6-31g.chk"
 B after Tr=     0.000000    0.000000    0.000000
         Rot=    0.999972    0.000798    0.001716    0.007200 Ang=   0.85 deg.
[...]
 Vib (V=0)    3  0.151157D+01          0.179427          0.413146
 Vib (V=0)    4  0.144123D+01          0.158733          0.365495
 Vib (V=0)    5  0.127497D+01          0.105499          0.242919
 Vib (V=0)    6  0.118596D+01          0.074069          0.170550
 Vib (V=0)    7  0.113100D+01          0.053464          0.123106
 Vib (V=0)    8  0.111152D+01          0.045918          0.105729
 Vib (V=0)    9  0.107656D+01          0.032036          0.073767
 Vib (V=0)   10  0.105420D+01          0.022925          0.052786
 Electronic      0.100000D+01          0.000000          0.000000
 Translational   0.330285D+08          7.518889         17.312882
 Rotational      0.154689D+06          5.189460         11.949172
 ***** Axes restored to original set *****
 -------------------------------------------------------------------
 Center     Atomic                   Forces (Hartrees/Bohr)
 Number     Number              X              Y              Z
 -------------------------------------------------------------------
      1        7           0.000011235    0.000008638   -0.000051574
      2        1          -0.000001066   -0.000002856    0.000024766
      3        6          -0.000009461   -0.000011693    0.000030226
      4        1           0.000004997    0.000017372   -0.000006637
      5        6          -0.000003640   -0.000007769   -0.000000444
      6        6          -0.000054758    0.000006335   -0.000032531
      7        1           0.000001656   -0.000000936   -0.000003826
      8        1          -0.000001329    0.000001358    0.000000112
      9        1          -0.000001596    0.000002181   -0.000003819
     10        8           0.000012699    0.000024582    0.000005690
     11        1          -0.000005780    0.000006809    0.000013424
     12        8           0.000021156   -0.000025747    0.000012487
     13        1           0.000025886   -0.000018275    0.000012126
 -------------------------------------------------------------------
 Cartesian Forces:  Max     0.000054758 RMS     0.000018034
 FormGI is forming the generalized inverse of G from B-inverse, IUseBI=4.

 GradGradGradGradGradGradGradGradGradGradGradGradGradGradGradGradGradGrad
 Berny optimization.
 Internal  Forces:  Max     0.000033419 RMS     0.000010861
 Search for a saddle point.
 Step number   1 out of a maximum of    2
 All quantities printed in internal units (Hartrees-Bohrs-Radians)
 Swapping is turned off.
 Second derivative matrix not updated -- analytic derivatives used.
 ITU=  0
     Eigenvalues ---   -0.13483   0.00049   0.00210   0.00856   0.01269
     Eigenvalues ---    0.02020   0.02612   0.03421   0.06154   0.06203
     Eigenvalues ---    0.07214   0.10733   0.12743   0.13044   0.14207
     Eigenvalues ---    0.14652   0.15277   0.15544   0.20415   0.20933
     Eigenvalues ---    0.22492   0.24001   0.30018   0.33104   0.33422
     Eigenvalues ---    0.35238   0.35842   0.38152   0.45787   0.48627
     Eigenvalues ---    0.48982   0.49175   0.54823
 Eigenvectors required to have negative eigenvalues:
                          A17       R12       D19       D18       D13
   1                   -0.52989   0.38419  -0.33115   0.30010   0.29074
                          D16       D14       D11       A15       R5
   1                    0.28402  -0.26286  -0.25614   0.11996  -0.11878
 Angle between quadratic step and forces=  72.43 degrees.
 Linear search not attempted -- option 19 set.
 Iteration  1 RMS(Cart)=  0.00166188 RMS(Int)=  0.00000242
 Iteration  2 RMS(Cart)=  0.00000246 RMS(Int)=  0.00000036
 Iteration  3 RMS(Cart)=  0.00000000 RMS(Int)=  0.00000036
 Variable       Old X    -DE/DX   Delta X   Delta X   Delta X     New X
                                 (Linear)    (Quad)   (Total)
    R1        1.90052   0.00000   0.00000   0.00002   0.00002   1.90054
    R2        2.56969   0.00001   0.00000   0.00008   0.00008   2.56977
    R3        1.91354   0.00001   0.00000  -0.00001  -0.00001   1.91353
    R4        2.82747   0.00000   0.00000   0.00000   0.00000   2.82746
    R5        2.64000  -0.00001   0.00000  -0.00006  -0.00006   2.63995
    R6        1.84665   0.00000   0.00000   0.00001   0.00001   1.84666
    R7        2.07691   0.00000   0.00000  -0.00001  -0.00001   2.07689
    R8        2.06007   0.00000   0.00000   0.00000   0.00000   2.06007
    R9        2.07578   0.00000   0.00000   0.00002   0.00002   2.07580
   R10        2.78043   0.00001   0.00000  -0.00008  -0.00008   2.78035
   R11        2.66664   0.00000   0.00000  -0.00004  -0.00004   2.66661
   R12        2.30308  -0.00001   0.00000   0.00016   0.00016   2.30324
    A1        2.13839   0.00000   0.00000  -0.00005  -0.00005   2.13834
    A2        2.10322   0.00000   0.00000  -0.00007  -0.00007   2.10315
    A3        2.04122   0.00000   0.00000   0.00004   0.00004   2.04126
    A4        2.09475   0.00000   0.00000  -0.00003  -0.00003   2.09472
    A5        2.03663  -0.00001   0.00000   0.00008   0.00008   2.03672
    A6        2.15093   0.00000   0.00000  -0.00004  -0.00004   2.15089
    A7        1.95092   0.00000   0.00000  -0.00001  -0.00001   1.95090
    A8        1.92528   0.00000   0.00000   0.00008   0.00008   1.92536
    A9        1.92424   0.00000   0.00000  -0.00005  -0.00005   1.92418
   A10        1.90039   0.00000   0.00000   0.00005   0.00005   1.90044
   A11        1.87444   0.00000   0.00000   0.00001   0.00001   1.87445
   A12        1.88673   0.00000   0.00000  -0.00007  -0.00007   1.88665
   A13        2.08732  -0.00003   0.00000   0.00008   0.00008   2.08741
   A14        2.05666  -0.00001   0.00000   0.00013   0.00013   2.05679
   A15        1.93040  -0.00002   0.00000  -0.00049  -0.00049   1.92990
   A16        2.04426   0.00003   0.00000   0.00013   0.00013   2.04439
   A17        1.02891   0.00001   0.00000  -0.00009  -0.00009   1.02881
   A18        2.07640   0.00001   0.00000  -0.00001  -0.00001   2.07639
   A19        1.87745  -0.00002   0.00000  -0.00018  -0.00018   1.87727
    D1       -0.16607  -0.00002   0.00000  -0.00278  -0.00278  -0.16886
    D2        2.93200  -0.00002   0.00000  -0.00241  -0.00241   2.92959
    D3        3.00385   0.00001   0.00000   0.00040   0.00040   3.00424
    D4       -0.18127   0.00001   0.00000   0.00077   0.00077  -0.18049
    D5        0.92333   0.00000   0.00000  -0.00303  -0.00303   0.92031
    D6        3.04043   0.00000   0.00000  -0.00292  -0.00292   3.03751
    D7       -1.16025   0.00000   0.00000  -0.00299  -0.00299  -1.16324
    D8       -2.17177   0.00000   0.00000  -0.00344  -0.00344  -2.17520
    D9       -0.05467   0.00000   0.00000  -0.00333  -0.00333  -0.05800
   D10        2.02784   0.00000   0.00000  -0.00340  -0.00340   2.02444
   D11        0.13370  -0.00001   0.00000  -0.00080  -0.00080   0.13290
   D12        2.80833   0.00000   0.00000   0.00003   0.00003   2.80836
   D13       -1.00349  -0.00001   0.00000  -0.00048  -0.00048  -1.00397
   D14       -3.05295  -0.00001   0.00000  -0.00041  -0.00041  -3.05335
   D15       -0.37832   0.00000   0.00000   0.00042   0.00042  -0.37790
   D16        2.09304  -0.00001   0.00000  -0.00009  -0.00009   2.09296
   D17       -3.03580   0.00000   0.00000   0.00164   0.00164  -3.03416
   D18       -0.34961  -0.00001   0.00000   0.00243   0.00243  -0.34718
   D19        0.83274   0.00003   0.00000   0.00237   0.00237   0.83510
         Item               Value     Threshold  Converged?
 Maximum Force            0.000033     0.000450     YES
 RMS     Force            0.000011     0.000300     YES
 Maximum Displacement     0.005905     0.001800     NO 
 RMS     Displacement     0.001662     0.001200     NO 
 Predicted change in Energy=-1.106877D-07
 GradGradGradGradGradGradGradGradGradGradGradGradGradGradGradGradGradGrad


 Test job not archived.
 1\1\GINC-KALI\Freq\RB3LYP\6-31G\C3H7N1O2\ROOT\03-Apr-2016\0\\#N Geom=A
 llCheck Guess=TCheck SCRF=Check Test GenChk RB3LYP/6-31G Freq\\Ala-S-o
 pt-freq-ts3-6-31g\\0,1\N,1.3471472421,1.282134745,-0.0886418747\H,2.33
 03925958,1.4456986214,0.0452736185\C,0.7989011321,0.0388890404,-0.0349
 906107\H,-2.1756024449,-1.1048009386,-0.334425403\C,1.6826420796,-1.16
 72996122,0.0180827141\C,-0.5952805564,-0.0302173612,0.0213641129\H,2.4
 196507847,-1.0974146507,0.8303943447\H,1.0853052931,-2.0680847402,0.16
 01604468\H,2.239787918,-1.2721227605,-0.9227730908\O,-1.3910853407,1.1
 954197826,-0.1499599683\H,0.714108964,2.0564761985,-0.2468162499\O,-1.
 2093564676,-1.2506995204,-0.3316448426\H,-1.0165979198,0.5855092658,0.
 9850528829\\Version=ES64L-G09RevD.01\State=1-A\HF=-323.513536\RMSD=3.4
 87e-09\RMSF=1.803e-05\ZeroPoint=0.101324\Thermal=0.1085873\Dipole=1.29
 73458,-0.0527361,0.4747093\DipoleDeriv=-0.6476256,-0.1603125,0.1437672
 ,-0.8842244,-0.734377,0.0597204,0.1139022,-0.0159703,-0.7358389,0.2005
 612,0.014373,-0.040434,0.0008188,0.2204269,0.0270871,-0.0969206,0.0206
 371,0.3821055,0.9834805,0.0627615,-0.2082788,0.7753301,0.5793312,-0.08
 43907,-0.29183,-0.1149826,0.1653851,0.2239446,0.0633072,0.0078024,0.19
 73256,0.3057713,-0.0298426,0.0458596,-0.0332955,0.384644,0.0557983,0.0
 758673,0.0341253,-0.0682978,-0.0700089,0.0070962,0.1149608,-0.0279957,
 0.1120524,-0.1801797,0.2741238,0.2020774,0.7038212,0.704759,0.2283309,
 1.3085677,0.1616306,0.0132977,-0.0739285,0.0319449,-0.1086991,0.002054
 9,0.0415975,-0.0466597,-0.1511442,0.0058156,-0.0311151,0.0709595,-0.07
 76444,0.0131975,-0.0199208,0.001719,0.0158799,0.0077007,0.028102,0.103
 1764,-0.0245508,0.0555967,0.0851672,0.055323,0.0510306,0.0139467,0.103
 7593,-0.0123917,-0.0538606,-0.8342421,0.1246289,0.057491,0.5899692,-0.
 739712,-0.153069,-0.8438978,0.1815026,-0.3230543,0.1003083,0.0559939,-
 0.0119855,0.0204921,0.2287578,0.0003633,0.0224126,0.0048895,0.3749713,
 -0.4451604,-0.3301633,-0.1274655,-0.6248338,-0.8552752,-0.0948321,-0.3
 775127,-0.0931476,-0.5134273,0.5706344,-0.190477,-0.0467651,-0.7478581
 ,0.2659797,0.0563696,0.0441423,-0.1047939,0.1216637\Polar=73.2326529,-
 2.2377311,49.8306322,-0.6569367,0.7277535,27.9219148\PG=C01 [X(C3H7N1O
 2)]\NImag=1\\0.87948833,0.01012939,0.76523130,0.10319104,-0.07049057,0
 .06996848,-0.45200599,-0.05735442,-0.05933385,0.46852292,-0.05607687,-
 0.08423724,0.00091942,0.06783115,0.07768223,-0.06186670,0.00032787,-0.
 01578827,0.06185863,0.00180722,0.01699151,-0.17852020,-0.08537771,-0.0
 0670051,-0.01031514,-0.03929817,-0.00027088,0.74752792,-0.09914706,-0.
 34663108,0.01443710,0.00111827,-0.00133007,-0.00036566,0.02983892,0.70
 599573,-0.00188579,0.00785539,-0.04531362,0.00023467,-0.00464858,-0.00
 266364,0.01873127,-0.01056128,0.16833959,0.00077324,0.00274674,-0.0006
 6247,-0.00005859,-0.00016047,0.00026551,-0.00158469,-0.00366955,-0.000
 29244,0.47977361,-0.00103594,0.00178420,-0.00009595,-0.00026906,-0.000
 49492,0.00021155,-0.00211977,-0.00864859,-0.00120740,-0.04633149,0.052
 67748,0.00010166,0.00040492,0.00106465,-0.00002138,0.00011070,0.000759
 67,0.00123220,-0.00015599,-0.00040269,0.00821087,0.01327472,0.00738519
 ,0.01438593,-0.01298209,0.00008308,0.00114959,0.00025259,0.00126221,-0
 .14192925,0.06267197,-0.00206750,0.00040738,0.00054214,-0.00032942,0.5
 4832189,0.02395294,-0.03693674,0.00252249,0.00087747,0.00246711,0.0002
 8978,0.05637903,-0.17607988,0.00574588,0.00015582,-0.00037967,-0.00007
 475,0.05370620,0.54641640,-0.00154956,0.00084961,0.00305004,0.00073756
 ,-0.00071920,-0.00100036,-0.01206544,0.00690180,-0.07330360,-0.0000285
 6,0.00008599,-0.00058702,-0.00182860,-0.00608668,0.53433960,-0.0394371
 9,-0.04013442,0.00579174,0.00309453,0.00126115,0.00187964,-0.33795573,
 -0.00389169,-0.00532185,-0.02487184,-0.05044849,-0.01336992,-0.0169862
 9,0.00916032,0.01152756,0.62953970,-0.04134035,0.00011140,0.00189991,-
 0.00124929,-0.00586742,0.00199213,-0.03946601,-0.09677057,0.00758940,0
 .00556769,-0.00756853,0.00037673,0.02652843,0.00399082,-0.00512295,0.1
 0591046,0.42062902,0.02136728,0.04774851,0.00540933,-0.00617687,-0.000
 36338,0.00602128,-0.05868067,-0.03157852,-0.05287948,-0.00186832,-0.00
 756431,-0.00258760,-0.00173973,0.00046166,0.00495444,0.07220489,0.0354
 4437,0.17784681,0.00161106,-0.00156482,0.00159400,0.00043614,0.0005422
 9,-0.00086834,-0.02114601,0.00148421,-0.01404626,0.00009555,0.00029700
 ,-0.00018228,-0.15678007,-0.01514031,-0.12505030,0.00367250,0.00145628
 ,-0.00110441,0.17532109,-0.00021380,0.00221376,-0.00118986,-0.00079532
 ,-0.00062999,0.00044420,0.02521071,0.00005504,0.02227816,-0.00017737,0
 .00017265,-0.00010203,-0.01347433,-0.05187020,-0.01268637,-0.00288182,
 -0.00306291,-0.00030496,0.01056466,0.05377569,0.00047487,0.00045574,0.
 00060324,-0.00028022,0.00092468,-0.00035327,0.00040251,-0.00088157,0.0
 0225875,0.00012201,0.00003460,0.00004414,-0.12534438,-0.01403886,-0.18
 671986,0.00102292,0.00017079,0.00019747,0.14001922,0.01587215,0.204017
 41,-0.00365376,0.00355154,-0.00032037,-0.00015732,0.00012505,-0.000102
 12,0.01398908,0.02055071,-0.00363006,0.00008575,-0.00033270,-0.0000208
 5,-0.13541076,-0.13080325,0.02077740,-0.00002247,0.00188075,0.00143121
 ,-0.01142785,-0.01732133,0.00425470,0.14602136,0.00517929,-0.00251445,
 0.00049081,0.00028754,0.00042094,0.00021339,-0.01855377,-0.02475680,0.
 00428891,-0.00023135,0.00057238,-0.00000365,-0.12286154,-0.23726159,0.
 03006128,-0.00037224,-0.00174286,-0.00189539,0.00006667,-0.00057200,0.
 00072289,0.13562158,0.26144403,-0.00028970,0.00014407,0.00152362,0.000
 04452,0.00007995,-0.00063723,0.00131112,-0.00040757,-0.00153270,0.0001
 6288,-0.00026279,-0.00001409,0.01914804,0.03041121,-0.05452504,-0.0001
 0808,0.00084465,0.00064523,-0.01470881,-0.02237086,0.00367658,-0.02253
 821,-0.03310637,0.05489381,0.00104431,-0.00158314,-0.00100058,0.000243
 86,0.00003162,0.00046625,-0.01503751,0.00486736,0.01790457,0.00008047,
 0.00013075,0.00012895,-0.10892988,0.00934031,0.11169918,-0.00036419,0.
 00319104,0.00071153,0.01093282,-0.00218655,-0.02082341,-0.00868444,0.0
 0265852,0.01672760,0.12156934,-0.00058954,0.00115010,0.00185343,-0.000
 06335,-0.00063366,-0.00110277,0.01745052,-0.00546812,-0.02497761,-0.00
 012920,-0.00001836,0.00013737,0.01020601,-0.04965353,-0.01952806,0.000
 62714,-0.00295800,-0.00086790,0.00111181,0.00003231,-0.00335046,-0.013
 37508,0.00349659,0.02523107,-0.01580490,0.05280748,-0.00039337,0.00021
 899,0.00078047,0.00012416,-0.00041020,-0.00050303,0.00015408,0.0004360
 5,0.00452796,-0.00005497,-0.00006413,-0.00005075,0.11020269,-0.0179940
 2,-0.23601461,-0.00144872,0.00006222,-0.00094271,0.01340993,-0.0014489
 3,-0.02313346,0.00090709,-0.00129621,-0.00365389,-0.12346885,0.0208603
 3,0.25898387,-0.00263241,-0.00180080,0.00021261,-0.00035651,0.00216156
 ,0.00172113,-0.01830191,0.03843021,-0.01298541,0.00282621,0.00458826,0
 .00120427,-0.00221956,-0.00363570,-0.00046776,-0.11245749,0.06107188,-
 0.00527773,-0.00132309,0.00167665,-0.00026346,0.00001739,0.00008713,-0
 .00022029,-0.00103800,0.00075916,0.00004377,0.12686814,0.00316562,0.02
 184737,-0.00221140,-0.00325805,0.00193917,0.00120502,-0.01444190,-0.02
 905140,0.00312382,0.00170608,0.00322422,-0.00002646,-0.00170642,0.0032
 7681,0.00330502,0.09399540,-0.15571873,-0.02715579,0.00160635,-0.00132
 158,0.00071264,-0.00005963,0.00001262,-0.00002425,0.00017540,0.0003036
 3,-0.00036727,-0.09661045,0.17892711,-0.01321168,-0.02689888,-0.001070
 58,0.00304530,-0.00118601,-0.00123747,0.05581597,0.01249510,0.00245202
 ,0.00265207,0.00535941,-0.00181231,0.00103707,0.00080617,0.00634887,-0
 .12180679,0.09565222,0.04207039,0.00087938,-0.00077539,-0.00051447,-0.
 00058596,0.00052477,-0.00041847,-0.00090161,0.00087561,-0.00029112,0.0
 2549269,-0.01356936,-0.00493388,-0.21844583,0.17147717,-0.04288677,-0.
 00936053,0.02449496,-0.00396905,0.02280633,-0.00606654,0.00076595,0.00
 022897,-0.00034188,0.00008025,-0.00121205,-0.00347042,-0.00051768,-0.0
 0673677,-0.00350786,0.01237396,-0.00051766,0.00022957,-0.00009434,0.00
 050745,-0.00074972,0.00000475,-0.00030497,0.00005268,0.00005182,0.0020
 6933,0.01142613,-0.00987161,0.20705102,0.17433527,-0.29001406,0.048283
 33,-0.01081967,0.01134374,-0.00248206,0.02124918,-0.03053559,0.0055708
 4,-0.00018771,-0.00013805,-0.00000588,-0.00466426,-0.00209048,0.001339
 07,0.00225565,-0.00451112,-0.00129970,0.00008778,0.00022537,0.00013257
 ,0.00109156,-0.00089848,-0.00000236,-0.00007453,0.00032594,-0.00017853
 ,0.00262341,0.00131793,-0.00015894,-0.18600588,0.31357258,-0.04378853,
 0.04773405,-0.02678078,-0.00083330,0.00271364,-0.00190971,0.00283635,0
 .00245130,0.00433068,-0.00009091,-0.00011059,-0.00024023,-0.00064212,-
 0.00103153,0.00361853,-0.00231851,0.00043984,-0.00274648,0.00032901,-0
 .00049661,0.00006744,0.00018741,-0.00037868,0.00063120,-0.00029072,0.0
 0067440,-0.00001515,-0.00050006,-0.00262000,-0.00221549,0.04373863,-0.
 05208905,0.02670056,-0.00702440,0.00067663,0.00068704,-0.00022642,-0.0
 0166309,0.00059345,-0.02118710,-0.04198432,-0.01589842,-0.45706200,0.0
 9830224,0.00396156,-0.00036430,-0.00050850,-0.00066616,-0.13059612,-0.
 09486128,-0.03833375,-0.00062945,-0.00070191,0.00016240,-0.00145663,-0
 .00102655,0.00018589,-0.00014580,0.00019967,0.00033296,0.01510167,0.01
 137719,0.01880184,0.00008510,0.00049903,-0.00056666,0.61082431,-0.0039
 8833,-0.00804312,0.00056816,0.00105823,-0.00005431,-0.00168946,0.00139
 416,0.00226513,-0.00847016,0.03915800,-0.04476256,-0.01244642,0.001162
 86,-0.00226902,0.00124042,-0.04957656,-0.18166841,-0.03324300,-0.00069
 573,0.00088001,-0.00040623,-0.00048829,0.00136530,-0.00019455,-0.00078
 880,0.00088917,0.00023461,-0.00349289,-0.03702447,-0.01188524,0.000507
 63,0.00091454,0.00040409,0.02123843,0.28530834,-0.00409084,-0.01057066
 ,0.00459530,0.00108731,0.00031913,-0.00003829,0.01251626,0.00526533,-0
 .00076485,-0.00849998,-0.00754165,-0.00415831,0.00040398,-0.00045042,-
 0.00082873,-0.03631165,-0.05008218,-0.04940912,-0.00001884,0.00054539,
 -0.00008750,-0.00030903,0.00025503,-0.00060306,-0.00065057,-0.00016742
 ,0.00016717,0.00979580,0.00297833,0.00683368,-0.00246020,0.00042082,-0
 .00040437,0.03924585,0.07194013,0.04447089,0.00441692,0.01221595,-0.00
 065498,-0.00096654,0.00049823,-0.00096972,-0.03834580,-0.00420249,0.01
 849128,-0.00069407,-0.00298108,-0.00099592,-0.00043263,-0.00001392,-0.
 00256763,0.03312138,-0.02518175,0.00509260,-0.00024502,0.00007084,0.00
 034716,0.00019220,-0.00010555,0.00028029,0.00063400,-0.00044494,0.0001
 3941,-0.00855378,-0.00737571,0.03865332,0.00382961,-0.00038984,0.00193
 942,-0.00731887,-0.00548872,-0.01070809,0.01436261,-0.01437062,-0.0239
 6144,0.00301313,0.00263651,-0.00060560,-0.00085120,0.04773481,0.010956
 20,-0.00658736,0.00155281,0.00357975,-0.00148925,0.00061844,0.00038995
 ,0.00036007,-0.06590492,0.03513732,0.02061841,0.00018381,0.00010188,-0
 .00034894,-0.00044091,0.00043431,-0.00034220,0.00004291,-0.00027353,-0
 .00005292,-0.00585843,0.01226732,-0.06123947,-0.00804585,0.00048769,0.
 00230914,0.00845246,-0.01780059,-0.01291183,0.03339897,-0.02071327,0.0
 0194131,0.00222095,0.00195812,-0.00048653,0.00045264,0.00035881,-0.015
 28225,0.00196391,-0.00504841,0.00008431,-0.00211944,0.00059936,-0.0001
 8532,-0.00056092,0.00066774,0.08825876,-0.08926713,-0.12857957,-0.0002
 5230,0.00023510,-0.00005647,-0.00005122,0.00012323,0.00001404,-0.00050
 234,0.00036202,0.00014525,-0.01875556,0.03464969,-0.04521117,0.0027842
 8,0.00046989,-0.00103620,-0.00850601,-0.00605235,0.00022719,-0.0490471
 3,0.05752242,0.17596131\\-0.00001124,-0.00000864,0.00005157,0.00000107
 ,0.00000286,-0.00002477,0.00000946,0.00001169,-0.00003023,-0.00000500,
 -0.00001737,0.00000664,0.00000364,0.00000777,0.00000044,0.00005476,-0.
 00000634,0.00003253,-0.00000166,0.00000094,0.00000383,0.00000133,-0.00
 000136,-0.00000011,0.00000160,-0.00000218,0.00000382,-0.00001270,-0.00
 002458,-0.00000569,0.00000578,-0.00000681,-0.00001342,-0.00002116,0.00
 002575,-0.00001249,-0.00002589,0.00001828,-0.00001213\\\@


 DESK:  A WASTEBASKET WITH DRAWERS.
 Job cpu time:       0 days  0 hours  1 minutes 10.6 seconds.
 File lengths (MBytes):  RWF=     12 Int=      0 D2E=      0 Chk=      2 Scr=      1
 Normal termination of Gaussian 09 at Sun Apr  3 07:58:32 2016.
