 Entering Gaussian System, Link 0=g09
 Input=Ala-S-opt-freq-p3-6-31g.com
 Output=Ala-S-opt-freq-p3-6-31g.log
 Initial command:
 /usr/local/gau/g09/l1.exe "/tmp/Gau-3351.inp" -scrdir="/tmp/"
 Entering Link 1 = /usr/local/gau/g09/l1.exe PID=      3353.
  
 Copyright (c) 1988,1990,1992,1993,1995,1998,2003,2009,2013,
            Gaussian, Inc.  All Rights Reserved.
  
 This is part of the Gaussian(R) 09 program.  It is based on
 the Gaussian(R) 03 system (copyright 2003, Gaussian, Inc.),
 the Gaussian(R) 98 system (copyright 1998, Gaussian, Inc.),
 the Gaussian(R) 94 system (copyright 1995, Gaussian, Inc.),
 the Gaussian 92(TM) system (copyright 1992, Gaussian, Inc.),
 the Gaussian 90(TM) system (copyright 1990, Gaussian, Inc.),
 the Gaussian 88(TM) system (copyright 1988, Gaussian, Inc.),
 the Gaussian 86(TM) system (copyright 1986, Carnegie Mellon
 University), and the Gaussian 82(TM) system (copyright 1983,
 Carnegie Mellon University). Gaussian is a federally registered
 trademark of Gaussian, Inc.
  
 This software contains proprietary and confidential information,
 including trade secrets, belonging to Gaussian, Inc.
  
 This software is provided under written license and may be
 used, copied, transmitted, or stored only in accord with that
 written license.
  
 The following legend is applicable only to US Government
 contracts under FAR:
  
                    RESTRICTED RIGHTS LEGEND
  
 Use, reproduction and disclosure by the US Government is
 subject to restrictions as set forth in subparagraphs (a)
 and (c) of the Commercial Computer Software - Restricted
 Rights clause in FAR 52.227-19.
  
 Gaussian, Inc.
 340 Quinnipiac St., Bldg. 40, Wallingford CT 06492
  
  
 ---------------------------------------------------------------
 Warning -- This program may not be used in any manner that
 competes with the business of Gaussian, Inc. or will provide
 assistance to any competitor of Gaussian, Inc.  The licensee
 of this program is prohibited from giving any competitor of
 Gaussian, Inc. access to this program.  By using this program,
 the user acknowledges that Gaussian, Inc. is engaged in the
 business of creating and licensing software in the field of
 computational chemistry and represents and warrants to the
 licensee that it is not a competitor of Gaussian, Inc. and that
 it will not use this program in any manner prohibited above.
 ---------------------------------------------------------------
  

 Cite this work as:
 Gaussian 09, Revision D.01,
 M. J. Frisch, G. W. Trucks, H. B. Schlegel, G. E. Scuseria, 
 M. A. Robb, J. R. Cheeseman, G. Scalmani, V. Barone, B. Mennucci, 
 G. A. Petersson, H. Nakatsuji, M. Caricato, X. Li, H. P. Hratchian, 
 A. F. Izmaylov, J. Bloino, G. Zheng, J. L. Sonnenberg, M. Hada, 
 M. Ehara, K. Toyota, R. Fukuda, J. Hasegawa, M. Ishida, T. Nakajima, 
 Y. Honda, O. Kitao, H. Nakai, T. Vreven, J. A. Montgomery, Jr., 
 J. E. Peralta, F. Ogliaro, M. Bearpark, J. J. Heyd, E. Brothers, 
 K. N. Kudin, V. N. Staroverov, T. Keith, R. Kobayashi, J. Normand, 
 K. Raghavachari, A. Rendell, J. C. Burant, S. S. Iyengar, J. Tomasi, 
 M. Cossi, N. Rega, J. M. Millam, M. Klene, J. E. Knox, J. B. Cross, 
 V. Bakken, C. Adamo, J. Jaramillo, R. Gomperts, R. E. Stratmann, 
 O. Yazyev, A. J. Austin, R. Cammi, C. Pomelli, J. W. Ochterski, 
 R. L. Martin, K. Morokuma, V. G. Zakrzewski, G. A. Voth, 
 P. Salvador, J. J. Dannenberg, S. Dapprich, A. D. Daniels, 
 O. Farkas, J. B. Foresman, J. V. Ortiz, J. Cioslowski, 
 and D. J. Fox, Gaussian, Inc., Wallingford CT, 2013.
 
 ******************************************
 Gaussian 09:  ES64L-G09RevD.01 24-Apr-2013
                 3-Apr-2016 
 ******************************************
 %chk=Ala-S-opt-freq-p3-6-31g.chk
 -----------------------
 # opt freq rb3lyp/6-31g
 -----------------------
 1/14=-1,18=20,19=15,26=3,38=1/1,3;
 2/9=110,12=2,17=6,18=5,40=1/2;
 3/5=1,6=6,11=2,16=1,25=1,30=1,71=1,74=-5,116=1/1,2,3;
 4//1;
 5/5=2,38=5/2;
 6/7=2,8=2,9=2,10=2,28=1/1;
 7//1,2,3,16;
 1/14=-1,18=20,19=15,26=3/3(2);
 2/9=110/2;
 99//99;
 2/9=110/2;
 3/5=1,6=6,11=2,16=1,25=1,30=1,71=1,74=-5,116=1/1,2,3;
 4/5=5,16=3,69=1/1;
 5/5=2,38=5/2;
 7//1,2,3,16;
 1/14=-1,18=20,19=15,26=3/3(-5);
 2/9=110/2;
 6/7=2,8=2,9=2,10=2,19=2,28=1/1;
 99/9=1/99;
 -----------------------
 Ala-S-opt-freq-p3-6-31g
 -----------------------
 Symbolic Z-matrix:
 Charge =  0 Multiplicity = 1
 N                     1.15143  -1.3482    0.10424 
 H                     2.12862  -1.57257   0.0254 
 C                     0.68157  -0.07732  -0.01074 
 H                    -2.2307    1.2458    0.10488 
 C                     1.63715   1.07333  -0.05065 
 C                    -0.7015    0.07104  -0.14042 
 H                     2.40812   0.93657  -0.82189 
 H                     1.10234   2.0027   -0.24726 
 H                     2.15213   1.17351   0.91443 
 O                    -1.57643  -1.10061   0.02256 
 H                     0.46631  -2.07937   0.25037 
 O                    -1.25854   1.33512   0.1478 
 H                    -0.48365  -0.38309  -0.72402 
 

 GradGradGradGradGradGradGradGradGradGradGradGradGradGradGradGradGradGrad
 Berny optimization.
 Initialization pass.
                           ----------------------------
                           !    Initial Parameters    !
                           ! (Angstroms and Degrees)  !
 --------------------------                            --------------------------
 ! Name  Definition              Value          Derivative Info.                !
 --------------------------------------------------------------------------------
 ! R1    R(1,2)                  1.0057         estimate D2E/DX2                !
 ! R2    R(1,3)                  1.3598         estimate D2E/DX2                !
 ! R3    R(1,11)                 1.0126         estimate D2E/DX2                !
 ! R4    R(3,5)                  1.4962         estimate D2E/DX2                !
 ! R5    R(3,6)                  1.397          estimate D2E/DX2                !
 ! R6    R(4,12)                 0.9772         estimate D2E/DX2                !
 ! R7    R(5,7)                  1.0991         estimate D2E/DX2                !
 ! R8    R(5,8)                  1.0901         estimate D2E/DX2                !
 ! R9    R(5,9)                  1.0985         estimate D2E/DX2                !
 ! R10   R(6,10)                 1.4713         estimate D2E/DX2                !
 ! R11   R(6,12)                 1.4111         estimate D2E/DX2                !
 ! R12   R(6,13)                 0.7709         estimate D2E/DX2                !
 ! A1    A(2,1,3)              122.521          estimate D2E/DX2                !
 ! A2    A(2,1,11)             120.5059         estimate D2E/DX2                !
 ! A3    A(3,1,11)             116.9531         estimate D2E/DX2                !
 ! A4    A(1,3,5)              120.0203         estimate D2E/DX2                !
 ! A5    A(1,3,6)              116.6905         estimate D2E/DX2                !
 ! A6    A(5,3,6)              123.2389         estimate D2E/DX2                !
 ! A7    A(3,5,7)              111.7794         estimate D2E/DX2                !
 ! A8    A(3,5,8)              110.3104         estimate D2E/DX2                !
 ! A9    A(3,5,9)              110.2505         estimate D2E/DX2                !
 ! A10   A(7,5,8)              108.8843         estimate D2E/DX2                !
 ! A11   A(7,5,9)              107.3976         estimate D2E/DX2                !
 ! A12   A(8,5,9)              108.1014         estimate D2E/DX2                !
 ! A13   A(3,6,10)             119.5949         estimate D2E/DX2                !
 ! A14   A(3,6,12)             117.8379         estimate D2E/DX2                !
 ! A15   A(3,6,13)              74.214          estimate D2E/DX2                !
 ! A16   A(10,6,12)            117.1273         estimate D2E/DX2                !
 ! A17   A(10,6,13)             77.4554         estimate D2E/DX2                !
 ! A18   A(12,6,13)            142.5502         estimate D2E/DX2                !
 ! A19   A(4,12,6)             107.5698         estimate D2E/DX2                !
 ! D1    D(2,1,3,5)             -9.5151         estimate D2E/DX2                !
 ! D2    D(2,1,3,6)            167.9912         estimate D2E/DX2                !
 ! D3    D(11,1,3,5)           172.1077         estimate D2E/DX2                !
 ! D4    D(11,1,3,6)           -10.3859         estimate D2E/DX2                !
 ! D5    D(1,3,5,7)             52.9031         estimate D2E/DX2                !
 ! D6    D(1,3,5,8)            174.2036         estimate D2E/DX2                !
 ! D7    D(1,3,5,9)            -66.4773         estimate D2E/DX2                !
 ! D8    D(6,3,5,7)           -124.433          estimate D2E/DX2                !
 ! D9    D(6,3,5,8)             -3.1326         estimate D2E/DX2                !
 ! D10   D(6,3,5,9)            116.1866         estimate D2E/DX2                !
 ! D11   D(1,3,6,10)             7.6604         estimate D2E/DX2                !
 ! D12   D(1,3,6,12)           160.9055         estimate D2E/DX2                !
 ! D13   D(1,3,6,13)           -57.4959         estimate D2E/DX2                !
 ! D14   D(5,3,6,10)          -174.9211         estimate D2E/DX2                !
 ! D15   D(5,3,6,12)           -21.676          estimate D2E/DX2                !
 ! D16   D(5,3,6,13)           119.9226         estimate D2E/DX2                !
 ! D17   D(3,6,12,4)          -173.9383         estimate D2E/DX2                !
 ! D18   D(10,6,12,4)          -20.0312         estimate D2E/DX2                !
 ! D19   D(13,6,12,4)           85.4869         estimate D2E/DX2                !
 --------------------------------------------------------------------------------
 Trust Radius=3.00D-01 FncErr=1.00D-07 GrdErr=1.00D-06
 Number of steps in this run=     60 maximum allowed number of steps=    100.
 GradGradGradGradGradGradGradGradGradGradGradGradGradGradGradGradGradGrad

                          Input orientation:                          
 ---------------------------------------------------------------------
 Center     Atomic      Atomic             Coordinates (Angstroms)
 Number     Number       Type             X           Y           Z
 ---------------------------------------------------------------------
      1          7           0        1.151428   -1.348196    0.104236
      2          1           0        2.128617   -1.572570    0.025398
      3          6           0        0.681570   -0.077320   -0.010744
      4          1           0       -2.230704    1.245802    0.104882
      5          6           0        1.637149    1.073325   -0.050645
      6          6           0       -0.701495    0.071035   -0.140424
      7          1           0        2.408120    0.936571   -0.821890
      8          1           0        1.102337    2.002696   -0.247258
      9          1           0        2.152130    1.173509    0.914428
     10          8           0       -1.576434   -1.100614    0.022564
     11          1           0        0.466305   -2.079368    0.250374
     12          8           0       -1.258538    1.335119    0.147803
     13          1           0       -0.483655   -0.383086   -0.724017
 ---------------------------------------------------------------------
                    Distance matrix (angstroms):
                    1          2          3          4          5
     1  N    0.000000
     2  H    1.005712   0.000000
     3  C    1.359821   2.081111   0.000000
     4  H    4.262352   5.191649   3.200838   0.000000
     5  C    2.474606   2.692227   1.496231   3.874819   0.000000
     6  C    2.346785   3.276960   1.397031   1.943896   2.545958
     7  H    2.767155   2.663045   2.160303   4.740593   1.099053
     8  H    3.369634   3.729627   2.135287   3.435994   1.090143
     9  H    2.831397   2.886499   2.140809   4.457558   1.098457
    10  O    2.740292   3.734990   2.479279   2.437317   3.880527
    11  H    1.012602   1.752353   2.030448   4.283898   3.376531
    12  O    3.606940   4.465698   2.405024   0.977203   2.914262
    13  H    2.071457   2.966557   1.400000   2.528345   2.659393
                    6          7          8          9         10
     6  C    0.000000
     7  H    3.298978   0.000000
     8  H    2.645097   1.780981   0.000000
     9  H    3.235945   1.771008   1.771759   0.000000
    10  O    1.471341   4.554108   4.108424   4.457493   0.000000
    11  H    2.478046   3.743833   4.161180   3.723464   2.276541
    12  O    1.411127   3.813598   2.485048   3.499498   2.459581
    13  H    0.770883   3.180163   2.904243   3.472010   1.505455
                   11         12         13
    11  H    0.000000
    12  O    3.826791   0.000000
    13  H    2.174680   2.076714   0.000000
 Stoichiometry    C3H7NO2
 Framework group  C1[X(C3H7NO2)]
 Deg. of freedom    33
 Full point group                 C1      NOp   1
 Largest Abelian subgroup         C1      NOp   1
 Largest concise Abelian subgroup C1      NOp   1
                         Standard orientation:                         
 ---------------------------------------------------------------------
 Center     Atomic      Atomic             Coordinates (Angstroms)
 Number     Number       Type             X           Y           Z
 ---------------------------------------------------------------------
      1          7           0        1.158346    1.334242   -0.100344
      2          1           0        2.139718    1.542833   -0.030649
      3          6           0        0.669859    0.070176    0.012048
      4          1           0       -2.263876   -1.206552   -0.080262
      5          6           0        1.607641   -1.095480    0.034796
      6          6           0       -0.713906   -0.057351    0.155665
      7          1           0        2.388819   -0.975543    0.798532
      8          1           0        1.060437   -2.017577    0.231559
      9          1           0        2.110697   -1.197747   -0.936329
     10          8           0       -1.572041    1.128805    0.009100
     11          1           0        0.483262    2.076914   -0.234738
     12          8           0       -1.293742   -1.310779   -0.134144
     13          1           0       -0.482776    0.389706    0.739600
 ---------------------------------------------------------------------
 Rotational constants (GHZ):      4.8099164      3.3285242      2.0130878
 Standard basis: 6-31G (6D, 7F)
 There are    68 symmetry adapted cartesian basis functions of A   symmetry.
 There are    68 symmetry adapted basis functions of A   symmetry.
    68 basis functions,   160 primitive gaussians,    68 cartesian basis functions
    24 alpha electrons       24 beta electrons
       nuclear repulsion energy       248.0569058862 Hartrees.
 NAtoms=   13 NActive=   13 NUniq=   13 SFac= 1.00D+00 NAtFMM=   60 NAOKFM=F Big=F
 Integral buffers will be    131072 words long.
 Raffenetti 2 integral format.
 Two-electron integral symmetry is turned on.
 One-electron integrals computed using PRISM.
 NBasis=    68 RedAO= T EigKep=  2.68D-03  NBF=    68
 NBsUse=    68 1.00D-06 EigRej= -1.00D+00 NBFU=    68
 ExpMin= 1.61D-01 ExpMax= 5.48D+03 ExpMxC= 8.25D+02 IAcc=1 IRadAn=         1 AccDes= 0.00D+00
 Harris functional with IExCor=  402 and IRadAn=       1 diagonalized for initial guess.
 HarFok:  IExCor=  402 AccDes= 0.00D+00 IRadAn=         1 IDoV= 1 UseB2=F ITyADJ=14
 ICtDFT=  3500011 ScaDFX=  1.000000  1.000000  1.000000  1.000000
 FoFCou: FMM=F IPFlag=           0 FMFlag=      100000 FMFlg1=           0
         NFxFlg=           0 DoJE=T BraDBF=F KetDBF=T FulRan=T
         wScrn=  0.000000 ICntrl=     500 IOpCl=  0 I1Cent=   200000004 NGrid=           0
         NMat0=    1 NMatS0=      1 NMatT0=    0 NMatD0=    1 NMtDS0=    0 NMtDT0=    0
 Petite list used in FoFCou.
 Keep R1 ints in memory in canonical form, NReq=3676491.
 Requested convergence on RMS density matrix=1.00D-08 within 128 cycles.
 Requested convergence on MAX density matrix=1.00D-06.
 Requested convergence on             energy=1.00D-06.
 No special actions if energy rises.
 Integral accuracy reduced to 1.0D-05 until final iterations.
 EnCoef did     2 forward-backward iterations
 EnCoef did     3 forward-backward iterations
 Initial convergence to 1.0D-05 achieved.  Increase integral accuracy.
 SCF Done:  E(RB3LYP) =  -323.329131271     A.U. after   18 cycles
            NFock= 18  Conv=0.49D-08     -V/T= 2.0027

 **********************************************************************

            Population analysis using the SCF density.

 **********************************************************************

 Orbital symmetries:
       Occupied  (A) (A) (A) (A) (A) (A) (A) (A) (A) (A) (A) (A)
                 (A) (A) (A) (A) (A) (A) (A) (A) (A) (A) (A) (A)
       Virtual   (A) (A) (A) (A) (A) (A) (A) (A) (A) (A) (A) (A)
                 (A) (A) (A) (A) (A) (A) (A) (A) (A) (A) (A) (A)
                 (A) (A) (A) (A) (A) (A) (A) (A) (A) (A) (A) (A)
                 (A) (A) (A) (A) (A) (A) (A) (A)
 The electronic state is 1-A.
 Alpha  occ. eigenvalues --  -19.15553 -19.06795 -14.37832 -10.28013 -10.25891
 Alpha  occ. eigenvalues --  -10.21112  -1.05107  -0.98703  -0.91343  -0.80197
 Alpha  occ. eigenvalues --   -0.74136  -0.60211  -0.56952  -0.55942  -0.48449
 Alpha  occ. eigenvalues --   -0.45632  -0.42928  -0.41297  -0.40188  -0.34618
 Alpha  occ. eigenvalues --   -0.33492  -0.26692  -0.21613  -0.17975
 Alpha virt. eigenvalues --   -0.03498   0.06243   0.07833   0.11053   0.13344
 Alpha virt. eigenvalues --    0.14707   0.15750   0.16588   0.21911   0.22926
 Alpha virt. eigenvalues --    0.24707   0.32678   0.36885   0.51493   0.53496
 Alpha virt. eigenvalues --    0.54069   0.61842   0.63344   0.64976   0.66505
 Alpha virt. eigenvalues --    0.69903   0.74461   0.75252   0.78883   0.83398
 Alpha virt. eigenvalues --    0.85856   0.88103   0.90010   0.92195   0.94010
 Alpha virt. eigenvalues --    0.96697   1.00266   1.04574   1.07237   1.17036
 Alpha virt. eigenvalues --    1.17515   1.23662   1.26829   1.34161   1.43461
 Alpha virt. eigenvalues --    1.46024   1.58731   1.78967   1.99233
          Condensed to atoms (all electrons):
               1          2          3          4          5          6
     1  N    7.005679   0.318477   0.302370  -0.000115  -0.078098  -0.081471
     2  H    0.318477   0.398819  -0.035332   0.000002  -0.002799   0.006810
     3  C    0.302370  -0.035332   5.614978   0.014975   0.263924   0.071928
     4  H   -0.000115   0.000002   0.014975   0.385619  -0.000414  -0.021364
     5  C   -0.078098  -0.002799   0.263924  -0.000414   5.156641   0.022953
     6  C   -0.081471   0.006810   0.071928  -0.021364   0.022953   5.001054
     7  H   -0.000768   0.003240  -0.036954   0.000005   0.358666  -0.000457
     8  H    0.003694  -0.000030  -0.031797  -0.000148   0.373850  -0.001227
     9  H   -0.002101  -0.000284  -0.036054  -0.000005   0.373271   0.000676
    10  O   -0.008082   0.000732  -0.102143   0.008466   0.002761   0.284133
    11  H    0.273503  -0.016685  -0.042898  -0.000088   0.004867   0.009890
    12  O    0.002626  -0.000013  -0.102463   0.234495  -0.001012   0.206700
    13  H   -0.012777  -0.001594  -0.115651  -0.006521  -0.006365   0.123700
               7          8          9         10         11         12
     1  N   -0.000768   0.003694  -0.002101  -0.008082   0.273503   0.002626
     2  H    0.003240  -0.000030  -0.000284   0.000732  -0.016685  -0.000013
     3  C   -0.036954  -0.031797  -0.036054  -0.102143  -0.042898  -0.102463
     4  H    0.000005  -0.000148  -0.000005   0.008466  -0.000088   0.234495
     5  C    0.358666   0.373850   0.373271   0.002761   0.004867  -0.001012
     6  C   -0.000457  -0.001227   0.000676   0.284133   0.009890   0.206700
     7  H    0.581726  -0.025255  -0.033174   0.000008  -0.000290   0.000315
     8  H   -0.025255   0.486345  -0.020619   0.000076  -0.000150   0.007274
     9  H   -0.033174  -0.020619   0.528874  -0.000030   0.000050   0.000045
    10  O    0.000008   0.000076  -0.000030   8.452997   0.040220  -0.065383
    11  H   -0.000290  -0.000150   0.000050   0.040220   0.366092   0.000862
    12  O    0.000315   0.007274   0.000045  -0.065383   0.000862   8.327574
    13  H   -0.002134   0.000518   0.000695  -0.008204   0.005226  -0.018150
              13
     1  N   -0.012777
     2  H   -0.001594
     3  C   -0.115651
     4  H   -0.006521
     5  C   -0.006365
     6  C    0.123700
     7  H   -0.002134
     8  H    0.000518
     9  H    0.000695
    10  O   -0.008204
    11  H    0.005226
    12  O   -0.018150
    13  H    0.887799
 Mulliken charges:
               1
     1  N   -0.722936
     2  H    0.328658
     3  C    0.235117
     4  H    0.385095
     5  C   -0.468244
     6  C    0.376675
     7  H    0.155071
     8  H    0.207468
     9  H    0.188658
    10  O   -0.605550
    11  H    0.359400
    12  O   -0.592870
    13  H    0.153458
 Sum of Mulliken charges =   0.00000
 Mulliken charges with hydrogens summed into heavy atoms:
               1
     1  N   -0.034878
     3  C    0.235117
     5  C    0.082953
     6  C    0.530133
    10  O   -0.605550
    12  O   -0.207775
 Electronic spatial extent (au):  <R**2>=            599.8202
 Charge=              0.0000 electrons
 Dipole moment (field-independent basis, Debye):
    X=              4.8900    Y=             -0.6893    Z=              0.7542  Tot=              4.9956
 Quadrupole moment (field-independent basis, Debye-Ang):
   XX=            -31.3873   YY=            -36.1983   ZZ=            -36.8641
   XY=              7.2985   XZ=             -0.4256   YZ=             -0.7430
 Traceless Quadrupole moment (field-independent basis, Debye-Ang):
   XX=              3.4293   YY=             -1.3817   ZZ=             -2.0476
   XY=              7.2985   XZ=             -0.4256   YZ=             -0.7430
 Octapole moment (field-independent basis, Debye-Ang**2):
  XXX=              1.5477  YYY=             10.3580  ZZZ=             -0.2582  XYY=             10.5690
  XXY=            -10.2891  XXZ=             -1.0215  XZZ=             -1.5305  YZZ=             -0.8825
  YYZ=             -1.1445  XYZ=              0.7780
 Hexadecapole moment (field-independent basis, Debye-Ang**3):
 XXXX=           -343.9394 YYYY=           -261.7671 ZZZZ=            -42.8155 XXXY=             56.8847
 XXXZ=              2.0657 YYYX=             21.3674 YYYZ=             -4.7310 ZZZX=             -0.6008
 ZZZY=              0.9749 XXYY=           -103.3634 XXZZ=            -74.2109 YYZZ=            -56.6952
 XXYZ=              0.8782 YYXZ=             -0.7953 ZZXY=              0.1078
 N-N= 2.480569058862D+02 E-N=-1.253970671959D+03  KE= 3.224644783657D+02
 Calling FoFJK, ICntrl=      2127 FMM=F ISym2X=0 I1Cent= 0 IOpClX= 0 NMat=1 NMatS=1 NMatT=0.
 ***** Axes restored to original set *****
 -------------------------------------------------------------------
 Center     Atomic                   Forces (Hartrees/Bohr)
 Number     Number              X              Y              Z
 -------------------------------------------------------------------
      1        7          -0.002343533    0.010295319   -0.004770496
      2        1           0.000718097    0.000504103   -0.003646633
      3        6           0.060101174    0.003305021    0.067595389
      4        1          -0.000235041   -0.003570966   -0.002242862
      5        6           0.001481508    0.000762472   -0.009478053
      6        6          -0.191395738    0.280498942    0.493625809
      7        1           0.000734548    0.000671413    0.000452739
      8        1          -0.000078657    0.000380269    0.000494803
      9        1          -0.002476011   -0.001597635    0.000403764
     10        8           0.010802696    0.020499253    0.020194542
     11        1          -0.004276700   -0.000274656    0.003430564
     12        8           0.008332989   -0.001187181   -0.019982733
     13        1           0.118634668   -0.310286353   -0.546076833
 -------------------------------------------------------------------
 Cartesian Forces:  Max     0.546076833 RMS     0.141188778

 GradGradGradGradGradGradGradGradGradGradGradGradGradGradGradGradGradGrad
 Berny optimization.
 FormGI is forming the generalized inverse of G from B-inverse, IUseBI=4.
 Internal  Forces:  Max     0.629717085 RMS     0.090855787
 Search for a local minimum.
 Step number   1 out of a maximum of   60
 All quantities printed in internal units (Hartrees-Bohrs-Radians)
 Mixed Optimization -- RFO/linear search
 Second derivative matrix not updated -- first step.
 ITU=  0
     Eigenvalues ---    0.00816   0.01545   0.01633   0.02128   0.02223
     Eigenvalues ---    0.02226   0.04212   0.06876   0.07206   0.07407
     Eigenvalues ---    0.10207   0.16000   0.16000   0.16000   0.16000
     Eigenvalues ---    0.16000   0.16000   0.21756   0.23354   0.24978
     Eigenvalues ---    0.24981   0.32776   0.33787   0.33853   0.34796
     Eigenvalues ---    0.35580   0.43825   0.45540   0.46116   0.46698
     Eigenvalues ---    0.51932   0.52984   1.28602
 RFO step:  Lambda=-2.88092586D-01 EMin= 8.15803969D-03
 Linear search not attempted -- first point.
 Maximum step size (   0.300) exceeded in Quadratic search.
    -- Step size scaled by   0.649
 Iteration  1 RMS(Cart)=  0.04213554 RMS(Int)=  0.00822721
 Iteration  2 RMS(Cart)=  0.00770411 RMS(Int)=  0.00060522
 Iteration  3 RMS(Cart)=  0.00011224 RMS(Int)=  0.00059348
 Iteration  4 RMS(Cart)=  0.00000043 RMS(Int)=  0.00059348
 Variable       Old X    -DE/DX   Delta X   Delta X   Delta X     New X
                                 (Linear)    (Quad)   (Total)
    R1        1.90052   0.00087   0.00000   0.00075   0.00075   1.90127
    R2        2.56969  -0.01230   0.00000  -0.00976  -0.00976   2.55993
    R3        1.91354   0.00359   0.00000   0.00313   0.00313   1.91667
    R4        2.82747   0.00017   0.00000   0.00018   0.00018   2.82764
    R5        2.64001   0.05689   0.00000   0.04929   0.04929   2.68929
    R6        1.84665   0.00066   0.00000   0.00053   0.00053   1.84718
    R7        2.07691   0.00012   0.00000   0.00012   0.00012   2.07703
    R8        2.06007   0.00028   0.00000   0.00028   0.00028   2.06035
    R9        2.07578  -0.00095   0.00000  -0.00099  -0.00099   2.07479
   R10        2.78043  -0.02051   0.00000  -0.02068  -0.02068   2.75976
   R11        2.66664  -0.01200   0.00000  -0.01073  -0.01073   2.65592
   R12        1.45676   0.62972   0.00000   0.25968   0.25968   1.71644
    A1        2.13839   0.00032   0.00000   0.00047   0.00047   2.13886
    A2        2.10322   0.00258   0.00000   0.00373   0.00373   2.10696
    A3        2.04122  -0.00291   0.00000  -0.00422  -0.00422   2.03700
    A4        2.09475   0.00380   0.00000   0.00454   0.00454   2.09929
    A5        2.03663  -0.00485   0.00000  -0.00590  -0.00591   2.03073
    A6        2.15093   0.00093   0.00000   0.00108   0.00107   2.15200
    A7        1.95092   0.00251   0.00000   0.00382   0.00382   1.95474
    A8        1.92528   0.00054   0.00000   0.00080   0.00079   1.92607
    A9        1.92424  -0.00459   0.00000  -0.00685  -0.00685   1.91738
   A10        1.90039  -0.00021   0.00000   0.00008   0.00007   1.90046
   A11        1.87444   0.00105   0.00000   0.00149   0.00149   1.87594
   A12        1.88673   0.00071   0.00000   0.00065   0.00065   1.88737
   A13        2.08732   0.00331   0.00000  -0.00096  -0.00174   2.08558
   A14        2.05666  -0.02171   0.00000  -0.02516  -0.02451   2.03215
   A15        1.29528   0.06196   0.00000   0.09709   0.09916   1.39444
   A16        2.04426   0.00896   0.00000   0.00764   0.00695   2.05120
   A17        1.35185   0.01062   0.00000   0.02308   0.02456   1.37641
   A18        2.48797  -0.05662   0.00000  -0.09182  -0.09269   2.39528
   A19        1.87745  -0.00729   0.00000  -0.01057  -0.01057   1.86688
    D1       -0.16607  -0.00120   0.00000  -0.00243  -0.00244  -0.16851
    D2        2.93200  -0.00438   0.00000  -0.00925  -0.00924   2.92276
    D3        3.00385  -0.00095   0.00000  -0.00190  -0.00191   3.00194
    D4       -0.18127  -0.00413   0.00000  -0.00872  -0.00871  -0.18998
    D5        0.92333  -0.00267   0.00000  -0.00546  -0.00547   0.91786
    D6        3.04043  -0.00088   0.00000  -0.00222  -0.00223   3.03819
    D7       -1.16025  -0.00256   0.00000  -0.00524  -0.00525  -1.16550
    D8       -2.17177   0.00087   0.00000   0.00199   0.00199  -2.16977
    D9       -0.05467   0.00266   0.00000   0.00522   0.00524  -0.04944
   D10        2.02784   0.00098   0.00000   0.00220   0.00222   2.03006
   D11        0.13370   0.02612   0.00000   0.04837   0.04738   0.18108
   D12        2.80833   0.00662   0.00000   0.00771   0.00725   2.81558
   D13       -1.00349  -0.03252   0.00000  -0.05532  -0.05391  -1.05740
   D14       -3.05295   0.02290   0.00000   0.04141   0.04044  -3.01251
   D15       -0.37832   0.00340   0.00000   0.00074   0.00031  -0.37801
   D16        2.09304  -0.03575   0.00000  -0.06229  -0.06085   2.03219
   D17       -3.03580   0.01850   0.00000   0.03525   0.03448  -3.00131
   D18       -0.34961  -0.00177   0.00000  -0.00643  -0.00695  -0.35656
   D19        1.49203  -0.01911   0.00000  -0.03391  -0.03263   1.45940
         Item               Value     Threshold  Converged?
 Maximum Force            0.629717     0.000450     NO 
 RMS     Force            0.090856     0.000300     NO 
 Maximum Displacement     0.291431     0.001800     NO 
 RMS     Displacement     0.049279     0.001200     NO 
 Predicted change in Energy=-1.411817D-01
 GradGradGradGradGradGradGradGradGradGradGradGradGradGradGradGradGradGrad

                          Input orientation:                          
 ---------------------------------------------------------------------
 Center     Atomic      Atomic             Coordinates (Angstroms)
 Number     Number       Type             X           Y           Z
 ---------------------------------------------------------------------
      1          7           0        1.159018   -1.343229    0.113178
      2          1           0        2.135913   -1.569493    0.031104
      3          6           0        0.692182   -0.076684   -0.000928
      4          1           0       -2.220606    1.248668    0.134679
      5          6           0        1.643807    1.077286   -0.042782
      6          6           0       -0.716853    0.067126   -0.139442
      7          1           0        2.418992    0.944035   -0.810498
      8          1           0        1.106444    2.005001   -0.241076
      9          1           0        2.152031    1.176893    0.925333
     10          8           0       -1.582232   -1.089474    0.075418
     11          1           0        0.469192   -2.071696    0.262165
     12          8           0       -1.247188    1.337039    0.145791
     13          1           0       -0.533870   -0.428568   -0.878235
 ---------------------------------------------------------------------
                    Distance matrix (angstroms):
                    1          2          3          4          5
     1  N    0.000000
     2  H    1.006109   0.000000
     3  C    1.354656   2.076985   0.000000
     4  H    4.259138   5.189607   3.203011   0.000000
     5  C    2.473507   2.693152   1.496325   3.872280   0.000000
     6  C    2.360468   3.293309   1.423112   1.931957   2.569529
     7  H    2.769889   2.665755   2.163132   4.744684   1.099116
     8  H    3.367330   3.729732   2.136048   3.432565   1.090291
     9  H    2.827842   2.888346   2.135550   4.444125   1.097934
    10  O    2.753229   3.749265   2.490889   2.424446   3.887948
    11  H    1.014259   1.756006   2.024602   4.275054   3.374729
    12  O    3.602045   4.461665   2.404432   0.977484   2.908760
    13  H    2.164573   3.042425   1.548126   2.585381   2.776302
                    6          7          8          9         10
     6  C    0.000000
     7  H    3.324576   0.000000
     8  H    2.662725   1.781200   0.000000
     9  H    3.255123   1.771609   1.771870   0.000000
    10  O    1.460400   4.574909   4.111560   4.450112   0.000000
    11  H    2.478416   3.747926   4.156778   3.718208   2.282099
    12  O    1.405451   3.809175   2.476980   3.491135   2.450544
    13  H    0.908301   3.256995   3.003142   3.611707   1.563750
                   11         12         13
    11  H    0.000000
    12  O    3.818242   0.000000
    13  H    2.237524   2.162134   0.000000
 Stoichiometry    C3H7NO2
 Framework group  C1[X(C3H7NO2)]
 Deg. of freedom    33
 Full point group                 C1      NOp   1
 Largest Abelian subgroup         C1      NOp   1
 Largest concise Abelian subgroup C1      NOp   1
                         Standard orientation:                         
 ---------------------------------------------------------------------
 Center     Atomic      Atomic             Coordinates (Angstroms)
 Number     Number       Type             X           Y           Z
 ---------------------------------------------------------------------
      1          7           0        1.155088    1.339819   -0.094099
      2          1           0        2.135143    1.556034   -0.023399
      3          6           0        0.678122    0.076237    0.010568
      4          1           0       -2.248598   -1.220484   -0.099481
      5          6           0        1.619414   -1.086856    0.023735
      6          6           0       -0.730044   -0.056429    0.167780
      7          1           0        2.406845   -0.970672    0.781698
      8          1           0        1.076322   -2.012096    0.217946
      9          1           0        2.112615   -1.178574   -0.952892
     10          8           0       -1.587583    1.110742   -0.019585
     11          1           0        0.470023    2.076449   -0.223652
     12          8           0       -1.276312   -1.317625   -0.125933
     13          1           0       -0.531754    0.427957    0.910116
 ---------------------------------------------------------------------
 Rotational constants (GHZ):      4.8129934      3.3027681      2.0084952
 Standard basis: 6-31G (6D, 7F)
 There are    68 symmetry adapted cartesian basis functions of A   symmetry.
 There are    68 symmetry adapted basis functions of A   symmetry.
    68 basis functions,   160 primitive gaussians,    68 cartesian basis functions
    24 alpha electrons       24 beta electrons
       nuclear repulsion energy       246.7328732666 Hartrees.
 NAtoms=   13 NActive=   13 NUniq=   13 SFac= 1.00D+00 NAtFMM=   60 NAOKFM=F Big=F
 Integral buffers will be    131072 words long.
 Raffenetti 2 integral format.
 Two-electron integral symmetry is turned on.
 One-electron integrals computed using PRISM.
 NBasis=    68 RedAO= T EigKep=  2.88D-03  NBF=    68
 NBsUse=    68 1.00D-06 EigRej= -1.00D+00 NBFU=    68
 Initial guess from the checkpoint file:  "Ala-S-opt-freq-p3-6-31g.chk"
 B after Tr=     0.000000    0.000000    0.000000
         Rot=    0.999993    0.000433    0.000578   -0.003795 Ang=   0.44 deg.
 ExpMin= 1.61D-01 ExpMax= 5.48D+03 ExpMxC= 8.25D+02 IAcc=1 IRadAn=         1 AccDes= 0.00D+00
 Harris functional with IExCor=  402 and IRadAn=       1 diagonalized for initial guess.
 HarFok:  IExCor=  402 AccDes= 0.00D+00 IRadAn=         1 IDoV= 1 UseB2=F ITyADJ=14
 ICtDFT=  3500011 ScaDFX=  1.000000  1.000000  1.000000  1.000000
 FoFCou: FMM=F IPFlag=           0 FMFlag=      100000 FMFlg1=           0
         NFxFlg=           0 DoJE=T BraDBF=F KetDBF=T FulRan=T
         wScrn=  0.000000 ICntrl=     500 IOpCl=  0 I1Cent=   200000004 NGrid=           0
         NMat0=    1 NMatS0=      1 NMatT0=    0 NMatD0=    1 NMtDS0=    0 NMtDT0=    0
 Petite list used in FoFCou.
 Keep R1 ints in memory in canonical form, NReq=3676491.
 Requested convergence on RMS density matrix=1.00D-08 within 128 cycles.
 Requested convergence on MAX density matrix=1.00D-06.
 Requested convergence on             energy=1.00D-06.
 No special actions if energy rises.
 Integral accuracy reduced to 1.0D-05 until final iterations.
 EnCoef did     4 forward-backward iterations
 Initial convergence to 1.0D-05 achieved.  Increase integral accuracy.
 SCF Done:  E(RB3LYP) =  -323.457957428     A.U. after   15 cycles
            NFock= 15  Conv=0.40D-08     -V/T= 2.0042
 Calling FoFJK, ICntrl=      2127 FMM=F ISym2X=0 I1Cent= 0 IOpClX= 0 NMat=1 NMatS=1 NMatT=0.
 ***** Axes restored to original set *****
 -------------------------------------------------------------------
 Center     Atomic                   Forces (Hartrees/Bohr)
 Number     Number              X              Y              Z
 -------------------------------------------------------------------
      1        7          -0.002196507    0.009009212   -0.001904855
      2        1           0.000621970   -0.000072843   -0.002409848
      3        6           0.033059672    0.001626435    0.045881627
      4        1          -0.000408257   -0.001709151   -0.001179112
      5        6           0.000471306   -0.000271522   -0.007747137
      6        6          -0.059068890    0.054957852    0.206439579
      7        1           0.000660071    0.000405248    0.000574917
      8        1          -0.000199306    0.000010564    0.000530015
      9        1          -0.001479598   -0.000912470    0.000555225
     10        8           0.012186815    0.019885449    0.018511395
     11        1          -0.003508276    0.000014709    0.002699564
     12        8           0.003823399    0.001450513   -0.015722077
     13        1           0.016037602   -0.084393995   -0.246229293
 -------------------------------------------------------------------
 Cartesian Forces:  Max     0.246229293 RMS     0.055854950

 GradGradGradGradGradGradGradGradGradGradGradGradGradGradGradGradGradGrad
 Berny optimization.
 Using GEDIIS/GDIIS optimizer.
 FormGI is forming the generalized inverse of G from B-inverse, IUseBI=4.
 Internal  Forces:  Max     0.249565919 RMS     0.037813635
 Search for a local minimum.
 Step number   2 out of a maximum of   60
 All quantities printed in internal units (Hartrees-Bohrs-Radians)
 Mixed Optimization -- RFO/linear search
 Update second derivatives using D2CorX and points    1    2
 DE= -1.29D-01 DEPred=-1.41D-01 R= 9.12D-01
 TightC=F SS=  1.41D+00  RLast= 3.22D-01 DXNew= 5.0454D-01 9.6547D-01
 Trust test= 9.12D-01 RLast= 3.22D-01 DXMaxT set to 5.05D-01
 ITU=  1  0
 Use linear search instead of GDIIS.
 Linear search step of   0.602 exceeds DXMaxT=   0.505 but not scaled.
 Quartic linear search produced a step of  2.00000.
 Iteration  1 RMS(Cart)=  0.07392097 RMS(Int)=  0.04089610
 Iteration  2 RMS(Cart)=  0.02771784 RMS(Int)=  0.01218653
 Iteration  3 RMS(Cart)=  0.01123312 RMS(Int)=  0.00265873
 Iteration  4 RMS(Cart)=  0.00004585 RMS(Int)=  0.00265851
 Iteration  5 RMS(Cart)=  0.00000057 RMS(Int)=  0.00265851
 Variable       Old X    -DE/DX   Delta X   Delta X   Delta X     New X
                                 (Linear)    (Quad)   (Total)
    R1        1.90127   0.00082   0.00150   0.00000   0.00150   1.90277
    R2        2.55993  -0.01026  -0.01952   0.00000  -0.01952   2.54041
    R3        1.91667   0.00277   0.00626   0.00000   0.00626   1.92293
    R4        2.82764  -0.00077   0.00035   0.00000   0.00035   2.82800
    R5        2.68929   0.02988   0.09857   0.00000   0.09857   2.78786
    R6        1.84718   0.00057   0.00106   0.00000   0.00106   1.84824
    R7        2.07703   0.00002   0.00024   0.00000   0.00024   2.07727
    R8        2.06035   0.00001   0.00056   0.00000   0.00056   2.06091
    R9        2.07479  -0.00028  -0.00198   0.00000  -0.00198   2.07282
   R10        2.75976  -0.02025  -0.04135   0.00000  -0.04135   2.71840
   R11        2.65592  -0.00495  -0.02145   0.00000  -0.02145   2.63446
   R12        1.71644   0.24957   0.51936   0.00000   0.51936   2.23580
    A1        2.13886   0.00106   0.00093   0.00000   0.00093   2.13979
    A2        2.10696   0.00188   0.00747   0.00000   0.00747   2.11443
    A3        2.03700  -0.00294  -0.00843   0.00000  -0.00843   2.02857
    A4        2.09929   0.00338   0.00907   0.00000   0.00902   2.10831
    A5        2.03073  -0.00492  -0.01181   0.00000  -0.01185   2.01888
    A6        2.15200   0.00146   0.00215   0.00000   0.00210   2.15410
    A7        1.95474   0.00190   0.00765   0.00000   0.00764   1.96239
    A8        1.92607  -0.00003   0.00158   0.00000   0.00155   1.92762
    A9        1.91738  -0.00294  -0.01370   0.00000  -0.01370   1.90368
   A10        1.90046   0.00009   0.00015   0.00000   0.00011   1.90057
   A11        1.87594   0.00052   0.00299   0.00000   0.00302   1.87896
   A12        1.88737   0.00044   0.00129   0.00000   0.00126   1.88864
   A13        2.08558  -0.00276  -0.00348   0.00000  -0.00548   2.08011
   A14        2.03215  -0.01215  -0.04901   0.00000  -0.04800   1.98416
   A15        1.39444   0.04653   0.19832   0.00000   0.20732   1.60176
   A16        2.05120   0.00608   0.01389   0.00000   0.01025   2.06145
   A17        1.37641   0.01425   0.04911   0.00000   0.05631   1.43272
   A18        2.39528  -0.04729  -0.18537   0.00000  -0.18791   2.20737
   A19        1.86688  -0.00347  -0.02113   0.00000  -0.02113   1.84575
    D1       -0.16851  -0.00102  -0.00487   0.00000  -0.00489  -0.17339
    D2        2.92276  -0.00273  -0.01849   0.00000  -0.01847   2.90429
    D3        3.00194  -0.00116  -0.00381   0.00000  -0.00383   2.99812
    D4       -0.18998  -0.00286  -0.01743   0.00000  -0.01741  -0.20739
    D5        0.91786  -0.00174  -0.01095   0.00000  -0.01104   0.90682
    D6        3.03819  -0.00034  -0.00447   0.00000  -0.00453   3.03366
    D7       -1.16550  -0.00166  -0.01050   0.00000  -0.01054  -1.17604
    D8       -2.16977   0.00027   0.00399   0.00000   0.00403  -2.16575
    D9       -0.04944   0.00167   0.01047   0.00000   0.01053  -0.03890
   D10        2.03006   0.00036   0.00444   0.00000   0.00453   2.03458
   D11        0.18108   0.02047   0.09477   0.00000   0.08985   0.27094
   D12        2.81558   0.00406   0.01451   0.00000   0.01300   2.82859
   D13       -1.05740  -0.02856  -0.10781   0.00000  -0.10156  -1.15896
   D14       -3.01251   0.01876   0.08087   0.00000   0.07607  -2.93644
   D15       -0.37801   0.00235   0.00062   0.00000  -0.00078  -0.37879
   D16        2.03219  -0.03027  -0.12171   0.00000  -0.11534   1.91685
   D17       -3.00131   0.01415   0.06896   0.00000   0.06452  -2.93679
   D18       -0.35656  -0.00443  -0.01390   0.00000  -0.01589  -0.37246
   D19        1.45940  -0.01111  -0.06525   0.00000  -0.05883   1.40058
         Item               Value     Threshold  Converged?
 Maximum Force            0.249566     0.000450     NO 
 RMS     Force            0.037814     0.000300     NO 
 Maximum Displacement     0.601281     0.001800     NO 
 RMS     Displacement     0.106009     0.001200     NO 
 Predicted change in Energy=-4.274947D-02
 GradGradGradGradGradGradGradGradGradGradGradGradGradGradGradGradGradGrad

                          Input orientation:                          
 ---------------------------------------------------------------------
 Center     Atomic      Atomic             Coordinates (Angstroms)
 Number     Number       Type             X           Y           Z
 ---------------------------------------------------------------------
      1          7           0        1.182757   -1.335660    0.136440
      2          1           0        2.159433   -1.564312    0.048832
      3          6           0        0.719955   -0.078778    0.021219
      4          1           0       -2.194622    1.244596    0.188922
      5          6           0        1.661822    1.083187   -0.026472
      6          6           0       -0.740960    0.052422   -0.136727
      7          1           0        2.445934    0.956734   -0.786413
      8          1           0        1.117989    2.006260   -0.230348
      9          1           0        2.155820    1.184372    0.947638
     10          8           0       -1.583807   -1.070899    0.174863
     11          1           0        0.484678   -2.059416    0.292373
     12          8           0       -1.221614    1.331274    0.140799
     13          1           0       -0.710554   -0.472877   -1.196420
 ---------------------------------------------------------------------
                    Distance matrix (angstroms):
                    1          2          3          4          5
     1  N    0.000000
     2  H    1.006902   0.000000
     3  C    1.344327   2.068737   0.000000
     4  H    4.250549   5.183376   3.205339   0.000000
     5  C    2.471206   2.694910   1.496513   3.865826   0.000000
     6  C    2.387903   3.325739   1.475273   1.907999   2.616867
     7  H    2.775309   2.671215   2.168769   4.750675   1.099242
     8  H    3.362611   3.729817   2.137545   3.424808   1.090589
     9  H    2.820542   2.891908   2.124973   4.416517   1.096888
    10  O    2.779470   3.777722   2.513012   2.394746   3.900606
    11  H    1.017572   1.763305   2.012910   4.255096   3.370947
    12  O    3.590760   4.452455   2.402548   0.978046   2.898919
    13  H    2.470939   3.313414   1.919457   2.659199   3.068922
                    6          7          8          9         10
     6  C    0.000000
     7  H    3.375821   0.000000
     8  H    2.698506   1.781615   0.000000
     9  H    3.293705   1.772828   1.772073   0.000000
    10  O    1.438517   4.612392   4.114948   4.434889   0.000000
    11  H    2.479148   3.755990   4.147775   3.707324   2.295562
    12  O    1.394099   3.801436   2.463148   3.475576   2.429564
    13  H    1.183137   3.489314   3.228464   3.944561   1.732229
                   11         12         13
    11  H    0.000000
    12  O    3.798840   0.000000
    13  H    2.482375   2.303106   0.000000
 Stoichiometry    C3H7NO2
 Framework group  C1[X(C3H7NO2)]
 Deg. of freedom    33
 Full point group                 C1      NOp   1
 Largest Abelian subgroup         C1      NOp   1
 Largest concise Abelian subgroup C1      NOp   1
                         Standard orientation:                         
 ---------------------------------------------------------------------
 Center     Atomic      Atomic             Coordinates (Angstroms)
 Number     Number       Type             X           Y           Z
 ---------------------------------------------------------------------
      1          7           0        1.151937    1.350470   -0.081389
      2          1           0        2.129188    1.580833   -0.005453
      3          6           0        0.696100    0.088937    0.007829
      4          1           0       -2.216038   -1.241856   -0.142647
      5          6           0        1.643081   -1.069845    0.006433
      6          6           0       -0.761150   -0.052794    0.188849
      7          1           0        2.440574   -0.960828    0.755066
      8          1           0        1.106596   -2.000466    0.194883
      9          1           0        2.119429   -1.142274   -0.978965
     10          8           0       -1.613843    1.074991   -0.076382
     11          1           0        0.448367    2.075213   -0.204638
     12          8           0       -1.241987   -1.325641   -0.114741
     13          1           0       -0.713218    0.443499    1.261793
 ---------------------------------------------------------------------
 Rotational constants (GHZ):      4.8165880      3.2431792      2.0004421
 Standard basis: 6-31G (6D, 7F)
 There are    68 symmetry adapted cartesian basis functions of A   symmetry.
 There are    68 symmetry adapted basis functions of A   symmetry.
    68 basis functions,   160 primitive gaussians,    68 cartesian basis functions
    24 alpha electrons       24 beta electrons
       nuclear repulsion energy       244.5387186756 Hartrees.
 NAtoms=   13 NActive=   13 NUniq=   13 SFac= 1.00D+00 NAtFMM=   60 NAOKFM=F Big=F
 Integral buffers will be    131072 words long.
 Raffenetti 2 integral format.
 Two-electron integral symmetry is turned on.
 One-electron integrals computed using PRISM.
 NBasis=    68 RedAO= T EigKep=  3.21D-03  NBF=    68
 NBsUse=    68 1.00D-06 EigRej= -1.00D+00 NBFU=    68
 Initial guess from the checkpoint file:  "Ala-S-opt-freq-p3-6-31g.chk"
 B after Tr=     0.000000    0.000000    0.000000
         Rot=    0.999971    0.000247    0.002481   -0.007144 Ang=   0.87 deg.
 ExpMin= 1.61D-01 ExpMax= 5.48D+03 ExpMxC= 8.25D+02 IAcc=1 IRadAn=         1 AccDes= 0.00D+00
 Harris functional with IExCor=  402 and IRadAn=       1 diagonalized for initial guess.
 HarFok:  IExCor=  402 AccDes= 0.00D+00 IRadAn=         1 IDoV= 1 UseB2=F ITyADJ=14
 ICtDFT=  3500011 ScaDFX=  1.000000  1.000000  1.000000  1.000000
 FoFCou: FMM=F IPFlag=           0 FMFlag=      100000 FMFlg1=           0
         NFxFlg=           0 DoJE=T BraDBF=F KetDBF=T FulRan=T
         wScrn=  0.000000 ICntrl=     500 IOpCl=  0 I1Cent=   200000004 NGrid=           0
         NMat0=    1 NMatS0=      1 NMatT0=    0 NMatD0=    1 NMtDS0=    0 NMtDT0=    0
 Petite list used in FoFCou.
 Keep R1 ints in memory in canonical form, NReq=3676491.
 Requested convergence on RMS density matrix=1.00D-08 within 128 cycles.
 Requested convergence on MAX density matrix=1.00D-06.
 Requested convergence on             energy=1.00D-06.
 No special actions if energy rises.
 Integral accuracy reduced to 1.0D-05 until final iterations.
 Initial convergence to 1.0D-05 achieved.  Increase integral accuracy.
 SCF Done:  E(RB3LYP) =  -323.527049478     A.U. after   15 cycles
            NFock= 15  Conv=0.97D-08     -V/T= 2.0058
 Calling FoFJK, ICntrl=      2127 FMM=F ISym2X=0 I1Cent= 0 IOpClX= 0 NMat=1 NMatS=1 NMatT=0.
 ***** Axes restored to original set *****
 -------------------------------------------------------------------
 Center     Atomic                   Forces (Hartrees/Bohr)
 Number     Number              X              Y              Z
 -------------------------------------------------------------------
      1        7          -0.005108772    0.009759364    0.001885876
      2        1           0.000790163   -0.001054773   -0.000097241
      3        6          -0.002237911   -0.001363186    0.008541524
      4        1          -0.001131267    0.001214553    0.000784287
      5        6          -0.001836164   -0.001545994   -0.004602791
      6        6          -0.003519736   -0.074416180   -0.014587509
      7        1           0.000375198   -0.000224498    0.000698146
      8        1          -0.000399166   -0.000728198    0.000523788
      9        1           0.000413059    0.000429326    0.000893794
     10        8           0.016952157    0.022285616    0.014740026
     11        1          -0.003193517    0.000647385    0.000399336
     12        8          -0.002111264    0.006692117   -0.006089964
     13        1           0.001007219    0.038304469   -0.003089271
 -------------------------------------------------------------------
 Cartesian Forces:  Max     0.074416180 RMS     0.014831297

 GradGradGradGradGradGradGradGradGradGradGradGradGradGradGradGradGradGrad
 Berny optimization.
 Using GEDIIS/GDIIS optimizer.
 FormGI is forming the generalized inverse of G from B-inverse, IUseBI=4.
 Internal  Forces:  Max     0.024142445 RMS     0.008404911
 Search for a local minimum.
 Step number   3 out of a maximum of   60
 All quantities printed in internal units (Hartrees-Bohrs-Radians)
 Mixed Optimization -- RFO/linear search
 Update second derivatives using D2CorX and points    2    3
 ITU=  0  1  0
 Use linear search instead of GDIIS.
     Eigenvalues ---    0.00816   0.01545   0.01629   0.02127   0.02225
     Eigenvalues ---    0.02226   0.05323   0.07134   0.07521   0.07805
     Eigenvalues ---    0.13018   0.15992   0.16000   0.16000   0.16000
     Eigenvalues ---    0.16000   0.16030   0.22450   0.23759   0.24865
     Eigenvalues ---    0.24956   0.32773   0.33787   0.33853   0.34794
     Eigenvalues ---    0.34828   0.43854   0.45510   0.46298   0.46700
     Eigenvalues ---    0.50712   0.51941   0.54559
 RFO step:  Lambda=-2.81869598D-02 EMin= 8.15807298D-03
 Quartic linear search produced a step of  0.10924.
 Iteration  1 RMS(Cart)=  0.08310933 RMS(Int)=  0.00899152
 Iteration  2 RMS(Cart)=  0.00823536 RMS(Int)=  0.00216308
 Iteration  3 RMS(Cart)=  0.00011496 RMS(Int)=  0.00216031
 Iteration  4 RMS(Cart)=  0.00000026 RMS(Int)=  0.00216031
 Variable       Old X    -DE/DX   Delta X   Delta X   Delta X     New X
                                 (Linear)    (Quad)   (Total)
    R1        1.90277   0.00101   0.00016   0.00210   0.00226   1.90503
    R2        2.54041  -0.01114  -0.00213  -0.02019  -0.02233   2.51808
    R3        1.92293   0.00179   0.00068   0.00360   0.00428   1.92722
    R4        2.82800  -0.00244   0.00004  -0.00725  -0.00722   2.82078
    R5        2.78786  -0.01073   0.01077  -0.02822  -0.01745   2.77041
    R6        1.84824   0.00106   0.00012   0.00201   0.00213   1.85037
    R7        2.07727  -0.00019   0.00003  -0.00056  -0.00053   2.07674
    R8        2.06091  -0.00052   0.00006  -0.00148  -0.00142   2.05950
    R9        2.07282   0.00102  -0.00022   0.00303   0.00282   2.07563
   R10        2.71840  -0.02414  -0.00452  -0.06486  -0.06938   2.64903
   R11        2.63446   0.00731  -0.00234   0.01773   0.01538   2.64985
   R12        2.23580  -0.01421   0.05673  -0.04072   0.01601   2.25182
    A1        2.13979   0.00282   0.00010   0.01591   0.01601   2.15580
    A2        2.11443   0.00123   0.00082   0.00698   0.00779   2.12222
    A3        2.02857  -0.00405  -0.00092  -0.02289  -0.02382   2.00476
    A4        2.10831   0.00596   0.00099   0.02283   0.02382   2.13213
    A5        2.01888  -0.00981  -0.00129  -0.03745  -0.03876   1.98012
    A6        2.15410   0.00388   0.00023   0.01491   0.01513   2.16923
    A7        1.96239   0.00045   0.00084   0.00333   0.00417   1.96655
    A8        1.92762  -0.00106   0.00017  -0.00591  -0.00574   1.92188
    A9        1.90368   0.00030  -0.00150   0.00087  -0.00063   1.90305
   A10        1.90057   0.00072   0.00001   0.00572   0.00573   1.90631
   A11        1.87896  -0.00037   0.00033  -0.00206  -0.00173   1.87723
   A12        1.88864  -0.00004   0.00014  -0.00206  -0.00193   1.88670
   A13        2.08011  -0.00842  -0.00060  -0.05724  -0.06203   2.01808
   A14        1.98416   0.00069  -0.00524  -0.02502  -0.03609   1.94806
   A15        1.60176   0.01097   0.02265   0.08452   0.10817   1.70993
   A16        2.06145   0.00104   0.00112  -0.01011  -0.01412   2.04733
   A17        1.43272   0.02069   0.00615   0.22304   0.23764   1.67036
   A18        2.20737  -0.02278  -0.02053  -0.16254  -0.18129   2.02608
   A19        1.84575   0.00264  -0.00231   0.01480   0.01249   1.85823
    D1       -0.17339  -0.00039  -0.00053  -0.00784  -0.00835  -0.18174
    D2        2.90429   0.00014  -0.00202  -0.00254  -0.00458   2.89971
    D3        2.99812  -0.00041  -0.00042  -0.00747  -0.00786   2.99025
    D4       -0.20739   0.00012  -0.00190  -0.00216  -0.00409  -0.21148
    D5        0.90682  -0.00030  -0.00121  -0.00561  -0.00678   0.90004
    D6        3.03366   0.00018  -0.00049  -0.00018  -0.00064   3.03302
    D7       -1.17604  -0.00032  -0.00115  -0.00570  -0.00681  -1.18284
    D8       -2.16575  -0.00037   0.00044  -0.00941  -0.00901  -2.17476
    D9       -0.03890   0.00011   0.00115  -0.00398  -0.00288  -0.04178
   D10        2.03458  -0.00040   0.00049  -0.00951  -0.00904   2.02554
   D11        0.27094   0.01066   0.00982   0.09384   0.09934   0.37028
   D12        2.82859   0.00011   0.00142  -0.06225  -0.05842   2.77017
   D13       -1.15896  -0.01959  -0.01109  -0.21190  -0.22101  -1.37997
   D14       -2.93644   0.01128   0.00831   0.09955   0.10350  -2.83294
   D15       -0.37879   0.00072  -0.00008  -0.05654  -0.05426  -0.43305
   D16        1.91685  -0.01898  -0.01260  -0.20619  -0.21686   1.69999
   D17       -2.93679   0.00465   0.00705   0.05459   0.06256  -2.87423
   D18       -0.37246  -0.00917  -0.00174  -0.11653  -0.11541  -0.48787
   D19        1.40058   0.00534  -0.00643   0.07941   0.06921   1.46979
         Item               Value     Threshold  Converged?
 Maximum Force            0.024142     0.000450     NO 
 RMS     Force            0.008405     0.000300     NO 
 Maximum Displacement     0.343485     0.001800     NO 
 RMS     Displacement     0.085678     0.001200     NO 
 Predicted change in Energy=-1.413901D-02
 GradGradGradGradGradGradGradGradGradGradGradGradGradGradGradGradGradGrad

                          Input orientation:                          
 ---------------------------------------------------------------------
 Center     Atomic      Atomic             Coordinates (Angstroms)
 Number     Number       Type             X           Y           Z
 ---------------------------------------------------------------------
      1          7           0        1.163890   -1.336331    0.157210
      2          1           0        2.135729   -1.597253    0.096278
      3          6           0        0.726979   -0.086210    0.009239
      4          1           0       -2.178232    1.197121    0.229973
      5          6           0        1.657042    1.080440   -0.035993
      6          6           0       -0.723659    0.006143   -0.181536
      7          1           0        2.466844    0.948568   -0.767121
      8          1           0        1.105600    1.990478   -0.271559
      9          1           0        2.120031    1.208029    0.951831
     10          8           0       -1.465643   -1.094883    0.268195
     11          1           0        0.433013   -2.030486    0.312254
     12          8           0       -1.206855    1.282399    0.140905
     13          1           0       -0.757908   -0.291113   -1.334967
 ---------------------------------------------------------------------
                    Distance matrix (angstroms):
                    1          2          3          4          5
     1  N    0.000000
     2  H    1.008099   0.000000
     3  C    1.332512   2.067705   0.000000
     4  H    4.194455   5.141659   3.183695   0.000000
     5  C    2.474128   2.723357   1.492694   3.846256   0.000000
     6  C    2.340903   3.290009   1.466040   1.924461   2.615919
     7  H    2.787981   2.708560   2.168094   4.757385   1.098962
     8  H    3.354831   3.750771   2.129515   3.415333   1.089839
     9  H    2.831854   2.932887   2.122293   4.358470   1.098378
    10  O    2.642926   3.640304   2.427358   2.400526   3.817816
    11  H    1.019839   1.770191   1.989583   4.152447   3.361158
    12  O    3.532483   4.412171   2.372791   0.979173   2.876454
    13  H    2.648090   3.482471   2.013397   2.584801   3.066020
                    6          7          8          9         10
     6  C    0.000000
     7  H    3.377926   0.000000
     8  H    2.700347   1.784417   0.000000
     9  H    3.288711   1.772680   1.771434   0.000000
    10  O    1.401805   4.551047   4.052415   4.315995   0.000000
    11  H    2.393653   3.765140   4.118416   3.707164   2.117118
    12  O    1.402239   3.798950   2.453354   3.425099   2.394711
    13  H    1.191612   3.501184   3.131957   3.969812   1.927969
                   11         12         13
    11  H    0.000000
    12  O    3.700504   0.000000
    13  H    2.675266   2.203563   0.000000
 Stoichiometry    C3H7NO2
 Framework group  C1[X(C3H7NO2)]
 Deg. of freedom    33
 Full point group                 C1      NOp   1
 Largest Abelian subgroup         C1      NOp   1
 Largest concise Abelian subgroup C1      NOp   1
                         Standard orientation:                         
 ---------------------------------------------------------------------
 Center     Atomic      Atomic             Coordinates (Angstroms)
 Number     Number       Type             X           Y           Z
 ---------------------------------------------------------------------
      1          7           0        1.095538    1.351273   -0.067549
      2          1           0        2.064282    1.625999   -0.019321
      3          6           0        0.683655    0.087389    0.024854
      4          1           0       -2.205101   -1.234351   -0.184917
      5          6           0        1.633725   -1.063108   -0.018265
      6          6           0       -0.759277   -0.041065    0.250066
      7          1           0        2.461631   -0.955882    0.696432
      8          1           0        1.104248   -1.994177    0.183012
      9          1           0        2.070583   -1.129491   -1.023840
     10          8           0       -1.531747    1.068865   -0.119261
     11          1           0        0.349223    2.039460   -0.164927
     12          8           0       -1.230317   -1.306785   -0.127221
     13          1           0       -0.765731    0.193591    1.418327
 ---------------------------------------------------------------------
 Rotational constants (GHZ):      4.8401009      3.3836927      2.0725661
 Standard basis: 6-31G (6D, 7F)
 There are    68 symmetry adapted cartesian basis functions of A   symmetry.
 There are    68 symmetry adapted basis functions of A   symmetry.
    68 basis functions,   160 primitive gaussians,    68 cartesian basis functions
    24 alpha electrons       24 beta electrons
       nuclear repulsion energy       246.9145323115 Hartrees.
 NAtoms=   13 NActive=   13 NUniq=   13 SFac= 1.00D+00 NAtFMM=   60 NAOKFM=F Big=F
 Integral buffers will be    131072 words long.
 Raffenetti 2 integral format.
 Two-electron integral symmetry is turned on.
 One-electron integrals computed using PRISM.
 NBasis=    68 RedAO= T EigKep=  3.25D-03  NBF=    68
 NBsUse=    68 1.00D-06 EigRej= -1.00D+00 NBFU=    68
 Initial guess from the checkpoint file:  "Ala-S-opt-freq-p3-6-31g.chk"
 B after Tr=     0.000000    0.000000    0.000000
         Rot=    0.999984   -0.005501    0.000381   -0.001392 Ang=  -0.65 deg.
 ExpMin= 1.61D-01 ExpMax= 5.48D+03 ExpMxC= 8.25D+02 IAcc=1 IRadAn=         1 AccDes= 0.00D+00
 Harris functional with IExCor=  402 and IRadAn=       1 diagonalized for initial guess.
 HarFok:  IExCor=  402 AccDes= 0.00D+00 IRadAn=         1 IDoV= 1 UseB2=F ITyADJ=14
 ICtDFT=  3500011 ScaDFX=  1.000000  1.000000  1.000000  1.000000
 FoFCou: FMM=F IPFlag=           0 FMFlag=      100000 FMFlg1=           0
         NFxFlg=           0 DoJE=T BraDBF=F KetDBF=T FulRan=T
         wScrn=  0.000000 ICntrl=     500 IOpCl=  0 I1Cent=   200000004 NGrid=           0
         NMat0=    1 NMatS0=      1 NMatT0=    0 NMatD0=    1 NMtDS0=    0 NMtDT0=    0
 Petite list used in FoFCou.
 Keep R1 ints in memory in canonical form, NReq=3676491.
 Requested convergence on RMS density matrix=1.00D-08 within 128 cycles.
 Requested convergence on MAX density matrix=1.00D-06.
 Requested convergence on             energy=1.00D-06.
 No special actions if energy rises.
 Integral accuracy reduced to 1.0D-05 until final iterations.
 Initial convergence to 1.0D-05 achieved.  Increase integral accuracy.
 SCF Done:  E(RB3LYP) =  -323.548443612     A.U. after   16 cycles
            NFock= 16  Conv=0.84D-08     -V/T= 2.0056
 Calling FoFJK, ICntrl=      2127 FMM=F ISym2X=0 I1Cent= 0 IOpClX= 0 NMat=1 NMatS=1 NMatT=0.
 ***** Axes restored to original set *****
 -------------------------------------------------------------------
 Center     Atomic                   Forces (Hartrees/Bohr)
 Number     Number              X              Y              Z
 -------------------------------------------------------------------
      1        7          -0.000953480    0.017707276   -0.000939799
      2        1           0.002147331    0.000125673    0.002150018
      3        6           0.021251755   -0.009393565    0.000868485
      4        1           0.001433925   -0.000618376    0.001376456
      5        6           0.000136490   -0.001327046   -0.003731338
      6        6          -0.034188116   -0.067838667   -0.018701256
      7        1           0.000190923   -0.000283461    0.000831199
      8        1          -0.000656484   -0.000513283    0.000335879
      9        1          -0.000119560    0.000223065    0.000067648
     10        8           0.014975639    0.017758291    0.004233801
     11        1          -0.010156018   -0.000249033   -0.000056243
     12        8          -0.003200400    0.017685275   -0.000843573
     13        1           0.009137995    0.026723852    0.014408723
 -------------------------------------------------------------------
 Cartesian Forces:  Max     0.067838667 RMS     0.015188855

 GradGradGradGradGradGradGradGradGradGradGradGradGradGradGradGradGradGrad
 Berny optimization.
 Using GEDIIS/GDIIS optimizer.
 FormGI is forming the generalized inverse of G from B-inverse, IUseBI=4.
 Internal  Forces:  Max     0.020876130 RMS     0.007564378
 Search for a local minimum.
 Step number   4 out of a maximum of   60
 All quantities printed in internal units (Hartrees-Bohrs-Radians)
 Mixed Optimization -- RFO/linear search
 Update second derivatives using D2CorX and points    3    4
 DE= -2.14D-02 DEPred=-1.41D-02 R= 1.51D+00
 TightC=F SS=  1.41D+00  RLast= 5.11D-01 DXNew= 8.4853D-01 1.5335D+00
 Trust test= 1.51D+00 RLast= 5.11D-01 DXMaxT set to 8.49D-01
 ITU=  1  0  1  0
 Use linear search instead of GDIIS.
     Eigenvalues ---    0.00815   0.01500   0.01583   0.01815   0.02226
     Eigenvalues ---    0.02238   0.03553   0.06961   0.07116   0.07552
     Eigenvalues ---    0.13249   0.15993   0.16000   0.16000   0.16000
     Eigenvalues ---    0.16028   0.16964   0.21173   0.23894   0.24821
     Eigenvalues ---    0.25040   0.32718   0.33442   0.33788   0.33866
     Eigenvalues ---    0.34797   0.44169   0.45578   0.46693   0.49030
     Eigenvalues ---    0.50980   0.52003   0.58425
 RFO step:  Lambda=-1.34033193D-02 EMin= 8.15020343D-03
 Quartic linear search produced a step of  0.84195.
 Iteration  1 RMS(Cart)=  0.10573715 RMS(Int)=  0.02894853
 Iteration  2 RMS(Cart)=  0.02961101 RMS(Int)=  0.00477797
 Iteration  3 RMS(Cart)=  0.00130610 RMS(Int)=  0.00456304
 Iteration  4 RMS(Cart)=  0.00000473 RMS(Int)=  0.00456304
 Iteration  5 RMS(Cart)=  0.00000003 RMS(Int)=  0.00456304
 Variable       Old X    -DE/DX   Delta X   Delta X   Delta X     New X
                                 (Linear)    (Quad)   (Total)
    R1        1.90503   0.00191   0.00190   0.00605   0.00795   1.91298
    R2        2.51808  -0.01931  -0.01880  -0.05380  -0.07260   2.44548
    R3        1.92722   0.00744   0.00361   0.02567   0.02927   1.95649
    R4        2.82078  -0.00169  -0.00608  -0.00574  -0.01182   2.80897
    R5        2.77041   0.01126  -0.01469   0.05046   0.03577   2.80618
    R6        1.85037  -0.00124   0.00179  -0.00455  -0.00275   1.84761
    R7        2.07674  -0.00038  -0.00045  -0.00162  -0.00206   2.07467
    R8        2.05950  -0.00017  -0.00119  -0.00024  -0.00143   2.05806
    R9        2.07563   0.00004   0.00237  -0.00096   0.00141   2.07705
   R10        2.64903  -0.02051  -0.05841  -0.07225  -0.13066   2.51837
   R11        2.64985   0.01626   0.01295   0.05451   0.06746   2.71731
   R12        2.25182  -0.02088   0.01348  -0.02469  -0.01120   2.24062
    A1        2.15580   0.00406   0.01348   0.03227   0.04542   2.20122
    A2        2.12222   0.00460   0.00656   0.04229   0.04852   2.17074
    A3        2.00476  -0.00863  -0.02005  -0.07328  -0.09366   1.91110
    A4        2.13213   0.00608   0.02005   0.03106   0.05074   2.18287
    A5        1.98012  -0.01174  -0.03263  -0.06004  -0.09307   1.88705
    A6        2.16923   0.00573   0.01274   0.03161   0.04397   2.21321
    A7        1.96655   0.00036   0.00351   0.00383   0.00735   1.97390
    A8        1.92188  -0.00116  -0.00484  -0.00827  -0.01312   1.90875
    A9        1.90305   0.00013  -0.00053  -0.00167  -0.00223   1.90082
   A10        1.90631   0.00080   0.00482   0.00735   0.01220   1.91851
   A11        1.87723  -0.00024  -0.00146  -0.00110  -0.00256   1.87467
   A12        1.88670   0.00012  -0.00163  -0.00014  -0.00184   1.88486
   A13        2.01808  -0.00477  -0.05222  -0.01864  -0.07879   1.93929
   A14        1.94806  -0.00262  -0.03039  -0.03321  -0.07657   1.87150
   A15        1.70993  -0.00199   0.09108  -0.06063   0.02012   1.73005
   A16        2.04733   0.00320  -0.01189   0.03562   0.01293   2.06026
   A17        1.67036   0.01576   0.20008   0.13920   0.34915   2.01950
   A18        2.02608  -0.00892  -0.15264  -0.06244  -0.21728   1.80880
   A19        1.85823  -0.00076   0.01051  -0.01627  -0.00575   1.85248
    D1       -0.18174   0.00114  -0.00703   0.06302   0.05675  -0.12500
    D2        2.89971   0.00247  -0.00386   0.11033   0.10572   3.00542
    D3        2.99025   0.00014  -0.00662   0.01524   0.00938   2.99963
    D4       -0.21148   0.00146  -0.00344   0.06255   0.05835  -0.15314
    D5        0.90004   0.00006  -0.00571   0.01665   0.01209   0.91213
    D6        3.03302   0.00051  -0.00054   0.02280   0.02335   3.05637
    D7       -1.18284   0.00005  -0.00573   0.01674   0.01217  -1.17067
    D8       -2.17476  -0.00081  -0.00759  -0.03272  -0.04143  -2.21619
    D9       -0.04178  -0.00036  -0.00242  -0.02657  -0.03017  -0.07196
   D10        2.02554  -0.00082  -0.00761  -0.03263  -0.04135   1.98419
   D11        0.37028   0.00287   0.08364  -0.03663   0.04118   0.41146
   D12        2.77017  -0.00039  -0.04919  -0.03937  -0.08374   2.68643
   D13       -1.37997  -0.01287  -0.18608  -0.15890  -0.34150  -1.72147
   D14       -2.83294   0.00423   0.08714   0.01173   0.09139  -2.74155
   D15       -0.43305   0.00096  -0.04569   0.00898  -0.03354  -0.46659
   D16        1.69999  -0.01151  -0.18258  -0.11055  -0.29129   1.40870
   D17       -2.87423   0.00006   0.05267   0.00719   0.06880  -2.80543
   D18       -0.48787  -0.00701  -0.09717  -0.02136  -0.11262  -0.60049
   D19        1.46979   0.00983   0.05827   0.14510   0.18853   1.65832
         Item               Value     Threshold  Converged?
 Maximum Force            0.020876     0.000450     NO 
 RMS     Force            0.007564     0.000300     NO 
 Maximum Displacement     0.444744     0.001800     NO 
 RMS     Displacement     0.121865     0.001200     NO 
 Predicted change in Energy=-2.026015D-02
 GradGradGradGradGradGradGradGradGradGradGradGradGradGradGradGradGradGrad

                          Input orientation:                          
 ---------------------------------------------------------------------
 Center     Atomic      Atomic             Coordinates (Angstroms)
 Number     Number       Type             X           Y           Z
 ---------------------------------------------------------------------
      1          7           0        1.124230   -1.318030    0.172033
      2          1           0        2.079149   -1.648934    0.230343
      3          6           0        0.751575   -0.095588   -0.031542
      4          1           0       -2.154987    1.112360    0.317874
      5          6           0        1.661032    1.079577   -0.068755
      6          6           0       -0.719728   -0.088652   -0.232401
      7          1           0        2.505766    0.948770   -0.757691
      8          1           0        1.092818    1.967387   -0.342658
      9          1           0        2.077585    1.239547    0.935719
     10          8           0       -1.286000   -1.156022    0.329782
     11          1           0        0.289205   -1.919561    0.285168
     12          8           0       -1.196224    1.211814    0.154135
     13          1           0       -0.747591   -0.055764   -1.417300
 ---------------------------------------------------------------------
                    Distance matrix (angstroms):
                    1          2          3          4          5
     1  N    0.000000
     2  H    1.012308   0.000000
     3  C    1.294094   2.060078   0.000000
     4  H    4.084278   5.055721   3.166912   0.000000
     5  C    2.468736   2.776518   1.486442   3.835695   0.000000
     6  C    2.252803   3.237642   1.484966   1.950692   2.656983
     7  H    2.812722   2.811810   2.166832   4.786044   1.097870
     8  H    3.325636   3.791959   2.114026   3.422808   1.089080
     9  H    2.834308   2.973362   2.115770   4.279320   1.099125
    10  O    2.420815   3.402511   2.325250   2.429163   3.720448
    11  H    1.035330   1.811117   1.908133   3.894571   3.316927
    12  O    3.432920   4.349455   2.353231   0.977715   2.868986
    13  H    2.760980   3.639145   2.041913   2.521131   2.984801
                    6          7          8          9         10
     6  C    0.000000
     7  H    3.428700   0.000000
     8  H    2.743133   1.790601   0.000000
     9  H    3.309619   1.770742   1.770244   0.000000
    10  O    1.332663   4.471044   3.983294   4.173681   0.000000
    11  H    2.153614   3.772005   4.018498   3.688019   1.751072
    12  O    1.437939   3.821695   2.461181   3.365928   2.376038
    13  H    1.185683   3.468213   2.938554   3.898224   2.133716
                   11         12         13
    11  H    0.000000
    12  O    3.468310   0.000000
    13  H    2.728934   2.068196   0.000000
 Stoichiometry    C3H7NO2
 Framework group  C1[X(C3H7NO2)]
 Deg. of freedom    33
 Full point group                 C1      NOp   1
 Largest Abelian subgroup         C1      NOp   1
 Largest concise Abelian subgroup C1      NOp   1
                         Standard orientation:                         
 ---------------------------------------------------------------------
 Center     Atomic      Atomic             Coordinates (Angstroms)
 Number     Number       Type             X           Y           Z
 ---------------------------------------------------------------------
      1          7           0        0.948930    1.366099   -0.061488
      2          1           0        1.872618    1.774678   -0.129539
      3          6           0        0.679050    0.106168    0.058593
      4          1           0       -2.140406   -1.296931   -0.275040
      5          6           0        1.675498   -0.993112   -0.031872
      6          6           0       -0.777279   -0.031911    0.313865
      7          1           0        2.537351   -0.848928    0.632762
      8          1           0        1.188599   -1.941176    0.192178
      9          1           0        2.058457   -1.042923   -1.060919
     10          8           0       -1.446751    1.027177   -0.140151
     11          1           0        0.066661    1.906832   -0.094907
     12          8           0       -1.170607   -1.332705   -0.156133
     13          1           0       -0.750537   -0.156896    1.492639
 ---------------------------------------------------------------------
 Rotational constants (GHZ):      4.8853858      3.5832558      2.1719314
 Standard basis: 6-31G (6D, 7F)
 There are    68 symmetry adapted cartesian basis functions of A   symmetry.
 There are    68 symmetry adapted basis functions of A   symmetry.
    68 basis functions,   160 primitive gaussians,    68 cartesian basis functions
    24 alpha electrons       24 beta electrons
       nuclear repulsion energy       250.8761533093 Hartrees.
 NAtoms=   13 NActive=   13 NUniq=   13 SFac= 1.00D+00 NAtFMM=   60 NAOKFM=F Big=F
 Integral buffers will be    131072 words long.
 Raffenetti 2 integral format.
 Two-electron integral symmetry is turned on.
 One-electron integrals computed using PRISM.
 NBasis=    68 RedAO= T EigKep=  3.02D-03  NBF=    68
 NBsUse=    68 1.00D-06 EigRej= -1.00D+00 NBFU=    68
 Initial guess from the checkpoint file:  "Ala-S-opt-freq-p3-6-31g.chk"
 B after Tr=     0.000000    0.000000    0.000000
         Rot=    0.999772   -0.006961   -0.000117   -0.020166 Ang=  -2.44 deg.
 ExpMin= 1.61D-01 ExpMax= 5.48D+03 ExpMxC= 8.25D+02 IAcc=1 IRadAn=         1 AccDes= 0.00D+00
 Harris functional with IExCor=  402 and IRadAn=       1 diagonalized for initial guess.
 HarFok:  IExCor=  402 AccDes= 0.00D+00 IRadAn=         1 IDoV= 1 UseB2=F ITyADJ=14
 ICtDFT=  3500011 ScaDFX=  1.000000  1.000000  1.000000  1.000000
 FoFCou: FMM=F IPFlag=           0 FMFlag=      100000 FMFlg1=           0
         NFxFlg=           0 DoJE=T BraDBF=F KetDBF=T FulRan=T
         wScrn=  0.000000 ICntrl=     500 IOpCl=  0 I1Cent=   200000004 NGrid=           0
         NMat0=    1 NMatS0=      1 NMatT0=    0 NMatD0=    1 NMtDS0=    0 NMtDT0=    0
 Petite list used in FoFCou.
 Keep R1 ints in memory in canonical form, NReq=3676491.
 Requested convergence on RMS density matrix=1.00D-08 within 128 cycles.
 Requested convergence on MAX density matrix=1.00D-06.
 Requested convergence on             energy=1.00D-06.
 No special actions if energy rises.
 Integral accuracy reduced to 1.0D-05 until final iterations.
 Initial convergence to 1.0D-05 achieved.  Increase integral accuracy.
 SCF Done:  E(RB3LYP) =  -323.562782565     A.U. after   16 cycles
            NFock= 16  Conv=0.68D-08     -V/T= 2.0049
 Calling FoFJK, ICntrl=      2127 FMM=F ISym2X=0 I1Cent= 0 IOpClX= 0 NMat=1 NMatS=1 NMatT=0.
 ***** Axes restored to original set *****
 -------------------------------------------------------------------
 Center     Atomic                   Forces (Hartrees/Bohr)
 Number     Number              X              Y              Z
 -------------------------------------------------------------------
      1        7           0.026651588   -0.003945628   -0.000081191
      2        1           0.000145207    0.002185650    0.001821660
      3        6           0.023405868    0.003848066    0.000679741
      4        1           0.000327910    0.000325824    0.001567742
      5        6          -0.000400487    0.000565924   -0.003438569
      6        6          -0.016726826    0.000836659   -0.023767759
      7        1          -0.000534559   -0.000565981    0.000405296
      8        1           0.000062504    0.000659853   -0.000117155
      9        1          -0.000930361   -0.000029479   -0.000509151
     10        8          -0.010684925   -0.008062283   -0.005742133
     11        1          -0.014457915   -0.007588166    0.004642217
     12        8          -0.006928827    0.016411008    0.008619489
     13        1           0.000070823   -0.004641446    0.015919813
 -------------------------------------------------------------------
 Cartesian Forces:  Max     0.026651588 RMS     0.009235851

 GradGradGradGradGradGradGradGradGradGradGradGradGradGradGradGradGradGrad
 Berny optimization.
 Using GEDIIS/GDIIS optimizer.
 FormGI is forming the generalized inverse of G from B-inverse, IUseBI=4.
 Internal  Forces:  Max     0.034113779 RMS     0.008102554
 Search for a local minimum.
 Step number   5 out of a maximum of   60
 All quantities printed in internal units (Hartrees-Bohrs-Radians)
 Mixed Optimization -- RFO/linear search
 Update second derivatives using D2CorX and points    4    5
 DE= -1.43D-02 DEPred=-2.03D-02 R= 7.08D-01
 TightC=F SS=  1.41D+00  RLast= 7.30D-01 DXNew= 1.4270D+00 2.1914D+00
 Trust test= 7.08D-01 RLast= 7.30D-01 DXMaxT set to 1.43D+00
 ITU=  1  1  0  1  0
 Use linear search instead of GDIIS.
     Eigenvalues ---    0.00815   0.01539   0.01564   0.01852   0.02221
     Eigenvalues ---    0.02304   0.06438   0.07097   0.07630   0.08351
     Eigenvalues ---    0.13329   0.15977   0.16000   0.16000   0.16014
     Eigenvalues ---    0.16025   0.16743   0.20121   0.24580   0.24940
     Eigenvalues ---    0.27368   0.32582   0.33223   0.33792   0.33861
     Eigenvalues ---    0.34797   0.43320   0.45502   0.46703   0.49137
     Eigenvalues ---    0.51904   0.53274   0.56729
 RFO step:  Lambda=-9.22183662D-03 EMin= 8.15378130D-03
 Quartic linear search produced a step of -0.11079.
 Iteration  1 RMS(Cart)=  0.08938451 RMS(Int)=  0.00416081
 Iteration  2 RMS(Cart)=  0.00500174 RMS(Int)=  0.00073015
[...]
 Vib (Bot)    7  0.350557D+00         -0.455241         -1.048232
 Vib (Bot)    8  0.270963D+00         -0.567091         -1.305775
 Vib (Bot)    9  0.235903D+00         -0.627266         -1.444334
 Vib (V=0)       0.342771D+02          1.535004          3.534478
 Vib (V=0)    1  0.296548D+01          0.472095          1.087039
 Vib (V=0)    2  0.207175D+01          0.316338          0.728396
 Vib (V=0)    3  0.192650D+01          0.284768          0.655703
 Vib (V=0)    4  0.141848D+01          0.151823          0.349584
 Vib (V=0)    5  0.125999D+01          0.100369          0.231108
 Vib (V=0)    6  0.116007D+01          0.064483          0.148478
 Vib (V=0)    7  0.111065D+01          0.045576          0.104943
 Vib (V=0)    8  0.106870D+01          0.028856          0.066444
 Vib (V=0)    9  0.105286D+01          0.022369          0.051507
 Electronic      0.100000D+01          0.000000          0.000000
 Translational   0.330285D+08          7.518889         17.312882
 Rotational      0.146924D+06          5.167094         11.897673
 ***** Axes restored to original set *****
 -------------------------------------------------------------------
 Center     Atomic                   Forces (Hartrees/Bohr)
 Number     Number              X              Y              Z
 -------------------------------------------------------------------
      1        7           0.000029644   -0.000137574   -0.000017448
      2        1           0.000002144    0.000061927   -0.000003169
      3        6          -0.000010664    0.000066111   -0.000012637
      4        1          -0.000029554   -0.000038896    0.000029467
      5        6           0.000037201   -0.000008736    0.000059444
      6        6          -0.000074160    0.000012617   -0.000125582
      7        1          -0.000012813   -0.000006424   -0.000009382
      8        1          -0.000006493   -0.000001140   -0.000024454
      9        1           0.000002840   -0.000003048   -0.000017239
     10        8          -0.000099368    0.000121621    0.000004671
     11        1           0.000076781   -0.000064674    0.000052241
     12        8           0.000060390    0.000007440    0.000015276
     13        1           0.000024052   -0.000009224    0.000048811
 -------------------------------------------------------------------
 Cartesian Forces:  Max     0.000137574 RMS     0.000051642
 FormGI is forming the generalized inverse of G from B-inverse, IUseBI=4.

 GradGradGradGradGradGradGradGradGradGradGradGradGradGradGradGradGradGrad
 Berny optimization.
 Internal  Forces:  Max     0.000415708 RMS     0.000104547
 Search for a local minimum.
 Step number   1 out of a maximum of    2
 All quantities printed in internal units (Hartrees-Bohrs-Radians)
 Second derivative matrix not updated -- analytic derivatives used.
 ITU=  0
     Eigenvalues ---    0.00067   0.00145   0.00431   0.01653   0.01803
     Eigenvalues ---    0.04250   0.05879   0.06166   0.06914   0.07667
     Eigenvalues ---    0.09253   0.11072   0.12960   0.13322   0.14183
     Eigenvalues ---    0.14524   0.15626   0.18839   0.20019   0.20825
     Eigenvalues ---    0.25357   0.31842   0.32676   0.33243   0.33893
     Eigenvalues ---    0.34598   0.34887   0.37090   0.42505   0.47772
     Eigenvalues ---    0.62637   0.82140  10.29990
 Angle between quadratic step and forces=  87.09 degrees.
 Linear search not attempted -- first point.
 Iteration  1 RMS(Cart)=  0.00389595 RMS(Int)=  0.00003846
 Iteration  2 RMS(Cart)=  0.00003750 RMS(Int)=  0.00000088
 Iteration  3 RMS(Cart)=  0.00000000 RMS(Int)=  0.00000088
 Variable       Old X    -DE/DX   Delta X   Delta X   Delta X     New X
                                 (Linear)    (Quad)   (Total)
    R1        1.93776   0.00000   0.00000   0.00002   0.00002   1.93777
    R2        2.42748   0.00017   0.00000   0.00012   0.00012   2.42760
    R3        3.63638  -0.00006   0.00000   0.00017   0.00017   3.63655
    R4        2.83472   0.00000   0.00000  -0.00006  -0.00006   2.83466
    R5        2.89622   0.00014   0.00000  -0.00023  -0.00023   2.89599
    R6        1.85268   0.00005   0.00000   0.00006   0.00006   1.85274
    R7        2.06756  -0.00001   0.00000  -0.00004  -0.00004   2.06752
    R8        2.07443   0.00002   0.00000   0.00010   0.00010   2.07453
    R9        2.06966  -0.00001   0.00000  -0.00005  -0.00005   2.06961
   R10        2.67347  -0.00006   0.00000   0.00000   0.00000   2.67347
   R11        2.75167  -0.00001   0.00000   0.00042   0.00042   2.75209
   R12        2.06816  -0.00005   0.00000  -0.00004  -0.00004   2.06812
    A1        2.02247  -0.00020   0.00000  -0.00075  -0.00076   2.02171
    A2        2.72089  -0.00008   0.00000   0.00057   0.00057   2.72145
    A3        1.53862   0.00027   0.00000  -0.00004  -0.00004   1.53858
    A4        2.23335  -0.00023   0.00000  -0.00011  -0.00011   2.23325
    A5        2.00796   0.00042   0.00000   0.00002   0.00002   2.00798
    A6        2.04136  -0.00018   0.00000   0.00008   0.00008   2.04144
    A7        1.95165   0.00000   0.00000  -0.00005  -0.00005   1.95160
    A8        1.92808  -0.00002   0.00000  -0.00012  -0.00012   1.92796
    A9        1.90793   0.00001   0.00000  -0.00005  -0.00005   1.90789
   A10        1.89558   0.00001   0.00000  -0.00006  -0.00006   1.89552
   A11        1.91220   0.00001   0.00000   0.00012   0.00012   1.91232
   A12        1.86639   0.00000   0.00000   0.00017   0.00017   1.86656
   A13        1.92418   0.00023   0.00000   0.00020   0.00020   1.92439
   A14        1.88600  -0.00010   0.00000  -0.00129  -0.00129   1.88471
   A15        1.94242  -0.00005   0.00000   0.00020   0.00020   1.94262
   A16        1.93782  -0.00011   0.00000  -0.00077  -0.00077   1.93705
   A17        1.92650  -0.00004   0.00000  -0.00022  -0.00022   1.92628
   A18        1.84532   0.00005   0.00000   0.00189   0.00189   1.84722
   A19        1.86480  -0.00003   0.00000  -0.00093  -0.00093   1.86388
    D1       -0.00330   0.00001   0.00000   0.00061   0.00061  -0.00269
    D2       -3.10914   0.00002   0.00000   0.00074   0.00074  -3.10840
    D3        3.10521  -0.00004   0.00000  -0.00241  -0.00241   3.10280
    D4       -0.00064  -0.00004   0.00000  -0.00228  -0.00228  -0.00292
    D5       -0.02809   0.00000   0.00000  -0.00270  -0.00270  -0.03079
    D6        2.08532  -0.00001   0.00000  -0.00290  -0.00290   2.08242
    D7       -2.14868  -0.00002   0.00000  -0.00279  -0.00279  -2.15147
    D8        3.07717   0.00000   0.00000  -0.00283  -0.00283   3.07434
    D9       -1.09261   0.00000   0.00000  -0.00303  -0.00303  -1.09564
   D10        0.95657  -0.00001   0.00000  -0.00292  -0.00292   0.95365
   D11       -0.02492   0.00003   0.00000   0.00223   0.00223  -0.02269
   D12        2.09574  -0.00002   0.00000   0.00059   0.00059   2.09633
   D13       -2.16870  -0.00004   0.00000   0.00222   0.00222  -2.16648
   D14       -3.13489   0.00004   0.00000   0.00235   0.00235  -3.13255
   D15       -1.01423  -0.00002   0.00000   0.00071   0.00071  -1.01352
   D16        1.00451  -0.00004   0.00000   0.00234   0.00234   1.00685
   D17       -1.78006  -0.00009   0.00000  -0.01857  -0.01858  -1.79863
   D18        0.33215   0.00006   0.00000  -0.01963  -0.01963   0.31252
   D19        2.42180  -0.00001   0.00000  -0.01916  -0.01916   2.40264
         Item               Value     Threshold  Converged?
 Maximum Force            0.000416     0.000450     YES
 RMS     Force            0.000105     0.000300     YES
 Maximum Displacement     0.018876     0.001800     NO 
 RMS     Displacement     0.003895     0.001200     NO 
 Predicted change in Energy=-6.464793D-07
 GradGradGradGradGradGradGradGradGradGradGradGradGradGradGradGradGradGrad

 1\1\GINC-KALI\Freq\RB3LYP\6-31G\C3H7N1O2\ROOT\03-Apr-2016\0\\#N Geom=A
 llCheck Guess=TCheck SCRF=Check GenChk RB3LYP/6-31G Freq\\Ala-S-opt-fr
 eq-p3-6-31g\\0,1\N,1.2104113139,-1.331401103,0.2429546277\H,2.20439397
 07,-1.4512781078,0.4645587892\C,0.8506355948,-0.145851527,-0.096377034
 8\H,-1.641569114,0.5240418317,1.2525698405\C,1.7049792721,1.0824573925
 ,-0.2038741572\C,-0.6461262715,0.0217770442,-0.3801243969\H,2.74301164
 84,0.8817799299,0.0777075892\H,1.6894678687,1.4723015978,-1.2299412311
 \H,1.2949800969,1.8665559701,0.4415661277\O,-1.3144737013,-1.216123985
 ,-0.2304584277\H,-0.6286681178,-1.8713127916,0.0721647136\O,-1.1725649
 817,1.0150544293,0.5453776898\H,-0.8176474592,0.4289022289,-1.38141691
 99\\Version=ES64L-G09RevD.01\State=1-A\HF=-323.60295\RMSD=5.328e-09\RM
 SF=5.164e-05\ZeroPoint=0.1061776\Thermal=0.1132755\Dipole=1.2930676,0.
 1936754,0.1972551\DipoleDeriv=-0.3511756,0.0081995,0.0464652,0.1445119
 ,-0.7987131,0.0777675,0.0024731,0.07881,-0.4702966,-0.1013277,0.033684
 4,-0.0752999,-0.1190913,0.2989253,-0.0214313,-0.0549372,0.0109415,0.28
 19584,0.3629369,0.0550153,0.0277104,-0.0350004,0.6224016,-0.1361589,0.
 01887,-0.1347451,0.0062771,0.3431656,-0.0326652,0.0462876,-0.0817264,0
 .1947401,0.1265303,0.0514514,0.0805355,0.2308315,-0.0448547,-0.1110505
 ,0.0217325,-0.1011949,-0.2366421,0.0275362,0.0050127,0.0219534,0.08179
 83,0.6361114,-0.0486443,-0.1254795,-0.1192945,0.8302077,0.1697758,-0.0
 917798,0.1434871,0.7939187,-0.1223249,-0.0109322,-0.0399263,0.064273,0
 .0363177,0.0315091,-0.059156,0.0164175,0.0755562,0.0868602,-0.0340453,
 -0.0390072,-0.0055534,0.066557,0.0367067,-0.0053514,0.0735314,-0.06827
 21,0.102276,0.0261057,0.0514176,0.0339031,0.0388178,-0.0402851,0.02532
 6,-0.0714438,0.0609237,-0.6548838,-0.2411668,0.0565508,-0.0375798,-0.8
 139218,-0.0926224,0.040107,-0.0335591,-0.5643012,0.4985011,0.1280089,-
 0.0227481,0.0422788,0.3141619,0.015505,0.0133167,0.0405809,0.3124217,-
 0.7610557,0.198656,0.0531735,0.1988278,-0.5242381,-0.2557255,0.0527228
 ,-0.2830483,-0.6061742,0.0057713,0.0288344,-0.0008768,0.015646,-0.0286
 14,0.0608926,0.0019446,0.0565392,-0.1346414\Polar=46.4193265,-1.956168
 6,50.644441,-0.0423843,-4.1051655,33.0004748\PG=C01 [X(C3H7N1O2)]\NIma
 g=0\\0.57977098,-0.19394209,0.61806318,0.14071787,-0.16271552,0.137945
 65,-0.38343244,0.06590547,-0.08178315,0.39340561,0.00687307,-0.0400510
 6,0.00234075,-0.05654648,0.05611652,-0.06868680,0.01395931,-0.05551745
 ,0.08369614,-0.01726509,0.04975845,-0.16086429,0.10465896,-0.04398769,
 -0.01772548,0.05108143,-0.01614836,0.54541948,0.16694088,-0.51893512,0
 .13918444,-0.01225624,-0.01802417,0.00144285,-0.07160089,0.84005961,-0
 .05734172,0.12575762,-0.09740214,-0.00048108,0.01388470,-0.00156590,0.
 07904857,-0.15355121,0.27097004,-0.00077048,0.00035915,-0.00098654,-0.
 00006172,0.00012900,-0.00020093,-0.00071794,0.00159385,0.00279628,0.11
 749022,0.00028449,-0.00062904,0.00043514,-0.00015440,-0.00022777,0.000
 38817,-0.00202263,-0.00145527,-0.00177684,0.09771344,0.14231487,-0.001
 16719,0.00068588,-0.00037642,-0.00036382,-0.00016371,-0.00022019,-0.00
 045647,0.00066079,-0.00002951,-0.17519940,-0.14445154,0.26705957,0.012
 15058,0.01120832,-0.00734458,0.00328252,0.00264422,0.00237125,-0.14337
 661,-0.06285682,0.00386213,-0.00035517,-0.00026821,-0.00063037,0.57595
 015,-0.02308278,-0.03933289,0.01295090,-0.00135269,0.00223414,-0.00364
 316,-0.05011057,-0.15994889,0.00660395,-0.00017128,-0.00012065,-0.0001
 5250,-0.04539447,0.50643869,0.00071662,0.01865643,0.02939359,0.0031021
 1,-0.00230061,-0.01007943,-0.00034302,0.00431888,-0.08897598,-0.000341
 35,-0.00029762,-0.00012633,0.01403469,-0.00146948,0.53985728,-0.026192
 56,0.02128372,-0.00860373,0.00056239,-0.00463312,0.00150629,-0.1574533
 7,0.00040694,-0.02996059,-0.00869646,0.02429980,0.01718269,-0.01623022
 ,-0.00361825,-0.00224732,0.45895391,0.03323917,-0.01466580,0.00836875,
 -0.00225541,-0.00624205,0.00368403,-0.01358307,-0.07465598,0.00880529,
 -0.00835943,0.00719667,0.01559030,-0.02695710,0.00349391,-0.00522105,-
 0.00436941,0.49344954,-0.01408493,0.00688592,-0.00844879,-0.00500181,0
 .00547357,0.01699234,-0.01807039,0.01127930,-0.08899288,0.01330889,-0.
 03364676,-0.03029643,0.00178957,0.00160769,0.00792295,0.01508023,-0.11
 358672,0.57555254,0.00288337,0.00093200,0.00064325,0.00091365,-0.00147
 192,0.00037079,-0.02131820,0.00680076,-0.00581872,0.00002371,-0.000144
 80,-0.00011360,-0.28675866,0.04781831,-0.06498410,0.00165062,-0.002901
 47,0.00071275,0.31448365,0.00027393,0.00378207,-0.00093509,0.00138812,
 -0.00052065,0.00044075,-0.03275022,0.00294062,-0.00822102,0.00008082,0
 .00010842,-0.00003510,0.05070653,-0.06010885,0.01374560,0.00019538,-0.
 00508778,0.00095075,-0.05143084,0.06417179,0.00077517,-0.00085159,-0.0
 0035443,-0.00017023,-0.00014929,0.00038173,0.00304286,0.00041907,-0.00
 070318,0.00009247,0.00009877,0.00006311,-0.06576021,0.01305374,-0.0671
 5669,0.00026136,0.00016016,0.00075833,0.07239932,-0.01597058,0.0675162
 2,-0.00080147,-0.00220007,-0.00188654,-0.00023507,-0.00007436,0.000496
 41,0.00147486,-0.00579398,0.02028676,0.00006861,0.00006732,-0.00000878
 ,-0.05019461,-0.00058866,-0.00437698,-0.00001582,-0.00048825,0.0002677
 1,0.00016317,0.01127783,-0.03077239,0.04922519,-0.00309776,-0.00374484
 ,-0.00456717,-0.00073390,0.00089298,0.00171400,0.00145219,-0.01497177,
 0.03029747,-0.00001443,-0.00009800,-0.00010252,0.00033972,-0.07443006,
 0.08724636,0.00042838,0.00026056,-0.00022341,-0.00021762,-0.00244978,0
 .00600061,0.00127251,0.08535108,0.00093313,-0.00137206,-0.00038261,0.0
 0023015,-0.00023829,0.00012583,-0.00098193,0.00122060,0.00034283,-0.00
 011969,-0.00005885,0.00000334,-0.00562397,0.08547674,-0.27417908,-0.00
 032563,0.00084277,-0.00077683,0.00135236,0.00169856,-0.00718041,0.0049
 4927,-0.09545757,0.30113176,-0.00251394,-0.00241758,0.00362574,-0.0000
 0507,-0.00030586,-0.00096536,0.01015917,-0.01387827,-0.01415447,-0.000
 24331,0.00028858,0.00008265,-0.08784476,0.07104134,0.05797209,0.000474
 03,-0.00119831,-0.00058257,-0.01042579,0.02206190,0.01944437,0.0003765
 3,0.00003314,-0.00131202,0.09055275,-0.00474326,-0.00137415,0.00328236
 ,-0.00014928,0.00014620,-0.00181234,0.01134103,-0.02611190,-0.01673007
 ,-0.00012175,0.00012831,0.00005292,0.07175880,-0.18094917,-0.11550319,
 0.00050862,-0.00154379,-0.00098001,0.00082457,-0.00347024,-0.00324677,
 -0.00394321,0.00879964,0.00851934,-0.07721522,0.20242344,0.00110849,0.
 00120904,-0.00203119,-0.00016206,-0.00000612,0.00073015,-0.00149036,0.
 00395472,0.00347642,0.00054366,0.00034786,0.00023227,0.05724685,-0.114
 16730,-0.13899466,-0.00025068,-0.00121168,-0.00011091,-0.00449649,0.00
 859886,0.00599293,0.01254543,-0.02399039,-0.02023467,-0.06550240,0.124
 64516,0.15216485,-0.01723009,-0.00160689,-0.00340913,-0.00050715,-0.00
 482685,0.00080506,-0.03320528,-0.03816917,0.00338469,-0.00003133,-0.00
 281837,-0.00242420,-0.00544440,0.00325951,-0.00177288,-0.12159329,-0.0
 1730105,-0.00073548,-0.00110063,-0.00177383,0.00014379,-0.00000294,-0.
 00006212,0.00033721,0.00003974,-0.00030769,-0.00017796,0.36550004,0.01
 354376,-0.00189679,0.00448445,0.00382240,0.00410760,-0.00097061,-0.013
 24151,-0.01403304,0.00009047,-0.00117462,0.00301249,0.00414849,-0.0021
 0182,0.00387656,-0.00101593,-0.07243461,-0.18304001,0.02677744,-0.0007
 9847,-0.00070131,0.00018501,0.00072198,0.00042424,-0.00027528,0.001178
 69,0.00083158,0.00031674,-0.07373185,0.45781309,-0.00671743,0.00146812
 ,0.00217633,-0.00108937,-0.00181028,0.00055616,-0.00436229,-0.00191999
 ,0.00487523,-0.00309569,0.00499774,0.00461434,0.00015047,-0.00054640,0
 .00059001,0.00987604,0.02611391,-0.08067113,0.00019071,0.00005420,0.00
 022574,-0.00048654,-0.00047137,0.00025461,0.00012278,0.00006982,-0.000
 11357,0.08178383,-0.10292971,0.09090659,0.00255150,-0.00559500,0.00308
 524,0.00415778,0.00583571,-0.00099909,-0.00228792,-0.01023112,0.001446
 94,0.00010054,0.00190032,0.00041286,-0.00168828,0.00319113,-0.00136526
 ,0.01994065,-0.01152649,0.00814184,-0.00041426,-0.00061829,0.00005206,
 0.00063580,0.00069378,-0.00027879,0.00067306,0.00066616,0.00011454,-0.
 20629273,0.17472617,-0.08344140,0.19011467,0.00155913,-0.00361819,-0.0
 0085664,0.00103170,0.00065949,0.00008267,-0.00243086,-0.00439690,0.001
 37836,0.00012499,-0.00088121,-0.00004306,0.00163313,-0.00084664,0.0010
 2578,0.02016083,-0.04490627,0.01556223,0.00036321,0.00059280,-0.000084
 76,-0.00016933,-0.00014989,-0.00006211,-0.00006812,-0.00004928,0.00000
 035,0.13043993,-0.18816852,0.07139827,-0.15045714,0.24554352,0.0014436
 1,-0.00200740,-0.00660055,0.00053376,0.00057197,-0.00070365,-0.0001000
 5,-0.00056704,0.00245209,0.00079462,-0.00090537,0.00111066,-0.00115782
 ,0.00105089,0.00112490,-0.00061085,0.01352765,-0.00338447,-0.00021172,
 -0.00026755,0.00007119,-0.00002394,-0.00007241,-0.00001640,0.00029833,
 0.00036774,-0.00003857,-0.07404788,0.07844416,-0.04149047,0.07301667,-
 0.08716670,0.05248274,-0.00233784,0.00089420,0.00216288,0.00082945,-0.
 00026355,-0.00447396,-0.01481664,0.02527835,0.02608071,-0.10661554,-0.
 12037886,0.15932894,-0.00034595,-0.00121251,-0.00124697,-0.08658878,0.
 03765504,0.05509956,-0.00027064,0.00054601,0.00008530,-0.00002915,0.00
 056125,0.00055120,-0.00119732,0.00139791,0.00063420,0.01387230,-0.0143
 5717,-0.00778631,-0.00411806,-0.00095904,-0.00123589,0.19805850,0.0024
 5862,0.00158309,-0.00124806,0.00114277,0.00066797,0.00206624,0.0153254
 2,-0.01265150,-0.01118337,-0.08895892,-0.14709867,0.12855966,-0.000928
 99,-0.00060251,0.00083406,0.00217947,-0.09570987,-0.01025809,0.0000638
 6,0.00067800,0.00048405,-0.00015095,-0.00013400,-0.00013342,0.00054987
 ,0.00113854,0.00038521,0.00790168,-0.05491140,-0.02133280,-0.00451812,
 -0.00241276,-0.00772014,0.06331240,0.30621689,0.00321244,-0.00108862,0
 .00183830,0.00176233,-0.00039454,0.00005471,0.00524329,-0.01158803,-0.
 00224464,0.16526466,0.17743394,-0.23907035,0.00109564,-0.00084950,0.00
 094027,0.04280557,-0.04672749,-0.12552005,0.00007677,0.00015298,0.0001
 8546,-0.00060408,0.00000423,0.00046675,0.00093479,0.00122894,-0.000945
 34,-0.00350559,-0.01388416,0.01259204,-0.00146607,0.00014273,-0.004368
 65,-0.23656766,-0.07716740,0.38395688,-0.00321331,0.00051978,-0.002233
 63,-0.00118446,0.00155871,0.00222856,-0.00528777,0.01376572,-0.0291495
 2,-0.00019113,0.00123333,0.00335669,0.00085541,0.00022092,0.00085237,-
 0.06481111,0.01804579,-0.05592537,0.00017002,0.00004265,0.00040614,-0.
 00066510,-0.00065515,0.00028870,-0.00004508,-0.00001668,-0.00011322,0.
 00599576,-0.01615298,0.01485519,-0.00337277,-0.00122842,0.00130116,0.0
 0355966,0.00162289,0.02174791,0.06818988,-0.00030716,0.00081954,-0.000
 72431,0.00015794,0.00024080,-0.00008681,0.00188071,0.00218430,0.004644
 64,-0.00120082,-0.00225014,-0.00474960,0.00021669,0.00029635,-0.000019
 23,0.01559223,-0.07854912,0.09015809,0.00016242,0.00006490,-0.00009842
 ,0.00006917,0.00024983,-0.00016042,-0.00007017,0.00003083,-0.00008246,
 -0.00100329,-0.02731447,0.02490850,-0.00406712,-0.00136615,0.00474419,
 0.00752595,0.00323623,-0.02726309,-0.01895656,0.10235711,-0.00090925,-
 0.00058715,-0.00024030,-0.00027297,0.00005694,-0.00051276,-0.00139417,
 0.00514564,-0.00220237,-0.00285700,-0.00256465,-0.00296407,-0.00003365
 ,0.00008443,-0.00031683,-0.04471338,0.08965408,-0.26302469,-0.00012133
 ,-0.00021236,0.00019999,-0.00038635,-0.00037784,0.00044486,0.00003609,
 0.00010609,-0.00012771,-0.00038146,0.00462893,0.00548412,0.00128047,-0
 .00137711,-0.00063882,0.00736799,-0.00328592,-0.02788538,0.04238501,-0
 .09127108,0.29178397\\-0.00002964,0.00013757,0.00001745,-0.00000214,-0
 .00006193,0.00000317,0.00001066,-0.00006611,0.00001264,0.00002955,0.00
 003890,-0.00002947,-0.00003720,0.00000874,-0.00005944,0.00007416,-0.00
 001262,0.00012558,0.00001281,0.00000642,0.00000938,0.00000649,0.000001
 14,0.00002445,-0.00000284,0.00000305,0.00001724,0.00009937,-0.00012162
 ,-0.00000467,-0.00007678,0.00006467,-0.00005224,-0.00006039,-0.0000074
 4,-0.00001528,-0.00002405,0.00000922,-0.00004881\\\@


 RESEARCH IS WHAT I AM DOING WHEN I DON'T KNOW WHAT I AM DOING.
     -- WERNER VON BRAUN
 Job cpu time:       0 days  0 hours  1 minutes 17.2 seconds.
 File lengths (MBytes):  RWF=     12 Int=      0 D2E=      0 Chk=      2 Scr=      1
 Normal termination of Gaussian 09 at Sun Apr  3 16:39:43 2016.
