 Entering Link 1 = c:\G03W05\l1.exe PID=      3344.
  
 Copyright (c) 1988,1990,1992,1993,1995,1998,2003,2004,2007, Gaussian, Inc.
                  All Rights Reserved.
  
 This is the Gaussian(R) 03 program.  It is based on the
 the Gaussian(R) 98 system (copyright 1998, Gaussian, Inc.),
 the Gaussian(R) 94 system (copyright 1995, Gaussian, Inc.),
 the Gaussian 92(TM) system (copyright 1992, Gaussian, Inc.),
 the Gaussian 90(TM) system (copyright 1990, Gaussian, Inc.),
 the Gaussian 88(TM) system (copyright 1988, Gaussian, Inc.),
 the Gaussian 86(TM) system (copyright 1986, Carnegie Mellon
 University), and the Gaussian 82(TM) system (copyright 1983,
 Carnegie Mellon University). Gaussian is a federally registered
 trademark of Gaussian, Inc.
  
 This software contains proprietary and confidential information,
 including trade secrets, belonging to Gaussian, Inc.
  
 This software is provided under written license and may be
 used, copied, transmitted, or stored only in accord with that
 written license.
  
 The following legend is applicable only to US Government
 contracts under FAR:
  
                    RESTRICTED RIGHTS LEGEND
  
 Use, reproduction and disclosure by the US Government is
 subject to restrictions as set forth in subparagraphs (a)
 and (c) of the Commercial Computer Software - Restricted
 Rights clause in FAR 52.227-19.
  
 Gaussian, Inc.
 340 Quinnipiac St., Bldg. 40, Wallingford CT 06492
  
  
 ---------------------------------------------------------------
 Warning -- This program may not be used in any manner that
 competes with the business of Gaussian, Inc. or will provide
 assistance to any competitor of Gaussian, Inc.  The licensee
 of this program is prohibited from giving any competitor of
 Gaussian, Inc. access to this program.  By using this program,
 the user acknowledges that Gaussian, Inc. is engaged in the
 business of creating and licensing software in the field of
 computational chemistry and represents and warrants to the
 licensee that it is not a competitor of Gaussian, Inc. and that
 it will not use this program in any manner prohibited above.
 ---------------------------------------------------------------
  

 Cite this work as:
 Gaussian 03, Revision E.01,
 M. J. Frisch, G. W. Trucks, H. B. Schlegel, G. E. Scuseria, 
 M. A. Robb, J. R. Cheeseman, J. A. Montgomery, Jr., T. Vreven, 
 K. N. Kudin, J. C. Burant, J. M. Millam, S. S. Iyengar, J. Tomasi, 
 V. Barone, B. Mennucci, M. Cossi, G. Scalmani, N. Rega, 
 G. A. Petersson, H. Nakatsuji, M. Hada, M. Ehara, K. Toyota, 
 R. Fukuda, J. Hasegawa, M. Ishida, T. Nakajima, Y. Honda, O. Kitao, 
 H. Nakai, M. Klene, X. Li, J. E. Knox, H. P. Hratchian, J. B. Cross, 
 V. Bakken, C. Adamo, J. Jaramillo, R. Gomperts, R. E. Stratmann, 
 O. Yazyev, A. J. Austin, R. Cammi, C. Pomelli, J. W. Ochterski, 
 P. Y. Ayala, K. Morokuma, G. A. Voth, P. Salvador, J. J. Dannenberg, 
 V. G. Zakrzewski, S. Dapprich, A. D. Daniels, M. C. Strain, 
 O. Farkas, D. K. Malick, A. D. Rabuck, K. Raghavachari, 
 J. B. Foresman, J. V. Ortiz, Q. Cui, A. G. Baboul, S. Clifford, 
 J. Cioslowski, B. B. Stefanov, G. Liu, A. Liashenko, P. Piskorz, 
 I. Komaromi, R. L. Martin, D. J. Fox, T. Keith, M. A. Al-Laham, 
 C. Y. Peng, A. Nanayakkara, M. Challacombe, P. M. W. Gill, 
 B. Johnson, W. Chen, M. W. Wong, C. Gonzalez, and J. A. Pople, 
 Gaussian, Inc., Wallingford CT, 2004.
 
 ******************************************
 Gaussian 03:  IA32W-G03RevE.01 11-Sep-2007
                29-Mar-2016 
 ******************************************
 %chk=E:\YangJ\Amiano\Ser\opt-rs\r\Ser-R-opt-6-311gdp.chk
 -------------------------------------------
 # opt b3lyp/6-311++g(d,p) geom=connectivity
 -------------------------------------------
 1/14=-1,18=20,26=3,38=1,57=2/1,3;
 2/9=110,17=6,18=5,40=1/2;
 3/5=4,6=6,7=1111,11=2,16=1,25=1,30=1,74=-5/1,2,3;
 4//1;
 5/5=2,38=5/2;
 6/7=2,8=2,9=2,10=2,28=1/1;
 7//1,2,3,16;
 1/14=-1,18=20/3(3);
 2/9=110/2;
 6/7=2,8=2,9=2,10=2,19=2,28=1/1;
 99//99;
 2/9=110/2;
 3/5=4,6=6,7=1111,11=2,16=1,25=1,30=1,74=-5/1,2,3;
 4/5=5,16=3/1;
 5/5=2,38=5/2;
 7//1,2,3,16;
 1/14=-1,18=20/3(-5);
 2/9=110/2;
 6/7=2,8=2,9=2,10=2,19=2,28=1/1;
 99/9=1/99;
 -----------------------
 Ser-R-opt-6-311++g(d,p)
 -----------------------
 Symbolic Z-matrix:
 Charge =  0 Multiplicity = 1
 C                     0.20622   0.27006   0.28955 
 H                     0.29124   0.38702   1.38499 
 C                    -1.18019  -0.30591   0.04716 
 O                    -1.43443  -1.45326  -0.21858 
 O                    -2.13981   0.63578   0.21029 
 H                    -2.99472   0.20975   0.04653 
 C                     1.28081  -0.71826  -0.14487 
 H                     1.11951  -1.68286   0.34453 
 H                     1.22934  -0.85382  -1.2305 
 O                     2.53326  -0.14344   0.24252 
 H                     3.24672  -0.66935  -0.12925 
 N                     0.3689    1.53065  -0.43612 
 H                    -0.29508   2.22553  -0.11356 
 H                     1.30748   1.88125  -0.2748 
 

 GradGradGradGradGradGradGradGradGradGradGradGradGradGradGradGradGradGrad
 Berny optimization.
 Initialization pass.
                           ----------------------------
                           !    Initial Parameters    !
                           ! (Angstroms and Degrees)  !
 --------------------------                            --------------------------
 ! Name  Definition              Value          Derivative Info.                !
 --------------------------------------------------------------------------------
 ! R1    R(1,2)                  1.1049         estimate D2E/DX2                !
 ! R2    R(1,3)                  1.5207         estimate D2E/DX2                !
 ! R3    R(1,7)                  1.5232         estimate D2E/DX2                !
 ! R4    R(1,12)                 1.4636         estimate D2E/DX2                !
 ! R5    R(3,4)                  1.2049         estimate D2E/DX2                !
 ! R6    R(3,5)                  1.3543         estimate D2E/DX2                !
 ! R7    R(5,6)                  0.9691         estimate D2E/DX2                !
 ! R8    R(7,8)                  1.0936         estimate D2E/DX2                !
 ! R9    R(7,9)                  1.0953         estimate D2E/DX2                !
 ! R10   R(7,10)                 1.4315         estimate D2E/DX2                !
 ! R11   R(10,11)                0.9612         estimate D2E/DX2                !
 ! R12   R(12,13)                1.0138         estimate D2E/DX2                !
 ! R13   R(12,14)                1.0148         estimate D2E/DX2                !
 ! A1    A(2,1,3)              105.5613         estimate D2E/DX2                !
 ! A2    A(2,1,7)              107.2857         estimate D2E/DX2                !
 ! A3    A(2,1,12)             113.0677         estimate D2E/DX2                !
 ! A4    A(3,1,7)              110.6071         estimate D2E/DX2                !
 ! A5    A(3,1,12)             110.3964         estimate D2E/DX2                !
 ! A6    A(7,1,12)             109.8169         estimate D2E/DX2                !
 ! A7    A(1,3,4)              126.0291         estimate D2E/DX2                !
 ! A8    A(1,3,5)              111.3102         estimate D2E/DX2                !
 ! A9    A(4,3,5)              122.6281         estimate D2E/DX2                !
 ! A10   A(3,5,6)              107.3995         estimate D2E/DX2                !
 ! A11   A(1,7,8)              109.9137         estimate D2E/DX2                !
 ! A12   A(1,7,9)              109.2586         estimate D2E/DX2                !
 ! A13   A(1,7,10)             106.2314         estimate D2E/DX2                !
 ! A14   A(8,7,9)              109.1158         estimate D2E/DX2                !
 ! A15   A(8,7,10)             111.231          estimate D2E/DX2                !
 ! A16   A(9,7,10)             111.0424         estimate D2E/DX2                !
 ! A17   A(7,10,11)            108.9698         estimate D2E/DX2                !
 ! A18   A(1,12,13)            111.0881         estimate D2E/DX2                !
 ! A19   A(1,12,14)            108.7557         estimate D2E/DX2                !
 ! A20   A(13,12,14)           108.5635         estimate D2E/DX2                !
 ! D1    D(2,1,3,4)           -103.1999         estimate D2E/DX2                !
 ! D2    D(2,1,3,5)             74.7551         estimate D2E/DX2                !
 ! D3    D(7,1,3,4)             12.537          estimate D2E/DX2                !
 ! D4    D(7,1,3,5)           -169.5079         estimate D2E/DX2                !
 ! D5    D(12,1,3,4)           134.2879         estimate D2E/DX2                !
 ! D6    D(12,1,3,5)           -47.757          estimate D2E/DX2                !
 ! D7    D(2,1,7,8)             60.6405         estimate D2E/DX2                !
 ! D8    D(2,1,7,9)           -179.6553         estimate D2E/DX2                !
 ! D9    D(2,1,7,10)           -59.7978         estimate D2E/DX2                !
 ! D10   D(3,1,7,8)            -54.016          estimate D2E/DX2                !
 ! D11   D(3,1,7,9)             65.6881         estimate D2E/DX2                !
 ! D12   D(3,1,7,10)          -174.4544         estimate D2E/DX2                !
 ! D13   D(12,1,7,8)          -176.1075         estimate D2E/DX2                !
 ! D14   D(12,1,7,9)           -56.4034         estimate D2E/DX2                !
 ! D15   D(12,1,7,10)           63.4542         estimate D2E/DX2                !
 ! D16   D(2,1,12,13)          -56.1164         estimate D2E/DX2                !
 ! D17   D(2,1,12,14)           63.3088         estimate D2E/DX2                !
 ! D18   D(3,1,12,13)           61.8813         estimate D2E/DX2                !
 ! D19   D(3,1,12,14)         -178.6935         estimate D2E/DX2                !
 ! D20   D(7,1,12,13)         -175.9019         estimate D2E/DX2                !
 ! D21   D(7,1,12,14)          -56.4767         estimate D2E/DX2                !
 ! D22   D(1,3,5,6)           -179.8076         estimate D2E/DX2                !
 ! D23   D(4,3,5,6)             -1.7713         estimate D2E/DX2                !
 ! D24   D(1,7,10,11)         -171.5459         estimate D2E/DX2                !
 ! D25   D(8,7,10,11)           68.8717         estimate D2E/DX2                !
 ! D26   D(9,7,10,11)          -52.8562         estimate D2E/DX2                !
 --------------------------------------------------------------------------------
 Trust Radius=3.00D-01 FncErr=1.00D-07 GrdErr=1.00D-06
 Number of steps in this run=  69 maximum allowed number of steps= 100.
 GradGradGradGradGradGradGradGradGradGradGradGradGradGradGradGradGradGrad

                          Input orientation:                          
 ---------------------------------------------------------------------
 Center     Atomic     Atomic              Coordinates (Angstroms)
 Number     Number      Type              X           Y           Z
 ---------------------------------------------------------------------
    1          6             0        0.206215    0.270059    0.289550
    2          1             0        0.291241    0.387024    1.384985
    3          6             0       -1.180191   -0.305910    0.047155
    4          8             0       -1.434425   -1.453262   -0.218576
    5          8             0       -2.139809    0.635782    0.210285
    6          1             0       -2.994720    0.209754    0.046526
    7          6             0        1.280813   -0.718263   -0.144868
    8          1             0        1.119510   -1.682855    0.344534
    9          1             0        1.229341   -0.853818   -1.230496
   10          8             0        2.533260   -0.143443    0.242524
   11          1             0        3.246724   -0.669348   -0.129248
   12          7             0        0.368895    1.530648   -0.436120
   13          1             0       -0.295075    2.225531   -0.113555
   14          1             0        1.307483    1.881245   -0.274795
 ---------------------------------------------------------------------
                    Distance matrix (angstroms):
                    1          2          3          4          5
     1  C    0.000000
     2  H    1.104938   0.000000
     3  C    1.520729   2.105958   0.000000
     4  O    2.433049   2.989312   1.204850   0.000000
     5  O    2.375682   2.711421   1.354349   2.246240   0.000000
     6  H    3.210714   3.552525   1.886379   2.295740   0.969118
     7  C    1.523240   2.131047   2.502688   2.813925   3.695974
     8  H    2.156619   2.460278   2.696857   2.625336   4.002157
     9  H    2.149518   3.043101   2.781805   2.911866   3.955494
    10  O    2.363966   2.571626   3.722134   4.203661   4.737700
    11  H    3.209762   3.484782   4.445310   4.747174   5.552782
    12  N    1.463607   2.151820   2.450748   3.493280   2.740843
    13  H    2.058557   2.443255   2.686532   3.852618   2.456668
    14  H    2.031550   2.453633   3.328036   4.317425   3.697337
                    6          7          8          9         10
     6  H    0.000000
     7  C    4.379273   0.000000
     8  H    4.538465   1.093604   0.000000
     9  H    4.539236   1.095268   1.783279   0.000000
    10  O    5.542718   1.431473   2.092578   2.091560   0.000000
    11  H    6.305501   1.966581   2.403478   2.305778   0.961156
    12  N    3.645767   2.444181   3.391083   2.656516   2.819151
    13  H    3.372991   3.339210   4.181672   3.613003   3.706522
    14  H    4.626671   2.602890   3.622390   2.898282   2.422707
                   11         12         13         14
    11  H    0.000000
    12  N    3.635389   0.000000
    13  H    4.574375   1.013788   0.000000
    14  H    3.207392   1.014836   1.647035   0.000000
 Stoichiometry    C3H7NO3
 Framework group  C1[X(C3H7NO3)]
 Deg. of freedom    36
 Full point group                 C1
 Largest Abelian subgroup         C1      NOp   1
 Largest concise Abelian subgroup C1      NOp   1
                         Standard orientation:                         
 ---------------------------------------------------------------------
 Center     Atomic     Atomic              Coordinates (Angstroms)
 Number     Number      Type              X           Y           Z
 ---------------------------------------------------------------------
    1          6             0        0.206215    0.270059    0.289550
    2          1             0        0.291241    0.387024    1.384985
    3          6             0       -1.180191   -0.305910    0.047155
    4          8             0       -1.434425   -1.453262   -0.218576
    5          8             0       -2.139809    0.635782    0.210285
    6          1             0       -2.994720    0.209754    0.046526
    7          6             0        1.280813   -0.718263   -0.144868
    8          1             0        1.119510   -1.682855    0.344534
    9          1             0        1.229341   -0.853818   -1.230496
   10          8             0        2.533260   -0.143443    0.242524
   11          1             0        3.246724   -0.669348   -0.129248
   12          7             0        0.368895    1.530648   -0.436120
   13          1             0       -0.295075    2.225531   -0.113555
   14          1             0        1.307483    1.881245   -0.274795
 ---------------------------------------------------------------------
 Rotational constants (GHZ):      4.8452346      1.7925311      1.3801817
 Standard basis: 6-311++G(d,p) (5D, 7F)
 There are   203 symmetry adapted basis functions of A   symmetry.
 Integral buffers will be    262144 words long.
 Raffenetti 2 integral format.
 Two-electron integral symmetry is turned on.
   203 basis functions,   315 primitive gaussians,   210 cartesian basis functions
    28 alpha electrons       28 beta electrons
       nuclear repulsion energy       321.2760134407 Hartrees.
 NAtoms=   14 NActive=   14 NUniq=   14 SFac= 7.50D-01 NAtFMM=   80 NAOKFM=F Big=F
 One-electron integrals computed using PRISM.
 NBasis=   203 RedAO= T  NBF=   203
 NBsUse=   203 1.00D-06 NBFU=   203
 Harris functional with IExCor=  402 diagonalized for initial guess.
 ExpMin= 3.60D-02 ExpMax= 8.59D+03 ExpMxC= 1.30D+03 IAcc=3 IRadAn=         5 AccDes= 0.00D+00
 HarFok:  IExCor= 402 AccDes= 0.00D+00 IRadAn=         5 IDoV=1
 ScaDFX=  1.000000  1.000000  1.000000  1.000000
 Initial guess orbital symmetries:
       Occupied  (A) (A) (A) (A) (A) (A) (A) (A) (A) (A) (A) (A)
                 (A) (A) (A) (A) (A) (A) (A) (A) (A) (A) (A) (A)
                 (A) (A) (A) (A)
       Virtual   (A) (A) (A) (A) (A) (A) (A) (A) (A) (A) (A) (A)
                 (A) (A) (A) (A) (A) (A) (A) (A) (A) (A) (A) (A)
                 (A) (A) (A) (A) (A) (A) (A) (A) (A) (A) (A) (A)
                 (A) (A) (A) (A) (A) (A) (A) (A) (A) (A) (A) (A)
                 (A) (A) (A) (A) (A) (A) (A) (A) (A) (A) (A) (A)
                 (A) (A) (A) (A) (A) (A) (A) (A) (A) (A) (A) (A)
                 (A) (A) (A) (A) (A) (A) (A) (A) (A) (A) (A) (A)
                 (A) (A) (A) (A) (A) (A) (A) (A) (A) (A) (A) (A)
                 (A) (A) (A) (A) (A) (A) (A) (A) (A) (A) (A) (A)
                 (A) (A) (A) (A) (A) (A) (A) (A) (A) (A) (A) (A)
                 (A) (A) (A) (A) (A) (A) (A) (A) (A) (A) (A) (A)
                 (A) (A) (A) (A) (A) (A) (A) (A) (A) (A) (A) (A)
                 (A) (A) (A) (A) (A) (A) (A) (A) (A) (A) (A) (A)
                 (A) (A) (A) (A) (A) (A) (A) (A) (A) (A) (A) (A)
                 (A) (A) (A) (A) (A) (A) (A)
 The electronic state of the initial guess is 1-A.
 Requested convergence on RMS density matrix=1.00D-08 within 128 cycles.
 Requested convergence on MAX density matrix=1.00D-06.
 Requested convergence on             energy=1.00D-06.
 No special actions if energy rises.
 SCF Done:  E(RB+HF-LYP) =  -399.092094986     A.U. after   13 cycles
             Convg  =    0.6186D-08             -V/T =  2.0035
             S**2   =   0.0000

 **********************************************************************

            Population analysis using the SCF density.

 **********************************************************************

 Orbital symmetries:
       Occupied  (A) (A) (A) (A) (A) (A) (A) (A) (A) (A) (A) (A)
                 (A) (A) (A) (A) (A) (A) (A) (A) (A) (A) (A) (A)
                 (A) (A) (A) (A)
       Virtual   (A) (A) (A) (A) (A) (A) (A) (A) (A) (A) (A) (A)
                 (A) (A) (A) (A) (A) (A) (A) (A) (A) (A) (A) (A)
                 (A) (A) (A) (A) (A) (A) (A) (A) (A) (A) (A) (A)
                 (A) (A) (A) (A) (A) (A) (A) (A) (A) (A) (A) (A)
                 (A) (A) (A) (A) (A) (A) (A) (A) (A) (A) (A) (A)
                 (A) (A) (A) (A) (A) (A) (A) (A) (A) (A) (A) (A)
                 (A) (A) (A) (A) (A) (A) (A) (A) (A) (A) (A) (A)
                 (A) (A) (A) (A) (A) (A) (A) (A) (A) (A) (A) (A)
                 (A) (A) (A) (A) (A) (A) (A) (A) (A) (A) (A) (A)
                 (A) (A) (A) (A) (A) (A) (A) (A) (A) (A) (A) (A)
                 (A) (A) (A) (A) (A) (A) (A) (A) (A) (A) (A) (A)
                 (A) (A) (A) (A) (A) (A) (A) (A) (A) (A) (A) (A)
                 (A) (A) (A) (A) (A) (A) (A) (A) (A) (A) (A) (A)
                 (A) (A) (A) (A) (A) (A) (A) (A) (A) (A) (A) (A)
                 (A) (A) (A) (A) (A) (A) (A)
 The electronic state is 1-A.
 Alpha  occ. eigenvalues --  -19.18653 -19.13871 -19.13120 -14.30428 -10.32075
 Alpha  occ. eigenvalues --  -10.22853 -10.22765  -1.12884  -1.04098  -1.03857
 Alpha  occ. eigenvalues --   -0.90313  -0.75774  -0.68416  -0.59545  -0.54993
 Alpha  occ. eigenvalues --   -0.51827  -0.50640  -0.49035  -0.47211  -0.45285
 Alpha  occ. eigenvalues --   -0.41659  -0.41434  -0.40550  -0.35714  -0.34420
 Alpha  occ. eigenvalues --   -0.30365  -0.29377  -0.25567
 Alpha virt. eigenvalues --   -0.02447  -0.01144  -0.00864   0.01301   0.01765
 Alpha virt. eigenvalues --    0.02848   0.04466   0.05313   0.07731   0.07907
 Alpha virt. eigenvalues --    0.08273   0.08993   0.09686   0.10641   0.11049
 Alpha virt. eigenvalues --    0.11974   0.12511   0.12878   0.13668   0.14332
 Alpha virt. eigenvalues --    0.16214   0.16865   0.17331   0.18499   0.19563
 Alpha virt. eigenvalues --    0.19690   0.20813   0.21611   0.22803   0.23508
 Alpha virt. eigenvalues --    0.23583   0.25334   0.25604   0.26074   0.26518
 Alpha virt. eigenvalues --    0.27956   0.29274   0.29719   0.30782   0.31422
 Alpha virt. eigenvalues --    0.31919   0.33226   0.34338   0.35754   0.37554
 Alpha virt. eigenvalues --    0.37957   0.38911   0.39664   0.45806   0.47645
 Alpha virt. eigenvalues --    0.51176   0.52722   0.54208   0.57188   0.58913
 Alpha virt. eigenvalues --    0.59640   0.60169   0.62360   0.65073   0.66391
 Alpha virt. eigenvalues --    0.68640   0.69927   0.70434   0.74542   0.75685
 Alpha virt. eigenvalues --    0.80549   0.82488   0.87480   0.90134   0.92841
 Alpha virt. eigenvalues --    1.01024   1.03471   1.06526   1.08251   1.08635
 Alpha virt. eigenvalues --    1.12701   1.13667   1.15156   1.17428   1.20079
 Alpha virt. eigenvalues --    1.21924   1.23956   1.26078   1.28257   1.32783
 Alpha virt. eigenvalues --    1.37935   1.39893   1.43079   1.45457   1.47088
 Alpha virt. eigenvalues --    1.51056   1.54752   1.54860   1.57877   1.58896
 Alpha virt. eigenvalues --    1.59804   1.61833   1.65792   1.67236   1.69153
 Alpha virt. eigenvalues --    1.70670   1.73506   1.79056   1.80570   1.83369
 Alpha virt. eigenvalues --    1.86941   1.91313   1.95970   1.99169   2.03605
 Alpha virt. eigenvalues --    2.04935   2.08070   2.08714   2.15663   2.17559
 Alpha virt. eigenvalues --    2.27373   2.34638   2.45160   2.45622   2.50040
 Alpha virt. eigenvalues --    2.54057   2.56432   2.57987   2.60196   2.64290
 Alpha virt. eigenvalues --    2.67123   2.70111   2.73884   2.80684   2.82942
 Alpha virt. eigenvalues --    2.84401   2.86709   2.91324   2.94372   2.97836
 Alpha virt. eigenvalues --    3.00680   3.05181   3.10347   3.11384   3.14646
 Alpha virt. eigenvalues --    3.17270   3.18550   3.21809   3.23438   3.36126
 Alpha virt. eigenvalues --    3.36830   3.53456   3.60230   3.67793   3.78634
 Alpha virt. eigenvalues --    3.81009   3.87192   3.92658   4.01240   4.05283
 Alpha virt. eigenvalues --    4.18835   4.28826   4.74522   4.84033   4.96117
 Alpha virt. eigenvalues --    5.03386   5.05349   5.16508   5.34630   5.39413
 Alpha virt. eigenvalues --    5.58456   5.65512   5.83310  23.78976  23.80163
 Alpha virt. eigenvalues --   23.84122  35.60256  49.84697  49.90803  49.99466
          Condensed to atoms (all electrons):
              1          2          3          4          5          6
     1  C    7.215960   0.489345  -0.758382  -0.110969  -0.340157  -0.026506
     2  H    0.489345   0.644523  -0.087678  -0.002526  -0.002081   0.002894
     3  C   -0.758382  -0.087678   5.923834   0.453096   0.313064   0.032143
     4  O   -0.110969  -0.002526   0.453096   8.065013  -0.127022  -0.001412
     5  O   -0.340157  -0.002081   0.313064  -0.127022   8.084239   0.246806
     6  H   -0.026506   0.002894   0.032143  -0.001412   0.246806   0.453302
     7  C   -0.262726  -0.118205   0.152213   0.022713   0.032818  -0.001899
     8  H   -0.094764  -0.035427   0.012704   0.003015  -0.001387  -0.000094
     9  H    0.032338   0.024351  -0.017490  -0.006764  -0.001005  -0.000114
    10  O   -0.137605  -0.005374   0.065691   0.001528  -0.001568  -0.000089
    11  H   -0.031594   0.003344  -0.005189   0.000283  -0.000073   0.000117
    12  N    0.189420  -0.122593  -0.080903  -0.005600  -0.007748   0.001366
    13  H   -0.044988   0.000883  -0.006533  -0.000579   0.008417  -0.001326
    14  H   -0.047483  -0.002038   0.001072  -0.000139  -0.001771  -0.000716
              7          8          9         10         11         12
     1  C   -0.262726  -0.094764   0.032338  -0.137605  -0.031594   0.189420
     2  H   -0.118205  -0.035427   0.024351  -0.005374   0.003344  -0.122593
     3  C    0.152213   0.012704  -0.017490   0.065691  -0.005189  -0.080903
     4  O    0.022713   0.003015  -0.006764   0.001528   0.000283  -0.005600
     5  O    0.032818  -0.001387  -0.001005  -0.001568  -0.000073  -0.007748
     6  H   -0.001899  -0.000094  -0.000114  -0.000089   0.000117   0.001366
     7  C    5.689088   0.421929   0.332078   0.201593   0.050666  -0.078246
     8  H    0.421929   0.653176  -0.088381  -0.058843  -0.002442   0.014449
     9  H    0.332078  -0.088381   0.614838  -0.056454  -0.012830  -0.017813
    10  O    0.201593  -0.058843  -0.056454   8.100354   0.208403  -0.020387
    11  H    0.050666  -0.002442  -0.012830   0.208403   0.527513   0.005060
    12  N   -0.078246   0.014449  -0.017813  -0.020387   0.005060   6.658415
    13  H    0.006219  -0.002268   0.001380   0.000952  -0.000419   0.390746
    14  H    0.001224   0.002976   0.000367   0.008979  -0.001586   0.388088
             13         14
     1  C   -0.044988  -0.047483
     2  H    0.000883  -0.002038
     3  C   -0.006533   0.001072
     4  O   -0.000579  -0.000139
     5  O    0.008417  -0.001771
     6  H   -0.001326  -0.000716
     7  C    0.006219   0.001224
     8  H   -0.002268   0.002976
     9  H    0.001380   0.000367
    10  O    0.000952   0.008979
    11  H   -0.000419  -0.001586
    12  N    0.390746   0.388088
    13  H    0.456550  -0.053675
    14  H   -0.053675   0.451452
 Mulliken atomic charges:
              1
     1  C   -0.071889
     2  H    0.210583
     3  C    0.002358
     4  O   -0.290638
     5  O   -0.202532
     6  H    0.295528
     7  C   -0.449464
     8  H    0.175357
     9  H    0.195499
    10  O   -0.307180
    11  H    0.258746
    12  N   -0.314255
    13  H    0.244641
    14  H    0.253248
 Sum of Mulliken charges=   0.00000
 Atomic charges with hydrogens summed into heavy atoms:
              1
     1  C    0.138693
     2  H    0.000000
     3  C    0.002358
     4  O   -0.290638
     5  O    0.092996
     6  H    0.000000
     7  C   -0.078609
     8  H    0.000000
     9  H    0.000000
    10  O   -0.048435
    11  H    0.000000
    12  N    0.183633
    13  H    0.000000
    14  H    0.000000
 Sum of Mulliken charges=   0.00000
 Electronic spatial extent (au):  <R**2>=   834.2997
 Charge=     0.0000 electrons
 Dipole moment (field-independent basis, Debye):
    X=     0.3349    Y=     0.4595    Z=     0.5936  Tot=     0.8220
 Quadrupole moment (field-independent basis, Debye-Ang):
   XX=   -33.5364   YY=   -43.7393   ZZ=   -44.3038
   XY=    -5.4713   XZ=    -2.8598   YZ=     1.1590
 Traceless Quadrupole moment (field-independent basis, Debye-Ang):
   XX=     6.9901   YY=    -3.2128   ZZ=    -3.7773
   XY=    -5.4713   XZ=    -2.8598   YZ=     1.1590
 Octapole moment (field-independent basis, Debye-Ang**2):
  XXX=   -10.3682  YYY=    13.8029  ZZZ=     3.0571  XYY=    12.9915
  XXY=    -7.5407  XXZ=    -9.6315  XZZ=    -2.1512  YZZ=    -4.1533
  YYZ=     3.7554  XYZ=     3.3049
 Hexadecapole moment (field-independent basis, Debye-Ang**3):
 XXXX=  -468.5229 YYYY=  -263.8477 ZZZZ=   -78.2729 XXXY=   -43.5920
 XXXZ=   -23.7002 YYYX=   -11.3873 YYYZ=     0.4718 ZZZX=    -0.6698
 ZZZY=     6.9275 XXYY=  -157.5084 XXZZ=  -128.6018 YYZZ=   -65.0847
 XXYZ=    -0.2976 YYXZ=    -1.8320 ZZXY=    -0.9709
 N-N= 3.212760134407D+02 E-N=-1.579467116700D+03  KE= 3.976832417538D+02
 ***** Axes restored to original set *****
 -------------------------------------------------------------------
 Center     Atomic                   Forces (Hartrees/Bohr)
 Number     Number              X              Y              Z
 -------------------------------------------------------------------
    1          6           0.000000940    0.000011961   -0.000001898
    2          1          -0.000004412   -0.000001541    0.000001104
    3          6           0.000002017   -0.000010622   -0.000004737
    4          8          -0.000000581    0.000005633   -0.000003808
    5          8          -0.000003521    0.000006477   -0.000004727
    6          1          -0.000000525    0.000002772   -0.000007550
    7          6           0.000006497    0.000007203    0.000001971
    8          1          -0.000003609   -0.000001062    0.000001330
    9          1           0.000000999   -0.000002861    0.000000377
   10          8          -0.000005303   -0.000006873    0.000004813
   11          1           0.000001081   -0.000001840    0.000006974
   12          7           0.000002545   -0.000008606    0.000003906
   13          1           0.000001795   -0.000000294   -0.000000445
   14          1           0.000002077   -0.000000347    0.000002692
 -------------------------------------------------------------------
 Cartesian Forces:  Max     0.000011961 RMS     0.000004588

 GradGradGradGradGradGradGradGradGradGradGradGradGradGradGradGradGradGrad
 Berny optimization.
 Internal  Forces:  Max     0.000009196 RMS     0.000001945
 Search for a local minimum.
 Step number   1 out of a maximum of  69
 All quantities printed in internal units (Hartrees-Bohrs-Radians)
 Second derivative matrix not updated -- first step.
     Eigenvalues ---    0.00459   0.00492   0.00850   0.00920   0.01275
     Eigenvalues ---    0.02296   0.04268   0.04685   0.05331   0.05586
     Eigenvalues ---    0.06036   0.06294   0.10814   0.13458   0.16000
     Eigenvalues ---    0.16000   0.16000   0.16000   0.17201   0.18358
     Eigenvalues ---    0.21995   0.24990   0.25000   0.30057   0.30296
     Eigenvalues ---    0.33142   0.34211   0.34399   0.36516   0.40778
     Eigenvalues ---    0.45172   0.45344   0.53558   0.54106   0.55225
     Eigenvalues ---    1.024231000.000001000.000001000.000001000.00000
     Eigenvalues --- 1000.000001000.000001000.000001000.000001000.00000
     Eigenvalues --- 1000.000001000.000001000.000001000.000001000.00000
     Eigenvalues --- 1000.000001000.000001000.000001000.000001000.00000
     Eigenvalues --- 1000.000001000.000001000.000001000.00000
 RFO step:  Lambda= 0.00000000D+00.
 Linear search not attempted -- first point.
 Iteration  1 RMS(Cart)=  0.00003703 RMS(Int)=  0.00000000
 Iteration  2 RMS(Cart)=  0.00000000 RMS(Int)=  0.00000000
 Variable       Old X    -DE/DX   Delta X   Delta X   Delta X     New X
                                 (Linear)    (Quad)   (Total)
    R1        2.08803   0.00000   0.00000   0.00000   0.00000   2.08803
    R2        2.87376   0.00000   0.00000   0.00001   0.00001   2.87377
    R3        2.87851   0.00000   0.00000   0.00000   0.00000   2.87851
    R4        2.76582  -0.00001   0.00000  -0.00003  -0.00003   2.76579
    R5        2.27684   0.00000   0.00000   0.00000   0.00000   2.27683
    R6        2.55935   0.00001   0.00000   0.00001   0.00001   2.55936
    R7        1.83137   0.00000   0.00000   0.00000   0.00000   1.83137
    R8        2.06661   0.00000   0.00000   0.00000   0.00000   2.06661
    R9        2.06976   0.00000   0.00000   0.00001   0.00001   2.06976
   R10        2.70509   0.00000   0.00000  -0.00001  -0.00001   2.70508
   R11        1.81632   0.00000   0.00000   0.00000   0.00000   1.81632
   R12        1.91578   0.00000   0.00000   0.00000   0.00000   1.91578
   R13        1.91776   0.00000   0.00000   0.00000   0.00000   1.91776
    A1        1.84239   0.00000   0.00000  -0.00001  -0.00001   1.84238
    A2        1.87249   0.00000   0.00000   0.00001   0.00001   1.87250
    A3        1.97340   0.00000   0.00000   0.00002   0.00002   1.97342
    A4        1.93046   0.00000   0.00000  -0.00001  -0.00001   1.93045
    A5        1.92678   0.00000   0.00000   0.00000   0.00000   1.92678
    A6        1.91667   0.00000   0.00000  -0.00001  -0.00001   1.91666
    A7        2.19962   0.00000   0.00000   0.00001   0.00001   2.19963
    A8        1.94273   0.00000   0.00000  -0.00001  -0.00001   1.94272
    A9        2.14026   0.00000   0.00000   0.00000   0.00000   2.14026
   A10        1.87447   0.00000   0.00000   0.00000   0.00000   1.87448
   A11        1.91836   0.00000   0.00000  -0.00002  -0.00002   1.91833
   A12        1.90692   0.00000   0.00000   0.00001   0.00001   1.90693
   A13        1.85409   0.00000   0.00000   0.00002   0.00002   1.85410
   A14        1.90443   0.00000   0.00000  -0.00002  -0.00002   1.90441
   A15        1.94135   0.00000   0.00000  -0.00001  -0.00001   1.94134
   A16        1.93806   0.00000   0.00000   0.00002   0.00002   1.93808
   A17        1.90188   0.00000   0.00000   0.00002   0.00002   1.90190
   A18        1.93885   0.00000   0.00000  -0.00001  -0.00001   1.93885
   A19        1.89814   0.00000   0.00000   0.00001   0.00001   1.89815
   A20        1.89479   0.00000   0.00000   0.00000   0.00000   1.89479
    D1       -1.80118   0.00000   0.00000  -0.00001  -0.00001  -1.80119
    D2        1.30472   0.00000   0.00000   0.00001   0.00001   1.30473
    D3        0.21881   0.00000   0.00000  -0.00001  -0.00001   0.21880
    D4       -2.95847   0.00000   0.00000   0.00000   0.00000  -2.95847
    D5        2.34377   0.00000   0.00000  -0.00002  -0.00002   2.34374
    D6       -0.83352   0.00000   0.00000  -0.00001  -0.00001  -0.83353
    D7        1.05838   0.00000   0.00000   0.00005   0.00005   1.05843
    D8       -3.13558   0.00000   0.00000   0.00002   0.00002  -3.13555
    D9       -1.04367   0.00000   0.00000   0.00006   0.00006  -1.04361
   D10       -0.94276   0.00000   0.00000   0.00007   0.00007  -0.94269
   D11        1.14647   0.00000   0.00000   0.00004   0.00004   1.14651
   D12       -3.04480   0.00000   0.00000   0.00008   0.00008  -3.04472
   D13       -3.07366   0.00000   0.00000   0.00008   0.00008  -3.07358
   D14       -0.98442   0.00000   0.00000   0.00005   0.00005  -0.98438
   D15        1.10748   0.00000   0.00000   0.00009   0.00009   1.10757
   D16       -0.97942   0.00000   0.00000   0.00000   0.00000  -0.97942
   D17        1.10495   0.00000   0.00000   0.00000   0.00000   1.10495
   D18        1.08003   0.00000   0.00000  -0.00001  -0.00001   1.08003
   D19       -3.11879   0.00000   0.00000   0.00000   0.00000  -3.11879
   D20       -3.07007   0.00000   0.00000  -0.00002  -0.00002  -3.07009
   D21       -0.98570   0.00000   0.00000  -0.00002  -0.00002  -0.98572
   D22       -3.13824   0.00000   0.00000   0.00000   0.00000  -3.13824
   D23       -0.03091   0.00000   0.00000   0.00001   0.00001  -0.03091
   D24       -2.99404   0.00000   0.00000  -0.00001  -0.00001  -2.99405
   D25        1.20204   0.00000   0.00000   0.00001   0.00001   1.20205
   D26       -0.92251   0.00000   0.00000   0.00002   0.00002  -0.92249
         Item               Value     Threshold  Converged?
 Maximum Force            0.000009     0.000450     YES
 RMS     Force            0.000002     0.000300     YES
 Maximum Displacement     0.000104     0.001800     YES
 RMS     Displacement     0.000037     0.001200     YES
 Predicted change in Energy=-5.501489D-10
 Optimization completed.
    -- Stationary point found.
                           ----------------------------
                           !   Optimized Parameters   !
                           ! (Angstroms and Degrees)  !
 --------------------------                            --------------------------
 ! Name  Definition              Value          Derivative Info.                !
 --------------------------------------------------------------------------------
 ! R1    R(1,2)                  1.1049         -DE/DX =    0.0                 !
 ! R2    R(1,3)                  1.5207         -DE/DX =    0.0                 !
 ! R3    R(1,7)                  1.5232         -DE/DX =    0.0                 !
 ! R4    R(1,12)                 1.4636         -DE/DX =    0.0                 !
 ! R5    R(3,4)                  1.2049         -DE/DX =    0.0                 !
 ! R6    R(3,5)                  1.3543         -DE/DX =    0.0                 !
 ! R7    R(5,6)                  0.9691         -DE/DX =    0.0                 !
 ! R8    R(7,8)                  1.0936         -DE/DX =    0.0                 !
 ! R9    R(7,9)                  1.0953         -DE/DX =    0.0                 !
 ! R10   R(7,10)                 1.4315         -DE/DX =    0.0                 !
 ! R11   R(10,11)                0.9612         -DE/DX =    0.0                 !
 ! R12   R(12,13)                1.0138         -DE/DX =    0.0                 !
 ! R13   R(12,14)                1.0148         -DE/DX =    0.0                 !
 ! A1    A(2,1,3)              105.5613         -DE/DX =    0.0                 !
 ! A2    A(2,1,7)              107.2857         -DE/DX =    0.0                 !
 ! A3    A(2,1,12)             113.0677         -DE/DX =    0.0                 !
 ! A4    A(3,1,7)              110.6071         -DE/DX =    0.0                 !
 ! A5    A(3,1,12)             110.3964         -DE/DX =    0.0                 !
 ! A6    A(7,1,12)             109.8169         -DE/DX =    0.0                 !
 ! A7    A(1,3,4)              126.0291         -DE/DX =    0.0                 !
 ! A8    A(1,3,5)              111.3102         -DE/DX =    0.0                 !
 ! A9    A(4,3,5)              122.6281         -DE/DX =    0.0                 !
 ! A10   A(3,5,6)              107.3995         -DE/DX =    0.0                 !
 ! A11   A(1,7,8)              109.9137         -DE/DX =    0.0                 !
 ! A12   A(1,7,9)              109.2586         -DE/DX =    0.0                 !
 ! A13   A(1,7,10)             106.2314         -DE/DX =    0.0                 !
 ! A14   A(8,7,9)              109.1158         -DE/DX =    0.0                 !
 ! A15   A(8,7,10)             111.231          -DE/DX =    0.0                 !
 ! A16   A(9,7,10)             111.0424         -DE/DX =    0.0                 !
 ! A17   A(7,10,11)            108.9698         -DE/DX =    0.0                 !
 ! A18   A(1,12,13)            111.0881         -DE/DX =    0.0                 !
 ! A19   A(1,12,14)            108.7557         -DE/DX =    0.0                 !
 ! A20   A(13,12,14)           108.5635         -DE/DX =    0.0                 !
 ! D1    D(2,1,3,4)           -103.1999         -DE/DX =    0.0                 !
 ! D2    D(2,1,3,5)             74.7551         -DE/DX =    0.0                 !
 ! D3    D(7,1,3,4)             12.537          -DE/DX =    0.0                 !
 ! D4    D(7,1,3,5)           -169.5079         -DE/DX =    0.0                 !
 ! D5    D(12,1,3,4)           134.2879         -DE/DX =    0.0                 !
 ! D6    D(12,1,3,5)           -47.757          -DE/DX =    0.0                 !
 ! D7    D(2,1,7,8)             60.6405         -DE/DX =    0.0                 !
 ! D8    D(2,1,7,9)           -179.6553         -DE/DX =    0.0                 !
 ! D9    D(2,1,7,10)           -59.7978         -DE/DX =    0.0                 !
 ! D10   D(3,1,7,8)            -54.016          -DE/DX =    0.0                 !
 ! D11   D(3,1,7,9)             65.6881         -DE/DX =    0.0                 !
 ! D12   D(3,1,7,10)          -174.4544         -DE/DX =    0.0                 !
 ! D13   D(12,1,7,8)          -176.1075         -DE/DX =    0.0                 !
 ! D14   D(12,1,7,9)           -56.4034         -DE/DX =    0.0                 !
 ! D15   D(12,1,7,10)           63.4542         -DE/DX =    0.0                 !
 ! D16   D(2,1,12,13)          -56.1164         -DE/DX =    0.0                 !
 ! D17   D(2,1,12,14)           63.3088         -DE/DX =    0.0                 !
 ! D18   D(3,1,12,13)           61.8813         -DE/DX =    0.0                 !
 ! D19   D(3,1,12,14)         -178.6935         -DE/DX =    0.0                 !
 ! D20   D(7,1,12,13)         -175.9019         -DE/DX =    0.0                 !
 ! D21   D(7,1,12,14)          -56.4767         -DE/DX =    0.0                 !
 ! D22   D(1,3,5,6)           -179.8076         -DE/DX =    0.0                 !
 ! D23   D(4,3,5,6)             -1.7713         -DE/DX =    0.0                 !
 ! D24   D(1,7,10,11)         -171.5459         -DE/DX =    0.0                 !
 ! D25   D(8,7,10,11)           68.8717         -DE/DX =    0.0                 !
 ! D26   D(9,7,10,11)          -52.8562         -DE/DX =    0.0                 !
 --------------------------------------------------------------------------------
 GradGradGradGradGradGradGradGradGradGradGradGradGradGradGradGradGradGrad

                          Input orientation:                          
 ---------------------------------------------------------------------
 Center     Atomic     Atomic              Coordinates (Angstroms)
 Number     Number      Type              X           Y           Z
 ---------------------------------------------------------------------
    1          6             0        0.206215    0.270059    0.289550
    2          1             0        0.291241    0.387024    1.384985
    3          6             0       -1.180191   -0.305910    0.047155
    4          8             0       -1.434425   -1.453262   -0.218576
    5          8             0       -2.139809    0.635782    0.210285
    6          1             0       -2.994720    0.209754    0.046526
    7          6             0        1.280813   -0.718263   -0.144868
    8          1             0        1.119510   -1.682855    0.344534
    9          1             0        1.229341   -0.853818   -1.230496
   10          8             0        2.533260   -0.143443    0.242524
   11          1             0        3.246724   -0.669348   -0.129248
   12          7             0        0.368895    1.530648   -0.436120
   13          1             0       -0.295075    2.225531   -0.113555
   14          1             0        1.307483    1.881245   -0.274795
 ---------------------------------------------------------------------
                    Distance matrix (angstroms):
                    1          2          3          4          5
     1  C    0.000000
     2  H    1.104938   0.000000
     3  C    1.520729   2.105958   0.000000
     4  O    2.433049   2.989312   1.204850   0.000000
     5  O    2.375682   2.711421   1.354349   2.246240   0.000000
     6  H    3.210714   3.552525   1.886379   2.295740   0.969118
     7  C    1.523240   2.131047   2.502688   2.813925   3.695974
     8  H    2.156619   2.460278   2.696857   2.625336   4.002157
     9  H    2.149518   3.043101   2.781805   2.911866   3.955494
    10  O    2.363966   2.571626   3.722134   4.203661   4.737700
    11  H    3.209762   3.484782   4.445310   4.747174   5.552782
    12  N    1.463607   2.151820   2.450748   3.493280   2.740843
    13  H    2.058557   2.443255   2.686532   3.852618   2.456668
    14  H    2.031550   2.453633   3.328036   4.317425   3.697337
                    6          7          8          9         10
     6  H    0.000000
     7  C    4.379273   0.000000
     8  H    4.538465   1.093604   0.000000
     9  H    4.539236   1.095268   1.783279   0.000000
    10  O    5.542718   1.431473   2.092578   2.091560   0.000000
    11  H    6.305501   1.966581   2.403478   2.305778   0.961156
    12  N    3.645767   2.444181   3.391083   2.656516   2.819151
    13  H    3.372991   3.339210   4.181672   3.613003   3.706522
    14  H    4.626671   2.602890   3.622390   2.898282   2.422707
                   11         12         13         14
    11  H    0.000000
    12  N    3.635389   0.000000
    13  H    4.574375   1.013788   0.000000
    14  H    3.207392   1.014836   1.647035   0.000000
 Stoichiometry    C3H7NO3
 Framework group  C1[X(C3H7NO3)]
 Deg. of freedom    36
 Full point group                 C1
 Largest Abelian subgroup         C1      NOp   1
 Largest concise Abelian subgroup C1      NOp   1
                         Standard orientation:                         
 ---------------------------------------------------------------------
 Center     Atomic     Atomic              Coordinates (Angstroms)
 Number     Number      Type              X           Y           Z
 ---------------------------------------------------------------------
    1          6             0        0.206215    0.270059    0.289550
    2          1             0        0.291241    0.387024    1.384985
    3          6             0       -1.180191   -0.305910    0.047155
    4          8             0       -1.434425   -1.453262   -0.218576
    5          8             0       -2.139809    0.635782    0.210285
    6          1             0       -2.994720    0.209754    0.046526
    7          6             0        1.280813   -0.718263   -0.144868
    8          1             0        1.119510   -1.682855    0.344534
    9          1             0        1.229341   -0.853818   -1.230496
   10          8             0        2.533260   -0.143443    0.242524
   11          1             0        3.246724   -0.669348   -0.129248
   12          7             0        0.368895    1.530648   -0.436120
   13          1             0       -0.295075    2.225531   -0.113555
   14          1             0        1.307483    1.881245   -0.274795
 ---------------------------------------------------------------------
 Rotational constants (GHZ):      4.8452346      1.7925311      1.3801817

 **********************************************************************

            Population analysis using the SCF density.

 **********************************************************************

 Orbital symmetries:
       Occupied  (A) (A) (A) (A) (A) (A) (A) (A) (A) (A) (A) (A)
                 (A) (A) (A) (A) (A) (A) (A) (A) (A) (A) (A) (A)
                 (A) (A) (A) (A)
       Virtual   (A) (A) (A) (A) (A) (A) (A) (A) (A) (A) (A) (A)
                 (A) (A) (A) (A) (A) (A) (A) (A) (A) (A) (A) (A)
                 (A) (A) (A) (A) (A) (A) (A) (A) (A) (A) (A) (A)
                 (A) (A) (A) (A) (A) (A) (A) (A) (A) (A) (A) (A)
                 (A) (A) (A) (A) (A) (A) (A) (A) (A) (A) (A) (A)
                 (A) (A) (A) (A) (A) (A) (A) (A) (A) (A) (A) (A)
                 (A) (A) (A) (A) (A) (A) (A) (A) (A) (A) (A) (A)
                 (A) (A) (A) (A) (A) (A) (A) (A) (A) (A) (A) (A)
                 (A) (A) (A) (A) (A) (A) (A) (A) (A) (A) (A) (A)
                 (A) (A) (A) (A) (A) (A) (A) (A) (A) (A) (A) (A)
                 (A) (A) (A) (A) (A) (A) (A) (A) (A) (A) (A) (A)
                 (A) (A) (A) (A) (A) (A) (A) (A) (A) (A) (A) (A)
                 (A) (A) (A) (A) (A) (A) (A) (A) (A) (A) (A) (A)
                 (A) (A) (A) (A) (A) (A) (A) (A) (A) (A) (A) (A)
                 (A) (A) (A) (A) (A) (A) (A)
 The electronic state is 1-A.
 Alpha  occ. eigenvalues --  -19.18653 -19.13871 -19.13120 -14.30428 -10.32075
 Alpha  occ. eigenvalues --  -10.22853 -10.22765  -1.12884  -1.04098  -1.03857
 Alpha  occ. eigenvalues --   -0.90313  -0.75774  -0.68416  -0.59545  -0.54993
 Alpha  occ. eigenvalues --   -0.51827  -0.50640  -0.49035  -0.47211  -0.45285
 Alpha  occ. eigenvalues --   -0.41659  -0.41434  -0.40550  -0.35714  -0.34420
 Alpha  occ. eigenvalues --   -0.30365  -0.29377  -0.25567
 Alpha virt. eigenvalues --   -0.02447  -0.01144  -0.00864   0.01301   0.01765
 Alpha virt. eigenvalues --    0.02848   0.04466   0.05313   0.07731   0.07907
 Alpha virt. eigenvalues --    0.08273   0.08993   0.09686   0.10641   0.11049
 Alpha virt. eigenvalues --    0.11974   0.12511   0.12878   0.13668   0.14332
 Alpha virt. eigenvalues --    0.16214   0.16865   0.17331   0.18499   0.19563
 Alpha virt. eigenvalues --    0.19690   0.20813   0.21611   0.22803   0.23508
 Alpha virt. eigenvalues --    0.23583   0.25334   0.25604   0.26074   0.26518
 Alpha virt. eigenvalues --    0.27956   0.29274   0.29719   0.30782   0.31422
 Alpha virt. eigenvalues --    0.31919   0.33226   0.34338   0.35754   0.37554
 Alpha virt. eigenvalues --    0.37957   0.38911   0.39664   0.45806   0.47645
 Alpha virt. eigenvalues --    0.51176   0.52722   0.54208   0.57188   0.58913
 Alpha virt. eigenvalues --    0.59640   0.60169   0.62360   0.65073   0.66391
 Alpha virt. eigenvalues --    0.68640   0.69927   0.70434   0.74542   0.75685
 Alpha virt. eigenvalues --    0.80549   0.82488   0.87480   0.90134   0.92841
 Alpha virt. eigenvalues --    1.01024   1.03471   1.06526   1.08251   1.08635
 Alpha virt. eigenvalues --    1.12701   1.13667   1.15156   1.17428   1.20079
 Alpha virt. eigenvalues --    1.21924   1.23956   1.26078   1.28257   1.32783
 Alpha virt. eigenvalues --    1.37935   1.39893   1.43079   1.45457   1.47088
 Alpha virt. eigenvalues --    1.51056   1.54752   1.54860   1.57877   1.58896
 Alpha virt. eigenvalues --    1.59804   1.61833   1.65792   1.67236   1.69153
 Alpha virt. eigenvalues --    1.70670   1.73506   1.79056   1.80570   1.83369
 Alpha virt. eigenvalues --    1.86941   1.91313   1.95970   1.99169   2.03605
 Alpha virt. eigenvalues --    2.04935   2.08070   2.08714   2.15663   2.17559
 Alpha virt. eigenvalues --    2.27373   2.34638   2.45160   2.45622   2.50040
 Alpha virt. eigenvalues --    2.54057   2.56432   2.57987   2.60196   2.64290
 Alpha virt. eigenvalues --    2.67123   2.70111   2.73884   2.80684   2.82942
 Alpha virt. eigenvalues --    2.84401   2.86709   2.91324   2.94372   2.97836
 Alpha virt. eigenvalues --    3.00680   3.05181   3.10347   3.11384   3.14646
 Alpha virt. eigenvalues --    3.17270   3.18550   3.21809   3.23438   3.36126
 Alpha virt. eigenvalues --    3.36830   3.53456   3.60230   3.67793   3.78634
 Alpha virt. eigenvalues --    3.81009   3.87192   3.92658   4.01240   4.05283
 Alpha virt. eigenvalues --    4.18835   4.28826   4.74522   4.84033   4.96117
 Alpha virt. eigenvalues --    5.03386   5.05349   5.16508   5.34630   5.39413
 Alpha virt. eigenvalues --    5.58456   5.65512   5.83310  23.78976  23.80163
 Alpha virt. eigenvalues --   23.84122  35.60256  49.84697  49.90803  49.99466
          Condensed to atoms (all electrons):
              1          2          3          4          5          6
     1  C    7.215960   0.489345  -0.758382  -0.110969  -0.340157  -0.026506
     2  H    0.489345   0.644523  -0.087678  -0.002526  -0.002081   0.002894
     3  C   -0.758382  -0.087678   5.923834   0.453096   0.313064   0.032143
     4  O   -0.110969  -0.002526   0.453096   8.065013  -0.127022  -0.001412
     5  O   -0.340157  -0.002081   0.313064  -0.127022   8.084239   0.246806
     6  H   -0.026506   0.002894   0.032143  -0.001412   0.246806   0.453302
     7  C   -0.262726  -0.118205   0.152213   0.022713   0.032818  -0.001899
     8  H   -0.094764  -0.035427   0.012704   0.003015  -0.001387  -0.000094
     9  H    0.032338   0.024351  -0.017490  -0.006764  -0.001005  -0.000114
    10  O   -0.137605  -0.005374   0.065691   0.001528  -0.001568  -0.000089
    11  H   -0.031594   0.003344  -0.005189   0.000283  -0.000073   0.000117
    12  N    0.189420  -0.122593  -0.080903  -0.005600  -0.007748   0.001366
    13  H   -0.044988   0.000883  -0.006533  -0.000579   0.008417  -0.001326
    14  H   -0.047483  -0.002038   0.001072  -0.000139  -0.001771  -0.000716
              7          8          9         10         11         12
     1  C   -0.262726  -0.094764   0.032338  -0.137605  -0.031594   0.189420
     2  H   -0.118205  -0.035427   0.024351  -0.005374   0.003344  -0.122593
     3  C    0.152213   0.012704  -0.017490   0.065691  -0.005189  -0.080903
     4  O    0.022713   0.003015  -0.006764   0.001528   0.000283  -0.005600
     5  O    0.032818  -0.001387  -0.001005  -0.001568  -0.000073  -0.007748
     6  H   -0.001899  -0.000094  -0.000114  -0.000089   0.000117   0.001366
     7  C    5.689088   0.421929   0.332078   0.201593   0.050666  -0.078246
     8  H    0.421929   0.653176  -0.088381  -0.058843  -0.002442   0.014449
     9  H    0.332078  -0.088381   0.614838  -0.056454  -0.012830  -0.017813
    10  O    0.201593  -0.058843  -0.056454   8.100354   0.208403  -0.020387
    11  H    0.050666  -0.002442  -0.012830   0.208403   0.527513   0.005060
    12  N   -0.078246   0.014449  -0.017813  -0.020387   0.005060   6.658415
    13  H    0.006219  -0.002268   0.001380   0.000952  -0.000419   0.390746
    14  H    0.001224   0.002976   0.000367   0.008979  -0.001586   0.388088
             13         14
     1  C   -0.044988  -0.047483
     2  H    0.000883  -0.002038
     3  C   -0.006533   0.001072
     4  O   -0.000579  -0.000139
     5  O    0.008417  -0.001771
     6  H   -0.001326  -0.000716
     7  C    0.006219   0.001224
     8  H   -0.002268   0.002976
     9  H    0.001380   0.000367
    10  O    0.000952   0.008979
    11  H   -0.000419  -0.001586
    12  N    0.390746   0.388088
    13  H    0.456550  -0.053675
    14  H   -0.053675   0.451452
 Mulliken atomic charges:
              1
     1  C   -0.071889
     2  H    0.210583
     3  C    0.002358
     4  O   -0.290638
     5  O   -0.202532
     6  H    0.295528
     7  C   -0.449464
     8  H    0.175357
     9  H    0.195499
    10  O   -0.307180
    11  H    0.258746
    12  N   -0.314255
    13  H    0.244641
    14  H    0.253248
 Sum of Mulliken charges=   0.00000
 Atomic charges with hydrogens summed into heavy atoms:
              1
     1  C    0.138693
     2  H    0.000000
     3  C    0.002358
     4  O   -0.290638
     5  O    0.092996
     6  H    0.000000
     7  C   -0.078609
     8  H    0.000000
     9  H    0.000000
    10  O   -0.048435
    11  H    0.000000
    12  N    0.183633
    13  H    0.000000
    14  H    0.000000
 Sum of Mulliken charges=   0.00000
 Electronic spatial extent (au):  <R**2>=   834.2997
 Charge=     0.0000 electrons
 Dipole moment (field-independent basis, Debye):
    X=     0.3349    Y=     0.4595    Z=     0.5936  Tot=     0.8220
 Quadrupole moment (field-independent basis, Debye-Ang):
   XX=   -33.5364   YY=   -43.7393   ZZ=   -44.3038
   XY=    -5.4713   XZ=    -2.8598   YZ=     1.1590
 Traceless Quadrupole moment (field-independent basis, Debye-Ang):
   XX=     6.9901   YY=    -3.2128   ZZ=    -3.7773
   XY=    -5.4713   XZ=    -2.8598   YZ=     1.1590
 Octapole moment (field-independent basis, Debye-Ang**2):
  XXX=   -10.3682  YYY=    13.8029  ZZZ=     3.0571  XYY=    12.9915
  XXY=    -7.5407  XXZ=    -9.6315  XZZ=    -2.1512  YZZ=    -4.1533
  YYZ=     3.7554  XYZ=     3.3049
 Hexadecapole moment (field-independent basis, Debye-Ang**3):
 XXXX=  -468.5229 YYYY=  -263.8477 ZZZZ=   -78.2729 XXXY=   -43.5920
 XXXZ=   -23.7002 YYYX=   -11.3873 YYYZ=     0.4718 ZZZX=    -0.6698
 ZZZY=     6.9275 XXYY=  -157.5084 XXZZ=  -128.6018 YYZZ=   -65.0847
 XXYZ=    -0.2976 YYXZ=    -1.8320 ZZXY=    -0.9709
 N-N= 3.212760134407D+02 E-N=-1.579467116700D+03  KE= 3.976832417538D+02
 1|1|UNPC-UNK|FOpt|RB3LYP|6-311++G(d,p)|C3H7N1O3|PCUSER|29-Mar-2016|0||
 # opt b3lyp/6-311++g(d,p) geom=connectivity||Ser-R-opt-6-311++g(d,p)||
 0,1|C,0.206215,0.270059,0.28955|H,0.291241,0.387024,1.384985|C,-1.1801
 91,-0.30591,0.047155|O,-1.434425,-1.453262,-0.218576|O,-2.139809,0.635
 782,0.210285|H,-2.99472,0.209754,0.046526|C,1.280813,-0.718263,-0.1448
 68|H,1.11951,-1.682855,0.344534|H,1.229341,-0.853818,-1.230496|O,2.533
 26,-0.143443,0.242524|H,3.246724,-0.669348,-0.129248|N,0.368895,1.5306
 48,-0.43612|H,-0.295075,2.225531,-0.113555|H,1.307483,1.881245,-0.2747
 95||Version=IA32W-G03RevE.01|State=1-A|HF=-399.092095|RMSD=6.186e-009|
 RMSF=4.588e-006|Thermal=0.|Dipole=0.1317627,0.1808001,0.2335504|PG=C01
  [X(C3H7N1O3)]||@


 What some people mistake for the high cost
 of living is really the cost of living high.
                              -- Doug Larson
 Job cpu time:  0 days  0 hours  3 minutes 29.0 seconds.
 File lengths (MBytes):  RWF=     33 Int=      0 D2E=      0 Chk=      6 Scr=      1
 Normal termination of Gaussian 03 at Tue Mar 29 15:29:30 2016.
