 Entering Link 1 = c:\G03W02\l1.exe PID=       532.
  
 Copyright (c) 1988,1990,1992,1993,1995,1998,2003,2004,2007, Gaussian, Inc.
                  All Rights Reserved.
  
 This is the Gaussian(R) 03 program.  It is based on the
 the Gaussian(R) 98 system (copyright 1998, Gaussian, Inc.),
 the Gaussian(R) 94 system (copyright 1995, Gaussian, Inc.),
 the Gaussian 92(TM) system (copyright 1992, Gaussian, Inc.),
 the Gaussian 90(TM) system (copyright 1990, Gaussian, Inc.),
 the Gaussian 88(TM) system (copyright 1988, Gaussian, Inc.),
 the Gaussian 86(TM) system (copyright 1986, Carnegie Mellon
 University), and the Gaussian 82(TM) system (copyright 1983,
 Carnegie Mellon University). Gaussian is a federally registered
 trademark of Gaussian, Inc.
  
 This software contains proprietary and confidential information,
 including trade secrets, belonging to Gaussian, Inc.
  
 This software is provided under written license and may be
 used, copied, transmitted, or stored only in accord with that
 written license.
  
 The following legend is applicable only to US Government
 contracts under FAR:
  
                    RESTRICTED RIGHTS LEGEND
  
 Use, reproduction and disclosure by the US Government is
 subject to restrictions as set forth in subparagraphs (a)
 and (c) of the Commercial Computer Software - Restricted
 Rights clause in FAR 52.227-19.
  
 Gaussian, Inc.
 340 Quinnipiac St., Bldg. 40, Wallingford CT 06492
  
  
 ---------------------------------------------------------------
 Warning -- This program may not be used in any manner that
 competes with the business of Gaussian, Inc. or will provide
 assistance to any competitor of Gaussian, Inc.  The licensee
 of this program is prohibited from giving any competitor of
 Gaussian, Inc. access to this program.  By using this program,
 the user acknowledges that Gaussian, Inc. is engaged in the
 business of creating and licensing software in the field of
 computational chemistry and represents and warrants to the
 licensee that it is not a competitor of Gaussian, Inc. and that
 it will not use this program in any manner prohibited above.
 ---------------------------------------------------------------
  

 Cite this work as:
 Gaussian 03, Revision E.01,
 M. J. Frisch, G. W. Trucks, H. B. Schlegel, G. E. Scuseria, 
 M. A. Robb, J. R. Cheeseman, J. A. Montgomery, Jr., T. Vreven, 
 K. N. Kudin, J. C. Burant, J. M. Millam, S. S. Iyengar, J. Tomasi, 
 V. Barone, B. Mennucci, M. Cossi, G. Scalmani, N. Rega, 
 G. A. Petersson, H. Nakatsuji, M. Hada, M. Ehara, K. Toyota, 
 R. Fukuda, J. Hasegawa, M. Ishida, T. Nakajima, Y. Honda, O. Kitao, 
 H. Nakai, M. Klene, X. Li, J. E. Knox, H. P. Hratchian, J. B. Cross, 
 V. Bakken, C. Adamo, J. Jaramillo, R. Gomperts, R. E. Stratmann, 
 O. Yazyev, A. J. Austin, R. Cammi, C. Pomelli, J. W. Ochterski, 
 P. Y. Ayala, K. Morokuma, G. A. Voth, P. Salvador, J. J. Dannenberg, 
 V. G. Zakrzewski, S. Dapprich, A. D. Daniels, M. C. Strain, 
 O. Farkas, D. K. Malick, A. D. Rabuck, K. Raghavachari, 
 J. B. Foresman, J. V. Ortiz, Q. Cui, A. G. Baboul, S. Clifford, 
 J. Cioslowski, B. B. Stefanov, G. Liu, A. Liashenko, P. Piskorz, 
 I. Komaromi, R. L. Martin, D. J. Fox, T. Keith, M. A. Al-Laham, 
 C. Y. Peng, A. Nanayakkara, M. Challacombe, P. M. W. Gill, 
 B. Johnson, W. Chen, M. W. Wong, C. Gonzalez, and J. A. Pople, 
 Gaussian, Inc., Wallingford CT, 2004.
 
 ******************************************
 Gaussian 03:  IA32W-G03RevE.01 11-Sep-2007
                01-Apr-2016 
 ******************************************
 %chk=E:\YangJ\Amiano\ser\ts1\r\Ser-R-opt-freq-ts1-6-31g.chk
 ----------------------------------------------
 # opt=(calcfc,ts) freq b3lyp/6-31g iop(1/11=1)
 ----------------------------------------------
 1/5=1,10=4,11=1,14=-1,18=20,26=3,38=1/1,3;
 2/9=110,17=6,18=5,40=1/2;
 3/5=1,6=6,11=2,16=1,25=1,30=1,74=-5/1,2,3;
 4//1;
 5/5=2,38=5/2;
 8/6=4,10=90,11=11/1;
 11/6=1,8=1,9=11,15=111,16=1/1,2,10;
 10/6=1,7=6/2;
 6/7=2,8=2,9=2,10=2,28=1/1;
 7/10=1,18=20,25=1/1,2,3,16;
 1/5=1,10=4,11=1,14=-1,18=20/3(3);
 2/9=110/2;
 6/7=2,8=2,9=2,10=2,19=2,28=1/1;
 99//99;
 2/9=110/2;
 3/5=1,6=6,11=2,16=1,25=1,30=1,74=-5/1,2,3;
 4/5=5,16=3/1;
 5/5=2,38=5/2;
 7//1,2,3,16;
 1/5=1,11=1,14=-1,18=20/3(-5);
 2/9=110/2;
 6/7=2,8=2,9=2,10=2,19=2,28=1/1;
 99/9=1/99;
 ------------------------
 Ser-R-opt-freq-ts1-6-31g
 ------------------------
 Symbolic Z-matrix:
 Charge =  0 Multiplicity = 1
 C                     0.        0.        0. 
 H                     0.        0.        1.10494 
 C                     1.46499   0.       -0.40797 
 O                     2.08801   0.94864  -0.81243 
 O                     2.02814  -1.21735  -0.2204 
 H                     3.12357  -0.25643  -0.76568 
 C                    -0.68256   1.28434  -0.45261 
 H                    -0.12842   2.15123  -0.08194 
 H                    -0.70575   1.31472  -1.54721 
 O                    -2.00718   1.24567   0.08867 
 H                    -2.51695   1.97199  -0.28067 
 N                    -0.68919  -1.15685  -0.57347 
 H                    -0.2921   -2.02457  -0.23121 
 H                    -1.66698  -1.12064  -0.30419 
 

 GradGradGradGradGradGradGradGradGradGradGradGradGradGradGradGradGradGrad
 Berny optimization.
 Initialization pass.
                           ----------------------------
                           !    Initial Parameters    !
                           ! (Angstroms and Degrees)  !
 --------------------------                            --------------------------
 ! Name  Definition              Value          Derivative Info.                !
 --------------------------------------------------------------------------------
 ! R1    R(1,2)                  1.1049         calculate D2E/DX2 analytically  !
 ! R2    R(1,3)                  1.5207         calculate D2E/DX2 analytically  !
 ! R3    R(1,7)                  1.5232         calculate D2E/DX2 analytically  !
 ! R4    R(1,12)                 1.4636         calculate D2E/DX2 analytically  !
 ! R5    R(3,4)                  1.2049         calculate D2E/DX2 analytically  !
 ! R6    R(3,5)                  1.3543         calculate D2E/DX2 analytically  !
 ! R7    R(3,6)                  1.716          calculate D2E/DX2 analytically  !
 ! R8    R(4,6)                  1.5896         calculate D2E/DX2 analytically  !
 ! R9    R(5,6)                  1.5558         calculate D2E/DX2 analytically  !
 ! R10   R(7,8)                  1.0936         calculate D2E/DX2 analytically  !
 ! R11   R(7,9)                  1.0953         calculate D2E/DX2 analytically  !
 ! R12   R(7,10)                 1.4315         calculate D2E/DX2 analytically  !
 ! R13   R(10,11)                0.9612         calculate D2E/DX2 analytically  !
 ! R14   R(12,13)                1.0138         calculate D2E/DX2 analytically  !
 ! R15   R(12,14)                1.0148         calculate D2E/DX2 analytically  !
 ! A1    A(2,1,3)              105.5613         calculate D2E/DX2 analytically  !
 ! A2    A(2,1,7)              107.2857         calculate D2E/DX2 analytically  !
 ! A3    A(2,1,12)             113.0677         calculate D2E/DX2 analytically  !
 ! A4    A(3,1,7)              110.6071         calculate D2E/DX2 analytically  !
 ! A5    A(3,1,12)             110.3964         calculate D2E/DX2 analytically  !
 ! A6    A(7,1,12)             109.8169         calculate D2E/DX2 analytically  !
 ! A7    A(1,3,4)              126.0291         calculate D2E/DX2 analytically  !
 ! A8    A(1,3,5)              111.3102         calculate D2E/DX2 analytically  !
 ! A9    A(1,3,6)              170.7658         calculate D2E/DX2 analytically  !
 ! A10   A(4,3,5)              122.6281         calculate D2E/DX2 analytically  !
 ! A11   A(4,6,5)               91.1371         calculate D2E/DX2 analytically  !
 ! A12   A(1,7,8)              109.9137         calculate D2E/DX2 analytically  !
 ! A13   A(1,7,9)              109.2586         calculate D2E/DX2 analytically  !
 ! A14   A(1,7,10)             106.2314         calculate D2E/DX2 analytically  !
 ! A15   A(8,7,9)              109.1158         calculate D2E/DX2 analytically  !
 ! A16   A(8,7,10)             111.231          calculate D2E/DX2 analytically  !
 ! A17   A(9,7,10)             111.0424         calculate D2E/DX2 analytically  !
 ! A18   A(7,10,11)            108.9698         calculate D2E/DX2 analytically  !
 ! A19   A(1,12,13)            111.0881         calculate D2E/DX2 analytically  !
 ! A20   A(1,12,14)            108.7557         calculate D2E/DX2 analytically  !
 ! A21   A(13,12,14)           108.5635         calculate D2E/DX2 analytically  !
 ! D1    D(2,1,3,4)           -103.1999         calculate D2E/DX2 analytically  !
 ! D2    D(2,1,3,5)             74.7551         calculate D2E/DX2 analytically  !
 ! D3    D(2,1,3,6)             68.6295         calculate D2E/DX2 analytically  !
 ! D4    D(7,1,3,4)             12.537          calculate D2E/DX2 analytically  !
 ! D5    D(7,1,3,5)           -169.5079         calculate D2E/DX2 analytically  !
 ! D6    D(7,1,3,6)           -175.6335         calculate D2E/DX2 analytically  !
 ! D7    D(12,1,3,4)           134.2879         calculate D2E/DX2 analytically  !
 ! D8    D(12,1,3,5)           -47.757          calculate D2E/DX2 analytically  !
 ! D9    D(12,1,3,6)           -53.8826         calculate D2E/DX2 analytically  !
 ! D10   D(2,1,7,8)             60.6405         calculate D2E/DX2 analytically  !
 ! D11   D(2,1,7,9)           -179.6553         calculate D2E/DX2 analytically  !
 ! D12   D(2,1,7,10)           -59.7978         calculate D2E/DX2 analytically  !
 ! D13   D(3,1,7,8)            -54.016          calculate D2E/DX2 analytically  !
 ! D14   D(3,1,7,9)             65.6881         calculate D2E/DX2 analytically  !
 ! D15   D(3,1,7,10)          -174.4544         calculate D2E/DX2 analytically  !
 ! D16   D(12,1,7,8)          -176.1075         calculate D2E/DX2 analytically  !
 ! D17   D(12,1,7,9)           -56.4034         calculate D2E/DX2 analytically  !
 ! D18   D(12,1,7,10)           63.4542         calculate D2E/DX2 analytically  !
 ! D19   D(2,1,12,13)          -56.1164         calculate D2E/DX2 analytically  !
 ! D20   D(2,1,12,14)           63.3088         calculate D2E/DX2 analytically  !
 ! D21   D(3,1,12,13)           61.8813         calculate D2E/DX2 analytically  !
 ! D22   D(3,1,12,14)         -178.6935         calculate D2E/DX2 analytically  !
 ! D23   D(7,1,12,13)         -175.9019         calculate D2E/DX2 analytically  !
 ! D24   D(7,1,12,14)          -56.4767         calculate D2E/DX2 analytically  !
 ! D25   D(1,7,10,11)         -171.5459         calculate D2E/DX2 analytically  !
 ! D26   D(8,7,10,11)           68.8717         calculate D2E/DX2 analytically  !
 ! D27   D(9,7,10,11)          -52.8562         calculate D2E/DX2 analytically  !
 --------------------------------------------------------------------------------
 Trust Radius=3.00D-01 FncErr=1.00D-07 GrdErr=1.00D-06
 Number of steps in this run=  73 maximum allowed number of steps= 100.
 Search for a saddle point of order  1.
 GradGradGradGradGradGradGradGradGradGradGradGradGradGradGradGradGradGrad

                          Input orientation:                          
 ---------------------------------------------------------------------
 Center     Atomic     Atomic              Coordinates (Angstroms)
 Number     Number      Type              X           Y           Z
 ---------------------------------------------------------------------
    1          6             0        0.000000    0.000000    0.000000
    2          1             0        0.000000    0.000000    1.104938
    3          6             0        1.464985    0.000000   -0.407966
    4          8             0        2.088005    0.948641   -0.812430
    5          8             0        2.028140   -1.217348   -0.220398
    6          1             0        3.123569   -0.256432   -0.765684
    7          6             0       -0.682557    1.284336   -0.452611
    8          1             0       -0.128422    2.151232   -0.081939
    9          1             0       -0.705746    1.314718   -1.547212
   10          8             0       -2.007181    1.245671    0.088675
   11          1             0       -2.516953    1.971990   -0.280669
   12          7             0       -0.689193   -1.156846   -0.573469
   13          1             0       -0.292096   -2.024568   -0.231213
   14          1             0       -1.666982   -1.120640   -0.304193
 ---------------------------------------------------------------------
                    Distance matrix (angstroms):
                    1          2          3          4          5
     1  C    0.000000
     2  H    1.104938   0.000000
     3  C    1.520729   2.105958   0.000000
     4  O    2.433049   2.989312   1.204850   0.000000
     5  O    2.375682   2.711421   1.354349   2.246240   0.000000
     6  H    3.226253   3.649886   1.715989   1.589584   1.555847
     7  C    1.523240   2.131047   2.502688   2.813925   3.695974
     8  H    2.156619   2.460278   2.696857   2.625336   4.002157
     9  H    2.149518   3.043101   2.781805   2.911866   3.955494
    10  O    2.363966   2.571626   3.722134   4.203661   4.737700
    11  H    3.209762   3.484782   4.445310   4.747174   5.552782
    12  N    1.463607   2.151820   2.450748   3.493280   2.740843
    13  H    2.058557   2.443255   2.686532   3.852618   2.456668
    14  H    2.031550   2.453633   3.328036   4.317425   3.697337
                    6          7          8          9         10
     6  H    0.000000
     7  C    4.118079   0.000000
     8  H    4.103632   1.093604   0.000000
     9  H    4.212238   1.095268   1.783279   0.000000
    10  O    5.413948   1.431473   2.092578   2.091560   0.000000
    11  H    6.084126   1.966581   2.403478   2.305778   0.961156
    12  N    3.922352   2.444181   3.391083   2.656516   2.819151
    13  H    3.883134   3.339210   4.181672   3.613003   3.706522
    14  H    4.889704   2.602890   3.622390   2.898282   2.422707
                   11         12         13         14
    11  H    0.000000
    12  N    3.635389   0.000000
    13  H    4.574375   1.013788   0.000000
    14  H    3.207392   1.014836   1.647035   0.000000
 Stoichiometry    C3H7NO3
 Framework group  C1[X(C3H7NO3)]
 Deg. of freedom    36
 Full point group                 C1
 Largest Abelian subgroup         C1      NOp   1
 Largest concise Abelian subgroup C1      NOp   1
                         Standard orientation:                         
 ---------------------------------------------------------------------
 Center     Atomic     Atomic              Coordinates (Angstroms)
 Number     Number      Type              X           Y           Z
 ---------------------------------------------------------------------
    1          6             0        0.212581    0.281044    0.291659
    2          1             0        0.305143    0.397239    1.386565
    3          6             0       -1.190531   -0.255745    0.055539
    4          8             0       -1.478227   -1.395833   -0.207320
    5          8             0       -2.122420    0.713035    0.220796
    6          1             0       -2.859099   -0.612608   -0.126527
    7          6             0        1.257027   -0.738027   -0.145248
    8          1             0        1.070339   -1.696900    0.346361
    9          1             0        1.197516   -0.873741   -1.230445
   10          8             0        2.526765   -0.198363    0.236384
   11          1             0        3.223580   -0.744865   -0.137255
   12          7             0        0.408121    1.535392   -0.436710
   13          1             0       -0.234621    2.249323   -0.112747
   14          1             0        1.356892    1.859476   -0.279568
 ---------------------------------------------------------------------
 Rotational constants (GHZ):      4.8319059      1.7972788      1.3819851
 Standard basis: 6-31G (6D, 7F)
 There are    77 symmetry adapted basis functions of A   symmetry.
 Integral buffers will be    262144 words long.
 Raffenetti 2 integral format.
 Two-electron integral symmetry is turned on.
    77 basis functions,   182 primitive gaussians,    77 cartesian basis functions
    28 alpha electrons       28 beta electrons
       nuclear repulsion energy       320.5964509219 Hartrees.
 NAtoms=   14 NActive=   14 NUniq=   14 SFac= 7.50D-01 NAtFMM=   80 NAOKFM=F Big=F
 One-electron integrals computed using PRISM.
 NBasis=    77 RedAO= T  NBF=    77
 NBsUse=    77 1.00D-06 NBFU=    77
 Harris functional with IExCor=  402 diagonalized for initial guess.
 ExpMin= 1.61D-01 ExpMax= 5.48D+03 ExpMxC= 8.25D+02 IAcc=1 IRadAn=         1 AccDes= 1.00D-06
 HarFok:  IExCor= 402 AccDes= 1.00D-06 IRadAn=         1 IDoV=1
 ScaDFX=  1.000000  1.000000  1.000000  1.000000
 Initial guess orbital symmetries:
       Occupied  (A) (A) (A) (A) (A) (A) (A) (A) (A) (A) (A) (A)
                 (A) (A) (A) (A) (A) (A) (A) (A) (A) (A) (A) (A)
                 (A) (A) (A) (A)
       Virtual   (A) (A) (A) (A) (A) (A) (A) (A) (A) (A) (A) (A)
                 (A) (A) (A) (A) (A) (A) (A) (A) (A) (A) (A) (A)
                 (A) (A) (A) (A) (A) (A) (A) (A) (A) (A) (A) (A)
                 (A) (A) (A) (A) (A) (A) (A) (A) (A) (A) (A) (A)
                 (A)
 The electronic state of the initial guess is 1-A.
 Requested convergence on RMS density matrix=1.00D-08 within 128 cycles.
 Requested convergence on MAX density matrix=1.00D-06.
 Requested convergence on             energy=1.00D-06.
 No special actions if energy rises.
 Integral accuracy reduced to 1.0D-05 until final iterations.
 Initial convergence to 1.0D-05 achieved.  Increase integral accuracy.
 SCF Done:  E(RB+HF-LYP) =  -398.718181567     A.U. after   16 cycles
             Convg  =    0.4468D-08             -V/T =  2.0053
             S**2   =   0.0000
 Range of M.O.s used for correlation:     1    77
 NBasis=    77 NAE=    28 NBE=    28 NFC=     0 NFV=     0
 NROrb=     77 NOA=    28 NOB=    28 NVA=    49 NVB=    49
 Symmetrizing basis deriv contribution to polar:
 IMax=3 JMax=2 DiffMx= 0.00D+00
 G2DrvN: will do   15 centers at a time, making    1 passes doing MaxLOS=1.
 FoFDir/FoFCou used for L=0 through L=1.
 DoAtom=TTTTTTTTTTTTTT
          Differentiating once with respect to electric field.
                with respect to dipole field.
          Differentiating once with respect to nuclear coordinates.
          Store integrals in memory, NReq=     5311154.
          There are  45 degrees of freedom in the 1st order CPHF.
    42 vectors were produced by pass  0.
 AX will form  42 AO Fock derivatives at one time.
    42 vectors were produced by pass  1.
    42 vectors were produced by pass  2.
    42 vectors were produced by pass  3.
    14 vectors were produced by pass  4.
     3 vectors were produced by pass  5.
 Inv2:  IOpt= 1 Iter= 1 AM= 1.76D-15 Conv= 1.00D-12.
 Inverted reduced A of dimension  185 with in-core refinement.
 Isotropic polarizability for W=    0.000000       48.90 Bohr**3.
 End of Minotr Frequency-dependent properties file   721 does not exist.

 **********************************************************************

            Population analysis using the SCF density.

 **********************************************************************

 Orbital symmetries:
       Occupied  (A) (A) (A) (A) (A) (A) (A) (A) (A) (A) (A) (A)
                 (A) (A) (A) (A) (A) (A) (A) (A) (A) (A) (A) (A)
                 (A) (A) (A) (A)
       Virtual   (A) (A) (A) (A) (A) (A) (A) (A) (A) (A) (A) (A)
                 (A) (A) (A) (A) (A) (A) (A) (A) (A) (A) (A) (A)
                 (A) (A) (A) (A) (A) (A) (A) (A) (A) (A) (A) (A)
                 (A) (A) (A) (A) (A) (A) (A) (A) (A) (A) (A) (A)
                 (A)
 The electronic state is 1-A.
 Alpha  occ. eigenvalues --  -19.20602 -19.19074 -19.15361 -14.31312 -10.34458
 Alpha  occ. eigenvalues --  -10.24299 -10.24043  -1.15795  -1.04290  -1.01919
 Alpha  occ. eigenvalues --   -0.90185  -0.76088  -0.66084  -0.56050  -0.52987
 Alpha  occ. eigenvalues --   -0.51872  -0.49866  -0.49446  -0.46551  -0.45102
 Alpha  occ. eigenvalues --   -0.41448  -0.41043  -0.36477  -0.34001  -0.31974
 Alpha  occ. eigenvalues --   -0.31732  -0.28203  -0.23386
 Alpha virt. eigenvalues --   -0.06753  -0.01807   0.05825   0.10408   0.12336
 Alpha virt. eigenvalues --    0.14907   0.15722   0.17708   0.19100   0.21040
 Alpha virt. eigenvalues --    0.22504   0.25577   0.30625   0.38533   0.52731
 Alpha virt. eigenvalues --    0.55761   0.58132   0.59707   0.61168   0.62034
 Alpha virt. eigenvalues --    0.66290   0.68961   0.71513   0.73157   0.77912
 Alpha virt. eigenvalues --    0.79770   0.83228   0.85303   0.86927   0.90040
 Alpha virt. eigenvalues --    0.91654   0.92608   0.94332   0.97631   0.99890
 Alpha virt. eigenvalues --    1.02788   1.04651   1.06932   1.08510   1.11576
 Alpha virt. eigenvalues --    1.15236   1.20310   1.27643   1.34905   1.45465
 Alpha virt. eigenvalues --    1.69809   1.74835   1.85433   1.95076
          Condensed to atoms (all electrons):
              1          2          3          4          5          6
     1  C    5.491719   0.367739   0.083179  -0.086320  -0.101811   0.021835
     2  H    0.367739   0.620023  -0.052072   0.001487  -0.002133  -0.000819
     3  C    0.083179  -0.052072   4.903950   0.343122   0.256030   0.009051
     4  O   -0.086320   0.001487   0.343122   8.244992  -0.141456   0.042719
     5  O   -0.101811  -0.002133   0.256030  -0.141456   8.379307   0.095400
     6  H    0.021835  -0.000819   0.009051   0.042719   0.095400   0.517994
     7  C    0.213528  -0.054642  -0.002787   0.000979   0.003490  -0.000663
     8  H   -0.045642  -0.002187  -0.000098   0.004290   0.000033   0.000003
     9  H   -0.034909   0.007626  -0.003702   0.001782  -0.000069  -0.000054
    10  O   -0.059151   0.002491   0.002921   0.000050  -0.000013   0.000003
    11  H    0.007544  -0.000191  -0.000336   0.000004   0.000001   0.000000
    12  N    0.277097  -0.055370  -0.052048   0.001224  -0.002218  -0.000622
    13  H   -0.034093  -0.002494  -0.008761   0.000127   0.010045  -0.000107
    14  H   -0.047591  -0.002174   0.008122  -0.000083   0.000143   0.000025
              7          8          9         10         11         12
     1  C    0.213528  -0.045642  -0.034909  -0.059151   0.007544   0.277097
     2  H   -0.054642  -0.002187   0.007626   0.002491  -0.000191  -0.055370
     3  C   -0.002787  -0.000098  -0.003702   0.002921  -0.000336  -0.052048
     4  O    0.000979   0.004290   0.001782   0.000050   0.000004   0.001224
     5  O    0.003490   0.000033  -0.000069  -0.000013   0.000001  -0.002218
     6  H   -0.000663   0.000003  -0.000054   0.000003   0.000000  -0.000622
     7  C    5.037424   0.352074   0.351804   0.209066  -0.031408  -0.067211
     8  H    0.352074   0.639699  -0.048403  -0.046972  -0.002138   0.005259
     9  H    0.351804  -0.048403   0.625406  -0.045133  -0.004969  -0.000016
    10  O    0.209066  -0.046972  -0.045133   8.298446   0.242353  -0.001626
    11  H   -0.031408  -0.002138  -0.004969   0.242353   0.421924   0.000118
    12  N   -0.067211   0.005259  -0.000016  -0.001626   0.000118   6.930144
    13  H    0.006805  -0.000216  -0.000124   0.000025   0.000016   0.314628
    14  H   -0.008007   0.000529  -0.000362   0.015942  -0.000741   0.319276
             13         14
     1  C   -0.034093  -0.047591
     2  H   -0.002494  -0.002174
     3  C   -0.008761   0.008122
     4  O    0.000127  -0.000083
     5  O    0.010045   0.000143
     6  H   -0.000107   0.000025
     7  C    0.006805  -0.008007
     8  H   -0.000216   0.000529
     9  H   -0.000124  -0.000362
    10  O    0.000025   0.015942
    11  H    0.000016  -0.000741
    12  N    0.314628   0.319276
    13  H    0.452245  -0.033412
    14  H   -0.033412   0.447471
 Mulliken atomic charges:
              1
     1  C   -0.053124
     2  H    0.172716
     3  C    0.513429
     4  O   -0.412918
     5  O   -0.496747
     6  H    0.315236
     7  C   -0.010451
     8  H    0.143768
     9  H    0.151124
    10  O   -0.618401
    11  H    0.367825
    12  N   -0.668634
    13  H    0.295316
    14  H    0.300861
 Sum of Mulliken charges=   0.00000
 Atomic charges with hydrogens summed into heavy atoms:
              1
     1  C    0.119592
     2  H    0.000000
     3  C    0.513429
     4  O   -0.412918
     5  O   -0.181512
     6  H    0.000000
     7  C    0.284441
     8  H    0.000000
     9  H    0.000000
    10  O   -0.250576
    11  H    0.000000
    12  N   -0.072457
    13  H    0.000000
    14  H    0.000000
 Sum of Mulliken charges=   0.00000
 APT atomic charges:
              1
     1  C    0.330051
     2  H   -0.084225
     3  C    0.689423
     4  O   -0.568658
     5  O   -0.552978
     6  H    0.287974
     7  C    0.458031
     8  H   -0.053217
     9  H   -0.048589
    10  O   -0.589482
    11  H    0.249098
    12  N   -0.485579
    13  H    0.178476
    14  H    0.189673
 Sum of APT charges=   0.00000
 APT Atomic charges with hydrogens summed into heavy atoms:
              1
     1  C    0.245827
     2  H    0.000000
     3  C    0.689423
     4  O   -0.568658
     5  O   -0.265003
     6  H    0.000000
     7  C    0.356225
     8  H    0.000000
     9  H    0.000000
    10  O   -0.340385
    11  H    0.000000
    12  N   -0.117429
    13  H    0.000000
    14  H    0.000000
 Sum of APT charges=   0.00000
 Electronic spatial extent (au):  <R**2>=   832.9962
 Charge=     0.0000 electrons
 Dipole moment (field-independent basis, Debye):
    X=     1.5180    Y=    -1.0678    Z=     0.4368  Tot=     1.9066
 Quadrupole moment (field-independent basis, Debye-Ang):
   XX=   -37.1702   YY=   -41.2691   ZZ=   -43.5815
   XY=    -1.3575   XZ=    -2.1939   YZ=     1.7067
 Traceless Quadrupole moment (field-independent basis, Debye-Ang):
   XX=     3.5034   YY=    -0.5955   ZZ=    -2.9079
   XY=    -1.3575   XZ=    -2.1939   YZ=     1.7067
 Octapole moment (field-independent basis, Debye-Ang**2):
  XXX=    12.3951  YYY=    14.7331  ZZZ=     2.6898  XYY=    13.5957
  XXY=   -20.8786  XXZ=   -12.2749  XZZ=    -1.0370  YZZ=    -3.8689
  YYZ=     3.7895  XYZ=     3.0885
 Hexadecapole moment (field-independent basis, Debye-Ang**3):
 XXXX=  -521.3436 YYYY=  -244.5899 ZZZZ=   -69.2121 XXXY=    -9.6418
 XXXZ=   -16.9145 YYYX=    -6.7533 YYYZ=     1.8447 ZZZX=     0.1902
 ZZZY=     5.8686 XXYY=  -146.2271 XXZZ=  -124.2009 YYZZ=   -60.8429
 XXYZ=     0.7265 YYXZ=    -1.0968 ZZXY=    -0.6216
 N-N= 3.205964509219D+02 E-N=-1.576439907149D+03  KE= 3.966197160305D+02
  Exact polarizability:  62.653   1.536  51.981   0.104   2.343  32.070
 Approx polarizability:  79.674  -1.013  93.924   0.398   9.012  44.725
 ***** Axes restored to original set *****
 -------------------------------------------------------------------
 Center     Atomic                   Forces (Hartrees/Bohr)
 Number     Number              X              Y              Z
 -------------------------------------------------------------------
    1          6           0.000974565    0.012884050   -0.003304559
    2          1           0.000561052    0.001320617    0.001604359
    3          6          -0.086197894   -0.111765695    0.050050918
    4          8           0.070466681    0.051893682   -0.031308837
    5          8           0.041803293    0.068956628   -0.029239606
    6          1          -0.023280824   -0.021521908    0.012153177
    7          6           0.009747893   -0.002282979   -0.003473020
    8          1           0.002219795    0.001817789    0.000240504
    9          1           0.001696801   -0.000305592   -0.001743337
   10          8          -0.004942142   -0.008543546    0.008584959
   11          1          -0.011816274    0.009570979   -0.003162991
   12          7          -0.001042808   -0.001042707    0.007830948
   13          1           0.005434393   -0.004128987   -0.003948054
   14          1          -0.005624533    0.003147669   -0.004284459
 -------------------------------------------------------------------
 Cartesian Forces:  Max     0.111765695 RMS     0.031046388

 GradGradGradGradGradGradGradGradGradGradGradGradGradGradGradGradGradGrad
 Berny optimization.
 Internal  Forces:  Max     0.085198862 RMS     0.015362247
 Search for a saddle point.
 Step number   1 out of a maximum of  73
 All quantities printed in internal units (Hartrees-Bohrs-Radians)
 Swaping is turned off.
 Second derivative matrix not updated -- analytic derivatives used.
     Eigenvalues ---   -0.08950   0.00026   0.00124   0.00255   0.00402
     Eigenvalues ---    0.00580   0.02505   0.03288   0.03892   0.05030
     Eigenvalues ---    0.05204   0.05359   0.07002   0.10649   0.11580
     Eigenvalues ---    0.12975   0.14295   0.15526   0.16103   0.16553
     Eigenvalues ---    0.17108   0.18162   0.20200   0.24251   0.29281
     Eigenvalues ---    0.30957   0.32012   0.33561   0.33904   0.34916
     Eigenvalues ---    0.38256   0.41080   0.46001   0.46536   0.53917
     Eigenvalues ---    0.823991000.000001000.000001000.000001000.00000
     Eigenvalues --- 1000.000001000.000001000.000001000.000001000.00000
     Eigenvalues --- 1000.000001000.000001000.000001000.000001000.00000
     Eigenvalues --- 1000.000001000.000001000.000001000.000001000.00000
     Eigenvalues --- 1000.000001000.000001000.000001000.000001000.00000
     Eigenvalues --- 1000.000001000.000001000.00000
 Eigenvectors required to have negative eigenvalues:
                          R1        R2        R3        R4        R5
         1             -0.00173   0.00747   0.00310  -0.00724   0.06614
                          R6        R7        R8        R9        R10
         1             -0.11729  -0.01709  -0.63175   0.69541   0.00160
                          R11       R12       R13       R14       R15
         1              0.00044  -0.00073   0.00020  -0.00081  -0.00010
                          A1        A2        A3        A4        A5
         1             -0.00529  -0.00196   0.00536   0.01387  -0.01034
                          A6        A7        A8        A9        A10
         1             -0.00100  -0.01654   0.00245   0.30979   0.01468
                          A11       A12       A13       A14       A15
         1             -0.03191   0.00012   0.00014   0.00209   0.00045
                          A16       A17       A18       A19       A20
         1             -0.00182  -0.00092   0.00119  -0.00634   0.00023
                          A21       D1        D2        D3        D4
         1              0.00561  -0.01092   0.00783  -0.00547  -0.00933
                          D5        D6        D7        D8        D9
         1              0.00942  -0.00389  -0.00825   0.01050  -0.00281
                          D10       D11       D12       D13       D14
         1             -0.00207  -0.00136  -0.00119  -0.00185  -0.00114
                          D15       D16       D17       D18       D19
         1             -0.00097   0.00264   0.00335   0.00352  -0.00049
                          D20       D21       D22       D23       D24
         1              0.00272  -0.01075  -0.00754  -0.00084   0.00237
                          D25       D26       D27
         1              0.00009  -0.00033   0.00100
 RFO step:  Lambda0=2.350442099D-03 Lambda=-4.58693051D-02.
 Linear search not attempted -- option 19 set.
 Maximum step size (   0.300) exceeded in Quadratic search.
    -- Step size scaled by   0.529
 Iteration  1 RMS(Cart)=  0.02768757 RMS(Int)=  0.00158750
 Iteration  2 RMS(Cart)=  0.00120689 RMS(Int)=  0.00019043
 Iteration  3 RMS(Cart)=  0.00000271 RMS(Int)=  0.00018964
 Iteration  4 RMS(Cart)=  0.00000000 RMS(Int)=  0.00018964
 Variable       Old X    -DE/DX   Delta X   Delta X   Delta X     New X
                                 (Linear)    (Quad)   (Total)
    R1        2.08803   0.00160   0.00000   0.00334   0.00334   2.09137
    R2        2.87376   0.00224   0.00000  -0.02268  -0.02268   2.85108
    R3        2.87851   0.00147   0.00000   0.00140   0.00140   2.87991
    R4        2.76582   0.00234   0.00000   0.00052   0.00052   2.76634
    R5        2.27684   0.08520   0.00000   0.07060   0.07058   2.34742
    R6        2.55935  -0.03932   0.00000  -0.06278  -0.06286   2.49649
    R7        3.24275   0.02007   0.00000  -0.04395  -0.04329   3.19946
    R8        3.00388  -0.00729   0.00000  -0.19352  -0.19400   2.80987
    R9        2.94012  -0.04485   0.00000  -0.10070  -0.10089   2.83924
   R10        2.06661   0.00265   0.00000   0.00244   0.00244   2.06905
   R11        2.06976   0.00170   0.00000   0.00110   0.00110   2.07086
   R12        2.70509   0.01753   0.00000   0.02064   0.02064   2.72573
   R13        1.81632   0.01472   0.00000   0.01298   0.01298   1.82931
   R14        1.91578   0.00433   0.00000   0.00282   0.00282   1.91860
   R15        1.91776   0.00440   0.00000   0.00213   0.00213   1.91989
    A1        1.84239  -0.00079   0.00000   0.00174   0.00174   1.84413
    A2        1.87249  -0.00119   0.00000  -0.00313  -0.00315   1.86934
    A3        1.97340   0.00225   0.00000   0.00557   0.00557   1.97897
    A4        1.93046   0.00493   0.00000   0.01202   0.01200   1.94246
    A5        1.92678  -0.00270   0.00000  -0.01420  -0.01419   1.91259
    A6        1.91667  -0.00220   0.00000  -0.00114  -0.00109   1.91557
    A7        2.19962   0.01106   0.00000   0.01216   0.01153   2.21116
    A8        1.94273   0.02839   0.00000   0.09170   0.09173   2.03446
    A9        2.98043   0.00958   0.00000   0.07059   0.06994   3.05037
   A10        2.14026  -0.03943   0.00000  -0.10361  -0.10304   2.03722
   A11        1.59064   0.01427   0.00000   0.04605   0.04644   1.63708
   A12        1.91836   0.00014   0.00000   0.00291   0.00292   1.92127
   A13        1.90692  -0.00094   0.00000  -0.00036  -0.00036   1.90656
   A14        1.85409  -0.00177   0.00000  -0.00968  -0.00968   1.84440
   A15        1.90443  -0.00029   0.00000   0.00018   0.00017   1.90460
   A16        1.94135   0.00120   0.00000   0.00304   0.00305   1.94439
   A17        1.93806   0.00161   0.00000   0.00372   0.00371   1.94176
   A18        1.90188   0.00901   0.00000   0.01398   0.01398   1.91586
   A19        1.93885   0.00272   0.00000   0.01200   0.01181   1.95066
   A20        1.89814   0.00222   0.00000   0.01091   0.01072   1.90886
   A21        1.89479   0.00264   0.00000   0.01997   0.01961   1.91440
    D1       -1.80118   0.00006   0.00000  -0.00065  -0.00066  -1.80184
    D2        1.30472  -0.00030   0.00000   0.00532   0.00532   1.31004
    D3        1.19781  -0.00005   0.00000  -0.00224  -0.00224   1.19557
    D4        0.21881   0.00065   0.00000   0.00252   0.00255   0.22136
    D5       -2.95847   0.00029   0.00000   0.00850   0.00852  -2.94995
    D6       -3.06538   0.00054   0.00000   0.00094   0.00097  -3.06442
    D7        2.34377  -0.00064   0.00000  -0.00041  -0.00043   2.34334
    D8       -0.83352  -0.00100   0.00000   0.00557   0.00554  -0.82797
    D9       -0.94043  -0.00075   0.00000  -0.00199  -0.00201  -0.94244
   D10        1.05838   0.00046   0.00000  -0.00077  -0.00078   1.05760
   D11       -3.13558  -0.00040   0.00000   0.00100   0.00099  -3.13459
   D12       -1.04367   0.00000   0.00000  -0.00030  -0.00029  -1.04396
   D13       -0.94276  -0.00048   0.00000  -0.00729  -0.00729  -0.95004
   D14        1.14647  -0.00134   0.00000  -0.00552  -0.00552   1.14095
   D15       -3.04480  -0.00095   0.00000  -0.00681  -0.00681  -3.05161
   D16       -3.07366   0.00113   0.00000   0.00337   0.00337  -3.07028
   D17       -0.98442   0.00027   0.00000   0.00514   0.00514  -0.97928
   D18        1.10748   0.00066   0.00000   0.00385   0.00385   1.11134
   D19       -0.97942  -0.00325   0.00000  -0.01969  -0.01978  -0.99920
   D20        1.10495   0.00307   0.00000   0.01912   0.01922   1.12416
   D21        1.08003  -0.00462   0.00000  -0.02353  -0.02365   1.05639
   D22       -3.11879   0.00169   0.00000   0.01527   0.01535  -3.10344
   D23       -3.07007  -0.00169   0.00000  -0.01859  -0.01867  -3.08874
   D24       -0.98570   0.00463   0.00000   0.02021   0.02032  -0.96538
   D25       -2.99404   0.00047   0.00000   0.00191   0.00191  -2.99213
   D26        1.20204   0.00072   0.00000   0.00262   0.00263   1.20467
   D27       -0.92251  -0.00085   0.00000  -0.00230  -0.00231  -0.92482
         Item               Value     Threshold  Converged?
 Maximum Force            0.085199     0.000450     NO 
 RMS     Force            0.015362     0.000300     NO 
 Maximum Displacement     0.093578     0.001800     NO 
 RMS     Displacement     0.027377     0.001200     NO 
 Predicted change in Energy=-1.881954D-02
 GradGradGradGradGradGradGradGradGradGradGradGradGradGradGradGradGradGrad

                          Input orientation:                          
 ---------------------------------------------------------------------
 Center     Atomic     Atomic              Coordinates (Angstroms)
 Number     Number      Type              X           Y           Z
 ---------------------------------------------------------------------
    1          6             0       -0.003664   -0.002065    0.010882
    2          1             0       -0.010166    0.008989    1.117514
    3          6             0        1.451110   -0.036121   -0.387533
    4          8             0        2.126565    0.915577   -0.813080
    5          8             0        2.077660   -1.189590   -0.238488
    6          1             0        3.088822   -0.217421   -0.776841
    7          6             0       -0.674894    1.284667   -0.454185
    8          1             0       -0.117794    2.153024   -0.087587
    9          1             0       -0.693760    1.306536   -1.549656
   10          8             0       -2.009708    1.247051    0.091123
   11          1             0       -2.534714    1.971815   -0.277879
   12          7             0       -0.696660   -1.156904   -0.562758
   13          1             0       -0.304402   -2.033338   -0.232921
   14          1             0       -1.682825   -1.111469   -0.322760
 ---------------------------------------------------------------------
                    Distance matrix (angstroms):
                    1          2          3          4          5
     1  C    0.000000
     2  H    1.106706   0.000000
     3  C    1.508728   2.098221   0.000000
     4  O    2.461475   3.019059   1.242200   0.000000
     5  O    2.409213   2.763033   1.321087   2.182722   0.000000
     6  H    3.198493   3.639172   1.693084   1.486921   1.502460
     7  C    1.523981   2.130599   2.503760   2.848370   3.707428
     8  H    2.160354   2.461856   2.709941   2.663599   4.001981
     9  H    2.150337   3.043801   2.784551   2.941025   3.953552
    10  O    2.364518   2.566017   3.721949   4.246907   4.769952
    11  H    3.222701   3.489004   4.464372   4.809325   5.591961
    12  N    1.463885   2.157289   2.428945   3.511188   2.793398
    13  H    2.067838   2.466039   2.663570   3.865526   2.527086
    14  H    2.040018   2.475399   3.313927   4.342900   3.762240
                    6          7          8          9         10
     6  H    0.000000
     7  C    4.065210   0.000000
     8  H    4.046784   1.094897   0.000000
     9  H    4.150616   1.095851   1.784915   0.000000
    10  O    5.375225   1.442395   2.105247   2.104142   0.000000
    11  H    6.055235   1.990524   2.431162   2.334336   0.968027
    12  N    3.906192   2.444080   3.393596   2.653773   2.816142
    13  H    3.886821   3.345949   4.193038   3.611115   3.711337
    14  H    4.875872   2.602818   3.627883   2.886221   2.416768
                   11         12         13         14
    11  H    0.000000
    12  N    3.639846   0.000000
    13  H    4.584491   1.015281   0.000000
    14  H    3.199120   1.015965   1.660711   0.000000
 Stoichiometry    C3H7NO3
 Framework group  C1[X(C3H7NO3)]
 Deg. of freedom    36
 Full point group                 C1
 Largest Abelian subgroup         C1      NOp   1
 Largest concise Abelian subgroup C1      NOp   1
                         Standard orientation:                         
 ---------------------------------------------------------------------
 Center     Atomic     Atomic              Coordinates (Angstroms)
 Number     Number      Type              X           Y           Z
 ---------------------------------------------------------------------
    1          6             0        0.228520    0.282036    0.299721
    2          1             0        0.333270    0.387010    1.396446
    3          6             0       -1.180421   -0.206219    0.070041
    4          8             0       -1.527820   -1.365602   -0.209610
    5          8             0       -2.145106    0.685142    0.211912
    6          1             0       -2.809838   -0.615635   -0.139505
    7          6             0        1.253067   -0.752005   -0.151479
    8          1             0        1.056316   -1.713124    0.334666
    9          1             0        1.184188   -0.878378   -1.237838
   10          8             0        2.537941   -0.220991    0.232742
   11          1             0        3.243529   -0.765950   -0.144404
   12          7             0        0.437913    1.535647   -0.426623
   13          1             0       -0.197965    2.262704   -0.113824
   14          1             0        1.397992    1.842572   -0.299228
 ---------------------------------------------------------------------
 Rotational constants (GHZ):      4.9147110      1.7676081      1.3706062
 Standard basis: 6-31G (6D, 7F)
 There are    77 symmetry adapted basis functions of A   symmetry.
 Integral buffers will be    262144 words long.
 Raffenetti 2 integral format.
 Two-electron integral symmetry is turned on.
    77 basis functions,   182 primitive gaussians,    77 cartesian basis functions
    28 alpha electrons       28 beta electrons
       nuclear repulsion energy       320.1881978362 Hartrees.
 NAtoms=   14 NActive=   14 NUniq=   14 SFac= 7.50D-01 NAtFMM=   80 NAOKFM=F Big=F
 One-electron integrals computed using PRISM.
 NBasis=    77 RedAO= T  NBF=    77
 NBsUse=    77 1.00D-06 NBFU=    77
 Initial guess read from the read-write file:
 Initial guess orbital symmetries:
       Occupied  (A) (A) (A) (A) (A) (A) (A) (A) (A) (A) (A) (A)
                 (A) (A) (A) (A) (A) (A) (A) (A) (A) (A) (A) (A)
                 (A) (A) (A) (A)
       Virtual   (A) (A) (A) (A) (A) (A) (A) (A) (A) (A) (A) (A)
                 (A) (A) (A) (A) (A) (A) (A) (A) (A) (A) (A) (A)
                 (A) (A) (A) (A) (A) (A) (A) (A) (A) (A) (A) (A)
                 (A) (A) (A) (A) (A) (A) (A) (A) (A) (A) (A) (A)
                 (A)
 Harris functional with IExCor=  402 diagonalized for initial guess.
 ExpMin= 1.61D-01 ExpMax= 5.48D+03 ExpMxC= 8.25D+02 IAcc=1 IRadAn=         1 AccDes= 1.00D-06
 HarFok:  IExCor= 402 AccDes= 1.00D-06 IRadAn=         1 IDoV=1
 ScaDFX=  1.000000  1.000000  1.000000  1.000000
 Requested convergence on RMS density matrix=1.00D-08 within 128 cycles.
 Requested convergence on MAX density matrix=1.00D-06.
 Requested convergence on             energy=1.00D-06.
 No special actions if energy rises.
 Integral accuracy reduced to 1.0D-05 until final iterations.
 Initial convergence to 1.0D-05 achieved.  Increase integral accuracy.
 SCF Done:  E(RB+HF-LYP) =  -398.736962367     A.U. after   14 cycles
             Convg  =    0.7192D-08             -V/T =  2.0054
             S**2   =   0.0000
 ***** Axes restored to original set *****
 -------------------------------------------------------------------
 Center     Atomic                   Forces (Hartrees/Bohr)
 Number     Number              X              Y              Z
 -------------------------------------------------------------------
    1          6           0.001081041    0.008936482   -0.001929750
    2          1           0.000176692    0.000871835    0.000903358
    3          6          -0.047977433   -0.063434979    0.028013991
    4          8           0.045456839    0.026993573   -0.019050693
    5          8           0.025053859    0.035847898   -0.016765115
    6          1          -0.021437183   -0.007904985    0.008608253
    7          6           0.005530555   -0.001047066   -0.002353839
    8          1           0.001090457    0.000929819    0.000224151
    9          1           0.000888809   -0.000220574   -0.000889711
   10          8          -0.002686434   -0.004458946    0.004534062
   11          1          -0.006362513    0.004873685   -0.001589330
   12          7          -0.001547242   -0.001669303    0.007386988
   13          1           0.003790479   -0.002129141   -0.003458834
   14          1          -0.003057927    0.002411704   -0.003633530
 -------------------------------------------------------------------
 Cartesian Forces:  Max     0.063434979 RMS     0.017874709

 GradGradGradGradGradGradGradGradGradGradGradGradGradGradGradGradGradGrad
 Berny optimization.
 Internal  Forces:  Max     0.049893697 RMS     0.008811402
 Search for a saddle point.
 Step number   2 out of a maximum of  73
 All quantities printed in internal units (Hartrees-Bohrs-Radians)
 Swaping is turned off.
 Update second derivatives using D2CorX and points  1  2
     Eigenvalues ---   -0.09284   0.00026   0.00126   0.00255   0.00402
     Eigenvalues ---    0.00580   0.02908   0.03276   0.03891   0.05029
     Eigenvalues ---    0.05204   0.05359   0.07002   0.10649   0.11573
     Eigenvalues ---    0.12981   0.14292   0.15530   0.16126   0.16559
     Eigenvalues ---    0.17366   0.18168   0.20202   0.24248   0.29509
     Eigenvalues ---    0.30958   0.32038   0.33562   0.33973   0.35223
     Eigenvalues ---    0.38251   0.41057   0.46000   0.46536   0.53911
     Eigenvalues ---    0.817131000.000001000.000001000.000001000.00000
     Eigenvalues --- 1000.000001000.000001000.000001000.000001000.00000
     Eigenvalues --- 1000.000001000.000001000.000001000.000001000.00000
     Eigenvalues --- 1000.000001000.000001000.000001000.000001000.00000
     Eigenvalues --- 1000.000001000.000001000.000001000.000001000.00000
     Eigenvalues --- 1000.000001000.000001000.00000
 Eigenvectors required to have negative eigenvalues:
                          R1        R2        R3        R4        R5
         1             -0.00143   0.00624   0.00328  -0.00715   0.07635
                          R6        R7        R8        R9        R10
         1             -0.11134  -0.02303  -0.65164   0.67595   0.00163
                          R11       R12       R13       R14       R15
         1              0.00043   0.00072   0.00089  -0.00099  -0.00030
                          A1        A2        A3        A4        A5
         1             -0.00469  -0.00209   0.00558   0.01407  -0.01088
                          A6        A7        A8        A9        A10
         1             -0.00126  -0.02165   0.00711   0.31150   0.01501
                          A11       A12       A13       A14       A15
         1             -0.01801   0.00050   0.00013   0.00107   0.00064
                          A16       A17       A18       A19       A20
         1             -0.00162  -0.00069   0.00212  -0.00397   0.00198
                          A21       D1        D2        D3        D4
         1              0.00880  -0.01077   0.00911  -0.00540  -0.00887
                          D5        D6        D7        D8        D9
         1              0.01101  -0.00350  -0.00856   0.01132  -0.00320
                          D10       D11       D12       D13       D14
         1             -0.00224  -0.00107  -0.00121  -0.00279  -0.00162
                          D15       D16       D17       D18       D19
         1             -0.00176   0.00249   0.00366   0.00352  -0.00423
                          D20       D21       D22       D23       D24
         1              0.00562  -0.01397  -0.00412  -0.00436   0.00549
                          D25       D26       D27
         1              0.00034  -0.00004   0.00077
 RFO step:  Lambda0=1.842241733D-04 Lambda=-2.20076411D-02.
 Linear search not attempted -- option 19 set.
 Maximum step size (   0.300) exceeded in Quadratic search.
    -- Step size scaled by   0.591
 Iteration  1 RMS(Cart)=  0.02472862 RMS(Int)=  0.00120170
 Iteration  2 RMS(Cart)=  0.00086250 RMS(Int)=  0.00039207
 Iteration  3 RMS(Cart)=  0.00000115 RMS(Int)=  0.00039190
 Iteration  4 RMS(Cart)=  0.00000000 RMS(Int)=  0.00039190
 Variable       Old X    -DE/DX   Delta X   Delta X   Delta X     New X
                                 (Linear)    (Quad)   (Total)
    R1        2.09137   0.00091   0.00000   0.00299   0.00299   2.09436
    R2        2.85108   0.00103   0.00000  -0.02133  -0.02133   2.82975
    R3        2.87991   0.00077   0.00000   0.00136   0.00136   2.88127
    R4        2.76634   0.00136   0.00000  -0.00065  -0.00065   2.76570
    R5        2.34742   0.04989   0.00000   0.05319   0.05219   2.39960
    R6        2.49649  -0.01806   0.00000  -0.02117  -0.02218   2.47431
    R7        3.19946   0.00779   0.00000  -0.09442  -0.09380   3.10566
    R8        2.80987  -0.00902   0.00000  -0.16678  -0.16624   2.64363
    R9        2.83924  -0.02568   0.00000  -0.15153  -0.15095   2.68829
   R10        2.06905   0.00137   0.00000   0.00128   0.00128   2.07033
   R11        2.07086   0.00087   0.00000   0.00048   0.00048   2.07134
   R12        2.72573   0.00947   0.00000   0.01392   0.01392   2.73965
   R13        1.82931   0.00771   0.00000   0.00819   0.00819   1.83750
   R14        1.91860   0.00218   0.00000   0.00021   0.00021   1.91882
   R15        1.91989   0.00222   0.00000  -0.00036  -0.00036   1.91954
    A1        1.84413  -0.00029   0.00000   0.00398   0.00398   1.84811
    A2        1.86934  -0.00065   0.00000  -0.00235  -0.00237   1.86697
    A3        1.97897   0.00126   0.00000   0.00347   0.00348   1.98245
    A4        1.94246   0.00269   0.00000   0.00665   0.00663   1.94909
    A5        1.91259  -0.00162   0.00000  -0.00998  -0.00997   1.90262
    A6        1.91557  -0.00120   0.00000  -0.00112  -0.00110   1.91447
    A7        2.21116   0.00510   0.00000   0.00988   0.01010   2.22125
    A8        2.03446   0.01727   0.00000   0.07458   0.07484   2.10930
    A9        3.05037   0.00658   0.00000   0.04014   0.04010   3.09047
   A10        2.03722  -0.02236   0.00000  -0.08429  -0.08480   1.95242
   A11        1.63708   0.01215   0.00000   0.07872   0.08109   1.71817
   A12        1.92127   0.00019   0.00000   0.00269   0.00269   1.92396
   A13        1.90656  -0.00046   0.00000  -0.00037  -0.00037   1.90619
   A14        1.84440  -0.00128   0.00000  -0.00792  -0.00793   1.83648
   A15        1.90460  -0.00014   0.00000   0.00104   0.00104   1.90564
   A16        1.94439   0.00071   0.00000   0.00205   0.00205   1.94644
   A17        1.94176   0.00093   0.00000   0.00231   0.00230   1.94406
   A18        1.91586   0.00496   0.00000   0.00953   0.00953   1.92539
   A19        1.95066   0.00194   0.00000   0.01493   0.01461   1.96528
   A20        1.90886   0.00156   0.00000   0.01288   0.01256   1.92142
   A21        1.91440   0.00201   0.00000   0.02418   0.02361   1.93801
    D1       -1.80184  -0.00001   0.00000   0.00519   0.00518  -1.79665
    D2        1.31004   0.00014   0.00000   0.01084   0.01083   1.32087
    D3        1.19557  -0.00006   0.00000  -0.00052  -0.00052   1.19505
    D4        0.22136   0.00040   0.00000   0.00800   0.00802   0.22938
    D5       -2.94995   0.00055   0.00000   0.01366   0.01367  -2.93628
    D6       -3.06442   0.00034   0.00000   0.00230   0.00231  -3.06210
    D7        2.34334  -0.00045   0.00000   0.00422   0.00422   2.34755
    D8       -0.82797  -0.00029   0.00000   0.00987   0.00987  -0.81811
    D9       -0.94244  -0.00050   0.00000  -0.00149  -0.00149  -0.94393
   D10        1.05760   0.00020   0.00000  -0.00172  -0.00173   1.05587
   D11       -3.13459  -0.00014   0.00000   0.00097   0.00097  -3.13362
   D12       -1.04396   0.00000   0.00000  -0.00095  -0.00095  -1.04492
   D13       -0.95004  -0.00048   0.00000  -0.00859  -0.00859  -0.95863
   D14        1.14095  -0.00082   0.00000  -0.00589  -0.00590   1.13506
   D15       -3.05161  -0.00068   0.00000  -0.00782  -0.00782  -3.05942
   D16       -3.07028   0.00060   0.00000   0.00036   0.00036  -3.06993
   D17       -0.97928   0.00026   0.00000   0.00305   0.00305  -0.97623
   D18        1.11134   0.00040   0.00000   0.00113   0.00113   1.11247
   D19       -0.99920  -0.00255   0.00000  -0.02830  -0.02844  -1.02764
   D20        1.12416   0.00233   0.00000   0.02090   0.02104   1.14520
   D21        1.05639  -0.00322   0.00000  -0.02786  -0.02801   1.02838
   D22       -3.10344   0.00167   0.00000   0.02134   0.02148  -3.08197
   D23       -3.08874  -0.00171   0.00000  -0.02682  -0.02695  -3.11569
   D24       -0.96538   0.00317   0.00000   0.02238   0.02254  -0.94284
   D25       -2.99213   0.00031   0.00000   0.00206   0.00207  -2.99007
   D26        1.20467   0.00047   0.00000   0.00254   0.00255   1.20722
   D27       -0.92482  -0.00052   0.00000  -0.00186  -0.00187  -0.92669
         Item               Value     Threshold  Converged?
 Maximum Force            0.049894     0.000450     NO 
 RMS     Force            0.008811     0.000300     NO 
 Maximum Displacement     0.115725     0.001800     NO 
 RMS     Displacement     0.024694     0.001200     NO 
 Predicted change in Energy=-1.007189D-02
 GradGradGradGradGradGradGradGradGradGradGradGradGradGradGradGradGradGrad

                          Input orientation:                          
 ---------------------------------------------------------------------
 Center     Atomic     Atomic              Coordinates (Angstroms)
 Number     Number      Type              X           Y           Z
 ---------------------------------------------------------------------
    1          6             0       -0.003423   -0.001805    0.021243
    2          1             0       -0.014548    0.019627    1.129268
    3          6             0        1.440010   -0.058552   -0.373227
    4          8             0        2.155064    0.894312   -0.812750
    5          8             0        2.123537   -1.169705   -0.261301
    6          1             0        3.027583   -0.198529   -0.774386
    7          6             0       -0.667284    1.285356   -0.455428
    8          1             0       -0.109713    2.156004   -0.092981
    9          1             0       -0.683326    1.298591   -1.551335
   10          8             0       -2.008970    1.247197    0.092508
   11          1             0       -2.545505    1.968678   -0.277744
   12          7             0       -0.699297   -1.156088   -0.549152
   13          1             0       -0.306878   -2.040149   -0.240172
   14          1             0       -1.691680   -1.104184   -0.338713
 ---------------------------------------------------------------------
                    Distance matrix (angstroms):
                    1          2          3          4          5
     1  C    0.000000
     2  H    1.108289   0.000000
     3  C    1.497440   2.092689   0.000000
     4  O    2.481459   3.040350   1.269816   0.000000
     5  O    2.442904   2.814179   1.309350   2.136646   0.000000
     6  H    3.139860   3.595282   1.643444   1.398950   1.422582
     7  C    1.524700   2.130586   2.500706   2.871627   3.722055
     8  H    2.163442   2.463139   2.717432   2.690567   4.009498
     9  H    2.150883   3.044445   2.781785   2.960643   3.954131
    10  O    2.363748   2.561156   3.717170   4.275886   4.800439
    11  H    3.230229   3.490591   4.472483   4.851376   5.625804
    12  N    1.463544   2.160621   2.410844   3.524344   2.837506
    13  H    2.077322   2.490682   2.645004   3.872992   2.581673
    14  H    2.048174   2.496135   3.301820   4.360749   3.816565
                    6          7          8          9         10
     6  H    0.000000
     7  C    3.994457   0.000000
     8  H    3.981301   1.095573   0.000000
     9  H    4.076255   1.096103   1.786332   0.000000
    10  O    5.311167   1.449763   2.113649   2.112390   0.000000
    11  H    6.000229   2.006543   2.449961   2.353457   0.972363
    12  N    3.854515   2.443451   3.394945   2.651428   2.811183
    13  H    3.846502   3.351896   4.203360   3.606666   3.716778
    14  H    4.825087   2.602481   3.632055   2.874118   2.411559
                   11         12         13         14
    11  H    0.000000
    12  N    3.639548   0.000000
    13  H    4.591683   1.015394   0.000000
    14  H    3.189861   1.015776   1.674341   0.000000
 Stoichiometry    C3H7NO3
 Framework group  C1[X(C3H7NO3)]
 Deg. of freedom    36
 Full point group                 C1
 Largest Abelian subgroup         C1      NOp   1
 Largest concise Abelian subgroup C1      NOp   1
                         Standard orientation:                         
 ---------------------------------------------------------------------
 Center     Atomic     Atomic              Coordinates (Angstroms)
 Number     Number      Type              X           Y           Z
 ---------------------------------------------------------------------
    1          6             0        0.240117    0.281933    0.308346
    2          1             0        0.355146    0.376325    1.406601
    3          6             0       -1.168317   -0.173119    0.081264
    4          8             0       -1.560251   -1.345538   -0.209002
    5          8             0       -2.170712    0.661009    0.198876
    6          1             0       -2.740395   -0.597395   -0.141157
    7          6             0        1.250694   -0.760627   -0.156963
    8          1             0        1.049672   -1.724273    0.323928
    9          1             0        1.173796   -0.877582   -1.244093
   10          8             0        2.545464   -0.234010    0.227823
   11          1             0        3.257182   -0.775289   -0.154231
   12          7             0        0.458047    1.536433   -0.413246
   13          1             0       -0.178028    2.271294   -0.119282
   14          1             0        1.425324    1.831083   -0.316504
 ---------------------------------------------------------------------
 Rotational constants (GHZ):      4.9808671      1.7462510      1.3617955
 Standard basis: 6-31G (6D, 7F)
 There are    77 symmetry adapted basis functions of A   symmetry.
 Integral buffers will be    262144 words long.
 Raffenetti 2 integral format.
 Two-electron integral symmetry is turned on.
    77 basis functions,   182 primitive gaussians,    77 cartesian basis functions
    28 alpha electrons       28 beta electrons
       nuclear repulsion energy       319.9972479430 Hartrees.
 NAtoms=   14 NActive=   14 NUniq=   14 SFac= 7.50D-01 NAtFMM=   80 NAOKFM=F Big=F
 One-electron integrals computed using PRISM.
 NBasis=    77 RedAO= T  NBF=    77
 NBsUse=    77 1.00D-06 NBFU=    77
 Initial guess read from the read-write file:
 Initial guess orbital symmetries:
       Occupied  (A) (A) (A) (A) (A) (A) (A) (A) (A) (A) (A) (A)
                 (A) (A) (A) (A) (A) (A) (A) (A) (A) (A) (A) (A)
                 (A) (A) (A) (A)
       Virtual   (A) (A) (A) (A) (A) (A) (A) (A) (A) (A) (A) (A)
                 (A) (A) (A) (A) (A) (A) (A) (A) (A) (A) (A) (A)
                 (A) (A) (A) (A) (A) (A) (A) (A) (A) (A) (A) (A)
                 (A) (A) (A) (A) (A) (A) (A) (A) (A) (A) (A) (A)
                 (A)
 Harris functional with IExCor=  402 diagonalized for initial guess.
 ExpMin= 1.61D-01 ExpMax= 5.48D+03 ExpMxC= 8.25D+02 IAcc=1 IRadAn=         1 AccDes= 1.00D-06
 HarFok:  IExCor= 402 AccDes= 1.00D-06 IRadAn=         1 IDoV=1
 ScaDFX=  1.000000  1.000000  1.000000  1.000000
 Requested convergence on RMS density matrix=1.00D-08 within 128 cycles.
 Requested convergence on MAX density matrix=1.00D-06.
 Requested convergence on             energy=1.00D-06.
 No special actions if energy rises.
 Integral accuracy reduced to 1.0D-05 until final iterations.
 Initial convergence to 1.0D-05 achieved.  Increase integral accuracy.
 SCF Done:  E(RB+HF-LYP) =  -398.746631525     A.U. after   13 cycles
             Convg  =    0.9483D-08             -V/T =  2.0054
             S**2   =   0.0000
 ***** Axes restored to original set *****
 -------------------------------------------------------------------
 Center     Atomic                   Forces (Hartrees/Bohr)
 Number     Number              X              Y              Z
 -------------------------------------------------------------------
    1          6          -0.000064326    0.004790090   -0.000474693
    2          1          -0.000017020    0.000642782    0.000380774
    3          6          -0.022766056   -0.033342666    0.013627067
    4          8           0.024303803    0.018086801   -0.011270916
    5          8           0.010807693    0.013109803   -0.007076816
    6          1          -0.010891525   -0.002424823    0.004495909
    7          6           0.002734260   -0.000330174   -0.001513789
    8          1           0.000428314    0.000381809    0.000202953
    9          1           0.000422506   -0.000114304   -0.000386956
   10          8          -0.001262098   -0.002039081    0.002052315
   11          1          -0.002915828    0.002123734   -0.000710155
   12          7          -0.001640720   -0.001499394    0.005929211
   13          1           0.002353421   -0.000944487   -0.002639687
   14          1          -0.001492423    0.001559909   -0.002615217
 -------------------------------------------------------------------
 Cartesian Forces:  Max     0.033342666 RMS     0.009085352

 GradGradGradGradGradGradGradGradGradGradGradGradGradGradGradGradGradGrad
 Berny optimization.
 Internal  Forces:  Max     0.028698136 RMS     0.004536036
 Search for a saddle point.
 Step number   3 out of a maximum of  73
 All quantities printed in internal units (Hartrees-Bohrs-Radians)
 Swaping is turned off.
 Update second derivatives using D2CorX and points  1  2  3
     Eigenvalues ---   -0.09405   0.00026   0.00124   0.00255   0.00400
     Eigenvalues ---    0.00579   0.03176   0.03882   0.04299   0.05029
     Eigenvalues ---    0.05204   0.05360   0.07001   0.10648   0.11542
     Eigenvalues ---    0.12978   0.14246   0.15505   0.16150   0.16560
     Eigenvalues ---    0.17706   0.18175   0.20202   0.24245   0.29567
     Eigenvalues ---    0.30958   0.32051   0.33562   0.33999   0.35421
     Eigenvalues ---    0.38244   0.41045   0.45998   0.46536   0.53907
     Eigenvalues ---    0.818801000.000001000.000001000.000001000.00000
     Eigenvalues --- 1000.000001000.000001000.000001000.000001000.00000
     Eigenvalues --- 1000.000001000.000001000.000001000.000001000.00000
     Eigenvalues --- 1000.000001000.000001000.000001000.000001000.00000
     Eigenvalues --- 1000.000001000.000001000.000001000.000001000.00000
     Eigenvalues --- 1000.000001000.000001000.00000
 Eigenvectors required to have negative eigenvalues:
                          R1        R2        R3        R4        R5
         1              0.00122  -0.00558  -0.00345   0.00742  -0.08090
                          R6        R7        R8        R9        R10
         1              0.11102   0.02981   0.66417  -0.66176  -0.00162
                          R11       R12       R13       R14       R15
         1             -0.00041  -0.00152  -0.00123   0.00126   0.00059
                          A1        A2        A3        A4        A5
         1              0.00412   0.00219  -0.00577  -0.01402   0.01132
                          A6        A7        A8        A9        A10
         1              0.00138   0.02461  -0.01129  -0.31337  -0.01369
                          A11       A12       A13       A14       A15
         1              0.00679  -0.00075  -0.00011  -0.00032  -0.00085
                          A16       A17       A18       A19       A20
         1              0.00145   0.00056  -0.00270   0.00187  -0.00369
                          A21       D1        D2        D3        D4
         1             -0.01183   0.00985  -0.01085   0.00535   0.00769
                          D5        D6        D7        D8        D9
         1             -0.01301   0.00318   0.00800  -0.01270   0.00350
                          D10       D11       D12       D13       D14
         1              0.00260   0.00103   0.00146   0.00377   0.00220
                          D15       D16       D17       D18       D19
         1              0.00262  -0.00223  -0.00380  -0.00338   0.00834
                          D20       D21       D22       D23       D24
         1             -0.00855   0.01758   0.00069   0.00838  -0.00850
                          D25       D26       D27
         1             -0.00058  -0.00026  -0.00060
 RFO step:  Lambda0=4.780010256D-09 Lambda=-5.89582814D-03.
 Linear search not attempted -- option 19 set.
 Maximum step size (   0.300) exceeded in Quadratic search.
    -- Step size scaled by   0.973
 Iteration  1 RMS(Cart)=  0.02729933 RMS(Int)=  0.00184327
 Iteration  2 RMS(Cart)=  0.00101709 RMS(Int)=  0.00053606
 Iteration  3 RMS(Cart)=  0.00000113 RMS(Int)=  0.00053522
 Iteration  4 RMS(Cart)=  0.00000000 RMS(Int)=  0.00053522
 Variable       Old X    -DE/DX   Delta X   Delta X   Delta X     New X
                                 (Linear)    (Quad)   (Total)
    R1        2.09436   0.00039   0.00000   0.00368   0.00368   2.09804
    R2        2.82975   0.00163   0.00000  -0.00982  -0.00982   2.81993
    R3        2.88127   0.00039   0.00000   0.00295   0.00295   2.88422
    R4        2.76570   0.00080   0.00000  -0.00670  -0.00670   2.75900
    R5        2.39960   0.02870   0.00000   0.05198   0.05091   2.45051
    R6        2.47431  -0.00655   0.00000  -0.00721  -0.00826   2.46606
    R7        3.10566   0.00238   0.00000  -0.09159  -0.09112   3.01454
    R8        2.64363  -0.00347   0.00000  -0.10873  -0.10794   2.53570
    R9        2.68829  -0.00990   0.00000  -0.14003  -0.13932   2.54897
   R10        2.07033   0.00059   0.00000   0.00047   0.00047   2.07080
   R11        2.07134   0.00038   0.00000   0.00010   0.00010   2.07143
   R12        2.73965   0.00437   0.00000   0.01214   0.01214   2.75179
   R13        1.83750   0.00346   0.00000   0.00653   0.00653   1.84403
   R14        1.91882   0.00093   0.00000  -0.00317  -0.00317   1.91564
   R15        1.91954   0.00100   0.00000  -0.00363  -0.00363   1.91590
    A1        1.84811  -0.00005   0.00000   0.00350   0.00350   1.85162
    A2        1.86697  -0.00023   0.00000  -0.00283  -0.00282   1.86415
    A3        1.98245   0.00054   0.00000   0.00473   0.00473   1.98717
    A4        1.94909   0.00098   0.00000   0.00014   0.00013   1.94922
    A5        1.90262  -0.00052   0.00000  -0.00275  -0.00276   1.89986
    A6        1.91447  -0.00064   0.00000  -0.00251  -0.00251   1.91196
    A7        2.22125   0.00134   0.00000  -0.00454  -0.00405   2.21720
    A8        2.10930   0.00789   0.00000   0.06398   0.06426   2.17356
    A9        3.09047   0.00388   0.00000   0.03067   0.03087   3.12134
   A10        1.95242  -0.00923   0.00000  -0.05937  -0.06015   1.89227
   A11        1.71817   0.00902   0.00000   0.08284   0.08511   1.80328
   A12        1.92396   0.00012   0.00000   0.00258   0.00257   1.92654
   A13        1.90619  -0.00019   0.00000  -0.00065  -0.00066   1.90554
   A14        1.83648  -0.00076   0.00000  -0.00794  -0.00794   1.82854
   A15        1.90564  -0.00004   0.00000   0.00287   0.00287   1.90851
   A16        1.94644   0.00038   0.00000   0.00141   0.00141   1.94785
   A17        1.94406   0.00046   0.00000   0.00140   0.00139   1.94544
   A18        1.92539   0.00230   0.00000   0.00787   0.00787   1.93326
   A19        1.96528   0.00132   0.00000   0.02732   0.02609   1.99136
   A20        1.92142   0.00104   0.00000   0.02288   0.02161   1.94302
   A21        1.93801   0.00125   0.00000   0.04254   0.04057   1.97858
    D1       -1.79665   0.00005   0.00000   0.04696   0.04697  -1.74969
    D2        1.32087   0.00039   0.00000   0.04987   0.04986   1.37073
    D3        1.19505   0.00000   0.00000   0.00460   0.00460   1.19965
    D4        0.22938   0.00025   0.00000   0.04570   0.04571   0.27509
    D5       -2.93628   0.00058   0.00000   0.04861   0.04860  -2.88768
    D6       -3.06210   0.00019   0.00000   0.00334   0.00334  -3.05876
    D7        2.34755  -0.00027   0.00000   0.04078   0.04078   2.38834
    D8       -0.81811   0.00006   0.00000   0.04368   0.04368  -0.77443
    D9       -0.94393  -0.00033   0.00000  -0.00158  -0.00158  -0.94551
   D10        1.05587   0.00004   0.00000  -0.01413  -0.01413   1.04174
   D11       -3.13362  -0.00005   0.00000  -0.00942  -0.00942   3.14014
   D12       -1.04492  -0.00003   0.00000  -0.01252  -0.01252  -1.05743
   D13       -0.95863  -0.00028   0.00000  -0.01675  -0.01675  -0.97538
   D14        1.13506  -0.00037   0.00000  -0.01203  -0.01203   1.12302
   D15       -3.05942  -0.00035   0.00000  -0.01513  -0.01513  -3.07455
   D16       -3.06993   0.00016   0.00000  -0.01166  -0.01166  -3.08159
   D17       -0.97623   0.00008   0.00000  -0.00695  -0.00695  -0.98318
   D18        1.11247   0.00010   0.00000  -0.01005  -0.01004   1.10243
   D19       -1.02764  -0.00186   0.00000  -0.06309  -0.06356  -1.09120
   D20        1.14520   0.00152   0.00000   0.02972   0.03018   1.17539
   D21        1.02838  -0.00195   0.00000  -0.05763  -0.05809   0.97028
   D22       -3.08197   0.00144   0.00000   0.03519   0.03565  -3.04632
   D23       -3.11569  -0.00147   0.00000  -0.06083  -0.06129   3.10620
   D24       -0.94284   0.00191   0.00000   0.03198   0.03245  -0.91039
   D25       -2.99007   0.00016   0.00000   0.00444   0.00444  -2.98563
   D26        1.20722   0.00028   0.00000   0.00541   0.00541   1.21263
   D27       -0.92669  -0.00027   0.00000  -0.00030  -0.00030  -0.92699
         Item               Value     Threshold  Converged?
 Maximum Force            0.028698     0.000450     NO 
 RMS     Force            0.004536     0.000300     NO 
 Maximum Displacement     0.108379     0.001800     NO 
 RMS     Displacement     0.027192     0.001200     NO 
 Predicted change in Energy=-3.214143D-03
 GradGradGradGradGradGradGradGradGradGradGradGradGradGradGradGradGradGrad

                          Input orientation:                          
 ---------------------------------------------------------------------
 Center     Atomic     Atomic              Coordinates (Angstroms)
 Number     Number      Type              X           Y           Z
 ---------------------------------------------------------------------
    1          6             0       -0.002548   -0.002150    0.037299
    2          1             0       -0.012217    0.038930    1.146731
    3          6             0        1.433511   -0.077500   -0.361261
    4          8             0        2.178724    0.895678   -0.784528
    5          8             0        2.158349   -1.161661   -0.314564
    6          1             0        2.970231   -0.187806   -0.774855
    7          6             0       -0.658393    1.284055   -0.457697
    8          1             0       -0.103206    2.158082   -0.098997
    9          1             0       -0.667996    1.284644   -1.553810
   10          8             0       -2.008321    1.245799    0.087013
   11          1             0       -2.554312    1.960847   -0.290901
   12          7             0       -0.707144   -1.154447   -0.517095
   13          1             0       -0.306716   -2.048727   -0.257215
   14          1             0       -1.704391   -1.094992   -0.344290
 ---------------------------------------------------------------------
                    Distance matrix (angstroms):
                    1          2          3          4          5
     1  C    0.000000
     2  H    1.110234   0.000000
     3  C    1.492244   2.092301   0.000000
     4  O    2.497887   3.043681   1.296754   0.000000
     5  O    2.477447   2.878916   1.304981   2.110432   0.000000
     6  H    3.087309   3.555123   1.595223   1.341833   1.348857
     7  C    1.526263   2.131213   2.497838   2.882167   3.733102
     8  H    2.166867   2.459863   2.725456   2.696446   4.022660
     9  H    2.151811   3.045451   2.773795   2.974374   3.938066
    10  O    2.362832   2.562024   3.714603   4.291096   4.828899
    11  H    3.236137   3.496112   4.479123   4.876462   5.653299
    12  N    1.459999   2.162265   2.401354   3.550037   2.872650
    13  H    2.089913   2.533004   2.631531   3.889086   2.620443
    14  H    2.058199   2.524357   3.298789   4.385790   3.863429
                    6          7          8          9         10
     6  H    0.000000
     7  C    3.928597   0.000000
     8  H    3.925047   1.095819   0.000000
     9  H    4.001447   1.096155   1.788396   0.000000
    10  O    5.252049   1.456186   2.120453   2.119028   0.000000
    11  H    5.947395   2.019995   2.466506   2.368624   0.975817
    12  N    3.811026   2.439713   3.392992   2.650562   2.796281
    13  H    3.803862   3.357277   4.214700   3.594864   3.723957
    14  H    4.781262   2.601315   3.634068   2.863516   2.399521
                   11         12         13         14
    11  H    0.000000
    12  N    3.628809   0.000000
    13  H    4.596685   1.013714   0.000000
    14  H    3.172282   1.013853   1.694310   0.000000
 Stoichiometry    C3H7NO3
 Framework group  C1[X(C3H7NO3)]
 Deg. of freedom    36
 Full point group                 C1
 Largest Abelian subgroup         C1      NOp   1
 Largest concise Abelian subgroup C1      NOp   1
                         Standard orientation:                         
 ---------------------------------------------------------------------
 Center     Atomic     Atomic              Coordinates (Angstroms)
 Number     Number      Type              X           Y           Z
 ---------------------------------------------------------------------
    1          6             0        0.249369    0.281553    0.322933
    2          1             0        0.372611    0.349420    1.424217
    3          6             0       -1.161628   -0.144711    0.090175
    4          8             0       -1.580926   -1.340356   -0.185860
    5          8             0       -2.194996    0.649421    0.157114
    6          1             0       -2.680109   -0.571677   -0.147845
    7          6             0        1.243577   -0.766968   -0.168631
    8          1             0        1.041302   -1.735314    0.302762
    9          1             0        1.153351   -0.866699   -1.256505
   10          8             0        2.549539   -0.247573    0.212379
   11          1             0        3.263459   -0.781951   -0.183825
   12          7             0        0.482939    1.541832   -0.376163
   13          1             0       -0.163721    2.280796   -0.124408
   14          1             0        1.455692    1.821424   -0.317195
 ---------------------------------------------------------------------
 Rotational constants (GHZ):      5.0195817      1.7334533      1.3521446
 Standard basis: 6-31G (6D, 7F)
 There are    77 symmetry adapted basis functions of A   symmetry.
 Integral buffers will be    262144 words long.
 Raffenetti 2 integral format.
 Two-electron integral symmetry is turned on.
    77 basis functions,   182 primitive gaussians,    77 cartesian basis functions
    28 alpha electrons       28 beta electrons
       nuclear repulsion energy       319.6941561796 Hartrees.
 NAtoms=   14 NActive=   14 NUniq=   14 SFac= 7.50D-01 NAtFMM=   80 NAOKFM=F Big=F
 One-electron integrals computed using PRISM.
 NBasis=    77 RedAO= T  NBF=    77
 NBsUse=    77 1.00D-06 NBFU=    77
 Initial guess read from the read-write file:
 Initial guess orbital symmetries:
       Occupied  (A) (A) (A) (A) (A) (A) (A) (A) (A) (A) (A) (A)
                 (A) (A) (A) (A) (A) (A) (A) (A) (A) (A) (A) (A)
                 (A) (A) (A) (A)
       Virtual   (A) (A) (A) (A) (A) (A) (A) (A) (A) (A) (A) (A)
                 (A) (A) (A) (A) (A) (A) (A) (A) (A) (A) (A) (A)
                 (A) (A) (A) (A) (A) (A) (A) (A) (A) (A) (A) (A)
                 (A) (A) (A) (A) (A) (A) (A) (A) (A) (A) (A) (A)
                 (A)
 Harris functional with IExCor=  402 diagonalized for initial guess.
 ExpMin= 1.61D-01 ExpMax= 5.48D+03 ExpMxC= 8.25D+02 IAcc=1 IRadAn=         1 AccDes= 1.00D-06
 HarFok:  IExCor= 402 AccDes= 1.00D-06 IRadAn=         1 IDoV=1
 ScaDFX=  1.000000  1.000000  1.000000  1.000000
 Requested convergence on RMS density matrix=1.00D-08 within 128 cycles.
 Requested convergence on MAX density matrix=1.00D-06.
 Requested convergence on             energy=1.00D-06.
 No special actions if energy rises.
 Integral accuracy reduced to 1.0D-05 until final iterations.
 Initial convergence to 1.0D-05 achieved.  Increase integral accuracy.
 SCF Done:  E(RB+HF-LYP) =  -398.749594617     A.U. after   13 cycles
             Convg  =    0.8460D-08             -V/T =  2.0054
             S**2   =   0.0000
 ***** Axes restored to original set *****
 -------------------------------------------------------------------
 Center     Atomic                   Forces (Hartrees/Bohr)
 Number     Number              X              Y              Z
 -------------------------------------------------------------------
    1          6          -0.000287125    0.000667518    0.000564021
    2          1           0.000006357    0.000399891   -0.000139237
    3          6          -0.005633626   -0.007037383    0.002247716
    4          8           0.003045535    0.009989180   -0.003153774
    5          8          -0.000698307   -0.002564908   -0.000118687
    6          1           0.003946044   -0.000961831    0.000190292
    7          6           0.000295621    0.000108305   -0.000429588
    8          1          -0.000025725    0.000001447    0.000114833
    9          1           0.000094265    0.000048872   -0.000032886
   10          8          -0.000129474   -0.000138763    0.000090484
   11          1          -0.000151968    0.000091593   -0.000055599
   12          7          -0.000639501   -0.000627553    0.002850867
   13          1           0.000630861   -0.000287639   -0.001150895
   14          1          -0.000452958    0.000311271   -0.000977547
 -------------------------------------------------------------------
 Cartesian Forces:  Max     0.009989180 RMS     0.002402084

 GradGradGradGradGradGradGradGradGradGradGradGradGradGradGradGradGradGrad
 Berny optimization.
 Internal  Forces:  Max     0.008471335 RMS     0.001279378
 Search for a saddle point.
 Step number   4 out of a maximum of  73
 All quantities printed in internal units (Hartrees-Bohrs-Radians)
 Swaping is turned off.
 Update second derivatives using D2CorX and points  2  3  4
     Eigenvalues ---   -0.09399  -0.00001   0.00046   0.00255   0.00383
     Eigenvalues ---    0.00570   0.02889   0.03870   0.05027   0.05195
     Eigenvalues ---    0.05355   0.06044   0.07000   0.10647   0.11498
     Eigenvalues ---    0.12973   0.14205   0.15426   0.16152   0.16551
     Eigenvalues ---    0.17806   0.18169   0.20202   0.24243   0.29599
     Eigenvalues ---    0.30960   0.32052   0.33562   0.34006   0.35470
     Eigenvalues ---    0.38215   0.41038   0.45994   0.46536   0.53905
     Eigenvalues ---    0.820521000.000001000.000001000.000001000.00000
     Eigenvalues --- 1000.000001000.000001000.000001000.000001000.00000
     Eigenvalues --- 1000.000001000.000001000.000001000.000001000.00000
     Eigenvalues --- 1000.000001000.000001000.000001000.000001000.00000
     Eigenvalues --- 1000.000001000.000001000.000001000.000001000.00000
     Eigenvalues --- 1000.000001000.000001000.00000
 Eigenvectors required to have negative eigenvalues:
[...]
         1             -0.01656   0.02490  -0.03037   0.03192   0.02618
                          D5        D6        D7        D8        D9
         1             -0.02909   0.03320   0.02303  -0.03224   0.03005
                          D10       D11       D12       D13       D14
         1             -0.00029   0.00180  -0.00199   0.00196   0.00405
                          D15       D16       D17       D18       D19
         1              0.00026  -0.01068  -0.00859  -0.01238   0.01077
                          D20       D21       D22       D23       D24
         1              0.00288   0.02231   0.01442   0.01158   0.00369
                          D25       D26       D27
         1             -0.00095   0.00243  -0.00549
 Angle between quadratic step and forces=  85.06 degrees.
 Linear search not attempted -- option 19 set.
 Iteration  1 RMS(Cart)=  0.00070977 RMS(Int)=  0.00010113
 Iteration  2 RMS(Cart)=  0.00000697 RMS(Int)=  0.00000257
 Iteration  3 RMS(Cart)=  0.00000000 RMS(Int)=  0.00000257
 Variable       Old X    -DE/DX   Delta X   Delta X   Delta X     New X
                                 (Linear)    (Quad)   (Total)
    R1        2.10171   0.00001   0.00000   0.00005   0.00005   2.10176
    R2        2.81987  -0.00004   0.00000  -0.00012  -0.00012   2.81975
    R3        2.89239   0.00000   0.00000   0.00000   0.00000   2.89240
    R4        2.73956   0.00000   0.00000  -0.00016  -0.00016   2.73941
    R5        2.47032  -0.00009   0.00000  -0.00028  -0.00028   2.47005
    R6        2.46527  -0.00008   0.00000  -0.00009  -0.00009   2.46518
    R7        3.03865  -0.00003   0.00000  -0.00022  -0.00022   3.03843
    R8        2.56500  -0.00007   0.00000  -0.00023  -0.00023   2.56477
    R9        2.56133   0.00002   0.00000  -0.00002  -0.00003   2.56130
   R10        2.07050   0.00000   0.00000   0.00002   0.00002   2.07052
   R11        2.07183   0.00000   0.00000   0.00000   0.00000   2.07183
   R12        2.75137   0.00000   0.00000   0.00000   0.00000   2.75137
   R13        1.84447   0.00000   0.00000   0.00000   0.00000   1.84447
   R14        1.91004   0.00001   0.00000  -0.00004  -0.00004   1.91000
   R15        1.90980   0.00000   0.00000  -0.00005  -0.00005   1.90975
    A1        1.83787   0.00001   0.00000  -0.00017  -0.00017   1.83770
    A2        1.85011  -0.00001   0.00000  -0.00010  -0.00010   1.85001
    A3        1.99335   0.00000   0.00000  -0.00001  -0.00001   1.99334
    A4        1.93914   0.00001   0.00000   0.00014   0.00014   1.93928
    A5        1.92240  -0.00002   0.00000   0.00000   0.00000   1.92240
    A6        1.91895   0.00001   0.00000   0.00013   0.00013   1.91909
    A7        2.19760   0.00001   0.00000   0.00064   0.00066   2.19825
    A8        2.18933  -0.00003   0.00000  -0.00077  -0.00078   2.18855
    A9        3.10481  -0.00002   0.00000  -0.00115  -0.00114   3.10367
   A10        1.89510   0.00001   0.00000   0.00005   0.00005   1.89515
   A11        1.79502  -0.00005   0.00000  -0.00001  -0.00002   1.79500
   A12        1.92357   0.00001   0.00000   0.00001   0.00001   1.92359
   A13        1.90503   0.00000   0.00000   0.00000   0.00000   1.90503
   A14        1.82719   0.00000   0.00000   0.00001   0.00001   1.82720
   A15        1.91332   0.00000   0.00000   0.00001   0.00001   1.91333
   A16        1.94784   0.00000   0.00000  -0.00004  -0.00004   1.94781
   A17        1.94506   0.00000   0.00000   0.00000   0.00000   1.94506
   A18        1.93333   0.00000   0.00000   0.00000   0.00000   1.93333
   A19        2.02584   0.00000   0.00000   0.00021   0.00021   2.02606
   A20        1.97788   0.00000   0.00000   0.00032   0.00032   1.97820
   A21        2.01947   0.00000   0.00000   0.00040   0.00040   2.01986
    D1       -1.43987   0.00003   0.00000   0.00204   0.00204  -1.43783
    D2        1.64393  -0.00004   0.00000   0.00022   0.00022   1.64415
    D3        0.22783   0.00000   0.00000   0.01560   0.01560   0.24343
    D4        0.55555   0.00003   0.00000   0.00190   0.00190   0.55745
    D5       -2.64384  -0.00004   0.00000   0.00008   0.00008  -2.64376
    D6        2.22325   0.00000   0.00000   0.01546   0.01546   2.23872
    D7        2.68626   0.00004   0.00000   0.00216   0.00216   2.68842
    D8       -0.51313  -0.00003   0.00000   0.00035   0.00035  -0.51278
    D9       -1.92922   0.00001   0.00000   0.01572   0.01572  -1.91349
   D10        1.01906   0.00000   0.00000  -0.00006  -0.00006   1.01900
   D11        3.12123   0.00000   0.00000  -0.00003  -0.00003   3.12120
   D12       -1.07778   0.00000   0.00000  -0.00003  -0.00003  -1.07781
   D13       -0.96870  -0.00001   0.00000   0.00013   0.00013  -0.96857
   D14        1.13347  -0.00001   0.00000   0.00016   0.00016   1.13363
   D15       -3.06554  -0.00001   0.00000   0.00016   0.00016  -3.06538
   D16       -3.10141   0.00000   0.00000  -0.00005  -0.00005  -3.10147
   D17       -0.99924   0.00000   0.00000  -0.00003  -0.00003  -0.99927
   D18        1.08493   0.00000   0.00000  -0.00002  -0.00002   1.08491
   D19       -1.25906  -0.00001   0.00000  -0.00131  -0.00131  -1.26038
   D20        1.14014   0.00001   0.00000  -0.00004  -0.00004   1.14010
   D21        0.80462  -0.00001   0.00000  -0.00154  -0.00154   0.80308
   D22       -3.07937   0.00000   0.00000  -0.00027  -0.00027  -3.07964
   D23        2.94723   0.00000   0.00000  -0.00128  -0.00128   2.94595
   D24       -0.93676   0.00001   0.00000  -0.00001  -0.00001  -0.93676
   D25       -2.96487   0.00000   0.00000  -0.00017  -0.00017  -2.96504
   D26        1.23774   0.00000   0.00000  -0.00017  -0.00017   1.23757
   D27       -0.90782   0.00000   0.00000  -0.00016  -0.00016  -0.90798
         Item               Value     Threshold  Converged?
 Maximum Force            0.000094     0.000450     YES
 RMS     Force            0.000024     0.000300     YES
 Maximum Displacement     0.001866     0.001800     NO 
 RMS     Displacement     0.000712     0.001200     YES
 Predicted change in Energy=-2.271476D-07
 GradGradGradGradGradGradGradGradGradGradGradGradGradGradGradGradGradGrad


 Test job not archived.
 1|1|UNPC-UNK|Freq|RB3LYP|6-31G|C3H7N1O3|PCUSER|01-Apr-2016|0||#N Geom=
 AllCheck Guess=Read SCRF=Check Test GenChk RB3LYP/6-31G Freq||Ser-R-op
 t-freq-ts1-6-31g||0,1|C,-0.0071276481,-0.0023316038,0.041111461|H,0.00
 86931313,0.0947025261,1.1489338131|C,1.4257711514,-0.081949999,-0.3677
 331658|O,2.2322417139,0.9327815614,-0.5374387499|O,2.0984573792,-1.183
 6593659,-0.556454623|H,2.9843777432,-0.1766165578,-0.7516604981|C,-0.6
 601300606,1.277959083,-0.4853362307|H,-0.093294459,2.1554741347,-0.154
 9757824|H,-0.6832525566,1.2456091631,-1.5809795239|O,-2.0034573812,1.2
 650368381,0.0760330457|H,-2.554748931,1.9610128232,-0.3293893752|N,-0.
 7298836337,-1.1616794964,-0.4438735988|H,-0.2823526162,-2.0564275598,-
 0.2998171638|H,-1.7197237726,-1.1291587969,-0.2425891781||Version=IA32
 W-G03RevE.01|State=1-A|HF=-398.7501918|RMSD=1.598e-009|RMSF=5.018e-005
 |ZeroPoint=0.1072165|Thermal=0.1150061|Dipole=-0.7049737,0.4220049,0.0
 880518|DipoleDeriv=0.1491163,0.1969401,0.1734482,0.2818421,0.3870951,0
 .1637538,0.1628386,0.0507733,0.3832012,-0.0302776,-0.0432906,-0.038574
 3,-0.0585186,-0.0312324,-0.0556835,-0.0877282,-0.0775107,-0.1686571,0.
 974996,-0.075932,-0.196631,-0.0247044,1.0382452,0.021126,-0.1955374,0.
 0161886,0.3150403,-0.6802229,-0.1447635,0.0574059,-0.0939142,-0.881097
 5,0.0282237,0.0513377,0.031541,-0.3847499,-0.6275699,0.1544422,0.05234
 65,0.0834208,-0.925863,-0.0346159,0.068881,-0.0447373,-0.3915469,0.262
 7895,0.0188542,0.0137083,0.0145589,0.5761724,-0.0001487,0.0042666,0.00
 22416,0.3115552,0.7342968,-0.0584152,-0.0764669,-0.1774957,0.3002596,0
 .113115,-0.0766299,0.0803989,0.3693109,-0.0549522,-0.0628584,-0.007045
 6,-0.066028,-0.0815345,-0.0360776,-0.0134015,-0.063301,0.0166084,-0.04
 20597,0.0208626,0.0056307,0.0124032,0.0541025,-0.0219728,0.0129703,0.0
 141442,-0.1555233,-0.8730298,0.040806,0.0989904,0.031751,-0.3960076,-0
 .2068134,0.1324206,-0.2076446,-0.4690144,0.2680978,0.0594873,-0.006749
 9,0.1061389,0.1826501,0.1448715,-0.0404414,0.1568099,0.2856717,-0.3881
 254,-0.129903,-0.0739946,-0.1151103,-0.5586985,-0.0832881,-0.0708559,-
 0.0440587,-0.7802098,0.1811699,0.0320292,-0.0536206,0.0386864,0.118053
 1,0.0156127,-0.069281,0.1065722,0.3354182,0.1257712,-0.0082588,0.05155
 29,-0.0330303,0.2178554,-0.0481027,0.1211604,-0.0214175,0.3328955|Pola
 r=56.7883853,-2.9830864,51.1745254,-3.2782099,0.5015548,31.8711212|PG=
 C01 [X(C3H7N1O3)]|NImag=1||0.54572113,0.00113219,0.51263976,-0.0006746
 3,0.00666174,0.50573861,-0.05105846,0.00360994,0.01105971,0.05747029,0
 .00025215,-0.04485315,-0.01128399,0.00235624,0.06113197,0.00614004,-0.
 00642462,-0.25986070,-0.00392918,0.01565312,0.29707185,-0.20504885,0.0
 0308236,0.02806917,-0.00330005,0.00355191,0.00529271,0.77489891,0.0161
 4604,-0.08040796,0.00213928,0.00070893,0.00106876,-0.00019702,-0.00845
 074,0.63021450,0.03562314,0.00269439,-0.09306006,0.03884508,-0.0052254
 4,-0.01646014,-0.13904685,0.01598598,0.24452470,-0.01163272,-0.0255299
 4,0.00744620,-0.00252675,-0.00070482,0.00037628,-0.22044505,-0.1060523
 3,0.03246313,0.17959372,-0.00240831,0.00579219,0.00319100,-0.00025304,
 -0.00008264,-0.00073876,-0.15167373,-0.31859206,0.02858968,0.19872531,
 0.46727480,0.00591326,0.01037071,0.00822828,-0.00200485,0.00002578,0.0
 0129435,0.03235535,0.01826937,-0.07807690,-0.02687673,-0.03862934,0.05
 583634,-0.01353908,0.03197635,0.00446703,-0.00168510,0.00039021,-0.000
 37050,-0.19064833,0.08862161,0.03153811,0.08863122,-0.05165509,-0.0108
 3717,0.13687016,0.00173721,-0.00164934,-0.00515393,0.00071653,0.000418
 51,0.00149213,0.13900624,-0.35092748,-0.03960533,0.02095869,-0.1617599
 3,-0.00977503,-0.15865883,0.51551414,0.00762455,-0.01377770,0.00819679
 ,-0.00208353,0.00093679,0.00089814,0.03148782,-0.02868663,-0.07977256,
 -0.00840963,0.00874036,0.05111807,-0.02453569,0.05059844,0.05829145,0.
 00351244,-0.00058298,0.00043173,-0.00061032,0.00021829,0.00065724,-0.1
 0592502,0.01550421,0.03283599,-0.02616088,0.00351253,-0.00295216,-0.01
 587988,-0.00138337,-0.00594760,0.14448698,0.00108283,-0.00811814,0.000
 84293,-0.00015676,-0.00040841,-0.00011585,0.01428214,0.13885753,-0.001
 02424,-0.08352763,0.00222637,0.02110722,0.08617356,-0.00826329,-0.0201
 1307,-0.01665713,-0.12006938,0.00168643,-0.00004024,0.01088056,-0.0017
 2299,0.00010642,0.00009273,0.03221474,-0.00140380,0.01612620,-0.004991
 71,0.00026180,-0.03797217,-0.00343238,0.00127076,-0.03804212,-0.025243
 68,-0.00006510,0.05015724,-0.08405129,0.03702198,-0.02414351,0.0011706
 5,0.00278838,-0.00040538,-0.02430917,0.03213314,-0.01229572,0.00186705
 ,-0.00097979,0.00042912,-0.00249217,-0.00330269,0.00144458,0.00027944,
 0.00221261,0.00050559,0.46819314,0.02161145,-0.14627471,0.03769159,0.0
 0333628,-0.00441968,0.00231465,0.01349626,0.00219016,-0.00523739,-0.00
 135650,-0.00327134,-0.00026645,-0.00566289,0.00053519,0.00356948,-0.00
 035547,0.00166800,0.00029234,0.04745338,0.54982536,-0.01841719,0.03907
 488,-0.09743004,-0.01761637,0.03313847,-0.01870104,0.00540220,-0.01231
 556,0.00340291,0.00073385,0.00035085,-0.00081766,0.00367822,-0.0003404
 2,-0.00133441,0.00037602,-0.00048244,-0.00005741,0.04323384,0.02567825
 ,0.58770359,0.00873420,0.01220722,0.00487337,0.00026230,-0.00074431,0.
 00006297,0.00104053,0.00006900,0.00048467,-0.00120505,0.00025285,-0.00
 001207,0.00008401,-0.00049868,-0.00001086,-0.00009264,0.00024664,0.000
 05572,-0.11081577,-0.10157258,-0.04548679,0.13210412,-0.01409121,-0.02
 211116,-0.01298859,-0.00024490,0.00131081,0.00056625,-0.00210822,-0.00
 214706,-0.00022556,-0.00086231,0.00214682,0.00049378,0.00098579,0.0015
 8961,-0.00017781,0.00012506,-0.00134538,-0.00016373,-0.09933951,-0.221
 30620,-0.06509791,0.11215391,0.23878435,0.00422686,0.01254872,0.002906
 90,0.00071900,-0.00027258,0.00054486,-0.00027976,-0.00085031,0.0004399
 0,-0.00044034,0.00053114,-0.00038905,0.00038443,0.00052520,-0.00007239
 ,-0.00003804,-0.00039320,0.00000810,-0.04321373,-0.06953389,-0.0854390
 4,0.04213244,0.07138504,0.08444706,-0.00129056,0.00045645,-0.01825566,
 -0.00125049,0.00342028,-0.00081634,0.00154118,0.00009291,-0.00148601,-
 0.00001177,-0.00037035,0.00053691,-0.00034385,-0.00004625,0.00020465,-
 0.00007852,0.00022097,-0.00004381,-0.05166224,-0.00025094,-0.01707004,
 0.00241562,-0.00010450,-0.01604282,0.06356482,0.00523297,-0.00265391,0
 .03097683,0.00217044,-0.00400299,0.00193292,-0.00164809,0.00059803,0.0
 0102275,0.00008234,0.00022433,0.00008850,0.00018164,-0.00030140,-0.000
 41855,0.00004433,-0.00008256,0.00012479,-0.00309004,-0.05504971,-0.014
 09554,-0.00263501,0.00077429,-0.02754628,-0.00122022,0.05379079,-0.002
 90984,-0.00155083,-0.01290477,-0.00114139,0.00163780,0.00031250,0.0013
 1387,0.00074870,-0.00086143,-0.00044250,-0.00051679,0.00065959,-0.0005
 0204,0.00007300,0.00035847,-0.00010585,0.00014789,-0.00018101,-0.01463
 310,-0.00967726,-0.30626830,-0.00123232,0.00129074,-0.00913214,0.00948
 557,0.00899171,0.33454429,-0.03772765,0.00653970,0.01050245,0.00153668
 ,-0.00192589,0.00115015,0.00284575,0.00133902,-0.00227747,-0.00166278,
 0.00137706,0.00009238,-0.00196017,0.00186195,0.00094064,0.00016554,-0.
 00061912,0.00018379,-0.17933944,-0.01470470,0.06121702,-0.03149673,0.0
 0083587,0.01410629,-0.01514474,0.00109381,0.00887761,0.43147465,0.0340
 9176,-0.00460632,-0.01131655,-0.00094458,0.00156946,-0.00062242,0.0003
 0928,-0.00652471,0.00286679,-0.00023491,0.00146937,-0.00006686,0.00259
 210,0.00083800,-0.00083872,-0.00001003,-0.00105434,-0.00024338,0.02186
 394,-0.07436921,0.00486568,-0.02339805,0.00735171,0.01238742,-0.000250
 16,0.00312892,0.00063147,-0.19648977,0.31675310,-0.01014025,-0.0013237
 9,0.00508888,0.00036062,-0.00157062,0.00184323,-0.00152561,0.00335762,
 -0.00095299,0.00020040,-0.00039177,0.00051494,-0.00071365,0.00007268,0
 .00054844,-0.00011099,0.00023896,-0.00017024,0.02421489,0.02074231,-0.
 08890062,0.00082950,0.00228554,0.00593222,0.04098528,0.00089123,-0.009
 37402,0.02059560,-0.16434749,0.18318841,-0.00675558,-0.00229399,0.0041
 5236,0.00019443,-0.00056433,0.00025277,-0.00018970,0.00209723,-0.00084
 237,0.00026149,-0.00033046,0.00007301,-0.00058593,-0.00032928,0.000192
 67,-0.00001758,0.00035664,0.00003633,-0.02334313,0.03146768,-0.0192347
 8,0.00002063,-0.00010876,-0.00072151,0.00218511,0.00015578,0.00030180,
 -0.16971176,0.15859350,-0.07547612,0.19718037,0.00080331,0.00025021,-0
 .00066330,-0.00038863,0.00023319,-0.00041748,-0.00043221,-0.00039043,0
 .00042808,-0.00005637,0.00015892,-0.00010067,0.00023440,0.00012585,-0.
 00010511,0.00006901,-0.00014064,-0.00000327,-0.01038589,-0.00174402,0.
 00455553,-0.00156281,0.00057871,0.00028502,-0.00071668,0.00032151,-0.0
 0030939,0.19998976,-0.24574668,0.13951270,-0.18838072,0.24533003,0.003
 58021,0.00018044,-0.00114731,0.00021794,-0.00009642,0.00027744,0.00027
 730,-0.00034922,0.00116032,-0.00003412,-0.00008525,-0.00007858,0.00005
 049,-0.00025964,-0.00030037,0.00001577,0.00008982,-0.00006117,0.019462
 25,-0.01275251,0.00213464,-0.00065120,0.00000320,-0.00007984,0.0006821
 8,-0.00084260,0.00070955,-0.11461335,0.15822584,-0.09802943,0.09126230
 ,-0.14351193,0.09549875,-0.13985964,-0.04503096,-0.03891118,-0.0010378
 1,-0.00986195,-0.00827873,-0.03270203,-0.03638531,-0.01432964,-0.00560
 072,0.00073807,0.00299624,0.00005065,-0.00239230,-0.00052167,0.0008210
 3,-0.00126074,0.00067664,0.00870159,0.01084302,0.00457442,-0.00171613,
 0.00402967,-0.00136311,0.00028583,-0.00031303,0.00093532,0.00169244,0.
 00097752,0.00084015,0.00046292,0.00027670,-0.00017638,0.74969191,-0.04
 532322,-0.18569275,-0.05701537,-0.01152260,-0.01341555,-0.01302346,-0.
 00836957,-0.00503373,0.00248858,0.00081772,0.00232069,-0.00238173,0.00
 218959,0.00160522,0.00052517,0.00014156,-0.00140935,-0.00049019,-0.017
 99251,-0.04477453,-0.01319543,0.00408071,-0.00502791,0.00063832,-0.001
 53212,0.00338063,-0.00150647,-0.00070585,-0.00107300,-0.00051869,-0.00
 127346,0.00018756,0.00001945,-0.08754229,0.68167253,-0.01662149,-0.025
 14265,-0.07044075,-0.02182038,-0.03207715,-0.00793838,0.00515747,0.002
 96056,0.00201138,-0.00061403,-0.00069246,-0.00041643,0.00016262,0.0015
 8649,0.00174665,-0.00011053,-0.00046678,-0.00089181,0.00424248,0.00493
 486,0.00466693,-0.00077656,0.00203575,0.00061381,0.00154708,-0.0015552
 7,0.00249026,0.00009944,-0.00032015,0.00206070,-0.00022534,-0.00067892
 ,-0.00007847,-0.01228736,0.02439371,0.10147595,0.00935141,-0.02289669,
 0.00256137,-0.00025515,-0.00027857,-0.00046596,0.00229418,-0.00412859,
 -0.00009753,-0.00078135,0.00284838,0.00026463,0.00127438,0.00245502,-0
 .00035733,-0.00053269,-0.00213266,0.00000008,-0.00376631,-0.00404075,-
 0.00161860,0.00089190,-0.00131442,0.00040826,-0.00006797,0.00017774,0.
 00008104,0.00034723,0.00171203,0.00027259,-0.00001173,0.00004608,-0.00
 010849,-0.14678478,0.15194132,-0.02225598,0.14740729,0.01424779,-0.022
 88786,0.01069345,0.00055984,0.00089454,-0.00001761,0.00025575,-0.00269
 340,0.00008401,-0.00020244,0.00152256,-0.00010612,0.00161843,0.0015463
 8,-0.00019054,-0.00035253,-0.00111453,0.00015128,-0.00401305,-0.003115
 35,-0.00284795,0.00092474,-0.00100498,0.00037472,-0.00009944,0.0002525
 7,-0.00011172,-0.00025600,0.00082629,0.00016076,-0.00004968,0.00009138
 ,-0.00007194,0.15273192,-0.36445482,0.03259567,-0.15910073,0.38692188,
 0.00358024,-0.01760474,-0.00553236,-0.00017698,-0.00118182,0.00013535,
 -0.00094836,0.00255967,0.00273756,0.00049600,-0.00109222,-0.00028352,-
 0.00049146,-0.00126051,-0.00183275,0.00019343,0.00067886,0.00006889,-0
 .00013561,0.00152210,-0.00041016,-0.00018143,0.00076575,0.00059912,0.0
 0006263,-0.00020442,0.00024199,0.00035570,-0.00015745,0.00027113,0.000
 05478,-0.00012157,-0.00005289,-0.04093015,0.06884049,-0.01120571,0.030
 89475,-0.04444345,0.01814434,-0.01635537,0.00030837,0.00842158,0.00108
 978,0.00110241,0.00033394,-0.00005235,-0.00169514,-0.00141451,-0.00032
 640,0.00021659,0.00002209,0.00022408,-0.00012424,-0.00002862,0.0000321
 0,-0.00022133,0.00007524,-0.00043236,-0.00026424,0.00022819,-0.0002270
 0,0.00004353,0.00012204,-0.00014244,-0.00023267,-0.00002817,-0.0010190
 1,0.00118738,-0.00033242,0.00031047,0.00050405,0.00003511,-0.43400529,
 0.01509070,0.06350258,-0.00936641,-0.00626459,0.00722648,0.46027019,-0
 .03451497,0.00057316,0.00622491,0.00005230,0.00055518,-0.00040186,-0.0
 0130139,-0.00621214,-0.00284229,-0.00205681,0.00056992,0.00097085,0.00
 101315,0.00072855,-0.00006211,-0.00027347,-0.00074587,0.00020231,-0.00
 436996,0.00010602,0.00071157,0.00047637,0.00040639,-0.00007933,0.00040
 006,-0.00038049,0.00015114,0.00166417,0.00143741,0.00089057,0.00065986
 ,0.00074440,-0.00054923,0.01318969,-0.06828498,-0.00757367,0.03471184,
 0.00321534,-0.00830069,-0.00965083,0.06728710,-0.01961134,-0.00566631,
 -0.00066404,-0.00070668,0.00020965,0.00048982,0.00022996,-0.00221864,-
 0.00121888,0.00009320,0.00048175,0.00038276,0.00060200,0.00077615,0.00
 019658,-0.00000132,-0.00044501,0.00004222,0.00129428,0.00072189,0.0014
 5061,-0.00008744,-0.00017245,-0.00037950,0.00021037,0.00063394,-0.0005
 9499,-0.00123026,-0.00106417,-0.00202064,0.00017411,0.00113032,0.00004
 736,0.10677545,-0.00877438,-0.02409412,-0.00957882,0.00372944,-0.00288
 100,-0.07816351,0.01065782,0.02924383||-0.00004133,0.00006562,-0.00001
 863,0.00000633,-0.00000259,-0.00000884,-0.00006759,-0.00014781,0.00017
 823,0.00002019,0.00014472,-0.00005709,0.00006980,-0.00006131,-0.000073
 07,0.00002553,-0.00001703,-0.00000475,-0.00000349,0.00000265,-0.000000
 05,0.00000575,-0.00000342,0.00000147,-0.00000065,0.00000225,-0.0000017
 0,0.00000227,0.00000380,-0.00000080,0.00000237,0.00000247,0.00000140,-
 0.00001077,0.00000785,-0.00003150,-0.00001026,0.00000458,0.00000771,0.
 00000186,-0.00000178,0.00000761|||@


 YOU CAN WIPE THE SLATE CLEAN, BUT YOU'LL STILL
 HAVE TO EAT A LITTLE CHALK DUST.
 Job cpu time:  0 days  0 hours  2 minutes 19.0 seconds.
 File lengths (MBytes):  RWF=     18 Int=      0 D2E=      0 Chk=      5 Scr=      1
 Normal termination of Gaussian 03 at Fri Apr 01 11:45:28 2016.
