 Entering Link 1 = c:\G09w01\l1.exe PID=      1700.
  
 Copyright (c) 1988,1990,1992,1993,1995,1998,2003,2009,2010,
            Gaussian, Inc.  All Rights Reserved.
  
 This is part of the Gaussian(R) 09 program.  It is based on
 the Gaussian(R) 03 system (copyright 2003, Gaussian, Inc.),
 the Gaussian(R) 98 system (copyright 1998, Gaussian, Inc.),
 the Gaussian(R) 94 system (copyright 1995, Gaussian, Inc.),
 the Gaussian 92(TM) system (copyright 1992, Gaussian, Inc.),
 the Gaussian 90(TM) system (copyright 1990, Gaussian, Inc.),
 the Gaussian 88(TM) system (copyright 1988, Gaussian, Inc.),
 the Gaussian 86(TM) system (copyright 1986, Carnegie Mellon
 University), and the Gaussian 82(TM) system (copyright 1983,
 Carnegie Mellon University). Gaussian is a federally registered
 trademark of Gaussian, Inc.
  
 This software contains proprietary and confidential information,
 including trade secrets, belonging to Gaussian, Inc.
  
 This software is provided under written license and may be
 used, copied, transmitted, or stored only in accord with that
 written license.
  
 The following legend is applicable only to US Government
 contracts under FAR:
  
                    RESTRICTED RIGHTS LEGEND
  
 Use, reproduction and disclosure by the US Government is
 subject to restrictions as set forth in subparagraphs (a)
 and (c) of the Commercial Computer Software - Restricted
 Rights clause in FAR 52.227-19.
  
 Gaussian, Inc.
 340 Quinnipiac St., Bldg. 40, Wallingford CT 06492
  
  
 ---------------------------------------------------------------
 Warning -- This program may not be used in any manner that
 competes with the business of Gaussian, Inc. or will provide
 assistance to any competitor of Gaussian, Inc.  The licensee
 of this program is prohibited from giving any competitor of
 Gaussian, Inc. access to this program.  By using this program,
 the user acknowledges that Gaussian, Inc. is engaged in the
 business of creating and licensing software in the field of
 computational chemistry and represents and warrants to the
 licensee that it is not a competitor of Gaussian, Inc. and that
 it will not use this program in any manner prohibited above.
 ---------------------------------------------------------------
  

 Cite this work as:
 Gaussian 09, Revision B.01,
 M. J. Frisch, G. W. Trucks, H. B. Schlegel, G. E. Scuseria, 
 M. A. Robb, J. R. Cheeseman, G. Scalmani, V. Barone, B. Mennucci, 
 G. A. Petersson, H. Nakatsuji, M. Caricato, X. Li, H. P. Hratchian, 
 A. F. Izmaylov, J. Bloino, G. Zheng, J. L. Sonnenberg, M. Hada, 
 M. Ehara, K. Toyota, R. Fukuda, J. Hasegawa, M. Ishida, T. Nakajima, 
 Y. Honda, O. Kitao, H. Nakai, T. Vreven, J. A. Montgomery, Jr., 
 J. E. Peralta, F. Ogliaro, M. Bearpark, J. J. Heyd, E. Brothers, 
 K. N. Kudin, V. N. Staroverov, T. Keith, R. Kobayashi, J. Normand, 
 K. Raghavachari, A. Rendell, J. C. Burant, S. S. Iyengar, J. Tomasi, 
 M. Cossi, N. Rega, J. M. Millam, M. Klene, J. E. Knox, J. B. Cross, 
 V. Bakken, C. Adamo, J. Jaramillo, R. Gomperts, R. E. Stratmann, 
 O. Yazyev, A. J. Austin, R. Cammi, C. Pomelli, J. W. Ochterski, 
 R. L. Martin, K. Morokuma, V. G. Zakrzewski, G. A. Voth, 
 P. Salvador, J. J. Dannenberg, S. Dapprich, A. D. Daniels, 
 O. Farkas, J. B. Foresman, J. V. Ortiz, J. Cioslowski, 
 and D. J. Fox, Gaussian, Inc., Wallingford CT, 2010.
 
 ******************************************
 Gaussian 09:  IA32W-G09RevB.01 12-Aug-2010
                07-Apr-2016 
 ******************************************
 %chk=E:\YangJ\Amiano\Ala\ts1\s\Ala-S-ts1-6-311++gdp-cpcm.chk
 ----------------------------------------------------------------------
 #p opt=(calcfc,ts) freq rb3lyp/6-311++g(d,p) scrf=(cpcm,solvent=water)
  iop(1/11=1)
 ----------------------------------------------------------------------
 1/5=1,10=4,11=1,14=-1,18=20,26=3,38=1/1,3;
 2/9=110,12=2,17=6,18=5,40=1/2;
 3/5=4,6=6,7=1111,11=2,16=1,25=1,30=1,70=2101,71=2,72=1,74=-5,116=1/1,2,3;
 4//1;
 5/5=2,38=5,53=1/2;
 8/6=4,10=90,11=11/1;
 11/6=1,8=1,9=11,15=111,16=1/1,2,10;
 10/6=1,7=6,13=1/2;
 6/7=2,8=2,9=2,10=2,28=1/1;
 7/10=1,18=20,25=1/1,2,3,16;
 1/5=1,10=4,11=1,14=-1,18=20/3(2);
 2/9=110/2;
 99//99;
 2/9=110/2;
 3/5=4,6=6,7=1111,11=2,16=1,25=1,30=1,70=2105,71=1,72=1,74=-5,116=1/1,2,3;
 4/5=5,16=3/1;
 5/5=2,38=5,53=1/2;
 7//1,2,3,16;
 1/5=1,11=1,14=-1,18=20/3(-5);
 2/9=110/2;
 6/7=2,8=2,9=2,10=2,19=2,28=1/1;
 99/9=1/99;
 Leave Link    1 at Thu Apr 07 10:21:00 2016, MaxMem=          0 cpu:       0.0
 (Enter c:\G09w01\l101.exe)
 ----------------------------------
 Ala-S-opt-freq-ts1-6-311++gdp cpcm
 ----------------------------------
 Symbolic Z-matrix:
 Charge =  0 Multiplicity = 1
 N                    -1.34454  -1.18928  -0.37267 
 H                    -1.169    -1.65008   0.51504 
 C                    -0.70537   0.12244  -0.41812 
 H                    -0.75834   0.49719  -1.44405 
 C                    -1.29867   1.1961    0.52477 
 C                     0.75326  -0.03105  -0.09532 
 H                    -1.23125   0.87395   1.56705 
 H                    -0.7803    2.1521    0.41608 
 H                    -2.35215   1.3472    0.27709 
 O                     1.23534  -0.89388   0.71013 
 H                    -2.34735  -1.10455  -0.49783 
 O                     1.68193   0.72293  -0.53238 
 H                     2.21671  -0.14825   0.28531 
 
 NAtoms=     13 NQM=     13 NQMF=      0 NMic=      0 NMicF=      0 NTot=     13.
 Add atom     13 valence  3 ND=      0 dihedral      12     10     13      6
                    Isotopes and Nuclear Properties:
 (Nuclear quadrupole moments (NQMom) in fm**2, nuclear magnetic moments (NMagM)
  in nuclear magnetons)

  Atom         1           2           3           4           5           6           7           8           9          10
 IAtWgt=          14           1          12           1          12          12           1           1           1          16
 AtmWgt=  14.0030740   1.0078250  12.0000000   1.0078250  12.0000000  12.0000000   1.0078250   1.0078250   1.0078250  15.9949146
 NucSpn=           2           1           0           1           0           0           1           1           1           0
 AtZEff=   0.0000000   0.0000000   0.0000000   0.0000000   0.0000000   0.0000000   0.0000000   0.0000000   0.0000000   0.0000000
 NQMom=    2.0440000   0.0000000   0.0000000   0.0000000   0.0000000   0.0000000   0.0000000   0.0000000   0.0000000   0.0000000
 NMagM=    0.4037610   2.7928460   0.0000000   2.7928460   0.0000000   0.0000000   2.7928460   2.7928460   2.7928460   0.0000000

  Atom        11          12          13
 IAtWgt=           1          16           1
 AtmWgt=   1.0078250  15.9949146   1.0078250
 NucSpn=           1           0           1
 AtZEff=   0.0000000   0.0000000   0.0000000
 NQMom=    0.0000000   0.0000000   0.0000000
 NMagM=    2.7928460   0.0000000   2.7928460
 Leave Link  101 at Thu Apr 07 10:21:01 2016, MaxMem=   33554432 cpu:       0.0
 (Enter c:\G09w01\l103.exe)

 GradGradGradGradGradGradGradGradGradGradGradGradGradGradGradGradGradGrad
 Berny optimization.
 Initialization pass.
                           ----------------------------
                           !    Initial Parameters    !
                           ! (Angstroms and Degrees)  !
 --------------------------                            --------------------------
 ! Name  Definition              Value          Derivative Info.                !
 --------------------------------------------------------------------------------
 ! R1    R(1,2)                  1.0155         calculate D2E/DX2 analytically  !
 ! R2    R(1,3)                  1.4599         calculate D2E/DX2 analytically  !
 ! R3    R(1,11)                 1.0141         calculate D2E/DX2 analytically  !
 ! R4    R(3,4)                  1.0935         calculate D2E/DX2 analytically  !
 ! R5    R(3,5)                  1.5472         calculate D2E/DX2 analytically  !
 ! R6    R(3,6)                  1.5018         calculate D2E/DX2 analytically  !
 ! R7    R(5,7)                  1.093          calculate D2E/DX2 analytically  !
 ! R8    R(5,8)                  1.0929         calculate D2E/DX2 analytically  !
 ! R9    R(5,9)                  1.0927         calculate D2E/DX2 analytically  !
 ! R10   R(6,10)                 1.275          calculate D2E/DX2 analytically  !
 ! R11   R(6,12)                 1.2736         calculate D2E/DX2 analytically  !
 ! R12   R(6,13)                 1.5167         calculate D2E/DX2 analytically  !
 ! R13   R(10,13)                1.3037         calculate D2E/DX2 analytically  !
 ! R14   R(12,13)                1.309          calculate D2E/DX2 analytically  !
 ! A1    A(2,1,3)              111.0544         calculate D2E/DX2 analytically  !
 ! A2    A(2,1,11)             108.4654         calculate D2E/DX2 analytically  !
 ! A3    A(3,1,11)             110.7341         calculate D2E/DX2 analytically  !
 ! A4    A(1,3,4)              108.4162         calculate D2E/DX2 analytically  !
 ! A5    A(1,3,5)              115.8906         calculate D2E/DX2 analytically  !
 ! A6    A(1,3,6)              109.07           calculate D2E/DX2 analytically  !
 ! A7    A(4,3,5)              108.3828         calculate D2E/DX2 analytically  !
 ! A8    A(4,3,6)              106.4833         calculate D2E/DX2 analytically  !
 ! A9    A(5,3,6)              108.2031         calculate D2E/DX2 analytically  !
 ! A10   A(3,5,7)              110.6679         calculate D2E/DX2 analytically  !
 ! A11   A(3,5,8)              111.378          calculate D2E/DX2 analytically  !
 ! A12   A(3,5,9)              109.1189         calculate D2E/DX2 analytically  !
 ! A13   A(7,5,8)              108.8684         calculate D2E/DX2 analytically  !
 ! A14   A(7,5,9)              108.4437         calculate D2E/DX2 analytically  !
 ! A15   A(8,5,9)              108.2871         calculate D2E/DX2 analytically  !
 ! A16   A(3,6,10)             124.903          calculate D2E/DX2 analytically  !
 ! A17   A(3,6,12)             125.0273         calculate D2E/DX2 analytically  !
 ! A18   A(10,6,12)            109.9822         calculate D2E/DX2 analytically  !
 ! A19   A(10,13,12)           106.0611         calculate D2E/DX2 analytically  !
 ! A20   L(3,6,13,5,-1)        177.501          calculate D2E/DX2 analytically  !
 ! A21   L(3,6,13,5,-2)        179.2913         calculate D2E/DX2 analytically  !
 ! D1    D(2,1,3,4)            169.4748         calculate D2E/DX2 analytically  !
 ! D2    D(2,1,3,5)            -68.4465         calculate D2E/DX2 analytically  !
 ! D3    D(2,1,3,6)             53.9105         calculate D2E/DX2 analytically  !
 ! D4    D(11,1,3,4)           -69.9535         calculate D2E/DX2 analytically  !
 ! D5    D(11,1,3,5)            52.1252         calculate D2E/DX2 analytically  !
 ! D6    D(11,1,3,6)           174.4822         calculate D2E/DX2 analytically  !
 ! D7    D(1,3,5,7)             59.9404         calculate D2E/DX2 analytically  !
 ! D8    D(1,3,5,8)           -178.8048         calculate D2E/DX2 analytically  !
 ! D9    D(1,3,5,9)            -59.3108         calculate D2E/DX2 analytically  !
 ! D10   D(4,3,5,7)           -177.9631         calculate D2E/DX2 analytically  !
 ! D11   D(4,3,5,8)            -56.7083         calculate D2E/DX2 analytically  !
 ! D12   D(4,3,5,9)             62.7856         calculate D2E/DX2 analytically  !
 ! D13   D(6,3,5,7)            -62.874          calculate D2E/DX2 analytically  !
 ! D14   D(6,3,5,8)             58.3808         calculate D2E/DX2 analytically  !
 ! D15   D(6,3,5,9)            177.8747         calculate D2E/DX2 analytically  !
 ! D16   D(1,3,6,10)           -33.128          calculate D2E/DX2 analytically  !
 ! D17   D(1,3,6,12)           150.615          calculate D2E/DX2 analytically  !
 ! D18   D(4,3,6,10)          -149.9281         calculate D2E/DX2 analytically  !
 ! D19   D(4,3,6,12)            33.815          calculate D2E/DX2 analytically  !
 ! D20   D(5,3,6,10)            93.7439         calculate D2E/DX2 analytically  !
 ! D21   D(5,3,6,12)           -82.5131         calculate D2E/DX2 analytically  !
 ! D22   D(12,10,13,6)          -0.1691         calculate D2E/DX2 analytically  !
 --------------------------------------------------------------------------------
 Trust Radius=3.00D-01 FncErr=1.00D-07 GrdErr=1.00D-06
 Number of steps in this run=     67 maximum allowed number of steps=    100.
 Search for a saddle point of order  1.
 GradGradGradGradGradGradGradGradGradGradGradGradGradGradGradGradGradGrad

 Leave Link  103 at Thu Apr 07 10:21:01 2016, MaxMem=   33554432 cpu:       0.0
 (Enter c:\G09w01\l202.exe)
                          Input orientation:                          
 ---------------------------------------------------------------------
 Center     Atomic      Atomic             Coordinates (Angstroms)
 Number     Number       Type             X           Y           Z
 ---------------------------------------------------------------------
      1          7           0       -1.344539   -1.189278   -0.372673
      2          1           0       -1.169000   -1.650077    0.515042
      3          6           0       -0.705365    0.122441   -0.418116
      4          1           0       -0.758338    0.497189   -1.444045
      5          6           0       -1.298670    1.196100    0.524771
      6          6           0        0.753257   -0.031049   -0.095317
      7          1           0       -1.231254    0.873948    1.567053
      8          1           0       -0.780298    2.152096    0.416080
      9          1           0       -2.352152    1.347201    0.277086
     10          8           0        1.235338   -0.893875    0.710132
     11          1           0       -2.347354   -1.104552   -0.497832
     12          8           0        1.681929    0.722930   -0.532384
     13          1           0        2.216708   -0.148249    0.285313
 ---------------------------------------------------------------------
                    Distance matrix (angstroms):
                    1          2          3          4          5
     1  N    0.000000
     2  H    1.015474   0.000000
     3  C    1.459868   2.056103   0.000000
     4  H    2.082220   2.935544   1.093514   0.000000
     5  C    2.549027   2.849146   1.547188   2.157932   0.000000
     6  C    2.412295   2.586283   1.501778   2.093567   2.469981
     7  H    2.834126   2.735197   2.186828   3.071206   1.093014
     8  H    3.479264   3.823271   2.195677   2.489832   1.092910
     9  H    2.805565   3.231122   2.166853   2.495006   1.092705
    10  O    2.813449   2.527992   2.464177   3.248120   3.289917
    11  H    1.014141   1.646824   2.051340   2.446603   2.727353
    12  O    3.583512   3.854356   2.464309   2.614763   3.197724
    13  H    3.768178   3.710968   3.017714   3.501167   3.771273
                    6          7          8          9         10
     6  C    0.000000
     7  H    2.742404   0.000000
     8  H    2.716512   1.778135   0.000000
     9  H    3.417868   1.773244   1.771412   0.000000
    10  O    1.274998   3.153346   3.664314   4.252062   0.000000
    11  H    3.305785   3.069836   3.727822   2.571306   3.786719
    12  O    1.273555   3.594034   3.000777   4.161582   2.087426
    13  H    1.516675   3.817877   3.780308   4.807382   1.303655
                   11         12         13
    11  H    0.000000
    12  O    4.424478   0.000000
    13  H    4.728477   1.309034   0.000000
 Stoichiometry    C3H7NO2
 Framework group  C1[X(C3H7NO2)]
 Deg. of freedom    33
 Full point group                 C1      NOp   1
 Largest Abelian subgroup         C1      NOp   1
 Largest concise Abelian subgroup C1      NOp   1
                         Standard orientation:                         
 ---------------------------------------------------------------------
 Center     Atomic      Atomic             Coordinates (Angstroms)
 Number     Number       Type             X           Y           Z
 ---------------------------------------------------------------------
      1          7           0       -1.344539   -1.189278   -0.372673
      2          1           0       -1.169000   -1.650077    0.515042
      3          6           0       -0.705365    0.122441   -0.418116
      4          1           0       -0.758338    0.497189   -1.444045
      5          6           0       -1.298670    1.196100    0.524771
      6          6           0        0.753257   -0.031049   -0.095317
      7          1           0       -1.231254    0.873948    1.567053
      8          1           0       -0.780298    2.152096    0.416080
      9          1           0       -2.352152    1.347201    0.277086
     10          8           0        1.235338   -0.893875    0.710132
     11          1           0       -2.347354   -1.104552   -0.497832
     12          8           0        1.681929    0.722930   -0.532384
     13          1           0        2.216708   -0.148249    0.285313
 ---------------------------------------------------------------------
 Rotational constants (GHZ):      5.3099858      2.9180399      2.3230440
 Leave Link  202 at Thu Apr 07 10:21:01 2016, MaxMem=   33554432 cpu:       0.0
 (Enter c:\G09w01\l301.exe)
 Standard basis: 6-311++G(d,p) (5D, 7F)
 Ernie: Thresh=  0.10000D-02 Tol=  0.10000D-05 Strict=F.
 There are   181 symmetry adapted basis functions of A   symmetry.
 Integral buffers will be    262144 words long.
 Raffenetti 2 integral format.
 Two-electron integral symmetry is turned on.
   181 basis functions,   279 primitive gaussians,   187 cartesian basis functions
    24 alpha electrons       24 beta electrons
       nuclear repulsion energy       249.9375732256 Hartrees.
 IExCor=  402 DFT=T Ex+Corr=B3LYP ExCW=0 ScaHFX=  0.200000
 ScaDFX=  0.800000  0.720000  1.000000  0.810000 ScalE2=  1.000000  1.000000
 IRadAn=      0 IRanWt=     -1 IRanGd=            0 ICorTp=0
 NAtoms=   13 NActive=   13 NUniq=   13 SFac= 1.00D+00 NAtFMM=   50 NAOKFM=F Big=F
 ------------------------------------------------------------------------------
 Polarizable Continuum Model (PCM)
 =================================
 Model                : C-PCM.
 Atomic radii         : UFF (Universal Force Field).
 Polarization charges : Total charges.
 Charge compensation  : None.
 Solution method      : Matrix inversion.
 Cavity type          : Scaled VdW (van der Waals Surface) (Alpha=1.100).
 Cavity algorithm     : GePol (No added spheres)
                        Default sphere list used, NSphG=   13.
                        Lebedev-Laikov grids with approx.  5.0 points / Ang**2.
                        Smoothing algorithm: Karplus/York (Gamma=1.0000).
                        Polarization charges: spherical gaussians, with
                                              point-specific exponents (IZeta= 3).
                        Self-potential: point-specific (ISelfS= 7).
                        Self-field    : sphere-specific E.n sum rule (ISelfD= 2).
 1st derivatives      : Analytical E(r).r(x)/FMM algorithm (CHGder, D1EAlg=3).
                        Cavity 1st derivative terms included.
 2nd derivatives      : Analytical E(r).r(xy)/FMM algorithm (CHGder, D2EAlg=3).
                        Cavity 2nd derivative terms included.
 Solvent              : Water, Eps=  78.355300 Eps(inf)=   1.777849
 ------------------------------------------------------------------------------
 Spheres list:
 ISph  on   Nord    Re0     Alpha      Xe            Ye            Ze
    1   N      1    1.830   1.100     -1.344539     -1.189278     -0.372673
    2   H      2    1.443   1.100     -1.169000     -1.650077      0.515042
    3   C      3    1.926   1.100     -0.705365      0.122441     -0.418116
    4   H      4    1.443   1.100     -0.758338      0.497189     -1.444045
    5   C      5    1.926   1.100     -1.298670      1.196100      0.524771
    6   C      6    1.926   1.100      0.753257     -0.031049     -0.095317
    7   H      7    1.443   1.100     -1.231254      0.873948      1.567053
    8   H      8    1.443   1.100     -0.780298      2.152096      0.416080
    9   H      9    1.443   1.100     -2.352152      1.347201      0.277086
   10   O     10    1.750   1.100      1.235338     -0.893875      0.710132
   11   H     11    1.443   1.100     -2.347354     -1.104552     -0.497832
   12   O     12    1.750   1.100      1.681929      0.722930     -0.532384
   13   H     13    1.443   1.100      2.216708     -0.148249      0.285313
 ------------------------------------------------------------------------------
 GePol: Number of generator spheres                  =      13
 GePol: Total number of spheres                      =      13
 GePol: Number of exposed spheres                    =      13 (100.00%)
 GePol: Number of points                             =    1090
 GePol: Average weight of points                     =       0.14
 GePol: Minimum weight of points                     =   0.16D-07
 GePol: Maximum weight of points                     =    0.20577
 GePol: Number of points with low weight             =      57
 GePol: Fraction of low-weight points (<1% of avg)   =       5.23%
 GePol: Cavity surface area                          =    149.841 Ang**2
 GePol: Cavity volume                                =    137.556 Ang**3
 Leave Link  301 at Thu Apr 07 10:21:02 2016, MaxMem=   33554432 cpu:       0.0
 (Enter c:\G09w01\l302.exe)
 NPDir=0 NMtPBC=     1 NCelOv=     1 NCel=       1 NClECP=     1 NCelD=      1
         NCelK=      1 NCelE2=     1 NClLst=     1 CellRange=     0.0.
 One-electron integrals computed using PRISM.
 NBasis=   181 RedAO= T  NBF=   181
 NBsUse=   181 1.00D-06 NBFU=   181
 Precomputing XC quadrature grid using
 IXCGrd= 2 IRadAn=           0 IRanWt=          -1 IRanGd=           0 AccXCQ= 0.00D+00.
 NRdTot=     842 NPtTot=      106620 NUsed=      110552 NTot=      110568
 NSgBfM=   187   187   187   187   187 NAtAll=    13    13.
 Leave Link  302 at Thu Apr 07 10:21:03 2016, MaxMem=   33554432 cpu:       1.0
 (Enter c:\G09w01\l303.exe)
 DipDrv:  MaxL=1.
 Leave Link  303 at Thu Apr 07 10:21:03 2016, MaxMem=   33554432 cpu:       0.0
 (Enter c:\G09w01\l401.exe)
 Harris functional with IExCor=  402 diagonalized for initial guess.
 ExpMin= 3.60D-02 ExpMax= 8.59D+03 ExpMxC= 1.30D+03 IAcc=3 IRadAn=         0 AccDes= 0.00D+00
 HarFok:  IExCor=  402 AccDes= 0.00D+00 IRadAn=         0 IDoV= 1
 ScaDFX=  1.000000  1.000000  1.000000  1.000000
 FoFCou: FMM=F IPFlag=           0 FMFlag=      100000 FMFlg1=           0
         NFxFlg=           0 DoJE=T BraDBF=F KetDBF=T FulRan=T
         Omega=  0.000000  0.000000  1.000000  0.000000  0.000000 ICntrl=     500 IOpCl=  0
         NMat0=    1 NMatS0=    1 NMatT0=    0 NMatD0=    1 NMtDS0=    0 NMtDT0=    0
         I1Cent=           4 NGrid=           0.
 Petite list used in FoFCou.
 Harris En= -323.815242043536    
 Initial guess orbital symmetries:
       Occupied  (A) (A) (A) (A) (A) (A) (A) (A) (A) (A) (A) (A)
                 (A) (A) (A) (A) (A) (A) (A) (A) (A) (A) (A) (A)
       Virtual   (A) (A) (A) (A) (A) (A) (A) (A) (A) (A) (A) (A)
                 (A) (A) (A) (A) (A) (A) (A) (A) (A) (A) (A) (A)
                 (A) (A) (A) (A) (A) (A) (A) (A) (A) (A) (A) (A)
                 (A) (A) (A) (A) (A) (A) (A) (A) (A) (A) (A) (A)
                 (A) (A) (A) (A) (A) (A) (A) (A) (A) (A) (A) (A)
                 (A) (A) (A) (A) (A) (A) (A) (A) (A) (A) (A) (A)
                 (A) (A) (A) (A) (A) (A) (A) (A) (A) (A) (A) (A)
                 (A) (A) (A) (A) (A) (A) (A) (A) (A) (A) (A) (A)
                 (A) (A) (A) (A) (A) (A) (A) (A) (A) (A) (A) (A)
                 (A) (A) (A) (A) (A) (A) (A) (A) (A) (A) (A) (A)
                 (A) (A) (A) (A) (A) (A) (A) (A) (A) (A) (A) (A)
                 (A) (A) (A) (A) (A) (A) (A) (A) (A) (A) (A) (A)
                 (A) (A) (A) (A) (A) (A) (A) (A) (A) (A) (A) (A)
                 (A)
 The electronic state of the initial guess is 1-A.
 Leave Link  401 at Thu Apr 07 10:21:09 2016, MaxMem=   33554432 cpu:       5.0
 (Enter c:\G09w01\l502.exe)
 Closed shell SCF:
 Requested convergence on RMS density matrix=1.00D-08 within 128 cycles.
 Requested convergence on MAX density matrix=1.00D-06.
 Requested convergence on             energy=1.00D-06.
 No special actions if energy rises.
 Using DIIS extrapolation, IDIIS=  1040.
 Integral symmetry usage will be decided dynamically.
       110435 words used for storage of precomputed grid.
 IEnd=      235768 IEndB=      235768 NGot=    33554432 MDV=    33370461
 LenX=    33370461 LenY=    33335051
 Fock matrices will be formed incrementally for  20 cycles.

 Cycle   1  Pass 1  IDiag  1:
 FoFCou: FMM=F IPFlag=           0 FMFlag=      100000 FMFlg1=           0
         NFxFlg=           0 DoJE=F BraDBF=F KetDBF=F FulRan=T
         Omega=  0.000000  0.000000  1.000000  0.000000  0.000000 ICntrl=       0 IOpCl=  0
         NMat0=    1 NMatS0=    1 NMatT0=    0 NMatD0=    1 NMtDS0=    0 NMtDT0=    0
         I1Cent=           0 NGrid=           0.
 Symmetry not used in FoFCou.
 E= -323.610528737435    
 DIIS: error= 2.88D-02 at cycle   1 NSaved=   1.
 NSaved= 1 IEnMin= 1 EnMin= -323.610528737435     IErMin= 1 ErrMin= 2.88D-02
 ErrMax= 2.88D-02 EMaxC= 1.00D-01 BMatC= 2.61D-01 BMatP= 2.61D-01
 IDIUse=3 WtCom= 7.12D-01 WtEn= 2.88D-01
 Coeff-Com:  0.100D+01
 Coeff-En:   0.100D+01
 Coeff:      0.100D+01
 Gap=     0.128 Goal=   None    Shift=    0.000
 GapD=    0.128 DampG=1.000 DampE=0.500 DampFc=0.5000 IDamp=-1.
 Damping current iteration by 5.00D-01
 RMSDP=5.74D-03 MaxDP=1.20D-01              OVMax= 2.22D-01

 Cycle   2  Pass 1  IDiag  1:
 RMSU=  2.00D-03    CP:  9.73D-01
 E= -323.676553827740     Delta-E=       -0.066025090306 Rises=F Damp=T
 DIIS: error= 1.07D-02 at cycle   2 NSaved=   2.
 NSaved= 2 IEnMin= 2 EnMin= -323.676553827740     IErMin= 2 ErrMin= 1.07D-02
 ErrMax= 1.07D-02 EMaxC= 1.00D-01 BMatC= 2.03D-02 BMatP= 2.61D-01
 IDIUse=3 WtCom= 8.93D-01 WtEn= 1.07D-01
 Coeff-Com:  0.166D+00 0.834D+00
 Coeff-En:   0.293D+00 0.707D+00
 Coeff:      0.180D+00 0.820D+00
 Gap=     0.236 Goal=   None    Shift=    0.000
 RMSDP=1.48D-03 MaxDP=9.08D-02 DE=-6.60D-02 OVMax= 1.36D-01

 Cycle   3  Pass 1  IDiag  1:
 RMSU=  9.32D-04    CP:  9.46D-01  8.24D-01
 E= -323.800873048122     Delta-E=       -0.124319220382 Rises=F Damp=F
 DIIS: error= 6.13D-03 at cycle   3 NSaved=   3.
 NSaved= 3 IEnMin= 3 EnMin= -323.800873048122     IErMin= 3 ErrMin= 6.13D-03
 ErrMax= 6.13D-03 EMaxC= 1.00D-01 BMatC= 5.17D-03 BMatP= 2.03D-02
 IDIUse=3 WtCom= 9.39D-01 WtEn= 6.13D-02
 Coeff-Com:  0.315D-01 0.336D+00 0.633D+00
 Coeff-En:   0.000D+00 0.000D+00 0.100D+01
 Coeff:      0.296D-01 0.315D+00 0.655D+00
 Gap=     0.233 Goal=   None    Shift=    0.000
 RMSDP=5.75D-04 MaxDP=1.82D-02 DE=-1.24D-01 OVMax= 2.17D-02

 Cycle   4  Pass 1  IDiag  1:
 RMSU=  3.71D-04    CP:  9.52D-01  8.42D-01  8.47D-01
 E= -323.803812694471     Delta-E=       -0.002939646348 Rises=F Damp=F
 DIIS: error= 2.54D-03 at cycle   4 NSaved=   4.
 NSaved= 4 IEnMin= 4 EnMin= -323.803812694471     IErMin= 4 ErrMin= 2.54D-03
 ErrMax= 2.54D-03 EMaxC= 1.00D-01 BMatC= 1.48D-03 BMatP= 5.17D-03
 IDIUse=3 WtCom= 9.75D-01 WtEn= 2.54D-02
 Coeff-Com: -0.441D-02 0.649D-01 0.371D+00 0.569D+00
 Coeff-En:   0.000D+00 0.000D+00 0.244D+00 0.756D+00
 Coeff:     -0.429D-02 0.633D-01 0.367D+00 0.574D+00
 Gap=     0.231 Goal=   None    Shift=    0.000
 RMSDP=3.27D-04 MaxDP=2.39D-02 DE=-2.94D-03 OVMax= 8.09D-03

 Cycle   5  Pass 1  IDiag  1:
 RMSU=  1.21D-04    CP:  9.44D-01  8.40D-01  9.35D-01  6.02D-01
 E= -323.805097906618     Delta-E=       -0.001285212147 Rises=F Damp=F
 DIIS: error= 3.50D-04 at cycle   5 NSaved=   5.
 NSaved= 5 IEnMin= 5 EnMin= -323.805097906618     IErMin= 5 ErrMin= 3.50D-04
 ErrMax= 3.50D-04 EMaxC= 1.00D-01 BMatC= 4.02D-05 BMatP= 1.48D-03
 IDIUse=3 WtCom= 9.97D-01 WtEn= 3.50D-03
 Coeff-Com: -0.306D-02 0.128D-01 0.132D+00 0.250D+00 0.608D+00
 Coeff-En:   0.000D+00 0.000D+00 0.000D+00 0.000D+00 0.100D+01
 Coeff:     -0.305D-02 0.128D-01 0.131D+00 0.249D+00 0.610D+00
 Gap=     0.234 Goal=   None    Shift=    0.000
 RMSDP=4.11D-05 MaxDP=9.70D-04 DE=-1.29D-03 OVMax= 1.69D-03

 Cycle   6  Pass 1  IDiag  1:
 RMSU=  2.33D-05    CP:  9.44D-01  8.41D-01  9.44D-01  6.11D-01  8.81D-01
 E= -323.805124695048     Delta-E=       -0.000026788430 Rises=F Damp=F
 DIIS: error= 1.50D-04 at cycle   6 NSaved=   6.
 NSaved= 6 IEnMin= 6 EnMin= -323.805124695048     IErMin= 6 ErrMin= 1.50D-04
 ErrMax= 1.50D-04 EMaxC= 1.00D-01 BMatC= 7.27D-06 BMatP= 4.02D-05
 IDIUse=3 WtCom= 9.99D-01 WtEn= 1.50D-03
 Coeff-Com: -0.131D-02 0.191D-02 0.470D-01 0.100D+00 0.354D+00 0.498D+00
 Coeff-En:   0.000D+00 0.000D+00 0.000D+00 0.000D+00 0.790D-01 0.921D+00
 Coeff:     -0.131D-02 0.190D-02 0.470D-01 0.100D+00 0.354D+00 0.498D+00
 Gap=     0.233 Goal=   None    Shift=    0.000
 RMSDP=1.59D-05 MaxDP=3.84D-04 DE=-2.68D-05 OVMax= 7.82D-04

 Cycle   7  Pass 1  IDiag  1:
 RMSU=  9.20D-06    CP:  9.44D-01  8.41D-01  9.45D-01  6.19D-01  8.78D-01
                    CP:  7.62D-01
 E= -323.805129619047     Delta-E=       -0.000004923999 Rises=F Damp=F
 DIIS: error= 8.99D-05 at cycle   7 NSaved=   7.
 NSaved= 7 IEnMin= 7 EnMin= -323.805129619047     IErMin= 7 ErrMin= 8.99D-05
 ErrMax= 8.99D-05 EMaxC= 1.00D-01 BMatC= 8.45D-07 BMatP= 7.27D-06
 IDIUse=1 WtCom= 1.00D+00 WtEn= 0.00D+00
 Coeff-Com: -0.550D-03 0.306D-03 0.208D-01 0.465D-01 0.182D+00 0.319D+00
 Coeff-Com:  0.432D+00
 Coeff:     -0.550D-03 0.306D-03 0.208D-01 0.465D-01 0.182D+00 0.319D+00
 Coeff:      0.432D+00
 Gap=     0.233 Goal=   None    Shift=    0.000
 RMSDP=5.48D-06 MaxDP=1.24D-04 DE=-4.92D-06 OVMax= 3.63D-04

 Cycle   8  Pass 1  IDiag  1:
 RMSU=  3.15D-06    CP:  9.44D-01  8.41D-01  9.45D-01  6.20D-01  8.80D-01
                    CP:  7.50D-01  7.74D-01
 E= -323.805130162561     Delta-E=       -0.000000543514 Rises=F Damp=F
 DIIS: error= 2.82D-05 at cycle   8 NSaved=   8.
 NSaved= 8 IEnMin= 8 EnMin= -323.805130162561     IErMin= 8 ErrMin= 2.82D-05
 ErrMax= 2.82D-05 EMaxC= 1.00D-01 BMatC= 9.70D-08 BMatP= 8.45D-07
 IDIUse=1 WtCom= 1.00D+00 WtEn= 0.00D+00
 Coeff-Com: -0.172D-04-0.242D-03 0.275D-02 0.739D-02 0.373D-01 0.935D-01
 Coeff-Com:  0.271D+00 0.589D+00
 Coeff:     -0.172D-04-0.242D-03 0.275D-02 0.739D-02 0.373D-01 0.935D-01
 Coeff:      0.271D+00 0.589D+00
 Gap=     0.233 Goal=   None    Shift=    0.000
 RMSDP=1.73D-06 MaxDP=3.98D-05 DE=-5.44D-07 OVMax= 9.47D-05

 Cycle   9  Pass 1  IDiag  1:
 RMSU=  9.58D-07    CP:  9.44D-01  8.41D-01  9.45D-01  6.21D-01  8.80D-01
                    CP:  7.39D-01  7.82D-01  8.02D-01
 E= -323.805130228322     Delta-E=       -0.000000065761 Rises=F Damp=F
 DIIS: error= 5.39D-06 at cycle   9 NSaved=   9.
 NSaved= 9 IEnMin= 9 EnMin= -323.805130228322     IErMin= 9 ErrMin= 5.39D-06
 ErrMax= 5.39D-06 EMaxC= 1.00D-01 BMatC= 7.86D-09 BMatP= 9.70D-08
 IDIUse=1 WtCom= 1.00D+00 WtEn= 0.00D+00
 Coeff-Com:  0.279D-04-0.166D-03-0.683D-04 0.489D-03 0.562D-02 0.221D-01
 Coeff-Com:  0.103D+00 0.311D+00 0.558D+00
 Coeff:      0.279D-04-0.166D-03-0.683D-04 0.489D-03 0.562D-02 0.221D-01
 Coeff:      0.103D+00 0.311D+00 0.558D+00
 Gap=     0.233 Goal=   None    Shift=    0.000
 RMSDP=6.54D-07 MaxDP=2.48D-05 DE=-6.58D-08 OVMax= 2.04D-05

 Cycle  10  Pass 1  IDiag  1:
 RMSU=  2.70D-07    CP:  9.44D-01  8.41D-01  9.45D-01  6.21D-01  8.81D-01
                    CP:  7.46D-01  7.93D-01  8.39D-01  8.33D-01
 E= -323.805130234718     Delta-E=       -0.000000006396 Rises=F Damp=F
 DIIS: error= 8.08D-07 at cycle  10 NSaved=  10.
 NSaved=10 IEnMin=10 EnMin= -323.805130234718     IErMin=10 ErrMin= 8.08D-07
 ErrMax= 8.08D-07 EMaxC= 1.00D-01 BMatC= 1.79D-10 BMatP= 7.86D-09
 IDIUse=1 WtCom= 1.00D+00 WtEn= 0.00D+00
 Coeff-Com:  0.932D-05-0.330D-04-0.267D-03-0.465D-03-0.114D-02-0.664D-03
 Coeff-Com:  0.140D-01 0.597D-01 0.178D+00 0.750D+00
 Coeff:      0.932D-05-0.330D-04-0.267D-03-0.465D-03-0.114D-02-0.664D-03
 Coeff:      0.140D-01 0.597D-01 0.178D+00 0.750D+00
 Gap=     0.233 Goal=   None    Shift=    0.000
 RMSDP=1.21D-07 MaxDP=3.42D-06 DE=-6.40D-09 OVMax= 3.26D-06

 Cycle  11  Pass 1  IDiag  1:
 RMSU=  6.15D-08    CP:  9.44D-01  8.41D-01  9.45D-01  6.21D-01  8.81D-01
                    CP:  7.46D-01  7.98D-01  8.46D-01  8.58D-01  8.94D-01
 E= -323.805130234873     Delta-E=       -0.000000000156 Rises=F Damp=F
 DIIS: error= 1.45D-07 at cycle  11 NSaved=  11.
 NSaved=11 IEnMin=11 EnMin= -323.805130234873     IErMin=11 ErrMin= 1.45D-07
 ErrMax= 1.45D-07 EMaxC= 1.00D-01 BMatC= 6.19D-12 BMatP= 1.79D-10
 IDIUse=1 WtCom= 1.00D+00 WtEn= 0.00D+00
 Coeff-Com: -0.465D-06 0.145D-06-0.568D-04-0.121D-03-0.408D-03-0.935D-03
 Coeff-Com: -0.134D-03 0.307D-02 0.153D-01 0.169D+00 0.814D+00
 Coeff:     -0.465D-06 0.145D-06-0.568D-04-0.121D-03-0.408D-03-0.935D-03
 Coeff:     -0.134D-03 0.307D-02 0.153D-01 0.169D+00 0.814D+00
 Gap=     0.233 Goal=   None    Shift=    0.000
 RMSDP=3.96D-08 MaxDP=1.06D-06 DE=-1.56D-10 OVMax= 8.43D-07

 Cycle  12  Pass 1  IDiag  1:
 RMSU=  1.09D-08    CP:  9.44D-01  8.41D-01  9.45D-01  6.21D-01  8.81D-01
                    CP:  7.46D-01  7.99D-01  8.50D-01  8.68D-01  9.42D-01
                    CP:  9.88D-01
 E= -323.805130234880     Delta-E=       -0.000000000007 Rises=F Damp=F
 DIIS: error= 5.84D-08 at cycle  12 NSaved=  12.
 NSaved=12 IEnMin=12 EnMin= -323.805130234880     IErMin=12 ErrMin= 5.84D-08
 ErrMax= 5.84D-08 EMaxC= 1.00D-01 BMatC= 1.03D-12 BMatP= 6.19D-12
 IDIUse=1 WtCom= 1.00D+00 WtEn= 0.00D+00
 Coeff-Com: -0.943D-06 0.178D-05-0.993D-05-0.265D-04-0.101D-03-0.356D-03
 Coeff-Com: -0.676D-03-0.131D-02-0.185D-02 0.425D-01 0.389D+00 0.573D+00
 Coeff:     -0.943D-06 0.178D-05-0.993D-05-0.265D-04-0.101D-03-0.356D-03
 Coeff:     -0.676D-03-0.131D-02-0.185D-02 0.425D-01 0.389D+00 0.573D+00
 Gap=     0.233 Goal=   None    Shift=    0.000
 RMSDP=8.73D-09 MaxDP=3.57D-07 DE=-7.05D-12 OVMax= 2.31D-07

 Error on total polarization charges =  0.01187
 SCF Done:  E(RB3LYP) =  -323.805130235     A.U. after   12 cycles
             Convg  =    0.8730D-08             -V/T =  2.0038
 KE= 3.225742795316D+02 PE=-1.258142771064D+03 EE= 3.618257880720D+02
 Leave Link  502 at Thu Apr 07 10:23:56 2016, MaxMem=   33554432 cpu:     167.0
 (Enter c:\G09w01\l801.exe)
 Range of M.O.s used for correlation:     1   181
 NBasis=   181 NAE=    24 NBE=    24 NFC=     0 NFV=     0
 NROrb=    181 NOA=    24 NOB=    24 NVA=   157 NVB=   157

 **** Warning!!: The largest alpha MO coefficient is  0.57206171D+02

 Leave Link  801 at Thu Apr 07 10:23:59 2016, MaxMem=   33554432 cpu:       0.0
 (Enter c:\G09w01\l1101.exe)
 Using compressed storage, NAtomX=    13.
 Will process  14 centers per pass.
 Leave Link 1101 at Thu Apr 07 10:24:08 2016, MaxMem=   33554432 cpu:       6.0
 (Enter c:\G09w01\l1102.exe)
 Symmetrizing basis deriv contribution to polar:
 IMax=3 JMax=2 DiffMx= 0.00D+00
 Leave Link 1102 at Thu Apr 07 10:24:10 2016, MaxMem=   33554432 cpu:       1.0
 (Enter c:\G09w01\l1110.exe)
 Forming Gx(P) for the SCF density, NAtomX=    13.
 Integral derivatives from FoFDir/FoFCou, PRISM(SPDF).
 Do as many integral derivatives as possible in FoFDir.
 G2DrvN: MDV=      33554300.
 G2DrvN: will do    14 centers at a time, making    1 passes doing MaxLOS=2.
 Calling FoFCou, ICntrl=  3107 FMM=F I1Cent=   0 AccDes= 0.00D+00.
 FoFCou: FMM=F IPFlag=           0 FMFlag=      100000 FMFlg1=           0
         NFxFlg=           0 DoJE=F BraDBF=F KetDBF=F FulRan=T
         Omega=  0.000000  0.000000  1.000000  0.000000  0.000000 ICntrl=    3107 IOpCl=  0
         NMat0=    1 NMatS0=    1 NMatT0=    0 NMatD0=    1 NMtDS0=    0 NMtDT0=    0
         I1Cent=           0 NGrid=           0.
 Symmetry not used in FoFCou.
 FoFDir/FoFCou used for L=0 through L=2.
 G2PCM: DoFxE=T DoFxN=T DoGrad=T DoPD/DQ/DG=FFF NFrqRd=   0 IEInf=0 DoCFld=F IF1Alg=4.
 GePol: Maximum number of non-zero 1st derivatives   =     201
 End of G2Drv Frequency-dependent properties file   721 does not exist.
 End of G2Drv Frequency-dependent properties file   722 does not exist.
 Leave Link 1110 at Thu Apr 07 10:28:48 2016, MaxMem=   33554432 cpu:     278.0
 (Enter c:\G09w01\l1002.exe)
 Minotr:  Closed shell wavefunction.
          IDoAtm=1111111111111
 NEqPCM:  Using equilibrium solvation (IEInf=0, Eps=  78.3553, EpsInf=   1.7778)
          Direct CPHF calculation.
          Differentiating once with respect to nuclear coordinates.
          Requested convergence is 1.0D-06 RMS, and 1.0D-05 maximum.
          Secondary convergence is 1.0D-12 RMS, and 1.0D-12 maximum.
          NewPWx=T KeepS1=F KeepF1=F KeepIn=T MapXYZ=F SortEE=F KeepMc=T.
          MDV=      33554336 using IRadAn=       2.
 Generate precomputed XC quadrature information.
          Solving linear equations simultaneously, MaxMat=       0.
 Integrals replicated using symmetry in FoFDir.
 MinBra= 0 MaxBra= 2 Meth= 1.
 IRaf=       0 NMat=  42 IRICut=     105 DoRegI=T DoRafI=T ISym2E= 2 JSym2E=2.
          There are    42 degrees of freedom in the 1st order CPHF.  IDoFFX=5.
     36 vectors produced by pass  0 Test12= 8.97D-11 2.38D-07 XBig12= 2.04D-01 9.41D-02.
 AX will form    36 AO Fock derivatives at one time.
     36 vectors produced by pass  1 Test12= 8.97D-11 2.38D-07 XBig12= 6.60D-02 1.33D-01.
     36 vectors produced by pass  2 Test12= 8.97D-11 2.38D-07 XBig12= 1.29D-04 2.11D-03.
     36 vectors produced by pass  3 Test12= 8.97D-11 2.38D-07 XBig12= 7.45D-07 1.46D-04.
     22 vectors produced by pass  4 Test12= 8.97D-11 2.38D-07 XBig12= 1.95D-09 4.96D-06.
 Inverted reduced A of dimension   166 with in-core refinement.
 End of Minotr Frequency-dependent properties file   721 does not exist.
 End of Minotr Frequency-dependent properties file   722 does not exist.
 Leave Link 1002 at Thu Apr 07 10:34:41 2016, MaxMem=   33554432 cpu:     353.0
 (Enter c:\G09w01\l601.exe)
 Copying SCF densities to generalized density rwf, IOpCl= 0 IROHF=0.

 **********************************************************************

            Population analysis using the SCF density.

 **********************************************************************

 Orbital symmetries:
       Occupied  (A) (A) (A) (A) (A) (A) (A) (A) (A) (A) (A) (A)
                 (A) (A) (A) (A) (A) (A) (A) (A) (A) (A) (A) (A)
       Virtual   (A) (A) (A) (A) (A) (A) (A) (A) (A) (A) (A) (A)
                 (A) (A) (A) (A) (A) (A) (A) (A) (A) (A) (A) (A)
                 (A) (A) (A) (A) (A) (A) (A) (A) (A) (A) (A) (A)
                 (A) (A) (A) (A) (A) (A) (A) (A) (A) (A) (A) (A)
                 (A) (A) (A) (A) (A) (A) (A) (A) (A) (A) (A) (A)
                 (A) (A) (A) (A) (A) (A) (A) (A) (A) (A) (A) (A)
                 (A) (A) (A) (A) (A) (A) (A) (A) (A) (A) (A) (A)
                 (A) (A) (A) (A) (A) (A) (A) (A) (A) (A) (A) (A)
                 (A) (A) (A) (A) (A) (A) (A) (A) (A) (A) (A) (A)
                 (A) (A) (A) (A) (A) (A) (A) (A) (A) (A) (A) (A)
                 (A) (A) (A) (A) (A) (A) (A) (A) (A) (A) (A) (A)
                 (A) (A) (A) (A) (A) (A) (A) (A) (A) (A) (A) (A)
                 (A) (A) (A) (A) (A) (A) (A) (A) (A) (A) (A) (A)
                 (A)
 The electronic state is 1-A.
 Alpha  occ. eigenvalues --  -19.15962 -19.15845 -14.31070 -10.33081 -10.23702
 Alpha  occ. eigenvalues --  -10.17711  -1.15606  -1.00904  -0.91173  -0.76728
 Alpha  occ. eigenvalues --   -0.67747  -0.57064  -0.53976  -0.50850  -0.48774
 Alpha  occ. eigenvalues --   -0.47759  -0.44969  -0.42512  -0.42372  -0.38244
 Alpha  occ. eigenvalues --   -0.37029  -0.33067  -0.31882  -0.26392
 Alpha virt. eigenvalues --   -0.03097  -0.01170   0.00743   0.01818   0.01895
 Alpha virt. eigenvalues --    0.04409   0.05221   0.05969   0.06660   0.07201
 Alpha virt. eigenvalues --    0.07885   0.08493   0.10072   0.10966   0.11599
 Alpha virt. eigenvalues --    0.12695   0.12830   0.13618   0.14013   0.15357
 Alpha virt. eigenvalues --    0.16524   0.16703   0.17419   0.18011   0.19606
 Alpha virt. eigenvalues --    0.20623   0.20770   0.22068   0.22857   0.23937
 Alpha virt. eigenvalues --    0.24393   0.26174   0.27110   0.27740   0.27904
 Alpha virt. eigenvalues --    0.28577   0.30174   0.32342   0.34011   0.35320
 Alpha virt. eigenvalues --    0.35940   0.37223   0.39839   0.43616   0.45964
 Alpha virt. eigenvalues --    0.46166   0.49487   0.53322   0.55354   0.55711
 Alpha virt. eigenvalues --    0.57320   0.60989   0.63548   0.64703   0.66991
 Alpha virt. eigenvalues --    0.67644   0.69807   0.70157   0.73448   0.73512
 Alpha virt. eigenvalues --    0.80272   0.83722   0.84410   0.87257   0.96273
 Alpha virt. eigenvalues --    1.01323   1.04584   1.05193   1.09382   1.11310
 Alpha virt. eigenvalues --    1.12988   1.15413   1.16247   1.17294   1.19467
 Alpha virt. eigenvalues --    1.23019   1.28790   1.34223   1.37531   1.42247
 Alpha virt. eigenvalues --    1.43571   1.46893   1.52312   1.54810   1.56610
 Alpha virt. eigenvalues --    1.58716   1.60077   1.61115   1.63054   1.65608
 Alpha virt. eigenvalues --    1.69634   1.70696   1.72524   1.76875   1.79059
 Alpha virt. eigenvalues --    1.82080   1.88821   1.89940   1.92639   1.99003
 Alpha virt. eigenvalues --    2.04522   2.11422   2.13321   2.23143   2.26182
 Alpha virt. eigenvalues --    2.27098   2.35651   2.46110   2.48012   2.53252
 Alpha virt. eigenvalues --    2.53850   2.56303   2.59931   2.61395   2.63058
 Alpha virt. eigenvalues --    2.65394   2.67835   2.71111   2.75567   2.77341
 Alpha virt. eigenvalues --    2.83262   2.84862   2.87776   2.94403   2.99246
 Alpha virt. eigenvalues --    3.02329   3.04603   3.12661   3.20444   3.21700
 Alpha virt. eigenvalues --    3.24256   3.32227   3.39713   3.40630   3.52573
 Alpha virt. eigenvalues --    3.66522   3.73358   3.79471   3.80135   4.04908
 Alpha virt. eigenvalues --    4.07111   4.11559   4.20425   4.73409   4.85361
 Alpha virt. eigenvalues --    4.96319   5.03811   5.05006   5.28227   5.51542
 Alpha virt. eigenvalues --    5.79826  23.76639  23.80386  23.95447  35.58870
 Alpha virt. eigenvalues --   49.88056  49.96098
          Condensed to atoms (all electrons):
              1          2          3          4          5          6
     1  N    6.748145   0.392378   0.032201  -0.062644  -0.091251   0.021762
     2  H    0.392378   0.428270  -0.029445   0.006922   0.005869  -0.018966
     3  C    0.032201  -0.029445   6.726218   0.475518   0.135370  -0.897086
     4  H   -0.062644   0.006922   0.475518   0.520859  -0.079783  -0.086001
     5  C   -0.091251   0.005869   0.135370  -0.079783   5.426710  -0.059857
     6  C    0.021762  -0.018966  -0.897086  -0.086001  -0.059857   6.339300
     7  H   -0.013942  -0.000768   0.010425   0.009235   0.379925  -0.019747
     8  H    0.019771  -0.001776  -0.059621  -0.010504   0.411710   0.000910
     9  H   -0.013067   0.002344  -0.020786  -0.005283   0.405885  -0.007782
    10  O   -0.008580   0.005563  -0.097444   0.004610  -0.058821   0.363637
    11  H    0.390611  -0.043798  -0.065908  -0.006519  -0.000537   0.026849
    12  O   -0.008239   0.000967  -0.055737   0.003586  -0.054390   0.302665
    13  H   -0.000134   0.000075   0.020485  -0.001120   0.005503  -0.020325
              7          8          9         10         11         12
     1  N   -0.013942   0.019771  -0.013067  -0.008580   0.390611  -0.008239
     2  H   -0.000768  -0.001776   0.002344   0.005563  -0.043798   0.000967
     3  C    0.010425  -0.059621  -0.020786  -0.097444  -0.065908  -0.055737
     4  H    0.009235  -0.010504  -0.005283   0.004610  -0.006519   0.003586
     5  C    0.379925   0.411710   0.405885  -0.058821  -0.000537  -0.054390
     6  C   -0.019747   0.000910  -0.007782   0.363637   0.026849   0.302665
     7  H    0.543036  -0.036193  -0.041952   0.005763   0.002060  -0.000776
     8  H   -0.036193   0.536933  -0.022508  -0.000537  -0.000114   0.007315
     9  H   -0.041952  -0.022508   0.531398  -0.003267   0.000662  -0.002595
    10  O    0.005763  -0.000537  -0.003267   8.184824   0.001282  -0.231512
    11  H    0.002060  -0.000114   0.000662   0.001282   0.432808  -0.001154
    12  O   -0.000776   0.007315  -0.002595  -0.231512  -0.001154   8.213814
    13  H   -0.000137  -0.001404   0.000450   0.145929   0.000064   0.131585
             13
     1  N   -0.000134
     2  H    0.000075
     3  C    0.020485
     4  H   -0.001120
     5  C    0.005503
     6  C   -0.020325
     7  H   -0.000137
     8  H   -0.001404
     9  H    0.000450
    10  O    0.145929
    11  H    0.000064
    12  O    0.131585
    13  H    0.391937
 Mulliken atomic charges:
              1
     1  N   -0.407011
     2  H    0.252367
     3  C   -0.174190
     4  H    0.231123
     5  C   -0.426333
     6  C    0.054641
     7  H    0.163071
     8  H    0.156018
     9  H    0.176502
    10  O   -0.311446
    11  H    0.263693
    12  O   -0.305528
    13  H    0.327093
 Sum of Mulliken atomic charges =   0.00000
 Mulliken charges with hydrogens summed into heavy atoms:
              1
     1  N    0.109049
     3  C    0.056933
     5  C    0.069257
     6  C    0.054641
    10  O    0.015647
    12  O   -0.305528
 Sum of Mulliken charges with hydrogens summed into heavy atoms =   0.00000
 APT atomic charges:
              1
     1  N   -1.044327
     2  H    0.403241
     3  C   -0.510165
     4  H    0.444002
     5  C   -1.063172
     6  C    0.209805
     7  H    0.317588
     8  H    0.359985
     9  H    0.510621
    10  O   -0.361249
    11  H    0.647774
    12  O   -0.309172
    13  H    0.395070
 Sum of APT charges=   0.00000
 APT Atomic charges with hydrogens summed into heavy atoms:
              1
     1  N    0.006688
     2  H    0.000000
     3  C   -0.066163
     4  H    0.000000
     5  C    0.125022
     6  C    0.209805
     7  H    0.000000
     8  H    0.000000
     9  H    0.000000
    10  O    0.033821
    11  H    0.000000
    12  O   -0.309172
    13  H    0.000000
 Sum of APT charges=   0.00000
 Electronic spatial extent (au):  <R**2>=            583.5521
 Charge=              0.0000 electrons
 Dipole moment (field-independent basis, Debye):
    X=             -3.1462    Y=              1.2953    Z=              0.8691  Tot=              3.5117
 Quadrupole moment (field-independent basis, Debye-Ang):
   XX=            -32.6205   YY=            -41.1309   ZZ=            -38.6176
   XY=             -1.3159   XZ=              0.6342   YZ=             -0.2391
 Traceless Quadrupole moment (field-independent basis, Debye-Ang):
   XX=              4.8359   YY=             -3.6746   ZZ=             -1.1613
   XY=             -1.3159   XZ=              0.6342   YZ=             -0.2391
 Octapole moment (field-independent basis, Debye-Ang**2):
  XXX=             -3.9439  YYY=              3.5377  ZZZ=              0.6463  XYY=             -3.6088
  XXY=             -6.4118  XXZ=              2.2970  XZZ=             -0.8627  YZZ=              2.0407
  YYZ=              5.1466  XYZ=              6.6512
 Hexadecapole moment (field-independent basis, Debye-Ang**3):
 XXXX=           -352.7799 YYYY=           -235.2698 ZZZZ=           -107.2022 XXXY=              3.3275
 XXXZ=             17.7980 YYYX=              1.8743 YYYZ=            -12.1089 ZZZX=              0.1276
 ZZZY=             -5.8261 XXYY=           -109.4967 XXZZ=            -90.3515 YYZZ=            -61.7340
 XXYZ=              2.8528 YYXZ=             -5.4546 ZZXY=             -0.9500
 N-N= 2.499375732256D+02 E-N=-1.258142759651D+03  KE= 3.225742795316D+02
  Exact polarizability:   0.000   0.000   0.000   0.000   0.000   0.000
 Approx polarizability:  75.222   2.779  78.046  -0.749 -11.921  69.364
 No NMR shielding tensors so no spin-rotation constants.
 Leave Link  601 at Thu Apr 07 10:34:42 2016, MaxMem=   33554432 cpu:       0.0
 (Enter c:\G09w01\l701.exe)
 Compute integral second derivatives.
 ... and contract with generalized density number  0.
 D2PCM: C-PCM CHGder 2nd derivatives, FixD1E=F FixD2E=F DoIter=F DoCFld=F I1PDM=0
 GePol: Maximum number of non-zero 2nd derivatives   =     201
 Leave Link  701 at Thu Apr 07 10:35:05 2016, MaxMem=   33554432 cpu:      22.0
 (Enter c:\G09w01\l702.exe)
 L702 exits ... SP integral derivatives will be done elsewhere.
 Leave Link  702 at Thu Apr 07 10:35:06 2016, MaxMem=   33554432 cpu:       0.0
 (Enter c:\G09w01\l703.exe)
 Compute integral second derivatives, UseDBF=F ICtDFT=           0.
 Integral derivatives from FoFDir, PRISM(SPDF).
 Calling FoFJK, ICntrl=    100147 FMM=F ISym2X=0 I1Cent= 0 IOpClX= 0 NMat=1 NMatS=1 NMatT=0.
 FoFCou: FMM=F IPFlag=           0 FMFlag=      100000 FMFlg1=         800
         NFxFlg=           0 DoJE=F BraDBF=F KetDBF=F FulRan=T
         Omega=  0.000000  0.000000  1.000000  0.000000  0.000000 ICntrl=  100147 IOpCl=  0
         NMat0=    1 NMatS0=    1 NMatT0=    0 NMatD0=    1 NMtDS0=    0 NMtDT0=    0
         I1Cent=           0 NGrid=           0.
 Symmetry not used in FoFCou.
 Leave Link  703 at Thu Apr 07 10:42:35 2016, MaxMem=   33554432 cpu:     449.0
 (Enter c:\G09w01\l716.exe)
 Dipole        =-1.23782041D+00 5.09616674D-01 3.41933818D-01
 Polarizability= 0.00000000D+00 0.00000000D+00 0.00000000D+00
                 0.00000000D+00 0.00000000D+00 0.00000000D+00
 ***** Axes restored to original set *****
 -------------------------------------------------------------------
 Center     Atomic                   Forces (Hartrees/Bohr)
 Number     Number              X              Y              Z
 -------------------------------------------------------------------
      1        7           0.001692943   -0.002658907   -0.001585169
      2        1          -0.001943372    0.000973666    0.000965914
      3        6           0.000648210    0.001243445   -0.000789456
      4        1          -0.000303719    0.000169428    0.000412529
      5        6          -0.000433238   -0.000019997    0.000808508
      6        6          -0.006466371    0.001205313   -0.000535741
      7        1           0.000011453    0.000001901   -0.000129033
      8        1          -0.000056908   -0.000217249   -0.000157798
      9        1           0.000591717   -0.000433597   -0.000375228
     10        8           0.002841637   -0.000561881   -0.000385757
     11        1          -0.000274537    0.000605728    0.000876087
     12        8           0.002443176   -0.000198875    0.000171400
     13        1           0.001249009   -0.000108975    0.000723741
 -------------------------------------------------------------------
 Cartesian Forces:  Max     0.006466371 RMS     0.001467918
 Force constants in Cartesian coordinates: 
                1             2             3             4             5 
      1  0.617037D+00
      2  0.347538D-01  0.397379D+00
      3  0.130988D+00 -0.204373D+00  0.438279D+00
      4 -0.627629D-01  0.105425D-01 -0.579526D-01  0.661406D-01
      5  0.127254D-01 -0.103272D+00  0.137565D+00 -0.169368D-01  0.126808D+00
      6 -0.793252D-01  0.177863D+00 -0.333795D+00  0.734315D-01 -0.170633D+00
      7 -0.109359D+00 -0.347408D-01 -0.801492D-02  0.235087D-02  0.494378D-02
      8 -0.655344D-01 -0.183186D+00  0.392084D-01 -0.678914D-02 -0.199306D-01
      9 -0.281118D-01  0.384491D-02 -0.806487D-01  0.186495D-01  0.324285D-01
     10  0.263196D-02 -0.112306D-01  0.155438D-01 -0.196211D-02 -0.257377D-02
     11  0.124790D-02 -0.216896D-01  0.292232D-01 -0.463582D-02 -0.357745D-02
     12  0.167208D-02  0.294707D-02  0.319017D-02  0.501234D-03 -0.102118D-02
     13  0.648965D-02 -0.178958D-01 -0.972187D-02 -0.191760D-03  0.514980D-03
     14  0.512838D-02 -0.379155D-01 -0.207794D-01  0.369435D-03  0.104472D-02
     15 -0.202135D-02 -0.145846D-02  0.432844D-02 -0.440900D-03  0.974836D-03
     16 -0.227788D-01 -0.836882D-02 -0.203455D-02  0.529068D-03 -0.531887D-03
     17 -0.383909D-01 -0.226236D-02 -0.962194D-02 -0.281208D-02  0.313243D-03
     18 -0.716912D-03 -0.586968D-03  0.609151D-04  0.285342D-02  0.146985D-02
     19 -0.305219D-05 -0.643380D-03 -0.123334D-02  0.256199D-03  0.196325D-03
     20 -0.107221D-03  0.289125D-02  0.121136D-02  0.285074D-04 -0.306667D-03
     21 -0.564001D-03  0.142977D-03  0.245460D-02 -0.267974D-03 -0.649044D-03
     22  0.293872D-03  0.272097D-02  0.180558D-02 -0.867538D-05 -0.138702D-03
     23  0.142985D-02 -0.530653D-02 -0.428697D-02 -0.162734D-03  0.568493D-03
     24  0.144858D-02 -0.493229D-02 -0.154664D-02  0.596262D-04 -0.473526D-03
     25  0.205483D-02 -0.617990D-03 -0.179448D-03  0.234888D-04 -0.140859D-04
     26 -0.136897D-04  0.256751D-02  0.101992D-02  0.626465D-04 -0.687839D-04
     27 -0.220066D-03  0.221877D-02  0.581996D-03 -0.106828D-04 -0.151962D-03
     28 -0.150669D-02  0.205957D-02 -0.970114D-03  0.177716D-02  0.858431D-03
     29 -0.177267D-02  0.943956D-03 -0.772491D-03  0.180343D-02  0.581942D-03
     30  0.963906D-03  0.598505D-03  0.127481D-04 -0.890678D-03 -0.730686D-03
     31 -0.422765D+00  0.227452D-01 -0.655891D-01 -0.526136D-02  0.104518D-02
     32  0.495837D-01 -0.489777D-01  0.314462D-01  0.184846D-01 -0.219198D-02
     33 -0.249971D-01  0.244326D-01 -0.341200D-01 -0.355776D-01  0.153385D-02
     34 -0.942585D-02  0.617554D-03 -0.280400D-02 -0.824492D-04  0.225459D-03
     35  0.128925D-02 -0.179041D-03 -0.127577D-03  0.167936D-02  0.664244D-03
     36 -0.277051D-03 -0.126476D-02  0.106339D-02 -0.152402D-02 -0.730827D-03
     37  0.941461D-04  0.576668D-04  0.162966D-03 -0.808145D-03 -0.314321D-03
     38 -0.339449D-03 -0.992269D-03  0.287077D-03 -0.163396D-02 -0.632958D-03
     39  0.116138D-02  0.567334D-03  0.138836D-03  0.116916D-02  0.417950D-03
                6             7             8             9            10 
      6  0.338033D+00
      7  0.271003D-02  0.489923D+00
      8 -0.528032D-02  0.234522D-01  0.459300D+00
      9 -0.260973D-02  0.320360D-01 -0.861911D-01  0.564742D+00
     10  0.747126D-03 -0.533038D-01  0.424039D-02 -0.171703D-01  0.579723D-01
     11  0.985674D-03  0.315065D-02 -0.711133D-01  0.777423D-01 -0.349969D-02
     12  0.157497D-02 -0.192214D-01  0.826349D-01 -0.277064D+00  0.167627D-01
     13 -0.602969D-03 -0.927286D-01  0.301154D-01  0.292177D-01  0.180890D-02
     14 -0.941789D-03  0.134285D-01 -0.989280D-01 -0.293853D-01 -0.259998D-02
     15  0.179694D-02  0.184071D-01 -0.292784D-01 -0.110927D+00  0.155838D-01
     16 -0.523838D-03 -0.189626D+00 -0.142612D-02 -0.319419D-01 -0.154563D-02
     17  0.130182D-02  0.152617D-01 -0.778225D-01  0.229085D-02  0.107792D-01
     18 -0.197937D-03 -0.298100D-01 -0.297391D-02 -0.941083D-01 -0.343150D-01
     19 -0.260808D-03 -0.124030D-02 -0.432479D-02  0.140033D-01 -0.390781D-03
     20  0.199627D-03 -0.537948D-03  0.541217D-02 -0.236569D-01  0.213521D-02
     21  0.183805D-03  0.888604D-03  0.615867D-02 -0.196498D-01  0.210445D-02
     22  0.328326D-04  0.579780D-02  0.114123D-01 -0.303149D-02  0.450913D-03
     23 -0.238423D-03 -0.100237D-01 -0.154581D-01  0.516027D-02 -0.670435D-04
     24 -0.348783D-03 -0.114221D-01 -0.148838D-01  0.267585D-02 -0.541690D-03
     25 -0.464723D-04 -0.134855D-01  0.148508D-02 -0.239957D-02  0.521365D-03
     26  0.293298D-04  0.244034D-01 -0.695286D-02  0.294730D-02 -0.958215D-03
     27 -0.170305D-04  0.233486D-01 -0.552370D-02  0.240421D-02 -0.207078D-03
     28 -0.625228D-03 -0.534778D-02  0.253327D-01 -0.269791D-01 -0.804571D-02
     29 -0.859210D-03  0.357980D-02 -0.138137D-02  0.102017D-01  0.162311D-02
     30 -0.803423D-04 -0.453494D-02  0.126415D-01  0.393172D-02 -0.269405D-03
     31  0.414775D-02 -0.147904D-01  0.464762D-02  0.626781D-03  0.162439D-05
     32 -0.218027D-02 -0.391260D-01 -0.124254D-02 -0.722919D-02  0.378731D-03
     33 -0.468765D-02  0.579408D-04 -0.378621D-02 -0.115705D-02  0.148132D-03
     34  0.129515D-03 -0.181440D-01 -0.201983D-01  0.153332D-01  0.134553D-02
     35 -0.322459D-03 -0.194252D-02  0.120442D-01  0.406176D-02 -0.329121D-03
     36  0.422332D-03 -0.421580D-02  0.779984D-03  0.110658D-01  0.242278D-02
     37  0.185722D-03 -0.455851D-04 -0.241288D-02 -0.232148D-03  0.515468D-03
     38  0.756646D-04 -0.184910D-02 -0.740862D-03  0.778479D-02  0.210174D-02
     39 -0.274464D-03 -0.229043D-03  0.649406D-02  0.134533D-02 -0.809259D-03
               11            12            13            14            15 
     11  0.932881D-01
     12 -0.874620D-01  0.298989D+00
     13 -0.584823D-03 -0.674864D-03  0.551771D+00
     14  0.569853D-02  0.276192D-02  0.388954D-01  0.502166D+00
     15 -0.231081D-01 -0.209446D-01  0.297983D-01 -0.607101D-01  0.518304D+00
     16  0.360270D-02 -0.174299D-03 -0.164310D-01  0.211961D-01  0.103621D-01
     17 -0.294294D-02  0.300515D-02  0.261060D-01 -0.618206D-02  0.321744D-02
     18  0.493534D-02 -0.839098D-02  0.243238D-01 -0.905483D-03  0.668109D-02
     19  0.212690D-02  0.163463D-02 -0.486354D-01  0.576913D-02 -0.184676D-01
     20 -0.264608D-02 -0.302172D-02  0.465740D-02 -0.722848D-01  0.780760D-01
     21 -0.300155D-02 -0.887702D-03 -0.179250D-01  0.760003D-01 -0.283449D+00
     22 -0.454918D-03 -0.278171D-03 -0.108055D+00 -0.111315D+00  0.139495D-01
     23  0.672732D-03 -0.156438D-03 -0.109211D+00 -0.246029D+00  0.237737D-01
     24  0.706664D-03  0.442537D-03  0.146368D-01  0.252835D-01 -0.512024D-01
     25 -0.278431D-03  0.183694D-03 -0.292102D+00  0.333972D-01 -0.609253D-01
     26  0.794083D-03  0.554096D-03  0.319339D-01 -0.493019D-01  0.967701D-02
     27  0.936165D-03  0.123861D-02 -0.624230D-01  0.922377D-02 -0.605795D-01
     28  0.760233D-03 -0.153470D-02 -0.194383D-02 -0.212534D-02 -0.335264D-02
     29  0.143279D-02 -0.119326D-02 -0.130459D-02  0.195092D-02  0.922507D-03
     30 -0.156278D-03  0.692305D-03 -0.295369D-02 -0.139045D-02 -0.342351D-02
     31 -0.697289D-04  0.113067D-03  0.210394D-02  0.150385D-02 -0.259789D-03
     32  0.651196D-03  0.439085D-03 -0.765115D-03  0.234761D-02 -0.244391D-03
     33 -0.112493D-03 -0.264766D-04 -0.343242D-03  0.927743D-03 -0.123421D-03
     34 -0.149663D-02  0.102692D-02 -0.221111D-02 -0.381155D-02 -0.283976D-02
     35  0.142834D-03 -0.691953D-03 -0.147640D-02 -0.250288D-02 -0.182864D-02
     36 -0.870638D-03  0.181223D-02 -0.217028D-02 -0.237955D-03  0.995212D-04
     37  0.131663D-03 -0.108990D-04  0.124423D-03  0.163933D-03  0.206609D-03
     38 -0.710904D-03  0.120425D-02 -0.985730D-03 -0.628529D-04 -0.133826D-04
     39  0.181717D-03 -0.626093D-03 -0.116175D-02  0.153317D-03 -0.560446D-03
               16            17            18            19            20 
     16  0.788835D+00
     17  0.350312D-01  0.502262D+00
     18  0.771784D-01 -0.211178D+00  0.414084D+00
     19  0.980726D-03 -0.773375D-03  0.190406D-02  0.487193D-01
     20 -0.110804D-02  0.821008D-03 -0.806063D-03 -0.824047D-02  0.750478D-01
     21 -0.228827D-02  0.677645D-03 -0.111525D-02  0.171122D-01 -0.813677D-01
     22 -0.268908D-03  0.819792D-03 -0.506109D-03  0.898741D-03  0.343951D-02
     23 -0.157917D-02 -0.129303D-02  0.231946D-03 -0.362754D-02 -0.698106D-02
     24 -0.162033D-03 -0.183339D-03  0.543285D-03  0.150961D-01  0.261763D-01
     25  0.206675D-02  0.895966D-03  0.256083D-02 -0.455799D-03 -0.577502D-04
     26 -0.187947D-02 -0.340963D-02 -0.399875D-02  0.936643D-02 -0.191874D-02
     27 -0.167931D-02 -0.335044D-02 -0.381554D-02 -0.294444D-01  0.310651D-02
     28 -0.171766D+00  0.462667D-01 -0.537125D-01  0.338459D-03 -0.333720D-03
     29  0.923321D-01 -0.262969D+00  0.168802D+00  0.172401D-03 -0.159392D-03
     30 -0.952727D-01  0.160436D+00 -0.227820D+00 -0.201809D-03  0.136684D-03
     31  0.637144D-03 -0.209312D-02  0.125254D-02  0.559444D-04 -0.166466D-03
     32 -0.441048D-03 -0.711214D-02  0.126275D-02  0.137188D-03 -0.123098D-03
     33 -0.435776D-03  0.114062D-02 -0.333515D-03 -0.701448D-04 -0.813941D-04
     34 -0.293424D+00 -0.121415D+00  0.576047D-01 -0.414696D-03  0.226842D-03
     35 -0.166273D+00 -0.233718D+00  0.949024D-01  0.944816D-04  0.389714D-04
     36  0.946498D-01  0.102864D+00 -0.144120D+00 -0.287069D-03  0.180373D-03
     37 -0.972073D-01  0.303240D-01 -0.486172D-01 -0.109336D-03  0.641486D-04
     38  0.294456D-01  0.943150D-01 -0.511550D-01 -0.253295D-03  0.208644D-03
     39 -0.476775D-01 -0.505996D-01  0.585326D-01  0.214859D-03 -0.153123D-03
               21            22            23            24            25 
     21  0.308684D+00
     22 -0.292977D-04  0.113628D+00
     23  0.554702D-03  0.120046D+00  0.267333D+00
     24 -0.113086D-02 -0.161267D-01 -0.250289D-01  0.501375D-01
     25 -0.239732D-03 -0.130497D-01  0.215996D-02 -0.330805D-02  0.315276D+00
     26  0.186723D-02 -0.269866D-01  0.513929D-02 -0.719022D-02 -0.375144D-01
     27 -0.598594D-02  0.369537D-02 -0.672823D-03  0.764484D-04  0.649987D-01
     28  0.420847D-03  0.216864D-04  0.607893D-03  0.181119D-03 -0.471169D-03
     29 -0.406369D-03 -0.120073D-03  0.251590D-03  0.818348D-04  0.171410D-03
     30  0.772765D-03  0.183420D-03 -0.159730D-03 -0.285837D-05 -0.333895D-03
     31 -0.919683D-04  0.581813D-04  0.453376D-03  0.393173D-03  0.463866D-03
     32 -0.117187D-03  0.310998D-03  0.385662D-03  0.459646D-03  0.551905D-03
     33  0.110030D-04  0.232282D-03  0.506838D-03  0.273931D-03  0.259046D-04
     34  0.745957D-03  0.234567D-03 -0.248305D-04 -0.245396D-03 -0.886182D-03
     35 -0.345776D-04  0.995019D-04  0.112772D-02  0.156512D-03  0.612541D-04
     36  0.282481D-03  0.159505D-03 -0.604356D-04 -0.491856D-04 -0.319072D-03
     37  0.134147D-03 -0.162682D-05  0.000000D+00 -0.951336D-05  0.441515D-04
     38  0.174964D-03  0.166572D-03 -0.410029D-03 -0.172367D-03 -0.240023D-03
     39 -0.170036D-03 -0.867255D-04  0.376216D-03  0.131103D-03 -0.175660D-04
               26            27            28            29            30 
     26  0.525211D-01
     27 -0.617026D-02  0.640425D-01
     28  0.119592D-02  0.114017D-02  0.113418D+00
     29  0.336068D-04 -0.144570D-03 -0.772912D-01  0.370933D+00
     30  0.823008D-03  0.143237D-02  0.752234D-01 -0.276386D+00  0.292378D+00
     31 -0.606712D-03 -0.449851D-03  0.618524D-04 -0.248292D-03  0.414472D-04
     32 -0.414882D-03 -0.195113D-03  0.900045D-03  0.123228D-02 -0.150123D-03
     33 -0.333494D-03  0.119692D-03 -0.138758D-03 -0.270608D-03  0.427569D-03
     34  0.103147D-02  0.122768D-02  0.832629D-01 -0.157419D-01  0.204265D-01
     35  0.986828D-03  0.522938D-03 -0.712482D-01 -0.949642D-01  0.106307D+00
     36  0.364779D-03  0.311591D-03  0.648951D-01  0.116482D+00 -0.333222D-01
     37 -0.347202D-04  0.238351D-04 -0.979798D-02 -0.320347D-02  0.761846D-02
     38  0.244160D-04  0.200712D-03  0.730170D-01 -0.178860D-01 -0.196946D-02
     39  0.410049D-03  0.190613D-03 -0.545475D-01 -0.164577D-01 -0.349984D-01
               31            32            33            34            35 
     31  0.440595D+00
     32 -0.269745D-01  0.551510D-01
     33  0.600085D-01 -0.236600D-01  0.393172D-01
     34 -0.114547D-02 -0.257953D-02  0.760910D-03  0.283810D+00
     35 -0.114344D-03  0.906050D-03 -0.410028D-03  0.223960D+00  0.324128D+00
     36 -0.346317D-03 -0.494021D-03  0.536874D-03 -0.140447D+00 -0.181332D+00
     37 -0.150199D-04 -0.460996D-03  0.329051D-03 -0.429188D-01  0.141996D-01
     38 -0.122079D-03 -0.611477D-03  0.112604D-03 -0.607937D-01 -0.867517D-02
     39  0.153795D-03  0.662561D-03 -0.238114D-03  0.490809D-01 -0.212037D-01
               36            37            38            39 
     36  0.172597D+00
     37 -0.125404D-01  0.150126D+00
     38 -0.356807D-01 -0.385136D-01 -0.638256D-01
     39 -0.106997D-01  0.527493D-01  0.791509D-01 -0.127712D-01
 Leave Link  716 at Thu Apr 07 10:42:36 2016, MaxMem=   33554432 cpu:       1.0
 (Enter c:\G09w01\l103.exe)

 GradGradGradGradGradGradGradGradGradGradGradGradGradGradGradGradGradGrad
 Berny optimization.
 Red2BG is reusing G-inverse.
 Internal  Forces:  Max     0.002434646 RMS     0.000787673
 Search for a saddle point.
 Step number   1 out of a maximum of   67
 All quantities printed in internal units (Hartrees-Bohrs-Radians)
 Swaping is turned off.
 Second derivative matrix not updated -- analytic derivatives used.
 ITU=  0
     Eigenvalues ---   -0.09875   0.00089   0.00203   0.00262   0.02615
     Eigenvalues ---    0.03335   0.04271   0.04444   0.04683   0.04818
     Eigenvalues ---    0.05596   0.07468   0.08154   0.11923   0.12433
     Eigenvalues ---    0.13497   0.14140   0.15606   0.16037   0.18020
     Eigenvalues ---    0.18899   0.21801   0.26583   0.29921   0.32815
     Eigenvalues ---    0.33411   0.33476   0.34189   0.36432   0.44774
     Eigenvalues ---    0.45233   0.46276   0.54088
 Eigenvectors required to have negative eigenvalues:
                          R14       R13       A21       R10       R11
   1                   -0.64477   0.64377   0.37583  -0.10041   0.09972
                          A17       A16       A20       A8        A6
   1                    0.05640  -0.05626  -0.03131   0.01413  -0.01070
 RFO step:  Lambda0=7.186643023D-07 Lambda=-8.55712548D-04.
 Linear search not attempted -- option 19 set.
 Iteration  1 RMS(Cart)=  0.05940834 RMS(Int)=  0.00422873
 Iteration  2 RMS(Cart)=  0.00379758 RMS(Int)=  0.00021773
 Iteration  3 RMS(Cart)=  0.00001348 RMS(Int)=  0.00021738
 Iteration  4 RMS(Cart)=  0.00000001 RMS(Int)=  0.00021738
 Variable       Old X    -DE/DX   Delta X   Delta X   Delta X     New X
                                 (Linear)    (Quad)   (Total)
    R1        1.91897   0.00007   0.00000   0.00288   0.00288   1.92185
    R2        2.75875   0.00121   0.00000   0.00688   0.00688   2.76563
    R3        1.91645   0.00021   0.00000   0.00318   0.00318   1.91963
    R4        2.06644  -0.00031   0.00000  -0.00122  -0.00122   2.06522
    R5        2.92376  -0.00042   0.00000  -0.00099  -0.00099   2.92278
    R6        2.83795   0.00003   0.00000  -0.00222  -0.00222   2.83573
    R7        2.06550  -0.00013   0.00000  -0.00043  -0.00043   2.06507
    R8        2.06530  -0.00020   0.00000  -0.00105  -0.00105   2.06425
    R9        2.06491  -0.00055   0.00000  -0.00192  -0.00192   2.06300
   R10        2.40940   0.00139   0.00000   0.00290   0.00293   2.41232
   R11        2.40667   0.00164   0.00000   0.00687   0.00687   2.41354
   R12        2.86610   0.00243   0.00000   0.01234   0.01234   2.87844
   R13        2.46355  -0.00095   0.00000  -0.00151  -0.00157   2.46198
   R14        2.47372  -0.00047   0.00000  -0.00436  -0.00432   2.46939
    A1        1.93826  -0.00032   0.00000  -0.01497  -0.01550   1.92276
    A2        1.89308  -0.00053   0.00000  -0.02954  -0.03066   1.86242
    A3        1.93268  -0.00125   0.00000  -0.02739  -0.02793   1.90474
    A4        1.89222   0.00036   0.00000  -0.00594  -0.00596   1.88626
    A5        2.02267  -0.00120   0.00000  -0.00541  -0.00546   2.01721
    A6        1.90363   0.00074   0.00000   0.00943   0.00944   1.91307
    A7        1.89164   0.00012   0.00000  -0.00095  -0.00099   1.89065
    A8        1.85848  -0.00035   0.00000  -0.00145  -0.00144   1.85705
    A9        1.88850   0.00036   0.00000   0.00452   0.00452   1.89302
   A10        1.93152   0.00016   0.00000   0.00055   0.00055   1.93207
   A11        1.94391  -0.00010   0.00000   0.00029   0.00029   1.94420
   A12        1.90448  -0.00089   0.00000  -0.00667  -0.00667   1.89781
   A13        1.90011   0.00012   0.00000   0.00085   0.00085   1.90096
   A14        1.89270   0.00036   0.00000   0.00222   0.00221   1.89491
   A15        1.88997   0.00036   0.00000   0.00289   0.00289   1.89286
   A16        2.17997   0.00141   0.00000   0.01302   0.01289   2.19286
   A17        2.18214   0.00093   0.00000  -0.00229  -0.00218   2.17996
   A18        1.91955  -0.00231   0.00000  -0.01035  -0.01035   1.90920
   A19        1.85111   0.00029   0.00000  -0.00109  -0.00111   1.85000
   A20        3.09798  -0.00010   0.00000   0.00235   0.00201   3.09999
   A21        3.12922   0.00024   0.00000   0.00742   0.00754   3.13676
    D1        2.95789   0.00147   0.00000   0.17871   0.17838   3.13627
    D2       -1.19462   0.00108   0.00000   0.16904   0.16875  -1.02587
    D3        0.94092   0.00129   0.00000   0.17862   0.17831   1.11922
    D4       -1.22092  -0.00024   0.00000   0.11308   0.11337  -1.10755
    D5        0.90976  -0.00063   0.00000   0.10340   0.10373   1.01349
    D6        3.04529  -0.00042   0.00000   0.11298   0.11329  -3.12460
    D7        1.04616   0.00016   0.00000   0.00801   0.00800   1.05416
    D8       -3.12073   0.00035   0.00000   0.00966   0.00966  -3.11108
    D9       -1.03517   0.00017   0.00000   0.00913   0.00912  -1.02605
   D10       -3.10604  -0.00010   0.00000  -0.00430  -0.00430  -3.11034
   D11       -0.98975   0.00009   0.00000  -0.00265  -0.00265  -0.99239
   D12        1.09582  -0.00009   0.00000  -0.00319  -0.00318   1.09263
   D13       -1.09736  -0.00026   0.00000  -0.00415  -0.00415  -1.10150
   D14        1.01894  -0.00007   0.00000  -0.00250  -0.00249   1.01644
   D15        3.10450  -0.00025   0.00000  -0.00304  -0.00303   3.10147
   D16       -0.57819   0.00095   0.00000   0.09389   0.09394  -0.48425
   D17        2.62873   0.00041   0.00000   0.08604   0.08596   2.71468
   D18       -2.61674   0.00034   0.00000   0.09687   0.09694  -2.51980
   D19        0.59018  -0.00020   0.00000   0.08902   0.08895   0.67913
   D20        1.63614   0.00020   0.00000   0.09650   0.09659   1.73273
   D21       -1.44012  -0.00034   0.00000   0.08865   0.08861  -1.35152
   D22       -0.00295   0.00067   0.00000   0.00428   0.00403   0.00107
         Item               Value     Threshold  Converged?
 Maximum Force            0.002435     0.000450     NO 
 RMS     Force            0.000788     0.000300     NO 
 Maximum Displacement     0.234667     0.001800     NO 
 RMS     Displacement     0.059139     0.001200     NO 
 Predicted change in Energy=-5.055330D-04
 GradGradGradGradGradGradGradGradGradGradGradGradGradGradGradGradGradGrad

 Leave Link  103 at Thu Apr 07 10:42:36 2016, MaxMem=   33554432 cpu:       0.0
 (Enter c:\G09w01\l202.exe)
                          Input orientation:                          
 ---------------------------------------------------------------------
 Center     Atomic      Atomic             Coordinates (Angstroms)
 Number     Number       Type             X           Y           Z
 ---------------------------------------------------------------------
      1          7           0       -1.339281   -1.205880   -0.347956
      2          1           0       -1.293181   -1.576409    0.598019
      3          6           0       -0.696924    0.107792   -0.407121
      4          1           0       -0.760911    0.470483   -1.436065
      5          6           0       -1.294783    1.186105    0.526679
      6          6           0        0.764671   -0.031838   -0.097200
      7          1           0       -1.221426    0.875685    1.571880
      8          1           0       -0.785655    2.144922    0.405452
      9          1           0       -2.349016    1.320676    0.277135
     10          8           0        1.286903   -0.939721    0.632588
     11          1           0       -2.324391   -1.105326   -0.574542
     12          8           0        1.673453    0.780440   -0.478689
     13          1           0        2.240803   -0.132103    0.264930
 ---------------------------------------------------------------------
                    Distance matrix (angstroms):
                    1          2          3          4          5
     1  N    0.000000
     2  H    1.016999   0.000000
     3  C    1.463508   2.049966   0.000000
     4  H    2.080549   2.934378   1.092870   0.000000
     5  C    2.547265   2.763435   1.546666   2.156270   0.000000
     6  C    2.422368   2.665292   1.500602   2.091001   2.472642
     7  H    2.834180   2.639379   2.186597   3.069853   1.092788
     8  H    3.478793   3.760714   2.195005   2.489085   1.092355
     9  H    2.791736   3.100138   2.160718   2.485953   1.091690
    10  O    2.815874   2.657706   2.472620   3.234431   3.345961
    11  H    1.015822   1.631017   2.036746   2.381148   2.742888
    12  O    3.610973   3.938902   2.465008   2.634155   3.160025
    13  H    3.787562   3.832233   3.023151   3.502396   3.782400
                    6          7          8          9         10
     6  C    0.000000
     7  H    2.748455   0.000000
     8  H    2.719275   1.778037   0.000000
     9  H    3.415328   1.773651   1.771988   0.000000
    10  O    1.276546   3.235689   3.723186   4.296004   0.000000
    11  H    3.304926   3.122189   3.727226   2.571274   3.811304
    12  O    1.277190   3.548835   2.948005   4.128363   2.084061
    13  H    1.523206   3.835464   3.789992   4.814265   1.302822
                   11         12         13
    11  H    0.000000
    12  O    4.421319   0.000000
    13  H    4.742665   1.306747   0.000000
 Stoichiometry    C3H7NO2
 Framework group  C1[X(C3H7NO2)]
 Deg. of freedom    33
 Full point group                 C1      NOp   1
 Largest Abelian subgroup         C1      NOp   1
 Largest concise Abelian subgroup C1      NOp   1
                         Standard orientation:                         
 ---------------------------------------------------------------------
 Center     Atomic      Atomic             Coordinates (Angstroms)
 Number     Number       Type             X           Y           Z
 ---------------------------------------------------------------------
      1          7           0       -1.358255   -1.195083   -0.338180
      2          1           0       -1.316720   -1.555975    0.611724
      3          6           0       -0.704758    0.112440   -0.410164
      4          1           0       -0.764119    0.464769   -1.442979
      5          6           0       -1.294926    1.205548    0.511245
      6          6           0        0.755135   -0.036201   -0.096434
      7          1           0       -1.225779    0.905578    1.559779
      8          1           0       -0.777549    2.158714    0.380731
      9          1           0       -2.347605    1.346341    0.258597
     10          8           0        1.268584   -0.940687    0.643731
     11          1           0       -2.342137   -1.088643   -0.567401
     12          8           0        1.671312    0.764327   -0.485005
     13          1           0        2.229816   -0.145051    0.269111
 ---------------------------------------------------------------------
 Rotational constants (GHZ):      5.3197437      2.9372821      2.2806672
 Leave Link  202 at Thu Apr 07 10:42:36 2016, MaxMem=   33554432 cpu:       0.0
 (Enter c:\G09w01\l301.exe)
 Standard basis: 6-311++G(d,p) (5D, 7F)
 Ernie: Thresh=  0.10000D-02 Tol=  0.10000D-05 Strict=F.
 There are   181 symmetry adapted basis functions of A   symmetry.
 Integral buffers will be    262144 words long.
 Raffenetti 2 integral format.
 Two-electron integral symmetry is turned on.
   181 basis functions,   279 primitive gaussians,   187 cartesian basis functions
    24 alpha electrons       24 beta electrons
       nuclear repulsion energy       249.5633383678 Hartrees.
 IExCor=  402 DFT=T Ex+Corr=B3LYP ExCW=0 ScaHFX=  0.200000
 ScaDFX=  0.800000  0.720000  1.000000  0.810000 ScalE2=  1.000000  1.000000
 IRadAn=      0 IRanWt=     -1 IRanGd=            0 ICorTp=0
 NAtoms=   13 NActive=   13 NUniq=   13 SFac= 1.00D+00 NAtFMM=   50 NAOKFM=F Big=F
 ------------------------------------------------------------------------------
 Polarizable Continuum Model (PCM)
 =================================
 Model                : C-PCM.
 Atomic radii         : UFF (Universal Force Field).
 Polarization charges : Total charges.
 Charge compensation  : None.
 Solution method      : Matrix inversion.
 Cavity type          : Scaled VdW (van der Waals Surface) (Alpha=1.100).
 Cavity algorithm     : GePol (No added spheres)
                        Default sphere list used, NSphG=   13.
                        Lebedev-Laikov grids with approx.  5.0 points / Ang**2.
                        Smoothing algorithm: Karplus/York (Gamma=1.0000).
                        Polarization charges: spherical gaussians, with
                                              point-specific exponents (IZeta= 3).
                        Self-potential: point-specific (ISelfS= 7).
                        Self-field    : sphere-specific E.n sum rule (ISelfD= 2).
 1st derivatives      : Analytical E(r).r(x)/FMM algorithm (CHGder, D1EAlg=3).
                        Cavity 1st derivative terms included.
 Solvent              : Water, Eps=  78.355300 Eps(inf)=   1.777849
 ------------------------------------------------------------------------------
 Spheres list:
 ISph  on   Nord    Re0     Alpha      Xe            Ye            Ze
    1   N      1    1.830   1.100     -1.358255     -1.195083     -0.338180
    2   H      2    1.443   1.100     -1.316720     -1.555975      0.611724
    3   C      3    1.926   1.100     -0.704758      0.112440     -0.410164
    4   H      4    1.443   1.100     -0.764119      0.464769     -1.442979
    5   C      5    1.926   1.100     -1.294926      1.205548      0.511245
    6   C      6    1.926   1.100      0.755135     -0.036201     -0.096434
    7   H      7    1.443   1.100     -1.225779      0.905578      1.559779
    8   H      8    1.443   1.100     -0.777549      2.158714      0.380731
    9   H      9    1.443   1.100     -2.347605      1.346341      0.258597
   10   O     10    1.750   1.100      1.268584     -0.940687      0.643731
   11   H     11    1.443   1.100     -2.342137     -1.088643     -0.567401
   12   O     12    1.750   1.100      1.671312      0.764327     -0.485005
   13   H     13    1.443   1.100      2.229816     -0.145051      0.269111
 ------------------------------------------------------------------------------
 GePol: Number of generator spheres                  =      13
 GePol: Total number of spheres                      =      13
 GePol: Number of exposed spheres                    =      13 (100.00%)
 GePol: Number of points                             =    1097
 GePol: Average weight of points                     =       0.14
 GePol: Minimum weight of points                     =   0.16D-08
 GePol: Maximum weight of points                     =    0.20577
 GePol: Number of points with low weight             =      65
 GePol: Fraction of low-weight points (<1% of avg)   =       5.93%
 GePol: Cavity surface area                          =    150.311 Ang**2
 GePol: Cavity volume                                =    137.925 Ang**3
 Leave Link  301 at Thu Apr 07 10:42:36 2016, MaxMem=   33554432 cpu:       0.0
 (Enter c:\G09w01\l302.exe)
 NPDir=0 NMtPBC=     1 NCelOv=     1 NCel=       1 NClECP=     1 NCelD=      1
         NCelK=      1 NCelE2=     1 NClLst=     1 CellRange=     0.0.
 One-electron integrals computed using PRISM.
 NBasis=   181 RedAO= T  NBF=   181
 NBsUse=   181 1.00D-06 NBFU=   181
 Precomputing XC quadrature grid using
 IXCGrd= 2 IRadAn=           0 IRanWt=          -1 IRanGd=           0 AccXCQ= 0.00D+00.
 NRdTot=     842 NPtTot=      106620 NUsed=      110552 NTot=      110568
 NSgBfM=   187   187   187   187   187 NAtAll=    13    13.
 Leave Link  302 at Thu Apr 07 10:42:37 2016, MaxMem=   33554432 cpu:       1.0
 (Enter c:\G09w01\l303.exe)
 DipDrv:  MaxL=1.
 Leave Link  303 at Thu Apr 07 10:42:37 2016, MaxMem=   33554432 cpu:       0.0
 (Enter c:\G09w01\l401.exe)
 Initial guess read from the read-write file.
 B after Tr=     0.000000    0.000000    0.000000
         Rot=    1.000000    0.000000    0.000000    0.000000 Ang=   0.00 deg.
 Guess basis will be translated and rotated to current coordinates.
 Initial guess orbital symmetries:
       Occupied  (A) (A) (A) (A) (A) (A) (A) (A) (A) (A) (A) (A)
                 (A) (A) (A) (A) (A) (A) (A) (A) (A) (A) (A) (A)
       Virtual   (A) (A) (A) (A) (A) (A) (A) (A) (A) (A) (A) (A)
                 (A) (A) (A) (A) (A) (A) (A) (A) (A) (A) (A) (A)
                 (A) (A) (A) (A) (A) (A) (A) (A) (A) (A) (A) (A)
                 (A) (A) (A) (A) (A) (A) (A) (A) (A) (A) (A) (A)
                 (A) (A) (A) (A) (A) (A) (A) (A) (A) (A) (A) (A)
                 (A) (A) (A) (A) (A) (A) (A) (A) (A) (A) (A) (A)
[...]
   A18        1.90826   0.00000   0.00000   0.00000   0.00000   1.90826
   A19        1.85103   0.00000   0.00000   0.00000   0.00000   1.85103
   A20        3.10595   0.00000   0.00000   0.00006   0.00006   3.10602
   A21        3.14333   0.00000   0.00000   0.00017   0.00017   3.14349
    D1       -3.07843   0.00000   0.00000  -0.00030  -0.00030  -3.07872
    D2       -0.96254   0.00000   0.00000  -0.00028  -0.00028  -0.96282
    D3        1.19419   0.00000   0.00000  -0.00019  -0.00019   1.19400
    D4       -1.03284   0.00000   0.00000  -0.00027  -0.00027  -1.03311
    D5        1.08305   0.00000   0.00000  -0.00026  -0.00026   1.08280
    D6       -3.04340   0.00000   0.00000  -0.00017  -0.00017  -3.04357
    D7        1.05810   0.00000   0.00000   0.00004   0.00004   1.05814
    D8       -3.10899   0.00000   0.00000   0.00004   0.00004  -3.10894
    D9       -1.02156   0.00000   0.00000   0.00004   0.00004  -1.02152
   D10       -3.11155   0.00000   0.00000   0.00003   0.00003  -3.11152
   D11       -0.99545   0.00000   0.00000   0.00003   0.00003  -0.99542
   D12        1.09198   0.00000   0.00000   0.00002   0.00002   1.09200
   D13       -1.11078   0.00000   0.00000   0.00000   0.00000  -1.11078
   D14        1.00532   0.00000   0.00000   0.00000   0.00000   1.00532
   D15        3.09274   0.00000   0.00000   0.00000   0.00000   3.09274
   D16       -0.35875   0.00000   0.00000   0.00005   0.00005  -0.35870
   D17        2.83035  -0.00001   0.00000  -0.00010  -0.00010   2.83025
   D18       -2.39102   0.00000   0.00000   0.00015   0.00015  -2.39087
   D19        0.79809   0.00000   0.00000   0.00000   0.00000   0.79809
   D20        1.86625   0.00000   0.00000   0.00013   0.00013   1.86638
   D21       -1.22784   0.00000   0.00000  -0.00001  -0.00001  -1.22785
   D22       -0.00002   0.00000   0.00000   0.00001   0.00001  -0.00001
         Item               Value     Threshold  Converged?
 Maximum Force            0.000009     0.000450     YES
 RMS     Force            0.000003     0.000300     YES
 Maximum Displacement     0.000311     0.001800     YES
 RMS     Displacement     0.000091     0.001200     YES
 Predicted change in Energy=-2.151605D-09
 Optimization completed.
    -- Stationary point found.
                           ----------------------------
                           !   Optimized Parameters   !
                           ! (Angstroms and Degrees)  !
 --------------------------                            --------------------------
 ! Name  Definition              Value          Derivative Info.                !
 --------------------------------------------------------------------------------
 ! R1    R(1,2)                  1.0168         -DE/DX =    0.0                 !
 ! R2    R(1,3)                  1.4626         -DE/DX =    0.0                 !
 ! R3    R(1,11)                 1.0155         -DE/DX =    0.0                 !
 ! R4    R(3,4)                  1.0936         -DE/DX =    0.0                 !
 ! R5    R(3,5)                  1.5463         -DE/DX =    0.0                 !
 ! R6    R(3,6)                  1.5017         -DE/DX =    0.0                 !
 ! R7    R(5,7)                  1.093          -DE/DX =    0.0                 !
 ! R8    R(5,8)                  1.092          -DE/DX =    0.0                 !
 ! R9    R(5,9)                  1.0916         -DE/DX =    0.0                 !
 ! R10   R(6,10)                 1.2761         -DE/DX =    0.0                 !
 ! R11   R(6,12)                 1.2782         -DE/DX =    0.0                 !
 ! R12   R(6,13)                 1.5229         -DE/DX =    0.0                 !
 ! R13   R(10,13)                1.3024         -DE/DX =    0.0                 !
 ! R14   R(12,13)                1.3059         -DE/DX =    0.0                 !
 ! A1    A(2,1,3)              110.4554         -DE/DX =    0.0                 !
 ! A2    A(2,1,11)             106.8058         -DE/DX =    0.0                 !
 ! A3    A(3,1,11)             109.2537         -DE/DX =    0.0                 !
 ! A4    A(1,3,4)              107.9356         -DE/DX =    0.0                 !
 ! A5    A(1,3,5)              115.5676         -DE/DX =    0.0                 !
 ! A6    A(1,3,6)              110.0391         -DE/DX =    0.0                 !
 ! A7    A(4,3,5)              108.1854         -DE/DX =    0.0                 !
 ! A8    A(4,3,6)              105.9619         -DE/DX =    0.0                 !
 ! A9    A(5,3,6)              108.708          -DE/DX =    0.0                 !
 ! A10   A(3,5,7)              110.6581         -DE/DX =    0.0                 !
 ! A11   A(3,5,8)              111.3824         -DE/DX =    0.0                 !
 ! A12   A(3,5,9)              108.7994         -DE/DX =    0.0                 !
 ! A13   A(7,5,8)              108.8624         -DE/DX =    0.0                 !
 ! A14   A(7,5,9)              108.5332         -DE/DX =    0.0                 !
 ! A15   A(8,5,9)              108.5373         -DE/DX =    0.0                 !
 ! A16   A(3,6,10)             126.078          -DE/DX =    0.0                 !
 ! A17   A(3,6,12)             124.5409         -DE/DX =    0.0                 !
 ! A18   A(10,6,12)            109.3354         -DE/DX =    0.0                 !
 ! A19   A(10,13,12)           106.0564         -DE/DX =    0.0                 !
 ! A20   L(3,6,13,5,-1)        177.9581         -DE/DX =    0.0                 !
 ! A21   L(3,6,13,5,-2)        180.0994         -DE/DX =    0.0                 !
 ! D1    D(2,1,3,4)           -176.3809         -DE/DX =    0.0                 !
 ! D2    D(2,1,3,5)            -55.1493         -DE/DX =    0.0                 !
 ! D3    D(2,1,3,6)             68.4223         -DE/DX =    0.0                 !
 ! D4    D(11,1,3,4)           -59.1773         -DE/DX =    0.0                 !
 ! D5    D(11,1,3,5)            62.0543         -DE/DX =    0.0                 !
 ! D6    D(11,1,3,6)          -174.3742         -DE/DX =    0.0                 !
 ! D7    D(1,3,5,7)             60.6246         -DE/DX =    0.0                 !
 ! D8    D(1,3,5,8)           -178.1319         -DE/DX =    0.0                 !
 ! D9    D(1,3,5,9)            -58.5313         -DE/DX =    0.0                 !
 ! D10   D(4,3,5,7)           -178.2785         -DE/DX =    0.0                 !
 ! D11   D(4,3,5,8)            -57.035          -DE/DX =    0.0                 !
 ! D12   D(4,3,5,9)             62.5656         -DE/DX =    0.0                 !
 ! D13   D(6,3,5,7)            -63.643          -DE/DX =    0.0                 !
 ! D14   D(6,3,5,8)             57.6006         -DE/DX =    0.0                 !
 ! D15   D(6,3,5,9)            177.2012         -DE/DX =    0.0                 !
 ! D16   D(1,3,6,10)           -20.555          -DE/DX =    0.0                 !
 ! D17   D(1,3,6,12)           162.1671         -DE/DX =    0.0                 !
 ! D18   D(4,3,6,10)          -136.9951         -DE/DX =    0.0                 !
 ! D19   D(4,3,6,12)            45.7269         -DE/DX =    0.0                 !
 ! D20   D(5,3,6,10)           106.9281         -DE/DX =    0.0                 !
 ! D21   D(5,3,6,12)           -70.3498         -DE/DX =    0.0                 !
 ! D22   D(12,10,13,6)          -0.0013         -DE/DX =    0.0                 !
 --------------------------------------------------------------------------------
 GradGradGradGradGradGradGradGradGradGradGradGradGradGradGradGradGradGrad

 Leave Link  103 at Thu Apr 07 11:23:21 2016, MaxMem=   33554432 cpu:       1.0
 (Enter c:\G09w01\l9999.exe)

 Test job not archived.
 1|1|UNPC-WIN-20150318OUM|Freq|RB3LYP|6-311++G(d,p)|C3H7N1O2|ADMINISTRA
 TOR|07-Apr-2016|0||#P Geom=AllCheck Guess=TCheck SCRF=Check Test GenCh
 k RB3LYP/6-311++G(d,p) Freq||Ala-S-opt-freq-ts1-6-311++gdp cpcm||0,1|N
 ,-1.3413641716,-1.212763228,-0.3172705317|H,-1.3555107077,-1.546481174
 9,0.6430590669|C,-0.6948132661,0.0969253971,-0.3938041592|H,-0.7598193
 996,0.4446378028,-1.4286289359|C,-1.2925353176,1.1907406613,0.52128990
 27|C,0.7706527015,-0.0343513772,-0.0935595757|H,-1.2200921294,0.896816
 7562,1.5715061292|H,-0.7812722234,2.1461686737,0.3859942517|H,-2.34657
 83431,1.3224860868,0.2697667789|O,1.3261129047,-0.9975697002,0.5326501
 257|H,-2.3092390558,-1.1261686264,-0.6123135769|O,1.6526557472,0.84173
 85956,-0.3907686752|H,2.2520652609,-0.1273548667,0.2471891995||Version
 =IA32W-G09RevB.01|State=1-A|HF=-323.8057218|RMSD=2.285e-009|RMSF=6.765
 e-006|ZeroPoint=0.1025367|Thermal=0.1092864|Dipole=-1.3757834,0.569205
 7,0.2587236|DipoleDeriv=-0.5059238,-0.1045676,0.0530542,-0.0565359,-0.
 8833672,-0.1992024,0.0510735,-0.1363429,-0.427267,0.2443763,-0.0949871
 ,-0.0129404,-0.0720332,0.2894356,-0.021357,-0.0019222,0.0668408,0.0549
 134,0.1630873,0.3234043,-0.0240081,0.3074099,0.6253777,0.1585151,-0.06
 08025,0.0090434,0.2588846,0.0298996,-0.0094607,0.0142114,-0.0544331,0.
 028596,0.0203834,0.0100158,0.050156,-0.0713719,-0.0086505,0.0096088,0.
 0100965,-0.1104486,-0.0579249,-0.0818151,-0.0769972,-0.0609268,0.08885
 28,1.560327,0.0270936,0.0330238,0.1213139,1.4816572,-0.6216149,0.16759
 97,-0.6762354,0.6588208,0.0843399,0.0355991,-0.0253502,0.0254491,0.033
 223,0.0959244,0.0138755,0.0275602,-0.1327602,0.0477043,-0.1059251,0.02
 94625,-0.0738795,-0.1414073,-0.0199896,0.0331201,0.0073963,0.0712259,-
 0.1405696,0.0439555,-0.0384018,0.0379606,0.0736204,-0.0239133,-0.04164
 17,-0.0259918,0.0584834,-0.8689339,0.1108372,-0.0782542,0.0176576,-1.3
 122617,0.4631642,-0.1002951,0.5235799,-0.6861611,0.0560224,-0.0145449,
 -0.0391974,0.0615403,0.2354329,0.0986405,0.0172698,0.1040346,0.3012102
 ,-1.02655,-0.3145986,0.1239951,-0.3068834,-1.2556768,0.4064439,0.04695
 43,0.3839224,-0.6421064,0.3648712,0.0935855,-0.0456915,0.1028822,0.883
 2951,-0.2751791,-0.0582501,-0.2730366,0.4672755|Polar=71.6632722,0.721
 8193,73.0125133,0.2151322,-4.6441413,58.2285583|PG=C01 [X(C3H7N1O2)]|N
 Imag=1||0.56715782,0.07351454,0.34408763,0.12448750,-0.16857569,0.5330
 2405,-0.04991835,-0.02408327,0.00859754,0.05048793,-0.01614357,-0.0648
 8158,0.09411577,0.01842469,0.08584901,-0.01551832,0.13616426,-0.384347
 55,0.00976477,-0.13215127,0.39450117,-0.10405434,-0.03147618,-0.007767
 19,-0.00079306,-0.00101888,0.00209145,0.48779094,-0.07154713,-0.176310
 61,0.03659429,-0.00390417,-0.01752722,-0.00437570,0.02708494,0.4562942
 6,-0.02228456,0.00554751,-0.08965690,0.01909243,0.03581802,-0.00186524
 ,0.02835206,-0.07482996,0.56392850,0.00117680,-0.00997863,0.01675492,-
 0.00150630,-0.00325799,0.00059266,-0.05264869,0.00491857,-0.02284884,0
 .05819557,0.00052343,-0.01847333,0.03111758,-0.00374541,-0.00427841,0.
 00010044,0.00223183,-0.06731092,0.07351319,-0.00363682,0.08750059,0.00
 140341,0.00256658,0.00092837,0.00020852,-0.00047599,0.00179793,-0.0211
 0785,0.07898712,-0.27949888,0.02023437,-0.08330614,0.30271299,0.006120
 58,-0.01816580,-0.00971273,0.00009088,0.00096796,-0.00068095,-0.092453
 56,0.02905495,0.02947125,0.00180785,-0.00075425,-0.00070704,0.55488305
 ,0.00483501,-0.03874952,-0.01956391,0.00040409,0.00185148,-0.00099218,
 0.01409301,-0.10143470,-0.03088965,-0.00245513,0.00483286,0.00207867,0
 .04191992,0.50254030,-0.00150557,-0.00009234,0.00426943,-0.00061717,0.
 00149453,0.00234823,0.01896370,-0.03138099,-0.10883212,0.01537285,-0.0
 2410029,-0.02051458,0.03035502,-0.05936634,0.52166920,-0.02156297,-0.0
 0852108,-0.00384909,0.00060881,-0.00033067,-0.00036610,-0.19028400,-0.
 00328925,-0.02554711,-0.00169464,0.00445096,-0.00156667,-0.01748939,0.
 02162798,0.00857565,0.77971869,-0.03675769,-0.00341013,-0.00999050,-0.
 00241562,0.00055358,0.00105034,0.01490748,-0.07656466,0.00224724,0.010
 15920,-0.00267206,0.00300395,0.02611167,-0.00528611,0.00356137,0.02134
 816,0.56899261,-0.00023604,0.00040754,0.00039959,0.00267512,0.00063329
 ,-0.00023039,-0.02536402,-0.00462937,-0.09469351,-0.03517935,0.0050351
 4,-0.00837745,0.02384240,-0.00030221,0.00636399,0.09096769,-0.17086278
 ,0.33748166,-0.00008885,-0.00073973,-0.00111370,0.00026031,0.00012652,
 -0.00040565,-0.00115535,-0.00389673,0.01441217,-0.00039595,0.00218869,
 0.00162064,-0.04890738,0.00567806,-0.01972917,0.00105126,-0.00062806,0
 .00183965,0.04887029,0.00012563,0.00289402,0.00065887,-0.00006115,-0.0
 0030677,0.00055494,-0.00069425,0.00467662,-0.02424048,0.00213259,-0.00
 277781,-0.00297117,0.00466756,-0.06832763,0.07208099,-0.00137222,0.000
 82975,-0.00084695,-0.00822254,0.07110431,-0.00038456,0.00014712,0.0022
 4425,-0.00033727,-0.00095267,-0.00019391,0.00085553,0.00522150,-0.0188
 5082,0.00203267,-0.00284445,-0.00074080,-0.01934891,0.07045705,-0.2873
 5883,-0.00242385,0.00038021,-0.00092978,0.01855567,-0.07461833,0.31330
 889,0.00047078,0.00269594,0.00164037,-0.00008987,-0.00013122,0.0000678
 9,0.00562964,0.01135743,-0.00322652,0.00049449,-0.00040183,-0.00030046
 ,-0.10692935,-0.11096228,0.01685822,-0.00020056,0.00070782,-0.00053637
 ,0.00097111,0.00361118,-0.00019362,0.11227594,0.00156079,-0.00553567,-
 0.00396622,-0.00015177,0.00082534,-0.00032527,-0.01027998,-0.01603260,
 0.00537574,-0.00012407,0.00075308,-0.00011126,-0.10827115,-0.24771276,
 0.02975762,-0.00162494,-0.00149334,0.00014625,-0.00315369,-0.00630789,
 0.00072348,0.11942261,0.26895172,0.00143083,-0.00513560,-0.00160664,0.
 00004038,-0.00033572,-0.00021684,-0.01095642,-0.01468281,0.00272981,-0
 .00059398,0.00064629,0.00052271,0.01752229,0.03126470,-0.05254830,-0.0
 0012913,-0.00008322,0.00046081,0.01494493,0.02652219,-0.00199896,-0.01
 932869,-0.03138460,0.05203804,0.00205736,-0.00076557,-0.00033882,0.000
 00557,0.00010238,-0.00001461,-0.01397545,0.00118338,-0.00237565,0.0005
 1662,-0.00034505,0.00013162,-0.29473076,0.02933059,-0.06216739,0.00191
 922,0.00091315,0.00261442,-0.00050352,-0.00006333,-0.00023346,-0.01260
 640,0.00198934,-0.00321717,0.31826178,-0.00018900,0.00269323,0.0010007
 9,0.00011547,-0.00024424,0.00006756,0.02512655,-0.00665751,0.00277420,
 -0.00097464,0.00085534,0.00063152,0.02751605,-0.04830779,0.00883322,-0
 .00186535,-0.00360329,-0.00400424,0.00860812,-0.00176774,0.00174813,-0
 .02688786,0.00488636,-0.00733662,-0.03321196,0.05158721,-0.00019512,0.
 00208642,0.00057104,-0.00006804,-0.00020055,-0.00003052,0.02260312,-0.
 00470301,0.00235828,-0.00012376,0.00096465,0.00126136,-0.06406645,0.00
 838164,-0.06126598,-0.00120377,-0.00340022,-0.00340381,-0.02974655,0.0
 0275924,-0.00606762,0.00448158,-0.00082304,0.00024572,0.06628307,-0.00
 512666,0.06457078,-0.00090427,0.00224637,-0.00082058,0.00143507,-0.000
 14788,-0.00051990,-0.00587904,0.02841571,-0.02193442,-0.00732316,0.000
 69226,-0.00109741,-0.00277342,-0.00233000,-0.00352112,-0.18511405,0.06
 429827,-0.05318839,0.00029605,-0.00016065,0.00063479,0.00002365,0.0006
 2560,0.00017322,-0.00059792,0.00138919,0.00139072,0.12663752,-0.001732
 56,0.00153760,-0.00121064,0.00152041,0.00030197,-0.00061526,0.00276627
 ,-0.00237780,0.00833673,0.00125344,0.00125788,-0.00146824,-0.00111353,
 0.00173170,0.00100629,0.11742324,-0.30853368,0.14460120,0.00010723,-0.
 00012599,-0.00043857,-0.00007957,0.00048796,0.00010460,0.00030230,0.00
 012612,-0.00023189,-0.11048774,0.45618909,0.00068239,0.00005242,-0.000
 08374,-0.00085009,-0.00036604,-0.00008266,-0.00475990,0.01214248,0.009
 00274,0.00087157,-0.00021118,0.00029884,-0.00338123,-0.00155410,-0.003
 36788,-0.08327725,0.13466120,-0.16721729,-0.00016475,0.00013288,0.0005
 1027,0.00021371,-0.00020512,0.00001991,-0.00045950,0.00090946,0.001283
 33,0.07403981,-0.23723870,0.19318081,-0.39098822,0.01577314,-0.1245988
 2,0.00035398,0.00132381,0.00453121,-0.01612605,0.00560213,-0.00225737,
 0.00048679,0.00033311,0.00027403,0.00166586,0.00113463,-0.00026853,0.0
 0039147,-0.00252321,0.00120837,0.00002692,-0.00010501,-0.00004078,0.00
 004041,0.00032594,0.00031493,0.00043392,-0.00036110,-0.00034477,-0.000
 14446,-0.00034031,0.00000003,0.40522593,0.04665193,-0.04284634,0.04033
 782,0.01386560,-0.00214159,0.00057320,-0.03839254,-0.00322619,-0.01298
 160,0.00035261,0.00109882,0.00031135,-0.00082115,0.00170484,-0.0002701
 6,-0.00035530,-0.00665481,0.00088003,0.00010640,-0.00011058,-0.0000058
 4,0.00034632,0.00026969,0.00047538,0.00061091,-0.00052740,-0.00020393,
 0.00124992,0.00121438,-0.00002863,-0.02078554,0.05116767,-0.08825997,0
 .02757384,-0.06708709,-0.03805709,0.00267059,-0.01187097,0.00205864,-0
 .00318567,0.00025027,0.00042800,-0.00017978,0.00023661,-0.00019413,0.0
 0072009,-0.00039624,0.00058976,0.00175300,0.00030200,-0.00003820,-0.00
 009507,0.00001958,0.00023565,0.00036316,0.00031076,0.00007208,-0.00035
 657,0.00002054,0.00032575,-0.00009131,0.00027742,0.12145965,-0.0292259
 1,0.07775579,-0.00976681,-0.00050101,-0.00354286,-0.00041300,0.0001345
 6,0.00028846,-0.01615536,-0.02278684,0.00976548,0.00068818,-0.00178383
 ,0.00106240,-0.00153567,-0.00348315,-0.00247843,-0.26657074,-0.1208405
 2,0.02926087,-0.00036058,0.00011876,0.00080191,-0.00005096,-0.00033415
 ,-0.00020686,-0.00085041,0.00073914,0.00100597,0.08994567,-0.00534833,
 0.01089277,-0.00140372,-0.00238811,0.00127617,0.24647447,0.00016073,0.
 00024277,-0.00064027,0.00140234,0.00017932,-0.00037967,-0.00286872,0.0
 0985538,0.00259884,-0.00044731,-0.00002408,-0.00037230,-0.00068101,-0.
 00288285,-0.00159365,-0.17190874,-0.27689465,0.07247661,0.00001276,0.0
 0012458,0.00010583,0.00010995,0.00149936,0.00014454,0.00018955,0.00108
 667,0.00047413,-0.06760889,-0.14068575,0.09068580,-0.00027755,0.000909
 84,-0.00004041,0.22842155,0.40854695,-0.00051749,-0.00139836,0.0011915
 8,-0.00096863,-0.00026934,0.00043444,-0.00424654,-0.00036386,0.0111863
 3,0.00248430,-0.00072273,0.00168463,-0.00178495,-0.00035142,0.00018548
 ,0.05582626,0.08125646,-0.11165460,-0.00030711,0.00014758,0.00019774,0
 .00016134,0.00000119,-0.00007562,-0.00029327,0.00036583,0.00026201,0.0
 4399469,0.10209971,0.00412049,-0.00034537,-0.00038743,0.00025211,-0.08
 636496,-0.14683373,0.11319501,0.00030047,0.00000129,0.00026344,-0.0005
 2197,-0.00004971,0.00016908,0.00010432,-0.00219299,-0.00061893,0.00020
 244,0.00024690,-0.00015558,0.00025131,0.00020725,0.00016194,-0.1007731
 1,0.02471934,-0.03790435,-0.00006431,0.00002342,0.00008187,-0.00002888
 ,0.00001545,0.00000568,0.00006998,-0.00000460,-0.00001599,-0.01560164,
 -0.00427086,0.00619247,0.00003718,-0.00044104,0.00010369,-0.04000106,0
 .01349535,-0.00763827,0.15602528,-0.00100211,-0.00124807,0.00012211,-0
 .00137122,-0.00018090,0.00032860,-0.00147955,-0.00338405,0.00673023,0.
 00205816,-0.00076195,0.00112591,-0.00043122,0.00004016,0.00006975,0.02
 441722,0.11473677,-0.04353452,-0.00018703,0.00009513,0.00007653,0.0002
 1151,-0.00059125,-0.00019913,-0.00023568,-0.00012696,0.00002322,0.0818
 1786,-0.01112347,0.00101954,-0.00010005,-0.00085833,0.00009403,-0.0719
 4810,-0.00195754,-0.03354391,-0.03174979,-0.09463955,0.00089752,0.0006
 5632,0.00015362,0.00051953,0.00001937,-0.00024370,-0.00072258,0.005205
 96,0.00394156,-0.00002542,-0.00001271,-0.00031172,-0.00131459,0.000117
 65,-0.00055241,-0.03759640,-0.04357707,0.04149878,0.00013207,-0.000084
 70,-0.00014001,-0.00007308,0.00044807,0.00011860,-0.00000133,0.0004933
 9,0.00019487,-0.03947717,-0.01485393,-0.03794223,0.00006742,0.00052571
 ,-0.00007079,0.03823909,-0.01662572,-0.02097960,0.03935493,0.06768765,
 0.01433304||-0.00000744,0.00000458,-0.00000323,-0.00000872,-0.00000051
 ,-0.00001202,0.00000371,-0.00000218,-0.00000897,0.00000250,0.00001311,
 0.00000385,0.00000287,-0.00000203,0.00000527,0.00000405,0.00000045,-0.
 00000879,-0.00000065,-0.00000655,0.00000415,0.00000479,-0.00000276,0.0
 0001066,0.00000297,0.00000361,0.00000336,-0.00001364,-0.00001012,0.000
 00050,-0.00000091,0.00000705,-0.00000831,0.00001007,-0.00000680,0.0000
 1575,0.00000040,0.00000215,-0.00000222|||@


 STEINBACH'S GUIDELINES FOR SYSTEMS PROGRAMMING:
 NEVER TEST FOR AN ERROR CONDITION YOU DON'T KNOW HOW
 TO HANDLE.
 Job cpu time:  0 days  0 hours 22 minutes 29.0 seconds.
 File lengths (MBytes):  RWF=     59 Int=      0 D2E=      0 Chk=      9 Scr=      1
 Normal termination of Gaussian 09 at Thu Apr 07 11:23:21 2016.
