 Entering Link 1 = c:\G03W05\l1.exe PID=      5576.
  
 Copyright (c) 1988,1990,1992,1993,1995,1998,2003,2004,2007, Gaussian, Inc.
                  All Rights Reserved.
  
 This is the Gaussian(R) 03 program.  It is based on the
 the Gaussian(R) 98 system (copyright 1998, Gaussian, Inc.),
 the Gaussian(R) 94 system (copyright 1995, Gaussian, Inc.),
 the Gaussian 92(TM) system (copyright 1992, Gaussian, Inc.),
 the Gaussian 90(TM) system (copyright 1990, Gaussian, Inc.),
 the Gaussian 88(TM) system (copyright 1988, Gaussian, Inc.),
 the Gaussian 86(TM) system (copyright 1986, Carnegie Mellon
 University), and the Gaussian 82(TM) system (copyright 1983,
 Carnegie Mellon University). Gaussian is a federally registered
 trademark of Gaussian, Inc.
  
 This software contains proprietary and confidential information,
 including trade secrets, belonging to Gaussian, Inc.
  
 This software is provided under written license and may be
 used, copied, transmitted, or stored only in accord with that
 written license.
  
 The following legend is applicable only to US Government
 contracts under FAR:
  
                    RESTRICTED RIGHTS LEGEND
  
 Use, reproduction and disclosure by the US Government is
 subject to restrictions as set forth in subparagraphs (a)
 and (c) of the Commercial Computer Software - Restricted
 Rights clause in FAR 52.227-19.
  
 Gaussian, Inc.
 340 Quinnipiac St., Bldg. 40, Wallingford CT 06492
  
  
 ---------------------------------------------------------------
 Warning -- This program may not be used in any manner that
 competes with the business of Gaussian, Inc. or will provide
 assistance to any competitor of Gaussian, Inc.  The licensee
 of this program is prohibited from giving any competitor of
 Gaussian, Inc. access to this program.  By using this program,
 the user acknowledges that Gaussian, Inc. is engaged in the
 business of creating and licensing software in the field of
 computational chemistry and represents and warrants to the
 licensee that it is not a competitor of Gaussian, Inc. and that
 it will not use this program in any manner prohibited above.
 ---------------------------------------------------------------
  

 Cite this work as:
 Gaussian 03, Revision E.01,
 M. J. Frisch, G. W. Trucks, H. B. Schlegel, G. E. Scuseria, 
 M. A. Robb, J. R. Cheeseman, J. A. Montgomery, Jr., T. Vreven, 
 K. N. Kudin, J. C. Burant, J. M. Millam, S. S. Iyengar, J. Tomasi, 
 V. Barone, B. Mennucci, M. Cossi, G. Scalmani, N. Rega, 
 G. A. Petersson, H. Nakatsuji, M. Hada, M. Ehara, K. Toyota, 
 R. Fukuda, J. Hasegawa, M. Ishida, T. Nakajima, Y. Honda, O. Kitao, 
 H. Nakai, M. Klene, X. Li, J. E. Knox, H. P. Hratchian, J. B. Cross, 
 V. Bakken, C. Adamo, J. Jaramillo, R. Gomperts, R. E. Stratmann, 
 O. Yazyev, A. J. Austin, R. Cammi, C. Pomelli, J. W. Ochterski, 
 P. Y. Ayala, K. Morokuma, G. A. Voth, P. Salvador, J. J. Dannenberg, 
 V. G. Zakrzewski, S. Dapprich, A. D. Daniels, M. C. Strain, 
 O. Farkas, D. K. Malick, A. D. Rabuck, K. Raghavachari, 
 J. B. Foresman, J. V. Ortiz, Q. Cui, A. G. Baboul, S. Clifford, 
 J. Cioslowski, B. B. Stefanov, G. Liu, A. Liashenko, P. Piskorz, 
 I. Komaromi, R. L. Martin, D. J. Fox, T. Keith, M. A. Al-Laham, 
 C. Y. Peng, A. Nanayakkara, M. Challacombe, P. M. W. Gill, 
 B. Johnson, W. Chen, M. W. Wong, C. Gonzalez, and J. A. Pople, 
 Gaussian, Inc., Wallingford CT, 2004.
 
 ******************************************
 Gaussian 03:  IA32W-G03RevE.01 11-Sep-2007
                01-Apr-2016 
 ******************************************
 %chk=E:\YangJ\Amiano\val\ts1\s\Val-S-opt-freq-ts1-6-31++gdf.chk
 -------------------------------------------------------
 # opt=(calcfc,ts) freq rb3lyp/6-311++g(d,p) iop(1/11=1)
 -------------------------------------------------------
 1/5=1,10=4,11=1,14=-1,18=20,26=3,38=1/1,3;
 2/9=110,17=6,18=5,40=1/2;
 3/5=4,6=6,7=1111,11=2,16=1,25=1,30=1,74=-5/1,2,3;
 4/7=1/1;
 5/5=2,38=5/2;
 8/6=4,10=90,11=11/1;
 11/6=1,8=1,9=11,15=111,16=1/1,2,10;
 10/6=1,7=6/2;
 6/7=2,8=2,9=2,10=2,28=1/1;
 7/10=1,18=20,25=1/1,2,3,16;
 1/5=1,10=4,11=1,14=-1,18=20/3(3);
 2/9=110/2;
 6/7=2,8=2,9=2,10=2,19=2,28=1/1;
 99//99;
 2/9=110/2;
 3/5=4,6=6,7=1111,11=2,16=1,25=1,30=1,74=-5/1,2,3;
 4/5=5,7=1,16=3/1;
 5/5=2,38=5/2;
 7//1,2,3,16;
 1/5=1,11=1,14=-1,18=20/3(-5);
 2/9=110/2;
 6/7=2,8=2,9=2,10=2,19=2,28=1/1;
 99/9=1/99;
 ----------------------------
 Val-S-opt-freq-ts1-6-31++gdf
 ----------------------------
 Symbolic Z-matrix:
 Charge =  0 Multiplicity = 1
 N                     0.12198   1.95631  -0.09033 
 H                    -0.10307   2.17814   0.87333 
 C                     0.05914   0.53152  -0.41034 
 H                     0.21473   0.41021  -1.48692 
 C                     1.17188  -0.26305   0.34245 
 C                    -1.29689  -0.03594  -0.08597 
 C                     1.03973  -1.78207   0.12136 
 O                    -1.91785   0.1117    1.05842 
 H                     1.10575  -2.03034  -0.94554 
 H                     1.84927  -2.30874   0.63818 
 H                     0.09165  -2.17832   0.50125 
 H                    -0.33258   2.57277  -0.75225 
 O                    -2.06488  -0.7317   -0.88164 
 H                    -2.75536  -0.61326   0.27904 
 H                     1.03177  -0.05411   1.41424 
 C                     2.55767   0.24674  -0.08617 
 H                     2.62057   1.33228   0.02121 
 H                     3.34054  -0.21846   0.52373 
 H                     2.75551  -0.00753  -1.13612 
 

 GradGradGradGradGradGradGradGradGradGradGradGradGradGradGradGradGradGrad
 Berny optimization.
 Initialization pass.
                           ----------------------------
                           !    Initial Parameters    !
                           ! (Angstroms and Degrees)  !
 --------------------------                            --------------------------
 ! Name  Definition              Value          Derivative Info.                !
 --------------------------------------------------------------------------------
 ! R1    R(1,2)                  1.0141         calculate D2E/DX2 analytically  !
 ! R2    R(1,3)                  1.4616         calculate D2E/DX2 analytically  !
 ! R3    R(1,12)                 1.0123         calculate D2E/DX2 analytically  !
 ! R4    R(3,4)                  1.0945         calculate D2E/DX2 analytically  !
 ! R5    R(3,5)                  1.5608         calculate D2E/DX2 analytically  !
 ! R6    R(3,6)                  1.5053         calculate D2E/DX2 analytically  !
 ! R7    R(5,7)                  1.5407         calculate D2E/DX2 analytically  !
 ! R8    R(5,15)                 1.1009         calculate D2E/DX2 analytically  !
 ! R9    R(5,16)                 1.5375         calculate D2E/DX2 analytically  !
 ! R10   R(6,8)                  1.3103         calculate D2E/DX2 analytically  !
 ! R11   R(6,13)                 1.3065         calculate D2E/DX2 analytically  !
 ! R12   R(6,14)                 1.6105         calculate D2E/DX2 analytically  !
 ! R13   R(7,9)                  1.0974         calculate D2E/DX2 analytically  !
 ! R14   R(7,10)                 1.0954         calculate D2E/DX2 analytically  !
 ! R15   R(7,11)                 1.0955         calculate D2E/DX2 analytically  !
 ! R16   R(8,14)                 1.3544         calculate D2E/DX2 analytically  !
 ! R17   R(13,14)                1.3557         calculate D2E/DX2 analytically  !
 ! R18   R(16,17)                1.0926         calculate D2E/DX2 analytically  !
 ! R19   R(16,18)                1.096          calculate D2E/DX2 analytically  !
 ! R20   R(16,19)                1.0983         calculate D2E/DX2 analytically  !
 ! A1    A(2,1,3)              114.3135         calculate D2E/DX2 analytically  !
 ! A2    A(2,1,12)             112.859          calculate D2E/DX2 analytically  !
 ! A3    A(3,1,12)             115.5402         calculate D2E/DX2 analytically  !
 ! A4    A(1,3,4)              108.4986         calculate D2E/DX2 analytically  !
 ! A5    A(1,3,5)              111.0992         calculate D2E/DX2 analytically  !
 ! A6    A(1,3,6)              111.0393         calculate D2E/DX2 analytically  !
 ! A7    A(4,3,5)              108.4596         calculate D2E/DX2 analytically  !
 ! A8    A(4,3,6)              107.3511         calculate D2E/DX2 analytically  !
 ! A9    A(5,3,6)              110.2661         calculate D2E/DX2 analytically  !
 ! A10   A(3,5,7)              111.8108         calculate D2E/DX2 analytically  !
 ! A11   A(3,5,15)             106.3914         calculate D2E/DX2 analytically  !
 ! A12   A(3,5,16)             109.8354         calculate D2E/DX2 analytically  !
 ! A13   A(7,5,15)             108.4149         calculate D2E/DX2 analytically  !
 ! A14   A(7,5,16)             111.3585         calculate D2E/DX2 analytically  !
 ! A15   A(15,5,16)            108.8548         calculate D2E/DX2 analytically  !
 ! A16   A(3,6,8)              124.9315         calculate D2E/DX2 analytically  !
 ! A17   A(3,6,13)             126.8004         calculate D2E/DX2 analytically  !
 ! A18   A(8,6,13)             108.2593         calculate D2E/DX2 analytically  !
 ! A19   A(5,7,9)              110.9408         calculate D2E/DX2 analytically  !
 ! A20   A(5,7,10)             110.0569         calculate D2E/DX2 analytically  !
 ! A21   A(5,7,11)             112.4004         calculate D2E/DX2 analytically  !
 ! A22   A(9,7,10)             107.7867         calculate D2E/DX2 analytically  !
 ! A23   A(9,7,11)             107.8999         calculate D2E/DX2 analytically  !
 ! A24   A(10,7,11)            107.5816         calculate D2E/DX2 analytically  !
 ! A25   A(8,14,13)            102.9719         calculate D2E/DX2 analytically  !
 ! A26   A(5,16,17)            110.726          calculate D2E/DX2 analytically  !
 ! A27   A(5,16,18)            110.3612         calculate D2E/DX2 analytically  !
 ! A28   A(5,16,19)            110.6155         calculate D2E/DX2 analytically  !
 ! A29   A(17,16,18)           109.0184         calculate D2E/DX2 analytically  !
 ! A30   A(17,16,19)           108.2761         calculate D2E/DX2 analytically  !
 ! A31   A(18,16,19)           107.7609         calculate D2E/DX2 analytically  !
 ! A32   L(3,6,14,5,-1)        180.4426         calculate D2E/DX2 analytically  !
 ! A33   L(3,6,14,5,-2)        177.9476         calculate D2E/DX2 analytically  !
 ! D1    D(2,1,3,4)            174.2059         calculate D2E/DX2 analytically  !
 ! D2    D(2,1,3,5)            -66.6523         calculate D2E/DX2 analytically  !
 ! D3    D(2,1,3,6)             56.4549         calculate D2E/DX2 analytically  !
 ! D4    D(12,1,3,4)            40.7082         calculate D2E/DX2 analytically  !
 ! D5    D(12,1,3,5)           159.85           calculate D2E/DX2 analytically  !
 ! D6    D(12,1,3,6)           -77.0428         calculate D2E/DX2 analytically  !
 ! D7    D(1,3,5,7)            174.6693         calculate D2E/DX2 analytically  !
 ! D8    D(1,3,5,15)            56.4801         calculate D2E/DX2 analytically  !
 ! D9    D(1,3,5,16)           -61.1793         calculate D2E/DX2 analytically  !
 ! D10   D(4,3,5,7)            -66.1655         calculate D2E/DX2 analytically  !
 ! D11   D(4,3,5,15)           175.6453         calculate D2E/DX2 analytically  !
 ! D12   D(4,3,5,16)            57.9859         calculate D2E/DX2 analytically  !
 ! D13   D(6,3,5,7)             51.1188         calculate D2E/DX2 analytically  !
 ! D14   D(6,3,5,15)           -67.0703         calculate D2E/DX2 analytically  !
 ! D15   D(6,3,5,16)           175.2702         calculate D2E/DX2 analytically  !
 ! D16   D(1,3,6,8)            -50.5459         calculate D2E/DX2 analytically  !
 ! D17   D(1,3,6,13)           128.2481         calculate D2E/DX2 analytically  !
 ! D18   D(4,3,6,8)           -168.9921         calculate D2E/DX2 analytically  !
 ! D19   D(4,3,6,13)             9.802          calculate D2E/DX2 analytically  !
 ! D20   D(5,3,6,8)             73.0393         calculate D2E/DX2 analytically  !
 ! D21   D(5,3,6,13)          -108.1667         calculate D2E/DX2 analytically  !
 ! D22   D(3,5,7,9)             59.2274         calculate D2E/DX2 analytically  !
 ! D23   D(3,5,7,10)           178.4307         calculate D2E/DX2 analytically  !
 ! D24   D(3,5,7,11)           -61.682          calculate D2E/DX2 analytically  !
 ! D25   D(15,5,7,9)           176.2024         calculate D2E/DX2 analytically  !
 ! D26   D(15,5,7,10)          -64.5943         calculate D2E/DX2 analytically  !
 ! D27   D(15,5,7,11)           55.293          calculate D2E/DX2 analytically  !
 ! D28   D(16,5,7,9)           -64.0664         calculate D2E/DX2 analytically  !
 ! D29   D(16,5,7,10)           55.1369         calculate D2E/DX2 analytically  !
 ! D30   D(16,5,7,11)          175.0242         calculate D2E/DX2 analytically  !
 ! D31   D(3,5,16,17)           52.3512         calculate D2E/DX2 analytically  !
 ! D32   D(3,5,16,18)          173.1532         calculate D2E/DX2 analytically  !
 ! D33   D(3,5,16,19)          -67.687          calculate D2E/DX2 analytically  !
 ! D34   D(7,5,16,17)          176.7651         calculate D2E/DX2 analytically  !
 ! D35   D(7,5,16,18)          -62.433          calculate D2E/DX2 analytically  !
 ! D36   D(7,5,16,19)           56.7269         calculate D2E/DX2 analytically  !
 ! D37   D(15,5,16,17)         -63.7648         calculate D2E/DX2 analytically  !
 ! D38   D(15,5,16,18)          57.0371         calculate D2E/DX2 analytically  !
 ! D39   D(15,5,16,19)         176.197          calculate D2E/DX2 analytically  !
 --------------------------------------------------------------------------------
 Trust Radius=3.00D-01 FncErr=1.00D-07 GrdErr=1.00D-06
 Number of steps in this run= 102 maximum allowed number of steps= 114.
 Search for a saddle point of order  1.
 GradGradGradGradGradGradGradGradGradGradGradGradGradGradGradGradGradGrad

                          Input orientation:                          
 ---------------------------------------------------------------------
 Center     Atomic     Atomic              Coordinates (Angstroms)
 Number     Number      Type              X           Y           Z
 ---------------------------------------------------------------------
    1          7             0        0.121979    1.956306   -0.090327
    2          1             0       -0.103070    2.178140    0.873326
    3          6             0        0.059141    0.531516   -0.410343
    4          1             0        0.214729    0.410213   -1.486917
    5          6             0        1.171881   -0.263046    0.342445
    6          6             0       -1.296894   -0.035941   -0.085972
    7          6             0        1.039732   -1.782071    0.121361
    8          8             0       -1.917845    0.111701    1.058415
    9          1             0        1.105745   -2.030344   -0.945542
   10          1             0        1.849273   -2.308741    0.638180
   11          1             0        0.091654   -2.178322    0.501250
   12          1             0       -0.332583    2.572771   -0.752251
   13          8             0       -2.064879   -0.731699   -0.881639
   14          1             0       -2.755362   -0.613257    0.279040
   15          1             0        1.031772   -0.054109    1.414243
   16          6             0        2.557668    0.246743   -0.086167
   17          1             0        2.620572    1.332279    0.021209
   18          1             0        3.340542   -0.218455    0.523730
   19          1             0        2.755505   -0.007534   -1.136122
 ---------------------------------------------------------------------
                    Distance matrix (angstroms):
                    1          2          3          4          5
     1  N    0.000000
     2  H    1.014142   0.000000
     3  C    1.461638   2.094156   0.000000
     4  H    2.085538   2.966026   1.094502   0.000000
     5  C    2.493012   2.804768   1.560836   2.171631   0.000000
     6  C    2.445867   2.692141   1.505342   2.108721   2.515943
     7  C    3.855197   4.189835   2.568453   2.841355   1.540707
     8  O    2.980446   2.756417   2.498393   3.334021   3.193659
     9  H    4.194349   4.741398   2.818678   2.653924   2.187836
    10  H    4.658851   4.898881   3.517248   3.818440   2.175129
    11  H    4.176845   4.376656   2.859245   3.266262   2.204630
    12  H    1.012324   1.688464   2.106436   2.348604   3.391700
    13  O    3.554419   3.923743   2.515809   2.620484   3.492081
    14  H    3.875329   3.896117   3.115635   3.603822   3.943337
    15  H    2.670809   2.561912   2.148972   3.049571   1.100925
    16  C    2.975769   3.424974   2.535512   2.734627   1.537530
    17  H    2.577754   2.976543   2.718159   2.985420   2.178752
    18  H    3.932658   4.210030   3.493214   3.769434   2.176682
    19  H    3.447581   4.121469   2.843890   2.598675   2.181585
                    6          7          8          9         10
     6  C    0.000000
     7  C    2.924342   0.000000
     8  O    1.310343   3.634791   0.000000
     9  H    3.238700   1.097397   4.212635   0.000000
    10  H    3.948213   1.095372   4.497368   1.771585   0.000000
    11  H    2.619674   1.095528   3.097212   1.772988   1.767762
    12  H    2.859930   4.648774   3.442155   4.826470   5.524758
    13  O    1.306509   3.427521   2.120555   3.426867   4.485253
    14  H    1.610483   3.974132   1.354409   4.291373   4.919991
    15  H    2.770137   2.158115   2.975625   3.078890   2.520704
    16  C    3.864914   2.542299   4.621528   2.834031   2.749000
    17  H    4.150910   3.494032   4.812778   3.812682   3.772609
    18  H    4.680904   2.810787   5.295803   3.230483   2.570268
    19  H    4.186354   2.770221   5.164340   2.617210   3.043839
                   11         12         13         14         15
    11  H    0.000000
    12  H    4.931950   0.000000
    13  O    2.942063   3.733244   0.000000
    14  H    3.256425   4.133303   1.355718   0.000000
    15  H    2.495928   3.668196   3.914007   3.992958   0.000000
    16  C    3.508165   3.769300   4.791458   5.394559   2.161042
    17  H    4.353181   3.295176   5.198903   5.722958   2.527232
    18  H    3.794319   4.786535   5.608659   6.113574   2.480008
    19  H    3.806496   4.042477   4.881114   5.721821   3.078601
                   16         17         18         19
    16  C    0.000000
    17  H    1.092646   0.000000
    18  H    1.096027   1.782038   0.000000
    19  H    1.098272   1.775590   1.772531   0.000000
 Stoichiometry    C5H11NO2
 Framework group  C1[X(C5H11NO2)]
 Deg. of freedom    51
 Full point group                 C1
 Largest Abelian subgroup         C1      NOp   1
 Largest concise Abelian subgroup C1      NOp   1
                         Standard orientation:                         
 ---------------------------------------------------------------------
 Center     Atomic     Atomic              Coordinates (Angstroms)
 Number     Number      Type              X           Y           Z
 ---------------------------------------------------------------------
    1          7             0        0.121979    1.956306   -0.090327
    2          1             0       -0.103070    2.178140    0.873326
    3          6             0        0.059141    0.531516   -0.410343
    4          1             0        0.214729    0.410213   -1.486917
    5          6             0        1.171881   -0.263046    0.342445
    6          6             0       -1.296894   -0.035941   -0.085972
    7          6             0        1.039732   -1.782071    0.121361
    8          8             0       -1.917845    0.111701    1.058415
    9          1             0        1.105745   -2.030344   -0.945542
   10          1             0        1.849273   -2.308741    0.638180
   11          1             0        0.091654   -2.178322    0.501250
   12          1             0       -0.332583    2.572771   -0.752251
   13          8             0       -2.064879   -0.731699   -0.881639
   14          1             0       -2.755362   -0.613257    0.279040
   15          1             0        1.031772   -0.054109    1.414243
   16          6             0        2.557668    0.246743   -0.086167
   17          1             0        2.620572    1.332279    0.021209
   18          1             0        3.340542   -0.218456    0.523730
   19          1             0        2.755505   -0.007534   -1.136122
 ---------------------------------------------------------------------
 Rotational constants (GHZ):      2.8625016      1.4991849      1.1818683
 Standard basis: 6-311++G(d,p) (5D, 7F)
 There are   253 symmetry adapted basis functions of A   symmetry.
 Integral buffers will be    262144 words long.
 Raffenetti 2 integral format.
 Two-electron integral symmetry is turned on.
   253 basis functions,   387 primitive gaussians,   261 cartesian basis functions
    32 alpha electrons       32 beta electrons
       nuclear repulsion energy       402.9255078404 Hartrees.
 NAtoms=   19 NActive=   19 NUniq=   19 SFac= 7.50D-01 NAtFMM=   80 NAOKFM=F Big=F
 One-electron integrals computed using PRISM.
 NBasis=   253 RedAO= T  NBF=   253
 NBsUse=   253 1.00D-06 NBFU=   253
 Harris functional with IExCor=  402 diagonalized for initial guess.
 ExpMin= 3.60D-02 ExpMax= 8.59D+03 ExpMxC= 1.30D+03 IAcc=3 IRadAn=         5 AccDes= 0.00D+00
 HarFok:  IExCor= 402 AccDes= 0.00D+00 IRadAn=         5 IDoV=1
 ScaDFX=  1.000000  1.000000  1.000000  1.000000
 Initial guess orbital symmetries:
       Occupied  (A) (A) (A) (A) (A) (A) (A) (A) (A) (A) (A) (A)
                 (A) (A) (A) (A) (A) (A) (A) (A) (A) (A) (A) (A)
                 (A) (A) (A) (A) (A) (A) (A) (A)
       Virtual   (A) (A) (A) (A) (A) (A) (A) (A) (A) (A) (A) (A)
                 (A) (A) (A) (A) (A) (A) (A) (A) (A) (A) (A) (A)
                 (A) (A) (A) (A) (A) (A) (A) (A) (A) (A) (A) (A)
                 (A) (A) (A) (A) (A) (A) (A) (A) (A) (A) (A) (A)
                 (A) (A) (A) (A) (A) (A) (A) (A) (A) (A) (A) (A)
                 (A) (A) (A) (A) (A) (A) (A) (A) (A) (A) (A) (A)
                 (A) (A) (A) (A) (A) (A) (A) (A) (A) (A) (A) (A)
                 (A) (A) (A) (A) (A) (A) (A) (A) (A) (A) (A) (A)
                 (A) (A) (A) (A) (A) (A) (A) (A) (A) (A) (A) (A)
                 (A) (A) (A) (A) (A) (A) (A) (A) (A) (A) (A) (A)
                 (A) (A) (A) (A) (A) (A) (A) (A) (A) (A) (A) (A)
                 (A) (A) (A) (A) (A) (A) (A) (A) (A) (A) (A) (A)
                 (A) (A) (A) (A) (A) (A) (A) (A) (A) (A) (A) (A)
                 (A) (A) (A) (A) (A) (A) (A) (A) (A) (A) (A) (A)
                 (A) (A) (A) (A) (A) (A) (A) (A) (A) (A) (A) (A)
                 (A) (A) (A) (A) (A) (A) (A) (A) (A) (A) (A) (A)
                 (A) (A) (A) (A) (A) (A) (A) (A) (A) (A) (A) (A)
                 (A) (A) (A) (A) (A) (A) (A) (A) (A) (A) (A) (A)
                 (A) (A) (A) (A) (A)
 The electronic state of the initial guess is 1-A.
 Requested convergence on RMS density matrix=1.00D-08 within 128 cycles.
 Requested convergence on MAX density matrix=1.00D-06.
 Requested convergence on             energy=1.00D-06.
 No special actions if energy rises.
 SCF Done:  E(RB+HF-LYP) =  -402.440607719     A.U. after   14 cycles
             Convg  =    0.2123D-08             -V/T =  2.0048
             S**2   =   0.0000
 Range of M.O.s used for correlation:     1   253
 NBasis=   253 NAE=    32 NBE=    32 NFC=     0 NFV=     0
 NROrb=    253 NOA=    32 NOB=    32 NVA=   221 NVB=   221

 **** Warning!!: The largest alpha MO coefficient is  0.12081673D+03

 Symmetrizing basis deriv contribution to polar:
 IMax=3 JMax=2 DiffMx= 0.00D+00
 G2DrvN: will do   10 centers at a time, making    2 passes doing MaxLOS=2.
 FoFDir/FoFCou used for L=0 through L=2.
 DoAtom=TTTTTTTTTTTTTTTTTTT
          Differentiating once with respect to electric field.
                with respect to dipole field.
          Differentiating once with respect to nuclear coordinates.
 Integrals replicated using symmetry in FoFDir.
 MinBra= 0 MaxBra= 2 Meth= 1.
 IRaf=       0 NMat=  60 IRICut=      60 DoRegI=T DoRafI=T ISym2E= 2 JSym2E=2.
          There are  60 degrees of freedom in the 1st order CPHF.
    57 vectors were produced by pass  0.
 AX will form  29 AO Fock derivatives at one time.
    57 vectors were produced by pass  1.
    57 vectors were produced by pass  2.
    57 vectors were produced by pass  3.
    28 vectors were produced by pass  4.
     3 vectors were produced by pass  5.
     1 vectors were produced by pass  6.
 Inv2:  IOpt= 1 Iter= 1 AM= 2.43D-15 Conv= 1.00D-12.
 Inverted reduced A of dimension  260 with in-core refinement.
 Isotropic polarizability for W=    0.000000       78.76 Bohr**3.
 End of Minotr Frequency-dependent properties file   721 does not exist.

 **********************************************************************

            Population analysis using the SCF density.

 **********************************************************************

 Orbital symmetries:
       Occupied  (A) (A) (A) (A) (A) (A) (A) (A) (A) (A) (A) (A)
                 (A) (A) (A) (A) (A) (A) (A) (A) (A) (A) (A) (A)
                 (A) (A) (A) (A) (A) (A) (A) (A)
       Virtual   (A) (A) (A) (A) (A) (A) (A) (A) (A) (A) (A) (A)
                 (A) (A) (A) (A) (A) (A) (A) (A) (A) (A) (A) (A)
                 (A) (A) (A) (A) (A) (A) (A) (A) (A) (A) (A) (A)
                 (A) (A) (A) (A) (A) (A) (A) (A) (A) (A) (A) (A)
                 (A) (A) (A) (A) (A) (A) (A) (A) (A) (A) (A) (A)
                 (A) (A) (A) (A) (A) (A) (A) (A) (A) (A) (A) (A)
                 (A) (A) (A) (A) (A) (A) (A) (A) (A) (A) (A) (A)
                 (A) (A) (A) (A) (A) (A) (A) (A) (A) (A) (A) (A)
                 (A) (A) (A) (A) (A) (A) (A) (A) (A) (A) (A) (A)
                 (A) (A) (A) (A) (A) (A) (A) (A) (A) (A) (A) (A)
                 (A) (A) (A) (A) (A) (A) (A) (A) (A) (A) (A) (A)
                 (A) (A) (A) (A) (A) (A) (A) (A) (A) (A) (A) (A)
                 (A) (A) (A) (A) (A) (A) (A) (A) (A) (A) (A) (A)
                 (A) (A) (A) (A) (A) (A) (A) (A) (A) (A) (A) (A)
                 (A) (A) (A) (A) (A) (A) (A) (A) (A) (A) (A) (A)
                 (A) (A) (A) (A) (A) (A) (A) (A) (A) (A) (A) (A)
                 (A) (A) (A) (A) (A) (A) (A) (A) (A) (A) (A) (A)
                 (A) (A) (A) (A) (A) (A) (A) (A) (A) (A) (A) (A)
                 (A) (A) (A) (A) (A)
 The electronic state is 1-A.
 Alpha  occ. eigenvalues --  -19.15175 -19.14970 -14.31703 -10.32404 -10.24133
 Alpha  occ. eigenvalues --  -10.19738 -10.17081 -10.16513  -1.11943  -0.98250
 Alpha  occ. eigenvalues --   -0.91467  -0.80873  -0.72120  -0.69353  -0.60220
 Alpha  occ. eigenvalues --   -0.57028  -0.52080  -0.51076  -0.49120  -0.46887
 Alpha  occ. eigenvalues --   -0.46122  -0.43631  -0.42750  -0.40969  -0.39813
 Alpha  occ. eigenvalues --   -0.38949  -0.35531  -0.35057  -0.34484  -0.31494
 Alpha  occ. eigenvalues --   -0.30207  -0.26180
 Alpha virt. eigenvalues --   -0.03652  -0.01640  -0.00015   0.00272   0.00793
 Alpha virt. eigenvalues --    0.02390   0.03428   0.03580   0.04459   0.05370
 Alpha virt. eigenvalues --    0.06405   0.06881   0.07240   0.07911   0.08662
 Alpha virt. eigenvalues --    0.08710   0.09054   0.10150   0.10300   0.11725
 Alpha virt. eigenvalues --    0.12255   0.12699   0.13129   0.13609   0.14027
 Alpha virt. eigenvalues --    0.14507   0.15097   0.15986   0.16299   0.16532
 Alpha virt. eigenvalues --    0.17088   0.17541   0.18510   0.18831   0.19475
 Alpha virt. eigenvalues --    0.19754   0.21256   0.21532   0.21805   0.21922
 Alpha virt. eigenvalues --    0.22995   0.24158   0.24428   0.24557   0.26146
 Alpha virt. eigenvalues --    0.26984   0.28078   0.28817   0.28998   0.29889
 Alpha virt. eigenvalues --    0.31098   0.31766   0.32750   0.33301   0.34294
 Alpha virt. eigenvalues --    0.34792   0.36983   0.37541   0.39149   0.39651
 Alpha virt. eigenvalues --    0.41002   0.43295   0.43522   0.45556   0.48866
 Alpha virt. eigenvalues --    0.50057   0.52657   0.53477   0.54868   0.56585
 Alpha virt. eigenvalues --    0.57661   0.59511   0.60706   0.62807   0.64047
 Alpha virt. eigenvalues --    0.65004   0.65991   0.67255   0.68316   0.68997
 Alpha virt. eigenvalues --    0.69887   0.71614   0.73192   0.73864   0.74438
 Alpha virt. eigenvalues --    0.77351   0.77993   0.78571   0.82768   0.85560
 Alpha virt. eigenvalues --    0.86881   0.88758   0.95906   0.99656   1.03425
 Alpha virt. eigenvalues --    1.04779   1.06025   1.09208   1.11510   1.11859
 Alpha virt. eigenvalues --    1.13093   1.15896   1.17679   1.20334   1.21582
 Alpha virt. eigenvalues --    1.23122   1.23920   1.27469   1.35153   1.35706
 Alpha virt. eigenvalues --    1.38608   1.39589   1.44735   1.44941   1.45628
 Alpha virt. eigenvalues --    1.46605   1.50857   1.53223   1.54885   1.56036
 Alpha virt. eigenvalues --    1.57491   1.58225   1.60213   1.60466   1.61802
 Alpha virt. eigenvalues --    1.64926   1.66297   1.67776   1.68489   1.71232
 Alpha virt. eigenvalues --    1.75510   1.76061   1.77775   1.78518   1.80002
 Alpha virt. eigenvalues --    1.82128   1.84042   1.87091   1.88448   1.93218
 Alpha virt. eigenvalues --    1.96447   1.99929   2.04866   2.06072   2.07678
 Alpha virt. eigenvalues --    2.11037   2.13567   2.15944   2.19366   2.25574
 Alpha virt. eigenvalues --    2.30460   2.31290   2.34232   2.38605   2.43755
 Alpha virt. eigenvalues --    2.46766   2.48266   2.50355   2.51906   2.52502
 Alpha virt. eigenvalues --    2.55763   2.56444   2.57865   2.59514   2.60638
 Alpha virt. eigenvalues --    2.65109   2.66976   2.69247   2.71046   2.71822
 Alpha virt. eigenvalues --    2.73696   2.75869   2.78490   2.82042   2.85127
 Alpha virt. eigenvalues --    2.89134   2.89547   2.92564   2.96043   2.96943
 Alpha virt. eigenvalues --    2.99727   3.01787   3.04438   3.08549   3.13493
 Alpha virt. eigenvalues --    3.17140   3.19434   3.21227   3.29985   3.33713
 Alpha virt. eigenvalues --    3.36291   3.41524   3.57747   3.65618   3.72232
 Alpha virt. eigenvalues --    3.76876   3.78974   3.82611   3.83068   3.96601
 Alpha virt. eigenvalues --    4.04029   4.09198   4.14169   4.26263   4.29445
 Alpha virt. eigenvalues --    4.74489   4.84764   5.00365   5.03824   5.07581
 Alpha virt. eigenvalues --    5.28092   5.48577   5.78184  23.71072  23.79680
 Alpha virt. eigenvalues --   23.82328  23.96227  23.96598  35.60541  49.89001
 Alpha virt. eigenvalues --   49.96781
          Condensed to atoms (all electrons):
              1          2          3          4          5          6
     1  N    6.705989   0.368112  -0.062406  -0.055066   0.019062   0.011213
     2  H    0.368112   0.436140   0.025775   0.011459  -0.031839  -0.038571
     3  C   -0.062406   0.025775  10.518515   0.526386  -1.744343  -3.380292
     4  H   -0.055066   0.011459   0.526386   0.529703  -0.010197  -0.203738
     5  C    0.019062  -0.031839  -1.744343  -0.010197   7.451385   0.460634
     6  C    0.011213  -0.038571  -3.380292  -0.203738   0.460634   8.974866
     7  C    0.077220   0.002692   0.061234  -0.071286  -0.571300   0.183425
     8  O   -0.034249   0.005715  -0.069445   0.005202  -0.068080   0.397002
     9  H   -0.004181  -0.000524  -0.098730   0.007032   0.158481   0.026706
    10  H    0.000771  -0.000034   0.067552  -0.000764  -0.130750  -0.018172
    11  H   -0.009361   0.002044   0.075179   0.000873  -0.126560  -0.066054
    12  H    0.386706  -0.037299  -0.061059  -0.015843   0.022217   0.025421
    13  O   -0.011125   0.000247  -0.014982   0.005608  -0.063550   0.294148
    14  H   -0.002543  -0.000064  -0.054487  -0.004870   0.020448   0.060872
    15  H   -0.010622   0.000839  -0.143221   0.021449   0.610475   0.033032
    16  C   -0.098459   0.006170   0.550761   0.000677  -0.190616  -0.362995
    17  H    0.008274  -0.000992  -0.032264  -0.001547  -0.050966  -0.000027
    18  H    0.001191   0.000249   0.054150  -0.001715  -0.114883  -0.024455
    19  H   -0.004240   0.000195  -0.044582   0.009810   0.065358   0.015498
              7          8          9         10         11         12
     1  N    0.077220  -0.034249  -0.004181   0.000771  -0.009361   0.386706
     2  H    0.002692   0.005715  -0.000524  -0.000034   0.002044  -0.037299
     3  C    0.061234  -0.069445  -0.098730   0.067552   0.075179  -0.061059
     4  H   -0.071286   0.005202   0.007032  -0.000764   0.000873  -0.015843
     5  C   -0.571300  -0.068080   0.158481  -0.130750  -0.126560   0.022217
     6  C    0.183425   0.397002   0.026706  -0.018172  -0.066054   0.025421
     7  C    6.097539  -0.030229   0.296765   0.438564   0.464067  -0.001153
     8  O   -0.030229   8.166813   0.002180  -0.003322  -0.007882  -0.001203
     9  H    0.296765   0.002180   0.565481  -0.043689  -0.045539  -0.000086
    10  H    0.438564  -0.003322  -0.043689   0.567039  -0.024360   0.000154
    11  H    0.464067  -0.007882  -0.045539  -0.024360   0.567587  -0.000761
    12  H   -0.001153  -0.001203  -0.000086   0.000154  -0.000761   0.434534
    13  O   -0.014588  -0.249818  -0.004060   0.000275  -0.004654  -0.000393
    14  H    0.004990   0.137794   0.001272   0.000072  -0.004547   0.000032
    15  H   -0.138651   0.003346   0.017906  -0.014644  -0.020910  -0.001027
    16  C   -0.165198   0.003473  -0.031015   0.001525   0.021056  -0.005556
    17  H    0.021629  -0.000035  -0.003489   0.002537  -0.001407   0.001895
    18  H   -0.001252  -0.000339   0.002062  -0.001497   0.002634   0.000075
    19  H   -0.018038   0.000400   0.008449   0.002833  -0.002289  -0.000584
             13         14         15         16         17         18
     1  N   -0.011125  -0.002543  -0.010622  -0.098459   0.008274   0.001191
     2  H    0.000247  -0.000064   0.000839   0.006170  -0.000992   0.000249
     3  C   -0.014982  -0.054487  -0.143221   0.550761  -0.032264   0.054150
     4  H    0.005608  -0.004870   0.021449   0.000677  -0.001547  -0.001715
     5  C   -0.063550   0.020448   0.610475  -0.190616  -0.050966  -0.114883
     6  C    0.294148   0.060872   0.033032  -0.362995  -0.000027  -0.024455
     7  C   -0.014588   0.004990  -0.138651  -0.165198   0.021629  -0.001252
     8  O   -0.249818   0.137794   0.003346   0.003473  -0.000035  -0.000339
     9  H   -0.004060   0.001272   0.017906  -0.031015  -0.003489   0.002062
    10  H    0.000275   0.000072  -0.014644   0.001525   0.002537  -0.001497
    11  H   -0.004654  -0.004547  -0.020910   0.021056  -0.001407   0.002634
    12  H   -0.000393   0.000032  -0.001027  -0.005556   0.001895   0.000075
    13  O    8.159621   0.121373   0.003286  -0.000005  -0.000243  -0.000413
    14  H    0.121373   0.422251   0.000982  -0.005413  -0.000155  -0.000361
    15  H    0.003286   0.000982   0.579172  -0.101251  -0.007777  -0.017618
    16  C   -0.000005  -0.005413  -0.101251   5.671596   0.422155   0.448317
    17  H   -0.000243  -0.000155  -0.007777   0.422155   0.527417  -0.023601
    18  H   -0.000413  -0.000361  -0.017618   0.448317  -0.023601   0.574725
    19  H    0.001096   0.000150   0.012131   0.325064  -0.038704  -0.039026
             19
     1  N   -0.004240
     2  H    0.000195
     3  C   -0.044582
     4  H    0.009810
     5  C    0.065358
     6  C    0.015498
     7  C   -0.018038
     8  O    0.000400
     9  H    0.008449
    10  H    0.002833
    11  H   -0.002289
    12  H   -0.000584
    13  O    0.001096
    14  H    0.000150
    15  H    0.012131
    16  C    0.325064
    17  H   -0.038704
    18  H   -0.039026
    19  H    0.573686
 Mulliken atomic charges:
              1
     1  N   -0.286284
     2  H    0.249685
     3  C   -0.173740
     4  H    0.246827
     5  C    0.295024
     6  C   -0.388513
     7  C   -0.636430
     8  O   -0.257323
     9  H    0.144981
    10  H    0.155909
    11  H    0.180884
    12  H    0.253929
    13  O   -0.221823
    14  H    0.302206
    15  H    0.173104
    16  C   -0.490286
    17  H    0.177300
    18  H    0.141755
    19  H    0.132793
 Sum of Mulliken charges=   0.00000
 Atomic charges with hydrogens summed into heavy atoms:
              1
     1  N    0.217330
     2  H    0.000000
     3  C    0.073087
     4  H    0.000000
     5  C    0.468128
     6  C   -0.388513
     7  C   -0.154655
     8  O    0.044883
     9  H    0.000000
    10  H    0.000000
    11  H    0.000000
    12  H    0.000000
    13  O   -0.221823
    14  H    0.000000
    15  H    0.000000
    16  C   -0.038438
    17  H    0.000000
    18  H    0.000000
    19  H    0.000000
 Sum of Mulliken charges=   0.00000
 APT atomic charges:
              1
     1  N   -0.510525
     2  H    0.181646
     3  C    0.255815
     4  H   -0.005697
     5  C    0.133315
     6  C    0.844409
     7  C    0.037693
     8  O   -0.725301
     9  H   -0.010922
    10  H   -0.014694
    11  H   -0.012014
    12  H    0.156814
    13  O   -0.717398
    14  H    0.425118
    15  H   -0.047572
    16  C    0.033500
    17  H    0.018823
    18  H   -0.023261
    19  H   -0.019749
 Sum of APT charges=   0.00000
 APT Atomic charges with hydrogens summed into heavy atoms:
              1
     1  N   -0.172065
     2  H    0.000000
     3  C    0.250119
     4  H    0.000000
     5  C    0.085744
     6  C    0.844409
     7  C    0.000062
     8  O   -0.300183
     9  H    0.000000
    10  H    0.000000
    11  H    0.000000
    12  H    0.000000
    13  O   -0.717398
    14  H    0.000000
    15  H    0.000000
    16  C    0.009312
    17  H    0.000000
    18  H    0.000000
    19  H    0.000000
 Sum of APT charges=   0.00000
 Electronic spatial extent (au):  <R**2>=  1091.0740
 Charge=     0.0000 electrons
 Dipole moment (field-independent basis, Debye):
    X=     1.2891    Y=     0.7385    Z=    -0.1390  Tot=     1.4922
 Quadrupole moment (field-independent basis, Debye-Ang):
   XX=   -53.2226   YY=   -48.8166   ZZ=   -52.6433
   XY=    -3.1284   XZ=     0.1053   YZ=    -2.3337
 Traceless Quadrupole moment (field-independent basis, Debye-Ang):
   XX=    -1.6618   YY=     2.7443   ZZ=    -1.0824
   XY=    -3.1284   XZ=     0.1053   YZ=    -2.3337
 Octapole moment (field-independent basis, Debye-Ang**2):
  XXX=   -17.1469  YYY=    11.0095  ZZZ=    -2.0625  XYY=   -10.4290
  XXY=    -4.5150  XXZ=     4.7075  XZZ=     5.6269  YZZ=     5.6786
  YYZ=     1.9366  XYZ=     5.6872
 Hexadecapole moment (field-independent basis, Debye-Ang**3):
 XXXX=  -811.6495 YYYY=  -411.3625 ZZZZ=  -168.6096 XXXY=     8.2522
 XXXZ=    -5.0480 YYYX=   -14.9418 YYYZ=    -3.7452 ZZZX=     0.0305
 ZZZY=     0.4037 XXYY=  -216.4627 XXZZ=  -184.7020 YYZZ=   -91.7101
 XXYZ=   -12.3420 YYXZ=     1.1753 ZZXY=    -3.7385
 N-N= 4.029255078404D+02 E-N=-1.745924056828D+03  KE= 4.005022661831D+02
  Exact polarizability:  87.185   3.474  77.956  -0.562   2.377  71.139
 Approx polarizability: 109.893   6.620 105.043  -0.351   9.352 118.249
 ***** Axes restored to original set *****
 -------------------------------------------------------------------
 Center     Atomic                   Forces (Hartrees/Bohr)
 Number     Number              X              Y              Z
 -------------------------------------------------------------------
    1          7           0.009517567   -0.001364139   -0.002026988
    2          1          -0.003811617   -0.001031587   -0.003747153
    3          6           0.000464118    0.004233468    0.003081414
    4          1          -0.000699888    0.000324241    0.001056647
    5          6          -0.000586148   -0.000501628   -0.000514197
    6          6          -0.049238826   -0.019235822    0.012342881
    7          6           0.000321098    0.001538502    0.000345032
    8          8           0.011449133   -0.007202297   -0.031534228
    9          1          -0.000077335    0.000204328    0.001698002
   10          1          -0.001247345    0.000866828   -0.000789051
   11          1           0.001652645    0.000603705   -0.000654655
   12          1          -0.003104682   -0.003177142    0.003483995
   13          8           0.015847442    0.017732867    0.023779441
   14          1           0.021293086    0.008461899   -0.004935878
   15          1           0.000432273   -0.000508093   -0.002312112
   16          6          -0.001445476   -0.000510609    0.000089793
   17          1           0.000811760   -0.001757723   -0.000100418
   18          1          -0.001360898    0.000909814   -0.000959379
   19          1          -0.000216907    0.000413388    0.001696854
 -------------------------------------------------------------------
 Cartesian Forces:  Max     0.049238826 RMS     0.010279814

 GradGradGradGradGradGradGradGradGradGradGradGradGradGradGradGradGradGrad
 Berny optimization.
 Internal  Forces:  Max     0.026627735 RMS     0.004944039
 Search for a saddle point.
 Step number   1 out of a maximum of 102
 All quantities printed in internal units (Hartrees-Bohrs-Radians)
 Swaping is turned off.
 Second derivative matrix not updated -- analytic derivatives used.
     Eigenvalues ---   -0.10360   0.00095   0.00196   0.00250   0.00275
     Eigenvalues ---    0.00373   0.00989   0.03011   0.03450   0.04023
     Eigenvalues ---    0.04239   0.04507   0.04561   0.04592   0.04643
     Eigenvalues ---    0.04711   0.05156   0.05280   0.05478   0.07136
     Eigenvalues ---    0.11805   0.11940   0.12261   0.12690   0.13228
     Eigenvalues ---    0.14215   0.14770   0.14886   0.15878   0.17886
     Eigenvalues ---    0.18662   0.19741   0.20640   0.25538   0.27472
     Eigenvalues ---    0.27674   0.29207   0.31960   0.32372   0.32590
     Eigenvalues ---    0.32845   0.32892   0.33145   0.33727   0.34081
     Eigenvalues ---    0.35483   0.36414   0.43497   0.45330   0.45842
     Eigenvalues ---    0.459491000.000001000.000001000.000001000.00000
     Eigenvalues --- 1000.000001000.000001000.000001000.000001000.00000
     Eigenvalues --- 1000.000001000.000001000.000001000.000001000.00000
     Eigenvalues --- 1000.000001000.000001000.000001000.000001000.00000
     Eigenvalues --- 1000.000001000.000001000.000001000.000001000.00000
     Eigenvalues --- 1000.000001000.000001000.000001000.000001000.00000
     Eigenvalues --- 1000.000001000.000001000.000001000.000001000.00000
     Eigenvalues --- 1000.000001000.000001000.000001000.000001000.00000
     Eigenvalues --- 1000.000001000.00000
 Eigenvectors required to have negative eigenvalues:
                          R1        R2        R3        R4        R5
         1              0.00023  -0.00952  -0.00010   0.00421  -0.00411
                          R6        R7        R8        R9        R10
         1              0.00931  -0.00009  -0.00116  -0.00008  -0.13258
                          R11       R12       R13       R14       R15
         1              0.13034   0.00040   0.00077  -0.00023   0.00040
                          R16       R17       R18       R19       R20
         1              0.64352  -0.64277  -0.00001   0.00008   0.00012
                          A1        A2        A3        A4        A5
         1             -0.00985   0.00202   0.00126  -0.00243   0.00742
                          A6        A7        A8        A9        A10
         1             -0.01061  -0.00552   0.01946  -0.00772  -0.00107
                          A11       A12       A13       A14       A15
         1             -0.00170   0.00108   0.00049   0.00006   0.00111
                          A16       A17       A18       A19       A20
         1             -0.06455   0.06447  -0.00027   0.00042   0.00103
                          A21       A22       A23       A24       A25
         1             -0.00094  -0.00117   0.00126  -0.00064  -0.00166
                          A26       A27       A28       A29       A30
         1             -0.00059  -0.00021   0.00097   0.00004  -0.00007
                          A31       A32       A33       D1        D2
         1             -0.00013   0.10972   0.33916   0.00035  -0.00351
                          D3        D4        D5        D6        D7
         1             -0.01572   0.00659   0.00273  -0.00948  -0.00364
                          D8        D9        D10       D11       D12
         1             -0.00262  -0.00354  -0.00565  -0.00463  -0.00555
                          D13       D14       D15       D16       D17
         1              0.01022   0.01125   0.01032   0.01423  -0.01028
                          D18       D19       D20       D21       D22
         1              0.01135  -0.01316   0.01085  -0.01366   0.00167
                          D23       D24       D25       D26       D27
         1              0.00114   0.00042  -0.00071  -0.00124  -0.00197
                          D28       D29       D30       D31       D32
         1              0.00101   0.00048  -0.00025   0.00006  -0.00042
                          D33       D34       D35       D36       D37
         1             -0.00009  -0.00049  -0.00097  -0.00065   0.00087
                          D38       D39
         1              0.00039   0.00071
 RFO step:  Lambda0=2.988199402D-07 Lambda=-1.04483554D-02.
 Linear search not attempted -- option 19 set.
 Maximum step size (   0.300) exceeded in Quadratic search.
    -- Step size scaled by   0.749
 Iteration  1 RMS(Cart)=  0.02791064 RMS(Int)=  0.00172623
 Iteration  2 RMS(Cart)=  0.00136121 RMS(Int)=  0.00117682
 Iteration  3 RMS(Cart)=  0.00000768 RMS(Int)=  0.00117680
 Iteration  4 RMS(Cart)=  0.00000007 RMS(Int)=  0.00117680
 Variable       Old X    -DE/DX   Delta X   Delta X   Delta X     New X
                                 (Linear)    (Quad)   (Total)
    R1        1.91645  -0.00294   0.00000   0.00112   0.00112   1.91758
    R2        2.76210  -0.00582   0.00000   0.00199   0.00199   2.76408
    R3        1.91301  -0.00282   0.00000   0.00159   0.00159   1.91461
    R4        2.06831  -0.00117   0.00000  -0.00181  -0.00181   2.06650
    R5        2.94955  -0.00259   0.00000  -0.01106  -0.01106   2.93850
    R6        2.84468   0.00060   0.00000   0.00693   0.00693   2.85161
    R7        2.91151  -0.00331   0.00000  -0.00822  -0.00822   2.90329
    R8        2.08045  -0.00240   0.00000  -0.00478  -0.00478   2.07566
    R9        2.90551  -0.00251   0.00000  -0.00594  -0.00594   2.89958
   R10        2.47619  -0.02663   0.00000  -0.04872  -0.04904   2.42715
   R11        2.46894  -0.02630   0.00000  -0.04753  -0.04785   2.42109
   R12        3.04337  -0.01692   0.00000  -0.13046  -0.13013   2.91324
   R13        2.07378  -0.00170   0.00000  -0.00349  -0.00349   2.07028
   R14        2.06995  -0.00171   0.00000  -0.00354  -0.00354   2.06641
   R15        2.07025  -0.00187   0.00000  -0.00355  -0.00355   2.06670
   R16        2.55946  -0.01103   0.00000  -0.07433  -0.07421   2.48525
   R17        2.56194  -0.01032   0.00000  -0.07277  -0.07265   2.48928
   R18        2.06480  -0.00171   0.00000  -0.00360  -0.00360   2.06120
   R19        2.07119  -0.00189   0.00000  -0.00369  -0.00369   2.06750
   R20        2.07543  -0.00176   0.00000  -0.00370  -0.00370   2.07173
    A1        1.99515  -0.00178   0.00000  -0.04401  -0.04855   1.94660
    A2        1.96976  -0.00020   0.00000  -0.04825  -0.05612   1.91364
    A3        2.01656  -0.00279   0.00000  -0.05046  -0.05493   1.96162
    A4        1.89366  -0.00038   0.00000  -0.00277  -0.00277   1.89089
    A5        1.93905   0.00038   0.00000  -0.00332  -0.00333   1.93571
    A6        1.93800   0.00014   0.00000   0.00577   0.00577   1.94377
    A7        1.89298   0.00025   0.00000   0.00239   0.00239   1.89537
    A8        1.87363  -0.00041   0.00000  -0.00563  -0.00562   1.86801
    A9        1.92451   0.00000   0.00000   0.00331   0.00331   1.92781
   A10        1.95147   0.00025   0.00000   0.00320   0.00321   1.95468
   A11        1.85688  -0.00018   0.00000   0.00081   0.00081   1.85769
   A12        1.91699   0.00051   0.00000   0.00350   0.00351   1.92050
   A13        1.89220   0.00005   0.00000  -0.00168  -0.00169   1.89051
   A14        1.94357  -0.00069   0.00000  -0.00411  -0.00412   1.93945
   A15        1.89987   0.00008   0.00000  -0.00171  -0.00172   1.89815
   A16        2.18047  -0.00261   0.00000  -0.00616  -0.00614   2.17432
   A17        2.21308  -0.00325   0.00000  -0.01121  -0.01118   2.20190
   A18        1.88948   0.00586   0.00000   0.01733   0.01728   1.90677
   A19        1.93628   0.00027   0.00000   0.00216   0.00215   1.93844
   A20        1.92086  -0.00015   0.00000  -0.00020  -0.00020   1.92066
   A21        1.96176   0.00008   0.00000   0.00181   0.00181   1.96356
   A22        1.88123  -0.00008   0.00000  -0.00133  -0.00133   1.87991
   A23        1.88321  -0.00013   0.00000  -0.00093  -0.00093   1.88228
   A24        1.87765  -0.00001   0.00000  -0.00176  -0.00176   1.87589
   A25        1.79720  -0.01109   0.00000   0.03902   0.03975   1.83695
   A26        1.93253   0.00122   0.00000   0.00698   0.00697   1.93951
   A27        1.92617  -0.00031   0.00000  -0.00153  -0.00153   1.92464
   A28        1.93060   0.00000   0.00000   0.00049   0.00049   1.93109
   A29        1.90273  -0.00058   0.00000  -0.00410  -0.00410   1.89864
   A30        1.88977  -0.00038   0.00000  -0.00095  -0.00096   1.88881
   A31        1.88078   0.00000   0.00000  -0.00117  -0.00117   1.87961
   A32        3.14932  -0.00010   0.00000   0.00117   0.00117   3.15049
   A33        3.10577   0.00039   0.00000   0.00300   0.00301   3.10878
    D1        3.04047  -0.00289   0.00000  -0.07935  -0.07736   2.96311
    D2       -1.16330  -0.00260   0.00000  -0.08014  -0.07814  -1.24144
    D3        0.98532  -0.00224   0.00000  -0.07414  -0.07215   0.91318
    D4        0.71049   0.00234   0.00000   0.09735   0.09535   0.80584
    D5        2.78991   0.00263   0.00000   0.09656   0.09456   2.88447
    D6       -1.34465   0.00299   0.00000   0.10255   0.10056  -1.24409
    D7        3.04855   0.00022   0.00000   0.00072   0.00072   3.04927
    D8        0.98576   0.00014   0.00000   0.00050   0.00050   0.98626
    D9       -1.06778  -0.00012   0.00000   0.00025   0.00025  -1.06753
   D10       -1.15481   0.00014   0.00000  -0.00316  -0.00317  -1.15798
   D11        3.06559   0.00005   0.00000  -0.00339  -0.00339   3.06220
   D12        1.01204  -0.00020   0.00000  -0.00364  -0.00364   1.00841
   D13        0.89219  -0.00021   0.00000  -0.00668  -0.00668   0.88551
   D14       -1.17060  -0.00030   0.00000  -0.00690  -0.00690  -1.17750
   D15        3.05904  -0.00055   0.00000  -0.00716  -0.00715   3.05189
   D16       -0.88219  -0.00060   0.00000  -0.00612  -0.00613  -0.88832
   D17        2.23835  -0.00064   0.00000  -0.00846  -0.00847   2.22988
   D18       -2.94947   0.00003   0.00000  -0.00260  -0.00260  -2.95207
   D19        0.17108  -0.00001   0.00000  -0.00494  -0.00494   0.16614
   D20        1.27478  -0.00003   0.00000  -0.00400  -0.00399   1.27079
   D21       -1.88786  -0.00007   0.00000  -0.00634  -0.00633  -1.89419
   D22        1.03371   0.00017   0.00000   0.00163   0.00163   1.03534
   D23        3.11420   0.00015   0.00000   0.00121   0.00121   3.11542
   D24       -1.07655   0.00009   0.00000   0.00004   0.00003  -1.07652
   D25        3.07531   0.00012   0.00000   0.00343   0.00342   3.07874
   D26       -1.12738   0.00010   0.00000   0.00301   0.00301  -1.12437
   D27        0.96504   0.00004   0.00000   0.00183   0.00183   0.96688
   D28       -1.11817  -0.00017   0.00000  -0.00225  -0.00225  -1.12042
   D29        0.96232  -0.00019   0.00000  -0.00267  -0.00266   0.95966
   D30        3.05475  -0.00025   0.00000  -0.00384  -0.00384   3.05091
   D31        0.91370   0.00016   0.00000   0.00394   0.00395   0.91765
   D32        3.02209   0.00003   0.00000   0.00237   0.00237   3.02447
   D33       -1.18136  -0.00016   0.00000   0.00025   0.00025  -1.18111
   D34        3.08513   0.00036   0.00000   0.00769   0.00769   3.09282
   D35       -1.08966   0.00024   0.00000   0.00612   0.00612  -1.08355
   D36        0.99007   0.00004   0.00000   0.00400   0.00399   0.99406
   D37       -1.11291   0.00005   0.00000   0.00200   0.00200  -1.11090
   D38        0.99549  -0.00008   0.00000   0.00043   0.00043   0.99592
   D39        3.07522  -0.00027   0.00000  -0.00169  -0.00169   3.07353
         Item               Value     Threshold  Converged?
 Maximum Force            0.026628     0.000450     NO 
 RMS     Force            0.004944     0.000300     NO 
 Maximum Displacement     0.131180     0.001800     NO 
 RMS     Displacement     0.028292     0.001200     NO 
 Predicted change in Energy=-5.359627D-03
 GradGradGradGradGradGradGradGradGradGradGradGradGradGradGradGradGradGrad

                          Input orientation:                          
 ---------------------------------------------------------------------
 Center     Atomic     Atomic              Coordinates (Angstroms)
 Number     Number      Type              X           Y           Z
 ---------------------------------------------------------------------
    1          7             0        0.139305    1.960744   -0.086524
    2          1             0       -0.156946    2.145047    0.866345
    3          6             0        0.064270    0.535307   -0.405842
    4          1             0        0.214460    0.415475   -1.482373
    5          6             0        1.172462   -0.259762    0.340989
    6          6             0       -1.297637   -0.029312   -0.084093
    7          6             0        1.036949   -1.775084    0.126915
    8          8             0       -1.899246    0.114999    1.041477
    9          1             0        1.099460   -2.029619   -0.936818
   10          1             0        1.845564   -2.300283    0.642709
   11          1             0        0.091795   -2.169204    0.510873
   12          1             0       -0.402001    2.528861   -0.727411
   13          8             0       -2.045276   -0.699703   -0.879737
   14          1             0       -2.696832   -0.578283    0.258656
   15          1             0        1.038980   -0.048930    1.410662
   16          6             0        2.558179    0.237928   -0.090801
   17          1             0        2.637586    1.320616    0.015007
   18          1             0        3.336524   -0.233431    0.516648
   19          1             0        2.751962   -0.019217   -1.138764
 ---------------------------------------------------------------------
                    Distance matrix (angstroms):
                    1          2          3          4          5
     1  N    0.000000
     2  H    1.014738   0.000000
     3  C    1.462691   2.063651   0.000000
     4  H    2.083722   2.940380   1.093543   0.000000
     5  C    2.486127   2.797575   1.554985   2.167570   0.000000
     6  C    2.454615   2.632934   1.509009   2.107003   2.516981
     7  C    3.848082   4.164080   2.562780   2.839867   1.536357
     8  O    2.972348   2.680928   2.475235   3.305731   3.172777
     9  H    4.191407   4.717816   2.816451   2.656942   2.184151
    10  H    4.647521   4.880677   3.508993   3.814684   2.169753
    11  H    4.173202   4.336011   2.855784   3.266289   2.200607
    12  H    1.013165   1.657535   2.072455   2.327314   3.375919
    13  O    3.532642   3.834996   2.489982   2.590985   3.469518
    14  H    3.822235   3.773172   3.050463   3.534736   3.883255
    15  H    2.662663   2.557353   2.142680   3.043872   1.098393
    16  C    2.969691   3.453278   2.531258   2.731485   1.534389
    17  H    2.580984   3.035436   2.723192   2.988806   2.179552
    18  H    3.924338   4.240728   3.485626   3.763568   2.171339
    19  H    3.442881   4.143217   2.840486   2.597295   2.177695
                    6          7          8          9         10
     6  C    0.000000
     7  C    2.922762   0.000000
     8  O    1.284393   3.609720   0.000000
     9  H    3.236425   1.095547   4.183931   0.000000
    10  H    3.945284   1.093497   4.473947   1.767720   0.000000
    11  H    2.619856   1.093650   3.076259   1.769374   1.763595
    12  H    2.785726   4.617834   3.346257   4.803954   5.499945
    13  O    1.281186   3.416125   2.091920   3.414865   4.474185
    14  H    1.541620   3.923113   1.315139   4.236434   4.873001
    15  H    2.773888   2.151190   2.965862   3.072043   2.511756
    16  C    3.865072   2.532540   4.600631   2.825841   2.736489
    17  H    4.161503   3.486821   4.805205   3.807345   3.759284
    18  H    4.677393   2.795823   5.273531   3.216101   2.551613
    19  H    4.184697   2.761573   5.138599   2.610222   3.032897
                   11         12         13         14         15
    11  H    0.000000
    12  H    4.883543   0.000000
    13  O    2.942840   3.625904   0.000000
    14  H    3.220417   3.986592   1.317272   0.000000
    15  H    2.490450   3.645928   3.896417   3.945076   0.000000
    16  C    3.498478   3.796881   4.763756   5.329490   2.155144
    17  H    4.348077   3.354121   5.177977   5.667556   2.525678
    18  H    3.778295   4.811913   5.579523   6.048708   2.472248
    19  H    3.797399   4.075462   4.852180   5.652849   3.071607
                   16         17         18         19
    16  C    0.000000
    17  H    1.090740   0.000000
    18  H    1.094073   1.776294   0.000000
    19  H    1.096313   1.771842   1.768613   0.000000
 Stoichiometry    C5H11NO2
 Framework group  C1[X(C5H11NO2)]
 Deg. of freedom    51
 Full point group                 C1
 Largest Abelian subgroup         C1      NOp   1
 Largest concise Abelian subgroup C1      NOp   1
                         Standard orientation:                         
 ---------------------------------------------------------------------
 Center     Atomic     Atomic              Coordinates (Angstroms)
 Number     Number      Type              X           Y           Z
 ---------------------------------------------------------------------
    1          7             0        0.111392    1.957181   -0.079250
    2          1             0       -0.185390    2.134951    0.874694
    3          6             0        0.051718    0.532085   -0.403295
    4          1             0        0.201536    0.417574   -1.480457
    5          6             0        1.169861   -0.253120    0.339124
    6          6             0       -1.303316   -0.048743   -0.081374
    7          6             0        1.050879   -1.769125    0.120109
    8          8             0       -1.904719    0.085055    1.045603
    9          1             0        1.114543   -2.019349   -0.944578
   10          1             0        1.866098   -2.287031    0.632872
   11          1             0        0.110774   -2.175037    0.504178
   12          1             0       -0.437210    2.521401   -0.717369
   13          8             0       -2.044702   -0.724720   -0.878143
   14          1             0       -2.695774   -0.614410    0.261657
   15          1             0        1.035726   -0.047406    1.409712
   16          6             0        2.549274    0.261421   -0.093101
   17          1             0        2.616796    1.344561    0.016265
   18          1             0        3.333770   -0.203298    0.511545
   19          1             0        2.744255    0.009994   -1.142229
 ---------------------------------------------------------------------
 Rotational constants (GHZ):      2.8959895      1.5136983      1.1924359
 Standard basis: 6-311++G(d,p) (5D, 7F)
 There are   253 symmetry adapted basis functions of A   symmetry.
 Integral buffers will be    262144 words long.
 Raffenetti 2 integral format.
 Two-electron integral symmetry is turned on.
   253 basis functions,   387 primitive gaussians,   261 cartesian basis functions
    32 alpha electrons       32 beta electrons
       nuclear repulsion energy       405.3801133097 Hartrees.
 NAtoms=   19 NActive=   19 NUniq=   19 SFac= 7.50D-01 NAtFMM=   80 NAOKFM=F Big=F
 One-electron integrals computed using PRISM.
 NBasis=   253 RedAO= T  NBF=   253
 NBsUse=   253 1.00D-06 NBFU=   253
 Initial guess read from the read-write file:
 Initial guess orbital symmetries:
       Occupied  (A) (A) (A) (A) (A) (A) (A) (A) (A) (A) (A) (A)
                 (A) (A) (A) (A) (A) (A) (A) (A) (A) (A) (A) (A)
                 (A) (A) (A) (A) (A) (A) (A) (A)
       Virtual   (A) (A) (A) (A) (A) (A) (A) (A) (A) (A) (A) (A)
                 (A) (A) (A) (A) (A) (A) (A) (A) (A) (A) (A) (A)
                 (A) (A) (A) (A) (A) (A) (A) (A) (A) (A) (A) (A)
                 (A) (A) (A) (A) (A) (A) (A) (A) (A) (A) (A) (A)
                 (A) (A) (A) (A) (A) (A) (A) (A) (A) (A) (A) (A)
                 (A) (A) (A) (A) (A) (A) (A) (A) (A) (A) (A) (A)
                 (A) (A) (A) (A) (A) (A) (A) (A) (A) (A) (A) (A)
                 (A) (A) (A) (A) (A) (A) (A) (A) (A) (A) (A) (A)
                 (A) (A) (A) (A) (A) (A) (A) (A) (A) (A) (A) (A)
                 (A) (A) (A) (A) (A) (A) (A) (A) (A) (A) (A) (A)
                 (A) (A) (A) (A) (A) (A) (A) (A) (A) (A) (A) (A)
                 (A) (A) (A) (A) (A) (A) (A) (A) (A) (A) (A) (A)
                 (A) (A) (A) (A) (A) (A) (A) (A) (A) (A) (A) (A)
                 (A) (A) (A) (A) (A) (A) (A) (A) (A) (A) (A) (A)
                 (A) (A) (A) (A) (A) (A) (A) (A) (A) (A) (A) (A)
                 (A) (A) (A) (A) (A) (A) (A) (A) (A) (A) (A) (A)
                 (A) (A) (A) (A) (A) (A) (A) (A) (A) (A) (A) (A)
                 (A) (A) (A) (A) (A) (A) (A) (A) (A) (A) (A) (A)
                 (A) (A) (A) (A) (A)
 Harris functional with IExCor=  402 diagonalized for initial guess.
 ExpMin= 3.60D-02 ExpMax= 8.59D+03 ExpMxC= 1.30D+03 IAcc=3 IRadAn=         5 AccDes= 0.00D+00
 HarFok:  IExCor= 402 AccDes= 0.00D+00 IRadAn=         5 IDoV=1
 ScaDFX=  1.000000  1.000000  1.000000  1.000000
 Requested convergence on RMS density matrix=1.00D-08 within 128 cycles.
 Requested convergence on MAX density matrix=1.00D-06.
 Requested convergence on             energy=1.00D-06.
 No special actions if energy rises.
 SCF Done:  E(RB+HF-LYP) =  -402.445690400     A.U. after   12 cycles
             Convg  =    0.4238D-08             -V/T =  2.0042
             S**2   =   0.0000
 ***** Axes restored to original set *****
 -------------------------------------------------------------------
 Center     Atomic                   Forces (Hartrees/Bohr)
 Number     Number              X              Y              Z
 -------------------------------------------------------------------
    1          7           0.003747907   -0.000687062   -0.001190520
    2          1          -0.001517815    0.000332114   -0.000981776
    3          6           0.000238452    0.000600318    0.000878860
    4          1          -0.000058825    0.000016674    0.000274806
    5          6          -0.000346769   -0.000198797   -0.000257867
    6          6          -0.011425286   -0.004348375    0.002622791
    7          6           0.000138295    0.000427407    0.000178478
    8          8           0.002256321   -0.001454693   -0.006109982
    9          1          -0.000010981    0.000044196    0.000466166
   10          1          -0.000348448    0.000209139   -0.000206808
   11          1           0.000448414    0.000136601   -0.000165010
   12          1          -0.001550548   -0.000443952    0.001583010
   13          8           0.003124734    0.003486317    0.004618370
   14          1           0.005706445    0.002235693   -0.001312651
   15          1           0.000183276   -0.000100707   -0.000610567
   16          6          -0.000464508   -0.000137874    0.000013804
   17          1           0.000287206   -0.000473702    0.000035476
   18          1          -0.000355900    0.000230724   -0.000285729
   19          1          -0.000051970    0.000125978    0.000449149
 -------------------------------------------------------------------
 Cartesian Forces:  Max     0.011425286 RMS     0.002338323

 GradGradGradGradGradGradGradGradGradGradGradGradGradGradGradGradGradGrad
 Berny optimization.
 Internal  Forces:  Max     0.005227985 RMS     0.001066123
 Search for a saddle point.
 Step number   2 out of a maximum of 102
 All quantities printed in internal units (Hartrees-Bohrs-Radians)
 Swaping is turned off.
 Update second derivatives using D2CorX and points  1  2
     Eigenvalues ---   -0.10358   0.00095   0.00195   0.00247   0.00275
     Eigenvalues ---    0.00373   0.01217   0.03011   0.03450   0.04022
     Eigenvalues ---    0.04239   0.04507   0.04561   0.04591   0.04643
     Eigenvalues ---    0.04710   0.05155   0.05280   0.05696   0.07136
     Eigenvalues ---    0.11799   0.11932   0.12257   0.12668   0.13228
     Eigenvalues ---    0.14214   0.14771   0.14886   0.15883   0.17885
     Eigenvalues ---    0.18663   0.19756   0.20718   0.25539   0.27469
     Eigenvalues ---    0.27674   0.29206   0.31960   0.32372   0.32591
     Eigenvalues ---    0.32846   0.32893   0.33145   0.33727   0.34081
     Eigenvalues ---    0.35509   0.36417   0.43496   0.45345   0.45854
     Eigenvalues ---    0.466721000.000001000.000001000.000001000.00000
     Eigenvalues --- 1000.000001000.000001000.000001000.000001000.00000
     Eigenvalues --- 1000.000001000.000001000.000001000.000001000.00000
     Eigenvalues --- 1000.000001000.000001000.000001000.000001000.00000
     Eigenvalues --- 1000.000001000.000001000.000001000.000001000.00000
     Eigenvalues --- 1000.000001000.000001000.000001000.000001000.00000
     Eigenvalues --- 1000.000001000.000001000.000001000.000001000.00000
     Eigenvalues --- 1000.000001000.000001000.000001000.000001000.00000
     Eigenvalues --- 1000.000001000.00000
 Eigenvectors required to have negative eigenvalues:
                          R1        R2        R3        R4        R5
         1              0.00024  -0.00952  -0.00010   0.00421  -0.00414
                          R6        R7        R8        R9        R10
         1              0.00935  -0.00009  -0.00116  -0.00008  -0.13191
                          R11       R12       R13       R14       R15
         1              0.12973   0.00056   0.00077  -0.00023   0.00040
                          R16       R17       R18       R19       R20
         1              0.64125  -0.64041  -0.00001   0.00008   0.00012
                          A1        A2        A3        A4        A5
         1             -0.01032   0.00119   0.00080  -0.00245   0.00743
                          A6        A7        A8        A9        A10
         1             -0.01066  -0.00553   0.01943  -0.00765  -0.00106
                          A11       A12       A13       A14       A15
         1             -0.00170   0.00107   0.00050   0.00006   0.00111
                          A16       A17       A18       A19       A20
         1             -0.07004   0.06987  -0.00024   0.00042   0.00103
                          A21       A22       A23       A24       A25
         1             -0.00094  -0.00117   0.00126  -0.00064  -0.00161
                          A26       A27       A28       A29       A30
         1             -0.00059  -0.00021   0.00097   0.00004  -0.00008
                          A31       A32       A33       D1        D2
         1             -0.00013   0.11331   0.34506   0.00065  -0.00324
                          D3        D4        D5        D6        D7
         1             -0.01539   0.00629   0.00240  -0.00975  -0.00364
                          D8        D9        D10       D11       D12
         1             -0.00261  -0.00354  -0.00566  -0.00463  -0.00555
                          D13       D14       D15       D16       D17
         1              0.01023   0.01125   0.01033   0.01426  -0.01025
                          D18       D19       D20       D21       D22
         1              0.01134  -0.01317   0.01076  -0.01375   0.00167
                          D23       D24       D25       D26       D27
         1              0.00114   0.00042  -0.00071  -0.00124  -0.00197
                          D28       D29       D30       D31       D32
         1              0.00101   0.00048  -0.00025   0.00007  -0.00042
                          D33       D34       D35       D36       D37
         1             -0.00009  -0.00049  -0.00097  -0.00065   0.00087
                          D38       D39
         1              0.00039   0.00071
 RFO step:  Lambda0=3.651237575D-08 Lambda=-9.26477482D-04.
 Linear search not attempted -- option 19 set.
 Iteration  1 RMS(Cart)=  0.02489325 RMS(Int)=  0.00151928
 Iteration  2 RMS(Cart)=  0.00135087 RMS(Int)=  0.00054734
 Iteration  3 RMS(Cart)=  0.00000231 RMS(Int)=  0.00054733
 Iteration  4 RMS(Cart)=  0.00000001 RMS(Int)=  0.00054733
 Variable       Old X    -DE/DX   Delta X   Delta X   Delta X     New X
                                 (Linear)    (Quad)   (Total)
    R1        1.91758  -0.00042   0.00000   0.00398   0.00398   1.92156
    R2        2.76408  -0.00087   0.00000   0.00781   0.00781   2.77189
    R3        1.91461  -0.00042   0.00000   0.00435   0.00435   1.91896
    R4        2.06650  -0.00028   0.00000  -0.00045  -0.00045   2.06605
    R5        2.93850  -0.00069   0.00000  -0.00703  -0.00703   2.93147
    R6        2.85161   0.00030   0.00000   0.00163   0.00163   2.85325
    R7        2.90329  -0.00086   0.00000  -0.00299  -0.00299   2.90030
    R8        2.07566  -0.00064   0.00000  -0.00167  -0.00167   2.07399
    R9        2.89958  -0.00067   0.00000  -0.00175  -0.00175   2.89782
   R10        2.42715  -0.00523   0.00000  -0.01097  -0.01104   2.41611
   R11        2.42109  -0.00522   0.00000  -0.01121  -0.01126   2.40983
   R12        2.91324  -0.00448   0.00000  -0.04513  -0.04510   2.86814
   R13        2.07028  -0.00046   0.00000  -0.00129  -0.00129   2.06899
   R14        2.06641  -0.00046   0.00000  -0.00136  -0.00136   2.06505
   R15        2.06670  -0.00050   0.00000  -0.00117  -0.00117   2.06553
   R16        2.48525  -0.00243   0.00000  -0.02464  -0.02458   2.46067
   R17        2.48928  -0.00224   0.00000  -0.02453  -0.02451   2.46478
   R18        2.06120  -0.00044   0.00000  -0.00139  -0.00139   2.05981
   R19        2.06750  -0.00051   0.00000  -0.00130  -0.00130   2.06620
   R20        2.07173  -0.00047   0.00000  -0.00148  -0.00148   2.07025
    A1        1.94660  -0.00019   0.00000  -0.03414  -0.03597   1.91063
    A2        1.91364  -0.00099   0.00000  -0.05442  -0.05821   1.85543
    A3        1.96162  -0.00057   0.00000  -0.03657  -0.03838   1.92324
    A4        1.89089  -0.00011   0.00000  -0.00187  -0.00187   1.88902
    A5        1.93571   0.00018   0.00000  -0.00400  -0.00400   1.93171
    A6        1.94377   0.00001   0.00000   0.00250   0.00251   1.94628
    A7        1.89537   0.00003   0.00000   0.00154   0.00153   1.89690
    A8        1.86801  -0.00013   0.00000  -0.00185  -0.00185   1.86616
    A9        1.92781   0.00000   0.00000   0.00365   0.00365   1.93146
   A10        1.95468   0.00013   0.00000   0.00083   0.00083   1.95551
   A11        1.85769  -0.00005   0.00000   0.00164   0.00164   1.85933
   A12        1.92050   0.00014   0.00000   0.00241   0.00241   1.92290
   A13        1.89051  -0.00001   0.00000  -0.00153  -0.00154   1.88897
   A14        1.93945  -0.00023   0.00000  -0.00187  -0.00188   1.93758
   A15        1.89815   0.00000   0.00000  -0.00147  -0.00147   1.89668
   A16        2.17432  -0.00072   0.00000  -0.00009  -0.00004   2.17428
   A17        2.20190  -0.00095   0.00000  -0.00527  -0.00528   2.19662
   A18        1.90677   0.00167   0.00000   0.00527   0.00523   1.91200
   A19        1.93844   0.00008   0.00000   0.00113   0.00113   1.93956
   A20        1.92066  -0.00002   0.00000  -0.00006  -0.00006   1.92060
   A21        1.96356   0.00005   0.00000   0.00041   0.00041   1.96397
   A22        1.87991  -0.00004   0.00000  -0.00069  -0.00069   1.87921
   A23        1.88228  -0.00005   0.00000   0.00024   0.00024   1.88251
   A24        1.87589  -0.00003   0.00000  -0.00113  -0.00113   1.87476
   A25        1.83695  -0.00163   0.00000   0.01880   0.01893   1.85588
   A26        1.93951   0.00040   0.00000   0.00450   0.00450   1.94400
   A27        1.92464  -0.00009   0.00000  -0.00152  -0.00152   1.92311
   A28        1.93109   0.00001   0.00000   0.00048   0.00048   1.93157
   A29        1.89864  -0.00020   0.00000  -0.00198  -0.00198   1.89665
   A30        1.88881  -0.00012   0.00000  -0.00106  -0.00107   1.88774
   A31        1.87961  -0.00001   0.00000  -0.00060  -0.00060   1.87901
   A32        3.15049  -0.00002   0.00000   0.00291   0.00288   3.15337
   A33        3.10878   0.00014   0.00000   0.00199   0.00196   3.11073
    D1        2.96311  -0.00091   0.00000  -0.00095   0.00009   2.96320
    D2       -1.24144  -0.00083   0.00000  -0.00260  -0.00155  -1.24300
    D3        0.91318  -0.00069   0.00000   0.00101   0.00205   0.91523
    D4        0.80584   0.00096   0.00000   0.12377   0.12273   0.92857
    D5        2.88447   0.00104   0.00000   0.12212   0.12108   3.00556
    D6       -1.24409   0.00118   0.00000   0.12573   0.12469  -1.11940
    D7        3.04927   0.00005   0.00000  -0.00002  -0.00002   3.04925
    D8        0.98626   0.00001   0.00000   0.00037   0.00037   0.98663
    D9       -1.06753  -0.00004   0.00000  -0.00008  -0.00008  -1.06761
   D10       -1.15798   0.00004   0.00000  -0.00374  -0.00374  -1.16172
   D11        3.06220   0.00001   0.00000  -0.00335  -0.00335   3.05885
   D12        1.00841  -0.00005   0.00000  -0.00380  -0.00380   1.00460
   D13        0.88551  -0.00009   0.00000  -0.00299  -0.00299   0.88252
   D14       -1.17750  -0.00013   0.00000  -0.00260  -0.00260  -1.18010
   D15        3.05189  -0.00018   0.00000  -0.00306  -0.00305   3.04884
   D16       -0.88832  -0.00026   0.00000  -0.02543  -0.02543  -0.91375
   D17        2.22988  -0.00025   0.00000  -0.03047  -0.03047   2.19941
   D18       -2.95207  -0.00005   0.00000  -0.02343  -0.02343  -2.97550
   D19        0.16614  -0.00004   0.00000  -0.02847  -0.02847   0.13767
   D20        1.27079  -0.00001   0.00000  -0.02618  -0.02617   1.24462
   D21       -1.89419   0.00000   0.00000  -0.03122  -0.03121  -1.92540
   D22        1.03534   0.00005   0.00000   0.00308   0.00308   1.03842
   D23        3.11542   0.00004   0.00000   0.00289   0.00289   3.11831
   D24       -1.07652   0.00002   0.00000   0.00169   0.00169  -1.07483
   D25        3.07874   0.00007   0.00000   0.00461   0.00461   3.08335
   D26       -1.12437   0.00006   0.00000   0.00442   0.00442  -1.11995
   D27        0.96688   0.00004   0.00000   0.00322   0.00322   0.97009
   D28       -1.12042  -0.00007   0.00000   0.00073   0.00073  -1.11969
   D29        0.95966  -0.00007   0.00000   0.00054   0.00054   0.96020
   D30        3.05091  -0.00010   0.00000  -0.00067  -0.00067   3.05024
   D31        0.91765   0.00007   0.00000   0.01567   0.01568   0.93333
   D32        3.02447   0.00001   0.00000   0.01512   0.01512   3.03959
   D33       -1.18111  -0.00006   0.00000   0.01372   0.01372  -1.16739
   D34        3.09282   0.00018   0.00000   0.01715   0.01715   3.10997
   D35       -1.08355   0.00013   0.00000   0.01660   0.01659  -1.06695
   D36        0.99406   0.00006   0.00000   0.01519   0.01519   1.00925
   D37       -1.11090   0.00004   0.00000   0.01320   0.01320  -1.09770
   D38        0.99592  -0.00001   0.00000   0.01265   0.01265   1.00857
   D39        3.07353  -0.00008   0.00000   0.01124   0.01124   3.08477
         Item               Value     Threshold  Converged?
 Maximum Force            0.005228     0.000450     NO 
 RMS     Force            0.001066     0.000300     NO 
 Maximum Displacement     0.158514     0.001800     NO 
 RMS     Displacement     0.025027     0.001200     NO 
 Predicted change in Energy=-4.936270D-04
 GradGradGradGradGradGradGradGradGradGradGradGradGradGradGradGradGradGrad

                          Input orientation:                          
 ---------------------------------------------------------------------
 Center     Atomic     Atomic              Coordinates (Angstroms)
 Number     Number      Type              X           Y           Z
 ---------------------------------------------------------------------
    1          7             0        0.152772    1.965646   -0.096705
    2          1             0       -0.149666    2.120442    0.861701
    3          6             0        0.069816    0.535206   -0.410593
    4          1             0        0.220021    0.411809   -1.486477
    5          6             0        1.174174   -0.255105    0.339227
    6          6             0       -1.295838   -0.023606   -0.090545
    7          6             0        1.036585   -1.770207    0.136581
    8          8             0       -1.886120    0.103868    1.036403
    9          1             0        1.101089   -2.033987   -0.924071
   10          1             0        1.842562   -2.292498    0.657901
   11          1             0        0.091018   -2.160100    0.522078
   12          1             0       -0.485883    2.491375   -0.685691
   13          8             0       -2.048649   -0.663770   -0.896563
   14          1             0       -2.677970   -0.556066    0.240786
   15          1             0        1.043025   -0.038226    1.407070
   16          6             0        2.561389    0.233963   -0.094303
   17          1             0        2.654732    1.314216    0.017294
   18          1             0        3.336537   -0.248349    0.507368
   19          1             0        2.749966   -0.018462   -1.143543
 ---------------------------------------------------------------------
                    Distance matrix (angstroms):
                    1          2          3          4          5
     1  N    0.000000
     2  H    1.016844   0.000000
     3  C    1.466822   2.044475   0.000000
     4  H    2.085761   2.927462   1.093304   0.000000
     5  C    2.482949   2.769252   1.551266   2.165266   0.000000
     6  C    2.460820   2.611020   1.509872   2.106191   2.517788
     7  C    3.846056   4.131602   2.559095   2.839417   1.534773
     8  O    2.984499   2.666902   2.470938   3.300845   3.159164
     9  H    4.192960   4.691765   2.815659   2.659794   2.183045
    10  H    4.642909   4.846085   3.504313   3.813695   2.167778
    11  H    4.172348   4.300734   2.852191   3.265831   2.199014
    12  H    1.015469   1.626363   2.052092   2.337553   3.368887
    13  O    3.521344   3.801246   2.482259   2.579095   3.475740
    14  H    3.806052   3.733839   3.027457   3.509782   3.865136
    15  H    2.658833   2.525824   2.140060   3.041789   1.097509
    16  C    2.966507   3.438395   2.529569   2.729795   1.533461
    17  H    2.587887   3.037708   2.733447   3.000580   2.181390
    18  H    3.924670   4.229697   3.482538   3.758178   2.168901
    19  H    3.431905   4.123564   2.833190   2.589085   2.176633
                    6          7          8          9         10
     6  C    0.000000
     7  C    2.922738   0.000000
     8  O    1.278551   3.586648   0.000000
     9  H    3.237540   1.094862   4.163809   0.000000
    10  H    3.944312   1.092777   4.448472   1.766138   0.000000
    11  H    2.619787   1.093033   3.049452   1.768473   1.761784
    12  H    2.708386   4.599470   3.259826   4.801480   5.487471
    13  O    1.275226   3.436606   2.086154   3.434983   4.495625
    14  H    1.517755   3.909337   1.302131   4.221663   4.860493
    15  H    2.777291   2.148009   2.955922   3.069308   2.506443
    16  C    3.865819   2.528840   4.590834   2.822160   2.732311
    17  H    4.172338   3.485153   4.808624   3.809257   3.752116
    18  H    4.676207   2.782681   5.261187   3.199179   2.536368
    19  H    4.180594   2.764599   5.124493   2.613294   3.039708
                   11         12         13         14         15
    11  H    0.000000
    12  H    4.840221   0.000000
    13  O    2.971485   3.527272   0.000000
    14  H    3.212374   3.866588   1.304303   0.000000
    15  H    2.488348   3.621614   3.905954   3.933724   0.000000
[...]
 185678,-0.00012442,0.00001957,-0.00059614,-0.09428130,0.05991398,-0.10
 859166,0.00003733,-0.00003674,0.00032601,-0.02385207,0.01495415,-0.014
 61244,0.10397102,-0.06437747,0.11393067,0.00028622,-0.00010241,0.00004
 099,-0.00009101,-0.00002147,-0.00000559,0.00026189,0.00012188,-0.00023
 498,-0.00003360,0.00007409,-0.00004974,-0.00111874,0.00029480,-0.00050
 939,-0.00042033,-0.00017295,0.00026959,-0.24394431,-0.07828869,0.08030
 321,-0.00018484,0.00060870,-0.00034199,-0.00106633,0.00038347,0.000178
 31,-0.02040102,-0.00800916,0.00898496,0.26571828,0.00043321,0.00029840
 ,-0.00035776,-0.00015701,-0.00011138,-0.00003407,-0.00116267,0.0010632
 2,0.00025995,0.00005265,-0.00003642,-0.00004353,-0.02910018,-0.0091365
 8,0.01247789,0.00057914,-0.00234589,0.00167615,-0.07691352,-0.07932775
 ,0.03120256,-0.00000352,0.00059146,-0.00067862,0.00712682,0.00196165,-
 0.00188237,0.01310257,0.00537170,-0.00660082,0.08562300,0.08697624,-0.
 00028172,-0.00001781,-0.00001436,0.00005532,0.00000731,0.00001556,0.00
 053742,0.00029076,-0.00011572,0.00006336,0.00001264,0.00003222,-0.0057
 5372,-0.00176469,0.00042382,0.00030505,0.00167635,0.00144545,0.0802014
 8,0.03189047,-0.07982335,-0.00018401,-0.00021303,-0.00083400,0.0278290
 6,0.01101486,-0.01015375,-0.01412630,-0.00646715,0.00582786,-0.0877830
 4,-0.03453440,0.08163896,-0.16838205,0.15357752,-0.16533743,0.00315369
 ,-0.00802988,0.01078914,-0.00376690,-0.01000114,0.00291621,0.00013948,
 0.00044289,0.00017570,-0.00012748,0.00137669,0.00074501,0.00248122,-0.
 00204387,0.00064792,-0.00028368,-0.00004955,-0.00040485,-0.00067572,0.
 00035007,0.00018239,-0.00000554,0.00005335,0.00005946,0.00011776,0.000
 20425,0.00002327,0.00006090,0.00005725,0.00002396,0.16683283,0.1195303
 1,-0.14588210,0.10176164,-0.00480942,0.00440895,-0.00449099,0.02194966
 ,-0.02003426,0.02240934,0.00029908,0.00135223,-0.00049141,-0.00245155,
 -0.00615956,-0.00291472,0.00129429,-0.00098490,0.00113168,0.00182435,-
 0.00024614,0.00111921,-0.00028010,0.00051134,-0.00011660,0.00003281,0.
 00001621,-0.00006869,-0.00004544,-0.00066443,-0.00012334,-0.00005275,0
 .00003542,0.00005484,-0.13676556,0.16708106,-0.13225502,0.10690592,-0.
 18843455,-0.02641302,0.02099518,-0.02122038,0.00715348,-0.00678370,0.0
 0733248,0.00051125,-0.00016191,0.00045628,-0.00036740,-0.00198795,-0.0
 0039527,0.00034561,0.00034822,0.00055664,0.00044732,-0.00044112,0.0007
 1809,0.00032172,-0.00048064,-0.00028177,-0.00000142,0.00010327,-0.0000
 4696,0.00002541,-0.00029941,-0.00001911,0.00000377,0.00003046,-0.00002
 446,0.15054263,-0.11805190,0.20122711,-0.00670600,-0.00598538,0.000294
 83,0.00001629,-0.00030930,0.00054889,-0.00849603,-0.01484934,-0.024942
 65,0.00228633,0.00065079,-0.00114629,-0.00055796,-0.00294571,0.0021155
 4,-0.23734830,-0.10261232,-0.09268552,-0.00050054,-0.00000992,-0.00051
 562,0.08833445,0.01899963,0.00426514,0.00010557,-0.00005242,-0.0000059
 0,-0.00010301,0.00019529,-0.00011575,-0.00031898,0.00016137,-0.0000620
 1,-0.00018269,0.00012969,-0.00047046,0.20186572,0.00018169,0.00040421,
 0.00048206,0.00013690,0.00024380,0.00010840,-0.01473030,0.00734725,-0.
 01328841,0.00098395,-0.00022102,0.00007419,-0.00116628,-0.00567662,0.0
 0280559,-0.11521605,-0.16375865,-0.10726604,-0.00006039,-0.00150594,0.
 00106881,-0.00295737,0.03115137,-0.06232112,-0.00056203,0.00018796,0.0
 0045651,0.00055582,0.00060073,0.00006701,0.00079449,0.00034304,-0.0011
 6397,0.00037183,0.00019888,-0.00006581,0.12828058,0.17332461,-0.001232
 85,0.00094479,0.00258369,0.00164968,0.00212026,0.00038196,0.00517946,-
 0.00176123,0.00783956,-0.00288963,-0.00074018,0.00284839,0.00150377,0.
 00077264,-0.00088440,-0.14004773,-0.12745573,-0.28545383,0.00068302,-0
 .00015122,-0.00014645,-0.06606381,-0.09333802,-0.15110187,-0.00073763,
 0.00024661,0.00060573,0.00019275,0.00011575,0.00029260,-0.00024453,-0.
 00032433,-0.00069794,-0.00035867,-0.00030069,-0.00053318,0.19097318,0.
 20043981,0.41477771,-0.00032268,-0.00083749,-0.00081366,-0.00033672,-0
 .00046840,-0.00018715,0.00215718,-0.00171536,0.00019776,0.00010868,0.0
 0018787,0.00031842,0.00018221,-0.00013601,0.00012145,-0.08816821,-0.03
 993741,0.04022881,-0.00023075,-0.00020467,0.00014620,-0.02201937,0.004
 46921,-0.00943142,0.00008130,0.00001346,-0.00008396,0.00016248,0.00005
 647,-0.00004070,-0.00001276,0.00039420,-0.00010127,0.00005782,-0.00003
 174,0.00001402,-0.03681286,0.00471573,0.01048717,0.14530940,0.00160729
 ,0.00047779,-0.00037397,-0.00054082,-0.00066393,-0.00003377,-0.0044521
 4,0.00574315,-0.00465181,0.00121879,0.00038608,-0.00066137,-0.00115122
 ,-0.00079271,0.00062287,-0.03960116,0.02400083,0.05091794,0.00024802,0
 .00005658,-0.00015054,0.03259928,-0.02422493,-0.00018989,0.00010822,-0
 .00005583,-0.00009508,-0.00010411,-0.00007991,-0.00001845,0.00011595,-
 0.00000348,0.00026715,-0.00007483,-0.00026753,0.00022369,-0.02265335,-
 0.04447050,0.01929645,0.03348810,0.03990069,-0.00021464,-0.00168587,-0
 .00151221,-0.00119563,-0.00164516,0.00003407,0.00032565,-0.00308646,-0
 .00685122,0.00300276,0.00112703,-0.00182286,-0.00018403,-0.00002959,0.
 00033330,0.03756619,0.04949978,0.13099678,-0.00032239,0.00025313,-0.00
 017237,0.07893682,0.04023711,-0.02677261,0.00052766,-0.00018097,-0.000
 40713,-0.00017792,-0.00015316,-0.00019778,0.00000256,0.00019829,0.0005
 9473,0.00007586,0.00019486,0.00015305,-0.07705273,-0.02039400,0.007386
 26,-0.04053494,-0.06416194,-0.10064284,0.00096188,-0.00153534,0.000960
 99,0.00008423,0.00043447,0.00032517,-0.00094648,-0.00270694,-0.0258168
 8,-0.00300740,0.00244469,-0.00208822,-0.05104941,0.00699538,0.02936896
 ,0.00212610,-0.00004959,-0.00220787,0.00019372,-0.00123508,-0.00280276
 ,0.00041497,0.00031479,0.00119971,0.00057406,-0.00067153,-0.00015551,0
 .00001778,0.00012800,0.00042337,0.00020297,0.00021800,-0.00047573,0.00
 004403,-0.00033788,0.00011720,-0.00059646,-0.00000948,0.00075414,-0.00
 017128,-0.00045465,-0.00081479,0.06062717,-0.00077977,0.00144073,0.000
 16152,0.00050432,-0.00026492,-0.00019489,0.00027892,0.00116711,0.01757
 124,0.00238806,-0.00139833,0.00170467,0.00618334,-0.05632204,-0.046308
 55,-0.00078045,-0.00008217,-0.00053845,0.00293266,-0.01011976,-0.03353
 531,0.00013538,-0.00028139,0.00015431,-0.00045685,-0.00651197,-0.00083
 469,0.00048751,0.00124891,0.00042203,-0.00043756,0.00136396,0.00037354
 ,-0.00023401,0.00018870,-0.00011363,0.00007002,0.00029466,0.00010201,-
 0.00000835,0.00001745,-0.00003325,-0.00710102,0.06670384,0.00068045,-0
 .00063919,0.00202589,-0.00063917,0.00115158,-0.00004376,-0.00109653,-0
 .00226871,-0.02055619,-0.00244479,0.00153346,-0.00012070,0.02826249,-0
 .04623246,-0.28201758,0.00144293,0.00050139,-0.00216512,0.00027341,-0.
 00190259,-0.00371887,0.00038003,0.00024788,0.00165852,-0.00008745,-0.0
 0053171,0.00149496,0.00023818,-0.00036481,0.00047973,-0.00035095,-0.00
 030363,0.00039064,0.00004146,-0.00004268,0.00046880,-0.00049189,-0.000
 01400,0.00127969,-0.00018639,-0.00046464,-0.00080359,-0.03024770,0.049
 63165,0.30828023,-0.00183100,-0.00061236,0.00047242,-0.00047504,0.0000
 9155,-0.00002627,-0.03368697,-0.00277409,0.00293127,0.00154413,-0.0009
 1699,0.00116810,-0.15664723,-0.03047354,0.02838319,-0.00022835,0.00369
 222,-0.00222595,-0.00566292,-0.00764401,0.00133925,-0.00023827,-0.0004
 7961,0.00063940,0.00030323,0.00125392,0.00008515,0.00074448,0.00156260
 ,-0.00009452,0.00075829,0.00141234,-0.00013478,0.00025941,-0.00059374,
 -0.00007553,-0.00076197,-0.00073586,0.00016244,-0.00005754,-0.00025752
 ,-0.00008304,-0.00630286,-0.00206488,0.00225248,0.47589684,-0.00071588
 ,-0.00041819,-0.00030225,0.00040156,0.00009435,-0.00007725,0.01549902,
 0.00683596,-0.00475649,-0.00048571,0.00036028,-0.00028941,-0.02646151,
 -0.08698054,0.00851713,0.00036972,-0.00480188,0.00261993,-0.03441641,-
 0.01705963,0.01083264,0.00086176,0.00088268,-0.00066935,0.00001942,0.0
 0149988,0.00046246,-0.00092582,0.00154804,-0.00002644,-0.00136384,-0.0
 0666576,-0.00101340,0.00028646,0.00019832,-0.00017545,0.00106018,0.001
 81661,-0.00005822,0.00001547,0.00007549,-0.00010299,0.00528185,0.00191
 987,-0.00115644,-0.03161017,0.57123669,0.00033622,-0.00023353,0.001334
 04,-0.00033576,0.00009996,-0.00019248,-0.01870320,-0.00492342,0.003669
 58,-0.00113530,-0.00051137,0.00097313,0.03002285,0.00961299,-0.0876551
 3,-0.00045458,0.00503909,-0.00397314,-0.00349918,-0.00050816,0.0016397
 4,-0.00011779,-0.00071119,0.00160942,-0.00119528,-0.00076652,0.0006033
 9,0.00038289,0.00049210,0.00001229,-0.00057596,-0.00147218,0.00024964,
 -0.00014790,-0.00006145,0.00015242,-0.00106835,-0.00142748,0.00068448,
 -0.00006248,-0.00057308,-0.00030187,0.03047136,0.01095510,-0.00866704,
 0.03132121,0.00793404,0.54960374,-0.00026359,0.00060840,0.00045462,-0.
 00050999,0.00003383,0.00010160,0.00042674,-0.00133845,-0.00048069,-0.0
 0008573,0.00012411,-0.00008731,-0.00138835,-0.03014457,-0.00503582,-0.
 00031644,-0.00046102,0.00020170,-0.00598710,-0.00060466,0.00208720,0.0
 0028637,0.00028756,-0.00017629,-0.00001922,0.00019983,-0.00010181,0.00
 014589,0.00006308,0.00024194,-0.00018817,-0.00205690,-0.00015775,0.000
 42997,0.00028354,-0.00001481,0.00034774,0.00024651,0.00012375,0.000022
 28,-0.00009585,-0.00004411,0.00108394,0.00052114,0.00014010,-0.0478245
 1,-0.01835084,-0.00178323,0.05218831,0.00259882,-0.00016309,0.00015379
 ,0.00010376,-0.00002969,-0.00006002,0.00036494,-0.00095194,0.00030076,
 -0.00005079,-0.00004347,-0.00000776,-0.00127237,-0.00865959,-0.0014236
 2,-0.00008235,-0.00022507,-0.00018880,-0.00235503,0.00027029,0.0015174
 1,0.00002467,0.00011436,0.00001512,0.00011055,0.00018453,-0.00001464,0
 .00010232,0.00031251,-0.00009000,0.00001287,-0.00060033,-0.00023484,0.
 00015961,0.00013118,0.00001110,-0.00008170,0.00001814,0.00008032,0.000
 01848,-0.00006017,-0.00005414,-0.00017336,0.00041427,0.00030558,-0.022
 22371,-0.31025246,-0.03095637,0.02360651,0.33684944,0.00033420,0.00021
 309,-0.00057967,0.00046994,0.00006871,0.00001136,-0.00036497,-0.000690
 09,0.00032388,-0.00001746,-0.00011896,-0.00004592,-0.00028854,0.010112
 85,0.00010856,-0.00011739,0.00002355,0.00004117,0.00165695,0.00034523,
 -0.00019776,0.00002429,0.00000658,-0.00008652,0.00020550,0.00039290,0.
 00032512,0.00016623,-0.00038359,-0.00001774,0.00026366,0.00051528,0.00
 061066,-0.00023074,-0.00007808,0.00000489,0.00005521,-0.00001238,-0.00
 002577,-0.00000408,0.00001773,0.00003185,-0.00056424,0.00020925,0.0001
 8679,-0.00231590,-0.03056651,-0.05220369,0.00060619,0.03297302,0.05232
 634,0.00063144,-0.00008981,0.00002295,-0.00006268,0.00002456,-0.000070
 12,-0.00519573,-0.00304873,0.00258385,0.00024311,-0.00024420,0.0001427
 9,-0.02186794,0.01308422,-0.01693326,0.00034054,0.00236401,-0.00142924
 ,0.00092527,0.00147227,-0.00058534,-0.00046434,-0.00037880,0.00046048,
 0.00000247,-0.00007249,0.00008275,0.00037258,-0.00094307,0.00023246,0.
 00040441,-0.00001801,0.00037129,-0.00005407,-0.00002913,0.00008101,-0.
 00062817,-0.00075153,0.00017307,-0.00000921,-0.00013169,-0.00000889,0.
 00103378,0.00048165,0.00032604,-0.17308727,0.08131431,-0.10090856,0.00
 210064,-0.00081638,0.00261439,0.19127670,0.00153101,0.00030723,0.00007
 890,0.00005866,0.00004304,0.00001903,-0.00264482,-0.00152504,0.0002929
 8,0.00002634,-0.00014696,0.00015192,-0.00844491,0.00320612,-0.00662186
 ,-0.00042050,0.00068297,-0.00037246,-0.00061042,0.00085303,-0.00064036
 ,0.00004031,-0.00002847,0.00008344,-0.00007118,-0.00005887,-0.00000208
 ,-0.00009700,-0.00010026,0.00017570,0.00021337,0.00014695,-0.00000677,
 0.00004826,0.00003563,0.00001847,-0.00004221,-0.00023876,0.00005855,-0
 .00002386,-0.00007340,-0.00001355,0.00069256,0.00027330,-0.00017629,0.
 08281497,-0.09916032,0.06523870,0.02238309,-0.01212693,0.01870662,-0.0
 8899785,0.10480603,-0.00019151,0.00008277,0.00011690,-0.00003076,-0.00
 001051,0.00000406,0.00250760,0.00060811,-0.00010837,0.00029736,-0.0000
 1973,0.00037986,0.00799552,-0.00441343,0.00464405,-0.00007863,-0.00055
 956,0.00077737,-0.00009647,-0.00023258,-0.00001337,-0.00006505,-0.0000
 1859,-0.00016382,-0.00007510,0.00010506,-0.00002722,-0.00012415,-0.000
 25108,0.00029431,0.00011102,-0.00026697,0.00002717,0.00008657,0.000025
 81,-0.00004216,0.00015748,0.00024517,-0.00003272,-0.00001549,0.0000691
 1,0.00005553,-0.00039029,-0.00052004,0.00075066,-0.10223959,0.06481522
 ,-0.12690656,0.00401060,-0.00172007,0.00196655,0.11004524,-0.07252366,
 0.13497155,-0.00001116,0.00017890,-0.00046018,0.00012333,-0.00018477,0
 .00000065,0.00173350,-0.00008876,0.00201521,-0.00029119,0.00019084,-0.
 00073654,-0.00713080,0.00666360,0.03068147,0.00014746,-0.00026585,0.00
 029455,0.00127840,0.00149433,0.00015853,-0.00011705,0.00005251,-0.0004
 3870,0.00009857,-0.00044414,-0.00049781,-0.00000476,-0.00014488,-0.000
 14865,0.00008714,0.00025125,-0.00032661,-0.00009897,0.00005358,0.00003
 425,0.00005689,-0.00007822,-0.00030758,0.00006002,0.00013167,0.0001956
 1,-0.00529075,-0.00212010,0.00150731,-0.05270246,0.00922045,0.03745304
 ,-0.00044879,-0.00004684,-0.00249325,0.00403846,-0.00645582,-0.0219043
 6,0.05847215,0.00031242,-0.00029027,0.00073860,-0.00032681,-0.00007965
 ,0.00001900,0.00042669,0.00010941,-0.00058431,0.00027653,0.00016033,-0
 .00007896,-0.00169952,0.00113940,0.01079751,0.00019343,0.00005234,0.00
 012641,0.00022011,0.00084140,0.00120665,-0.00008276,-0.00002656,-0.000
 04280,-0.00020508,0.00014330,-0.00025951,0.00001806,-0.00007549,0.0001
 2003,0.00020621,0.00007556,-0.00017185,0.00027067,0.00008099,-0.000074
 77,-0.00000590,-0.00005979,-0.00004760,0.00000430,0.00003434,0.0000308
 8,-0.00223487,-0.00005223,0.00072561,0.00955888,-0.06112939,-0.0572272
 2,0.00469471,-0.00518198,-0.03173519,-0.00321934,0.00310469,0.01458498
 ,-0.00840773,0.06115360,0.00026230,-0.00014744,0.00019248,-0.00021298,
 0.00009463,-0.00001732,-0.00064114,0.00014099,0.00045601,0.00067968,-0
 .00029601,0.00054201,0.00224103,-0.00178305,-0.01065506,-0.00024418,-0
 .00025296,0.00015783,-0.00067557,-0.00051274,0.00063214,0.00000359,0.0
 0005904,0.00016835,0.00025704,0.00071301,0.00032892,0.00005749,0.00003
 323,-0.00016131,-0.00006190,0.00013812,0.00040686,0.00017002,0.0000431
 7,-0.00007193,0.00014690,0.00020567,0.00019610,-0.00005229,-0.00004038
 ,-0.00010111,0.00194309,0.00079349,0.00107695,0.03844067,-0.05598722,-
 0.28063197,-0.00008587,-0.00060685,-0.00278010,0.00279908,-0.00446726,
 -0.01669379,-0.04502696,0.06187257,0.30695494||0.00000091,-0.00000386,
 0.00000665,-0.00000709,-0.00000100,0.00000420,0.00000066,-0.00000005,0
 .00000179,-0.00000031,0.00000435,0.00000068,-0.00000120,0.00000009,-0.
 00000158,-0.00000472,-0.00000367,0.00000049,0.00000226,0.00000124,-0.0
 0000474,0.00001286,0.00000362,0.00000373,0.00000370,0.00000346,-0.0000
 0434,0.00000156,-0.00000011,-0.00000420,0.00000183,-0.00000219,-0.0000
 0658,-0.00000196,0.00000267,0.00000642,0.00001396,-0.00000129,-0.00001
 959,-0.00001989,-0.00001255,-0.00000236,-0.00000166,-0.00000466,0.0000
 0079,-0.00000053,0.00000282,0.00000366,-0.00000190,0.00000277,0.000006
 47,-0.00000067,0.00000321,0.00000436,0.00000220,0.00000515,0.00000416|
 ||@


                                                                                    A
                                                                                  AA
                                                                                 AAA
                                                                                AAAA
                                                                               AAAAA
                                                                              AAAAAA   KKKKKKKK
                                                                             AAAAAAA   KKKKKKKK
                                                                            AAAAAAAA   KKKKKKKK
                                       ZZZZZZZZZZZZZZZZZZZZ                AAAA  AAA   KKKKKKKK
                                       ZZZZZZZZZZZZZZZZZZZ                AAAA   AAA   KKKKKKKK          K
                                       ZZZZZZZZZZZZZZZZZZ                AAAA    AAA   KKKKKKKK         KKK
                                       ZZZZZZZZZZZZZZZZZ                AAAA     AAA   KKKKKKKK        KKKKK
                                       ZZZZZZZZZZZZZZZZ                AAAA      AAA   KKKKKKKK       KKKKKKK
                                                ZZZZZZ                AAAA       AAA   KKKKKKKK      KKKKKKK
                                               ZZZZZZ                AAAA        AAA   KKKKKKKK     KKKKKKK
                                              ZZZZZZ                AAAA         AAA   KKKKKKKK    KKKKKKK
                                             ZZZZZZ                AAAA          AAA   KKKKKKKK   KKKKKKK
                                            ZZZZZZ                AAAAAAAAAAAAAAAAAA   KKKKKKKK  KKKKKKK
                                           ZZZZZZ                AAAAAAAAAAAAAAAAAAA   KKKKKKKK KKKKKKK
                                          ZZZZZZ                AAAAAAAAAAAAAAAAAAAA   KKKKKKKKKKKKKKK
                                         ZZZZZZ                AAAAAAAAAAAAAAAAAAAAA   KKKKKKKKKKKKKK
                                        ZZZZZZ                AAAAAA        AAAAAAAA   KKKKKKKKKKKKK
                                       ZZZZZZ                AAAAAA         AAAAAAAA   KKKKKKKKKKKK
                                      ZZZZZZ                AAAAAA          AAAAAAAA   KKKKKKKKKKK
                                     ZZZZZZ                AAAAAA           AAAAAAAA   KKKKKKKKKKKK
                                    ZZZZZZ                AAAAAA            AAAAAAAA   KKKKKKKKKKKKK
                                   ZZZZZZ                AAAAAA             AAAAAAAA   KKKKKKKKKKKKKK
                                  ZZZZZZ                AAAAAA              AAAAAAAA   KKKKKKKKKKKKKKK
                                 ZZZZZZ                AAAAAA               AAAAAAAA   KKKKK KKKKKKKKKK
                                ZZZZZZ                AAAAAA                AAAAAAAA   KKKKK  KKKKKKKKKK
                               ZZZZZZ                AAAAAA                            KKKKK   KKKKKKKKKK
                              ZZZZZZ                AAAAAA                             KKKKK    KKKKKKKKKK
                             ZZZZZZ                                                    KKKKK     KKKKKKKKKK
                            ZZZZZZ                                                     KKKKK      KKKKKKKKKK
                           ZZZZZZ                                                      KKKKK       KKKKKKKKKK
                          ZZZZZZ                                                       KKKKK        KKKKKKKKKK
                         ZZZZZZZZZZZZZZZZZZZZZZZZZZZZZZZZZZZZZZZZ                      KKKKK         KKKKKKKKKK
                        ZZZZZZZZZZZZZZZZZZZZZZZZZZZZZZZZZZZZZZZZZ                      KKKKK          KKKKKKKKKK
                       ZZZZZZZZZZZZZZZZZZZZZZZZZZZZZZZZZZZZZZZZZZ                      KKKKK           KKKKKKKKKK
                       ZZZZZZZZZZZZZZZZZZZZZZZZZZZZZZZZZZZZZZZZZZ                      KKKKK            KKKKKKKKKK
                       ZZZZZZZZZZZZZZZZZZZZZZZZZZZZZZZZZZZZZZZZZZ                      KKKKK             KKKKKKKKKK
                       ZZZZZZZZZZZZZZZZZZZZZZZZZZZZZZZZZZZZZZZZZZ                      KKKKK              KKKKKKKKKK
                       ZZZZZZZZZZZZZZZZZZZZZZZZZZZZZZZZZZZZZZZZZZ                      KKKKK               KKKKKKKKKK
                       ZZZZZZZZZZZZZZZZZZZZZZZZZZZZZZZZZZZZZZZZZZ                      KKKKK                KKKKKKKKKK
                       ZZZZZZZZZZZZZZZZZZZZZZZZZZZZZZZZZZZZZZZZZZ                      KKKKK
                                                                                       KKKKK
                                                                                          (J.P.)
 Job cpu time:  0 days  0 hours 54 minutes 33.0 seconds.
 File lengths (MBytes):  RWF=    108 Int=      0 D2E=      0 Chk=      8 Scr=      1
 Normal termination of Gaussian 03 at Fri Apr 01 19:17:58 2016.
