 Entering Link 1 = c:\G09w01\l1.exe PID=      1700.
  
 Copyright (c) 1988,1990,1992,1993,1995,1998,2003,2009,2010,
            Gaussian, Inc.  All Rights Reserved.
  
 This is part of the Gaussian(R) 09 program.  It is based on
 the Gaussian(R) 03 system (copyright 2003, Gaussian, Inc.),
 the Gaussian(R) 98 system (copyright 1998, Gaussian, Inc.),
 the Gaussian(R) 94 system (copyright 1995, Gaussian, Inc.),
 the Gaussian 92(TM) system (copyright 1992, Gaussian, Inc.),
 the Gaussian 90(TM) system (copyright 1990, Gaussian, Inc.),
 the Gaussian 88(TM) system (copyright 1988, Gaussian, Inc.),
 the Gaussian 86(TM) system (copyright 1986, Carnegie Mellon
 University), and the Gaussian 82(TM) system (copyright 1983,
 Carnegie Mellon University). Gaussian is a federally registered
 trademark of Gaussian, Inc.
  
 This software contains proprietary and confidential information,
 including trade secrets, belonging to Gaussian, Inc.
  
 This software is provided under written license and may be
 used, copied, transmitted, or stored only in accord with that
 written license.
  
 The following legend is applicable only to US Government
 contracts under FAR:
  
                    RESTRICTED RIGHTS LEGEND
  
 Use, reproduction and disclosure by the US Government is
 subject to restrictions as set forth in subparagraphs (a)
 and (c) of the Commercial Computer Software - Restricted
 Rights clause in FAR 52.227-19.
  
 Gaussian, Inc.
 340 Quinnipiac St., Bldg. 40, Wallingford CT 06492
  
  
 ---------------------------------------------------------------
 Warning -- This program may not be used in any manner that
 competes with the business of Gaussian, Inc. or will provide
 assistance to any competitor of Gaussian, Inc.  The licensee
 of this program is prohibited from giving any competitor of
 Gaussian, Inc. access to this program.  By using this program,
 the user acknowledges that Gaussian, Inc. is engaged in the
 business of creating and licensing software in the field of
 computational chemistry and represents and warrants to the
 licensee that it is not a competitor of Gaussian, Inc. and that
 it will not use this program in any manner prohibited above.
 ---------------------------------------------------------------
  

 Cite this work as:
 Gaussian 09, Revision B.01,
 M. J. Frisch, G. W. Trucks, H. B. Schlegel, G. E. Scuseria, 
 M. A. Robb, J. R. Cheeseman, G. Scalmani, V. Barone, B. Mennucci, 
 G. A. Petersson, H. Nakatsuji, M. Caricato, X. Li, H. P. Hratchian, 
 A. F. Izmaylov, J. Bloino, G. Zheng, J. L. Sonnenberg, M. Hada, 
 M. Ehara, K. Toyota, R. Fukuda, J. Hasegawa, M. Ishida, T. Nakajima, 
 Y. Honda, O. Kitao, H. Nakai, T. Vreven, J. A. Montgomery, Jr., 
 J. E. Peralta, F. Ogliaro, M. Bearpark, J. J. Heyd, E. Brothers, 
 K. N. Kudin, V. N. Staroverov, T. Keith, R. Kobayashi, J. Normand, 
 K. Raghavachari, A. Rendell, J. C. Burant, S. S. Iyengar, J. Tomasi, 
 M. Cossi, N. Rega, J. M. Millam, M. Klene, J. E. Knox, J. B. Cross, 
 V. Bakken, C. Adamo, J. Jaramillo, R. Gomperts, R. E. Stratmann, 
 O. Yazyev, A. J. Austin, R. Cammi, C. Pomelli, J. W. Ochterski, 
 R. L. Martin, K. Morokuma, V. G. Zakrzewski, G. A. Voth, 
 P. Salvador, J. J. Dannenberg, S. Dapprich, A. D. Daniels, 
 O. Farkas, J. B. Foresman, J. V. Ortiz, J. Cioslowski, 
 and D. J. Fox, Gaussian, Inc., Wallingford CT, 2010.
 
 ******************************************
 Gaussian 09:  IA32W-G09RevB.01 12-Aug-2010
                07-Apr-2016 
 ******************************************
 %chk=E:\YangJ\Amiano\val\ts1\s\Val-S-ts1-6-31++gdf-cpcm.chk
 ----------------------------------------------------------------------
 #p opt=(calcfc,ts) freq rb3lyp/6-311++g(d,p) scrf=(cpcm,solvent=water)
  iop(1/11=1)
 ----------------------------------------------------------------------
 1/5=1,10=4,11=1,14=-1,18=20,26=3,38=1/1,3;
 2/9=110,12=2,17=6,18=5,40=1/2;
 3/5=4,6=6,7=1111,11=2,16=1,25=1,30=1,70=2101,71=2,72=1,74=-5,116=1/1,2,3;
 4//1;
 5/5=2,38=5,53=1/2;
 8/6=4,10=90,11=11/1;
 11/6=1,8=1,9=11,15=111,16=1/1,2,10;
 10/6=1,7=6,13=1/2;
 6/7=2,8=2,9=2,10=2,28=1/1;
 7/10=1,18=20,25=1/1,2,3,16;
 1/5=1,10=4,11=1,14=-1,18=20/3(2);
 2/9=110/2;
 99//99;
 2/9=110/2;
 3/5=4,6=6,7=1111,11=2,16=1,25=1,30=1,70=2105,71=1,72=1,74=-5,116=1/1,2,3;
 4/5=5,16=3/1;
 5/5=2,38=5,53=1/2;
 7//1,2,3,16;
 1/5=1,11=1,14=-1,18=20/3(-5);
 2/9=110/2;
 6/7=2,8=2,9=2,10=2,19=2,28=1/1;
 99/9=1/99;
 Leave Link    1 at Thu Apr 07 11:58:06 2016, MaxMem=          0 cpu:       1.0
 (Enter c:\G09w01\l101.exe)
 ----------------------------
 Val-S-opt-freq-ts1-6-31++gdf
 ----------------------------
 Symbolic Z-matrix:
 Charge =  0 Multiplicity = 1
 N                     0.10424   1.95626  -0.05859 
 H                    -0.16534   2.10538   0.90956 
 C                     0.04872   0.53166  -0.39562 
 H                     0.1908    0.43109  -1.47493 
 C                     1.17229  -0.25344   0.32962 
 C                    -1.30589  -0.05451  -0.07412 
 C                     1.06157  -1.76541   0.08957 
 O                    -1.87059   0.00797   1.07117 
 H                     1.12884  -2.00143  -0.97747 
 H                     1.8775   -2.28649   0.59643 
 H                     0.12376  -2.18114   0.46707 
 H                    -0.52512   2.49884  -0.6406 
 O                    -2.07455  -0.65259  -0.89762 
 H                    -2.68076  -0.61055   0.25795 
 H                     1.04224  -0.06601   1.40316 
 C                     2.54777   0.27217  -0.09815 
 H                     2.6242    1.35003   0.04554 
 H                     3.33548  -0.21481   0.48312 
 H                     2.73301   0.05538  -1.15595 
 
 NAtoms=     19 NQM=     19 NQMF=      0 NMic=      0 NMicF=      0 NTot=     19.
 Add atom     14 valence  3 ND=      0 dihedral      13      8     14      6
                    Isotopes and Nuclear Properties:
 (Nuclear quadrupole moments (NQMom) in fm**2, nuclear magnetic moments (NMagM)
  in nuclear magnetons)

  Atom         1           2           3           4           5           6           7           8           9          10
 IAtWgt=          14           1          12           1          12          12          12          16           1           1
 AtmWgt=  14.0030740   1.0078250  12.0000000   1.0078250  12.0000000  12.0000000  12.0000000  15.9949146   1.0078250   1.0078250
 NucSpn=           2           1           0           1           0           0           0           0           1           1
 AtZEff=   0.0000000   0.0000000   0.0000000   0.0000000   0.0000000   0.0000000   0.0000000   0.0000000   0.0000000   0.0000000
 NQMom=    2.0440000   0.0000000   0.0000000   0.0000000   0.0000000   0.0000000   0.0000000   0.0000000   0.0000000   0.0000000
 NMagM=    0.4037610   2.7928460   0.0000000   2.7928460   0.0000000   0.0000000   0.0000000   0.0000000   2.7928460   2.7928460

  Atom        11          12          13          14          15          16          17          18          19
 IAtWgt=           1           1          16           1           1          12           1           1           1
 AtmWgt=   1.0078250   1.0078250  15.9949146   1.0078250   1.0078250  12.0000000   1.0078250   1.0078250   1.0078250
 NucSpn=           1           1           0           1           1           0           1           1           1
 AtZEff=   0.0000000   0.0000000   0.0000000   0.0000000   0.0000000   0.0000000   0.0000000   0.0000000   0.0000000
 NQMom=    0.0000000   0.0000000   0.0000000   0.0000000   0.0000000   0.0000000   0.0000000   0.0000000   0.0000000
 NMagM=    2.7928460   2.7928460   0.0000000   2.7928460   2.7928460   0.0000000   2.7928460   2.7928460   2.7928460
 Leave Link  101 at Thu Apr 07 11:58:06 2016, MaxMem=   33554432 cpu:       0.0
 (Enter c:\G09w01\l103.exe)

 GradGradGradGradGradGradGradGradGradGradGradGradGradGradGradGradGradGrad
 Berny optimization.
 Initialization pass.
                           ----------------------------
                           !    Initial Parameters    !
                           ! (Angstroms and Degrees)  !
 --------------------------                            --------------------------
 ! Name  Definition              Value          Derivative Info.                !
 --------------------------------------------------------------------------------
 ! R1    R(1,2)                  1.016          calculate D2E/DX2 analytically  !
 ! R2    R(1,3)                  1.465          calculate D2E/DX2 analytically  !
 ! R3    R(1,12)                 1.0145         calculate D2E/DX2 analytically  !
 ! R4    R(3,4)                  1.0933         calculate D2E/DX2 analytically  !
 ! R5    R(3,5)                  1.5507         calculate D2E/DX2 analytically  !
 ! R6    R(3,6)                  1.5106         calculate D2E/DX2 analytically  !
 ! R7    R(5,7)                  1.5349         calculate D2E/DX2 analytically  !
 ! R8    R(5,15)                 1.0975         calculate D2E/DX2 analytically  !
 ! R9    R(5,16)                 1.5334         calculate D2E/DX2 analytically  !
 ! R10   R(6,8)                  1.2785         calculate D2E/DX2 analytically  !
 ! R11   R(6,13)                 1.2754         calculate D2E/DX2 analytically  !
 ! R12   R(6,14)                 1.5198         calculate D2E/DX2 analytically  !
 ! R13   R(7,9)                  1.0949         calculate D2E/DX2 analytically  !
 ! R14   R(7,10)                 1.0928         calculate D2E/DX2 analytically  !
 ! R15   R(7,11)                 1.0931         calculate D2E/DX2 analytically  !
 ! R16   R(8,14)                 1.3039         calculate D2E/DX2 analytically  !
 ! R17   R(13,14)                1.3056         calculate D2E/DX2 analytically  !
 ! R18   R(16,17)                1.0901         calculate D2E/DX2 analytically  !
 ! R19   R(16,18)                1.0934         calculate D2E/DX2 analytically  !
 ! R20   R(16,19)                1.0956         calculate D2E/DX2 analytically  !
 ! A1    A(2,1,3)              110.6037         calculate D2E/DX2 analytically  !
 ! A2    A(2,1,12)             107.6721         calculate D2E/DX2 analytically  !
 ! A3    A(3,1,12)             111.3822         calculate D2E/DX2 analytically  !
 ! A4    A(1,3,4)              108.1596         calculate D2E/DX2 analytically  !
 ! A5    A(1,3,5)              110.9327         calculate D2E/DX2 analytically  !
 ! A6    A(1,3,6)              111.2455         calculate D2E/DX2 analytically  !
 ! A7    A(4,3,5)              108.7221         calculate D2E/DX2 analytically  !
 ! A8    A(4,3,6)              106.9147         calculate D2E/DX2 analytically  !
 ! A9    A(5,3,6)              110.7155         calculate D2E/DX2 analytically  !
 ! A10   A(3,5,7)              111.9198         calculate D2E/DX2 analytically  !
 ! A11   A(3,5,15)             106.5678         calculate D2E/DX2 analytically  !
 ! A12   A(3,5,16)             110.2383         calculate D2E/DX2 analytically  !
 ! A13   A(7,5,15)             108.2196         calculate D2E/DX2 analytically  !
 ! A14   A(7,5,16)             111.0223         calculate D2E/DX2 analytically  !
 ! A15   A(15,5,16)            108.7014         calculate D2E/DX2 analytically  !
 ! A16   A(3,6,8)              124.5954         calculate D2E/DX2 analytically  !
 ! A17   A(3,6,13)             125.8018         calculate D2E/DX2 analytically  !
 ! A18   A(8,6,13)             109.5806         calculate D2E/DX2 analytically  !
 ! A19   A(5,7,9)              111.1203         calculate D2E/DX2 analytically  !
 ! A20   A(5,7,10)             110.0792         calculate D2E/DX2 analytically  !
 ! A21   A(5,7,11)             112.49           calculate D2E/DX2 analytically  !
 ! A22   A(9,7,10)             107.6589         calculate D2E/DX2 analytically  !
 ! A23   A(9,7,11)             107.8961         calculate D2E/DX2 analytically  !
 ! A24   A(10,7,11)            107.401          calculate D2E/DX2 analytically  !
 ! A25   A(8,14,13)            106.1873         calculate D2E/DX2 analytically  !
 ! A26   A(5,16,17)            111.4111         calculate D2E/DX2 analytically  !
 ! A27   A(5,16,18)            110.1982         calculate D2E/DX2 analytically  !
 ! A28   A(5,16,19)            110.6832         calculate D2E/DX2 analytically  !
 ! A29   A(17,16,18)           108.6511         calculate D2E/DX2 analytically  !
 ! A30   A(17,16,19)           108.1244         calculate D2E/DX2 analytically  !
 ! A31   A(18,16,19)           107.6594         calculate D2E/DX2 analytically  !
 ! A32   L(3,6,14,5,-1)        180.8684         calculate D2E/DX2 analytically  !
 ! A33   L(3,6,14,5,-2)        178.1005         calculate D2E/DX2 analytically  !
 ! D1    D(2,1,3,4)            171.253          calculate D2E/DX2 analytically  !
 ! D2    D(2,1,3,5)            -69.5943         calculate D2E/DX2 analytically  !
 ! D3    D(2,1,3,6)             54.1204         calculate D2E/DX2 analytically  !
 ! D4    D(12,1,3,4)            51.5513         calculate D2E/DX2 analytically  !
 ! D5    D(12,1,3,5)           170.7041         calculate D2E/DX2 analytically  !
 ! D6    D(12,1,3,6)           -65.5813         calculate D2E/DX2 analytically  !
 ! D7    D(1,3,5,7)            175.0508         calculate D2E/DX2 analytically  !
 ! D8    D(1,3,5,15)            56.9297         calculate D2E/DX2 analytically  !
 ! D9    D(1,3,5,16)           -60.8596         calculate D2E/DX2 analytically  !
 ! D10   D(4,3,5,7)            -66.135          calculate D2E/DX2 analytically  !
 ! D11   D(4,3,5,15)           175.7439         calculate D2E/DX2 analytically  !
 ! D12   D(4,3,5,16)            57.9546         calculate D2E/DX2 analytically  !
 ! D13   D(6,3,5,7)             51.0333         calculate D2E/DX2 analytically  !
 ! D14   D(6,3,5,15)           -67.0878         calculate D2E/DX2 analytically  !
 ! D15   D(6,3,5,16)           175.1229         calculate D2E/DX2 analytically  !
 ! D16   D(1,3,6,8)            -54.7665         calculate D2E/DX2 analytically  !
 ! D17   D(1,3,6,13)           123.3355         calculate D2E/DX2 analytically  !
 ! D18   D(4,3,6,8)           -172.6545         calculate D2E/DX2 analytically  !
 ! D19   D(4,3,6,13)             5.4476         calculate D2E/DX2 analytically  !
 ! D20   D(5,3,6,8)             69.0716         calculate D2E/DX2 analytically  !
 ! D21   D(5,3,6,13)          -112.8263         calculate D2E/DX2 analytically  !
 ! D22   D(3,5,7,9)             59.698          calculate D2E/DX2 analytically  !
 ! D23   D(3,5,7,10)           178.8702         calculate D2E/DX2 analytically  !
 ! D24   D(3,5,7,11)           -61.397          calculate D2E/DX2 analytically  !
 ! D25   D(15,5,7,9)           176.8304         calculate D2E/DX2 analytically  !
 ! D26   D(15,5,7,10)          -63.9974         calculate D2E/DX2 analytically  !
 ! D27   D(15,5,7,11)           55.7354         calculate D2E/DX2 analytically  !
 ! D28   D(16,5,7,9)           -63.9519         calculate D2E/DX2 analytically  !
 ! D29   D(16,5,7,10)           55.2203         calculate D2E/DX2 analytically  !
 ! D30   D(16,5,7,11)          174.9531         calculate D2E/DX2 analytically  !
 ! D31   D(3,5,16,17)           53.9185         calculate D2E/DX2 analytically  !
 ! D32   D(3,5,16,18)          174.6009         calculate D2E/DX2 analytically  !
 ! D33   D(3,5,16,19)          -66.4261         calculate D2E/DX2 analytically  !
 ! D34   D(7,5,16,17)          178.5248         calculate D2E/DX2 analytically  !
 ! D35   D(7,5,16,18)          -60.7928         calculate D2E/DX2 analytically  !
 ! D36   D(7,5,16,19)           58.1801         calculate D2E/DX2 analytically  !
 ! D37   D(15,5,16,17)         -62.5469         calculate D2E/DX2 analytically  !
 ! D38   D(15,5,16,18)          58.1356         calculate D2E/DX2 analytically  !
 ! D39   D(15,5,16,19)         177.1085         calculate D2E/DX2 analytically  !
 ! D40   D(13,8,14,6)            0.1489         calculate D2E/DX2 analytically  !
 --------------------------------------------------------------------------------
 Trust Radius=3.00D-01 FncErr=1.00D-07 GrdErr=1.00D-06
 Number of steps in this run=    103 maximum allowed number of steps=    114.
 Search for a saddle point of order  1.
 GradGradGradGradGradGradGradGradGradGradGradGradGradGradGradGradGradGrad

 Leave Link  103 at Thu Apr 07 11:58:06 2016, MaxMem=   33554432 cpu:       0.0
 (Enter c:\G09w01\l202.exe)
                          Input orientation:                          
 ---------------------------------------------------------------------
 Center     Atomic      Atomic             Coordinates (Angstroms)
 Number     Number       Type             X           Y           Z
 ---------------------------------------------------------------------
      1          7           0        0.104244    1.956255   -0.058587
      2          1           0       -0.165341    2.105376    0.909562
      3          6           0        0.048724    0.531664   -0.395620
      4          1           0        0.190799    0.431085   -1.474925
      5          6           0        1.172285   -0.253437    0.329624
      6          6           0       -1.305893   -0.054511   -0.074121
      7          6           0        1.061569   -1.765407    0.089573
      8          8           0       -1.870586    0.007972    1.071165
      9          1           0        1.128844   -2.001430   -0.977466
     10          1           0        1.877501   -2.286489    0.596426
     11          1           0        0.123762   -2.181138    0.467067
     12          1           0       -0.525118    2.498838   -0.640598
     13          8           0       -2.074548   -0.652587   -0.897617
     14          1           0       -2.680755   -0.610548    0.257945
     15          1           0        1.042237   -0.066005    1.403161
     16          6           0        2.547773    0.272167   -0.098148
     17          1           0        2.624203    1.350030    0.045542
     18          1           0        3.335475   -0.214812    0.483122
     19          1           0        2.733010    0.055375   -1.155954
 ---------------------------------------------------------------------
                    Distance matrix (angstroms):
                    1          2          3          4          5
     1  N    0.000000
     2  H    1.015985   0.000000
     3  C    1.464969   2.055698   0.000000
     4  H    2.083182   2.935279   1.093252   0.000000
     5  C    2.484785   2.773007   1.550726   2.165244   0.000000
     6  C    2.455994   2.633174   1.510612   2.106690   2.518719
     7  C    3.845672   4.142542   2.556913   2.833809   1.534906
     8  O    2.995346   2.707966   2.471733   3.303166   3.142814
     9  H    4.190157   4.701239   2.814564   2.654152   2.183083
    10  H    4.644821   4.853837   3.502937   3.810599   2.168367
    11  H    4.170697   4.318980   2.847658   3.255693   2.198709
    12  H    1.014510   1.639283   2.063754   2.341846   3.376022
    13  O    3.501023   3.810161   2.482486   2.576708   3.493904
    14  H    3.800643   3.758744   3.030157   3.511931   3.870217
    15  H    2.665722   2.533136   2.140068   3.042273   1.097509
    16  C    2.967920   3.425948   2.530034   2.734245   1.533367
    17  H    2.593944   3.016394   2.738145   3.012928   2.181714
    18  H    3.930373   4.221473   3.483123   3.760335   2.168973
    19  H    3.424612   4.107225   2.830256   2.589544   2.176734
                    6          7          8          9         10
     6  C    0.000000
     7  C    2.925549   0.000000
     8  O    1.278461   3.564538   0.000000
     9  H    3.245685   1.094900   4.151044   0.000000
    10  H    3.945295   1.092782   4.420191   1.766036   0.000000
    11  H    2.619034   1.093076   3.022344   1.768943   1.761656
    12  H    2.729487   4.608092   3.308297   4.806400   5.495649
    13  O    1.275410   3.471043   2.086634   3.476704   4.529955
    14  H    1.519767   3.920081   1.303943   4.239556   4.868372
    15  H    2.774204   2.147988   2.932615   3.069325   2.505801
    16  C    3.867562   2.528982   4.578099   2.820603   2.734670
    17  H    4.175250   3.485644   4.801682   3.809846   3.753040
    18  H    4.677447   2.780265   5.243901   3.192889   2.535818
    19  H    4.182723   2.767725   5.114235   2.614508   3.047468
                   11         12         13         14         15
    11  H    0.000000
    12  H    4.852849   0.000000
    13  O    3.005228   3.521118   0.000000
    14  H    3.221149   3.888757   1.305595   0.000000
    15  H    2.488706   3.634828   3.918164   3.933029   0.000000
    16  C    3.494854   3.833403   4.781231   5.314461   2.152888
    17  H    4.347302   3.421808   5.194062   5.659643   2.520099
    18  H    3.765873   4.850858   5.600575   6.033435   2.475390
    19  H    3.800574   4.105058   4.866268   5.634839   3.069612
                   16         17         18         19
    16  C    0.000000
    17  H    1.090081   0.000000
    18  H    1.093388   1.773729   0.000000
    19  H    1.095566   1.769622   1.767070   0.000000
 Stoichiometry    C5H11NO2
 Framework group  C1[X(C5H11NO2)]
 Deg. of freedom    51
 Full point group                 C1      NOp   1
 Largest Abelian subgroup         C1      NOp   1
 Largest concise Abelian subgroup C1      NOp   1
                         Standard orientation:                         
 ---------------------------------------------------------------------
 Center     Atomic      Atomic             Coordinates (Angstroms)
 Number     Number       Type             X           Y           Z
 ---------------------------------------------------------------------
      1          7           0        0.104244    1.956255   -0.058587
      2          1           0       -0.165341    2.105376    0.909562
      3          6           0        0.048724    0.531664   -0.395620
      4          1           0        0.190799    0.431085   -1.474925
      5          6           0        1.172285   -0.253437    0.329624
      6          6           0       -1.305893   -0.054511   -0.074121
      7          6           0        1.061569   -1.765407    0.089573
      8          8           0       -1.870586    0.007972    1.071165
      9          1           0        1.128844   -2.001430   -0.977466
     10          1           0        1.877501   -2.286489    0.596426
     11          1           0        0.123762   -2.181138    0.467067
     12          1           0       -0.525118    2.498838   -0.640598
     13          8           0       -2.074548   -0.652587   -0.897617
     14          1           0       -2.680755   -0.610548    0.257945
     15          1           0        1.042237   -0.066005    1.403161
     16          6           0        2.547773    0.272167   -0.098148
     17          1           0        2.624203    1.350030    0.045542
     18          1           0        3.335475   -0.214812    0.483122
     19          1           0        2.733010    0.055375   -1.155954
 ---------------------------------------------------------------------
 Rotational constants (GHZ):      2.9134414      1.5075575      1.1975876
 Leave Link  202 at Thu Apr 07 11:58:06 2016, MaxMem=   33554432 cpu:       0.0
 (Enter c:\G09w01\l301.exe)
 Standard basis: 6-311++G(d,p) (5D, 7F)
 Ernie: Thresh=  0.10000D-02 Tol=  0.10000D-05 Strict=F.
 There are   253 symmetry adapted basis functions of A   symmetry.
 Integral buffers will be    262144 words long.
 Raffenetti 2 integral format.
 Two-electron integral symmetry is turned on.
   253 basis functions,   387 primitive gaussians,   261 cartesian basis functions
    32 alpha electrons       32 beta electrons
       nuclear repulsion energy       405.9263005376 Hartrees.
 IExCor=  402 DFT=T Ex+Corr=B3LYP ExCW=0 ScaHFX=  0.200000
 ScaDFX=  0.800000  0.720000  1.000000  0.810000 ScalE2=  1.000000  1.000000
 IRadAn=      0 IRanWt=     -1 IRanGd=            0 ICorTp=0
 NAtoms=   19 NActive=   19 NUniq=   19 SFac= 1.00D+00 NAtFMM=   50 NAOKFM=F Big=F
 ------------------------------------------------------------------------------
 Polarizable Continuum Model (PCM)
 =================================
 Model                : C-PCM.
 Atomic radii         : UFF (Universal Force Field).
 Polarization charges : Total charges.
 Charge compensation  : None.
 Solution method      : Matrix inversion.
 Cavity type          : Scaled VdW (van der Waals Surface) (Alpha=1.100).
 Cavity algorithm     : GePol (No added spheres)
                        Default sphere list used, NSphG=   19.
                        Lebedev-Laikov grids with approx.  5.0 points / Ang**2.
                        Smoothing algorithm: Karplus/York (Gamma=1.0000).
                        Polarization charges: spherical gaussians, with
                                              point-specific exponents (IZeta= 3).
                        Self-potential: point-specific (ISelfS= 7).
                        Self-field    : sphere-specific E.n sum rule (ISelfD= 2).
 1st derivatives      : Analytical E(r).r(x)/FMM algorithm (CHGder, D1EAlg=3).
                        Cavity 1st derivative terms included.
 2nd derivatives      : Analytical E(r).r(xy)/FMM algorithm (CHGder, D2EAlg=3).
                        Cavity 2nd derivative terms included.
 Solvent              : Water, Eps=  78.355300 Eps(inf)=   1.777849
 ------------------------------------------------------------------------------
 Spheres list:
 ISph  on   Nord    Re0     Alpha      Xe            Ye            Ze
    1   N      1    1.830   1.100      0.104244      1.956255     -0.058587
    2   H      2    1.443   1.100     -0.165341      2.105376      0.909562
    3   C      3    1.926   1.100      0.048724      0.531664     -0.395620
    4   H      4    1.443   1.100      0.190799      0.431085     -1.474925
    5   C      5    1.926   1.100      1.172285     -0.253437      0.329624
    6   C      6    1.926   1.100     -1.305893     -0.054511     -0.074121
    7   C      7    1.926   1.100      1.061569     -1.765407      0.089573
    8   O      8    1.750   1.100     -1.870586      0.007972      1.071165
    9   H      9    1.443   1.100      1.128844     -2.001430     -0.977466
   10   H     10    1.443   1.100      1.877501     -2.286489      0.596426
   11   H     11    1.443   1.100      0.123762     -2.181138      0.467067
   12   H     12    1.443   1.100     -0.525118      2.498838     -0.640598
   13   O     13    1.750   1.100     -2.074548     -0.652587     -0.897617
   14   H     14    1.443   1.100     -2.680755     -0.610548      0.257945
   15   H     15    1.443   1.100      1.042237     -0.066005      1.403161
   16   C     16    1.926   1.100      2.547773      0.272167     -0.098148
   17   H     17    1.443   1.100      2.624203      1.350030      0.045542
   18   H     18    1.443   1.100      3.335475     -0.214812      0.483122
   19   H     19    1.443   1.100      2.733010      0.055375     -1.155954
 ------------------------------------------------------------------------------
 GePol: Number of generator spheres                  =      19
 GePol: Total number of spheres                      =      19
 GePol: Number of exposed spheres                    =      19 (100.00%)
 GePol: Number of points                             =    1431
 GePol: Average weight of points                     =       0.13
 GePol: Minimum weight of points                     =   0.22D-07
 GePol: Maximum weight of points                     =    0.20577
 GePol: Number of points with low weight             =      89
 GePol: Fraction of low-weight points (<1% of avg)   =       6.22%
 GePol: Cavity surface area                          =    191.798 Ang**2
 GePol: Cavity volume                                =    187.202 Ang**3
 Leave Link  301 at Thu Apr 07 11:58:07 2016, MaxMem=   33554432 cpu:       1.0
 (Enter c:\G09w01\l302.exe)
 NPDir=0 NMtPBC=     1 NCelOv=     1 NCel=       1 NClECP=     1 NCelD=      1
         NCelK=      1 NCelE2=     1 NClLst=     1 CellRange=     0.0.
 One-electron integrals computed using PRISM.
 NBasis=   253 RedAO= T  NBF=   253
 NBsUse=   253 1.00D-06 NBFU=   253
 Precomputing XC quadrature grid using
 IXCGrd= 2 IRadAn=           0 IRanWt=          -1 IRanGd=           0 AccXCQ= 0.00D+00.
 NRdTot=    1232 NPtTot=      156990 NUsed=      162737 NTot=      162753
 NSgBfM=   261   261   261   261   261 NAtAll=    19    19.
 Leave Link  302 at Thu Apr 07 11:58:09 2016, MaxMem=   33554432 cpu:       2.0
 (Enter c:\G09w01\l303.exe)
 DipDrv:  MaxL=1.
 Leave Link  303 at Thu Apr 07 11:58:09 2016, MaxMem=   33554432 cpu:       0.0
 (Enter c:\G09w01\l401.exe)
 Harris functional with IExCor=  402 diagonalized for initial guess.
 ExpMin= 3.60D-02 ExpMax= 8.59D+03 ExpMxC= 1.30D+03 IAcc=3 IRadAn=         0 AccDes= 0.00D+00
 HarFok:  IExCor=  402 AccDes= 0.00D+00 IRadAn=         0 IDoV= 1
 ScaDFX=  1.000000  1.000000  1.000000  1.000000
 FoFCou: FMM=F IPFlag=           0 FMFlag=      100000 FMFlg1=           0
         NFxFlg=           0 DoJE=T BraDBF=F KetDBF=T FulRan=T
         Omega=  0.000000  0.000000  1.000000  0.000000  0.000000 ICntrl=     500 IOpCl=  0
         NMat0=    1 NMatS0=    1 NMatT0=    0 NMatD0=    1 NMtDS0=    0 NMtDT0=    0
         I1Cent=           4 NGrid=           0.
 Petite list used in FoFCou.
 Harris En= -402.481780682025    
 Initial guess orbital symmetries:
       Occupied  (A) (A) (A) (A) (A) (A) (A) (A) (A) (A) (A) (A)
                 (A) (A) (A) (A) (A) (A) (A) (A) (A) (A) (A) (A)
                 (A) (A) (A) (A) (A) (A) (A) (A)
       Virtual   (A) (A) (A) (A) (A) (A) (A) (A) (A) (A) (A) (A)
                 (A) (A) (A) (A) (A) (A) (A) (A) (A) (A) (A) (A)
                 (A) (A) (A) (A) (A) (A) (A) (A) (A) (A) (A) (A)
                 (A) (A) (A) (A) (A) (A) (A) (A) (A) (A) (A) (A)
                 (A) (A) (A) (A) (A) (A) (A) (A) (A) (A) (A) (A)
                 (A) (A) (A) (A) (A) (A) (A) (A) (A) (A) (A) (A)
                 (A) (A) (A) (A) (A) (A) (A) (A) (A) (A) (A) (A)
                 (A) (A) (A) (A) (A) (A) (A) (A) (A) (A) (A) (A)
                 (A) (A) (A) (A) (A) (A) (A) (A) (A) (A) (A) (A)
                 (A) (A) (A) (A) (A) (A) (A) (A) (A) (A) (A) (A)
                 (A) (A) (A) (A) (A) (A) (A) (A) (A) (A) (A) (A)
                 (A) (A) (A) (A) (A) (A) (A) (A) (A) (A) (A) (A)
                 (A) (A) (A) (A) (A) (A) (A) (A) (A) (A) (A) (A)
                 (A) (A) (A) (A) (A) (A) (A) (A) (A) (A) (A) (A)
                 (A) (A) (A) (A) (A) (A) (A) (A) (A) (A) (A) (A)
                 (A) (A) (A) (A) (A) (A) (A) (A) (A) (A) (A) (A)
                 (A) (A) (A) (A) (A) (A) (A) (A) (A) (A) (A) (A)
                 (A) (A) (A) (A) (A) (A) (A) (A) (A) (A) (A) (A)
                 (A) (A) (A) (A) (A)
 The electronic state of the initial guess is 1-A.
 Leave Link  401 at Thu Apr 07 11:58:23 2016, MaxMem=   33554432 cpu:      13.0
 (Enter c:\G09w01\l502.exe)
 Closed shell SCF:
 Requested convergence on RMS density matrix=1.00D-08 within 128 cycles.
 Requested convergence on MAX density matrix=1.00D-06.
 Requested convergence on             energy=1.00D-06.
 No special actions if energy rises.
 Using DIIS extrapolation, IDIIS=  1040.
 Integral symmetry usage will be decided dynamically.
       162572 words used for storage of precomputed grid.
 IEnd=      388270 IEndB=      388270 NGot=    33554432 MDV=    33251185
 LenX=    33251185 LenY=    33182623
 Fock matrices will be formed incrementally for  20 cycles.

 Cycle   1  Pass 1  IDiag  1:
 FoFCou: FMM=F IPFlag=           0 FMFlag=      100000 FMFlg1=           0
         NFxFlg=           0 DoJE=F BraDBF=F KetDBF=F FulRan=T
         Omega=  0.000000  0.000000  1.000000  0.000000  0.000000 ICntrl=       0 IOpCl=  0
         NMat0=    1 NMatS0=    1 NMatT0=    0 NMatD0=    1 NMtDS0=    0 NMtDT0=    0
         I1Cent=           0 NGrid=           0.
 Symmetry not used in FoFCou.
 E= -402.175548115453    
 DIIS: error= 3.70D-02 at cycle   1 NSaved=   1.
 NSaved= 1 IEnMin= 1 EnMin= -402.175548115453     IErMin= 1 ErrMin= 3.70D-02
 ErrMax= 3.70D-02 EMaxC= 1.00D-01 BMatC= 3.42D-01 BMatP= 3.42D-01
 IDIUse=3 WtCom= 6.30D-01 WtEn= 3.70D-01
 Coeff-Com:  0.100D+01
 Coeff-En:   0.100D+01
 Coeff:      0.100D+01
 Gap=     0.147 Goal=   None    Shift=    0.000
 GapD=    0.147 DampG=1.000 DampE=0.500 DampFc=0.5000 IDamp=-1.
 Damping current iteration by 5.00D-01
 RMSDP=1.10D-02 MaxDP=6.20D-01              OVMax= 1.93D-01

 Cycle   2  Pass 1  IDiag  1:
 RMSU=  3.83D-03    CP:  1.04D+00
 E= -402.275074938260     Delta-E=       -0.099526822807 Rises=F Damp=T
 DIIS: error= 1.39D-02 at cycle   2 NSaved=   2.
 NSaved= 2 IEnMin= 2 EnMin= -402.275074938260     IErMin= 2 ErrMin= 1.39D-02
 ErrMax= 1.39D-02 EMaxC= 1.00D-01 BMatC= 2.53D-02 BMatP= 3.42D-01
 IDIUse=3 WtCom= 8.61D-01 WtEn= 1.39D-01
 Coeff-Com:  0.153D+00 0.847D+00
 Coeff-En:   0.270D+00 0.730D+00
 Coeff:      0.169D+00 0.831D+00
 Gap=     0.244 Goal=   None    Shift=    0.000
 RMSDP=4.83D-03 MaxDP=5.49D-01 DE=-9.95D-02 OVMax= 1.24D-01

 Cycle   3  Pass 1  IDiag  1:
 RMSU=  1.71D-03    CP:  9.08D-01  4.78D-01
 E= -402.447921733841     Delta-E=       -0.172846795581 Rises=F Damp=F
 DIIS: error= 9.32D-03 at cycle   3 NSaved=   3.
 NSaved= 3 IEnMin= 3 EnMin= -402.447921733841     IErMin= 3 ErrMin= 9.32D-03
 ErrMax= 9.32D-03 EMaxC= 1.00D-01 BMatC= 7.30D-03 BMatP= 2.53D-02
 IDIUse=3 WtCom= 9.07D-01 WtEn= 9.32D-02
 Coeff-Com:  0.286D-01 0.343D+00 0.629D+00
 Coeff-En:   0.000D+00 0.000D+00 0.100D+01
 Coeff:      0.260D-01 0.311D+00 0.663D+00
 Gap=     0.234 Goal=   None    Shift=    0.000
 RMSDP=6.88D-04 MaxDP=3.87D-02 DE=-1.73D-01 OVMax= 2.46D-02

 Cycle   4  Pass 1  IDiag  1:
 RMSU=  4.70D-04    CP:  9.14D-01  4.71D-01  9.70D-01
 E= -402.451731966949     Delta-E=       -0.003810233108 Rises=F Damp=F
 DIIS: error= 4.61D-03 at cycle   4 NSaved=   4.
 NSaved= 4 IEnMin= 4 EnMin= -402.451731966949     IErMin= 4 ErrMin= 4.61D-03
 ErrMax= 4.61D-03 EMaxC= 1.00D-01 BMatC= 2.45D-03 BMatP= 7.30D-03
 IDIUse=3 WtCom= 9.54D-01 WtEn= 4.61D-02
 Coeff-Com: -0.348D-02 0.613D-01 0.383D+00 0.559D+00
 Coeff-En:   0.000D+00 0.000D+00 0.275D+00 0.725D+00
 Coeff:     -0.332D-02 0.585D-01 0.378D+00 0.567D+00
 Gap=     0.234 Goal=   None    Shift=    0.000
 RMSDP=6.50D-04 MaxDP=7.43D-02 DE=-3.81D-03 OVMax= 8.74D-03

 Cycle   5  Pass 1  IDiag  1:
 RMSU=  2.04D-04    CP:  8.94D-01  4.86D-01  1.03D+00  5.55D-01
 E= -402.453763740058     Delta-E=       -0.002031773109 Rises=F Damp=F
 DIIS: error= 3.83D-04 at cycle   5 NSaved=   5.
 NSaved= 5 IEnMin= 5 EnMin= -402.453763740058     IErMin= 5 ErrMin= 3.83D-04
 ErrMax= 3.83D-04 EMaxC= 1.00D-01 BMatC= 6.52D-05 BMatP= 2.45D-03
 IDIUse=3 WtCom= 9.96D-01 WtEn= 3.83D-03
 Coeff-Com: -0.243D-02 0.125D-01 0.143D+00 0.256D+00 0.591D+00
 Coeff-En:   0.000D+00 0.000D+00 0.000D+00 0.000D+00 0.100D+01
 Coeff:     -0.242D-02 0.125D-01 0.142D+00 0.255D+00 0.593D+00
 Gap=     0.237 Goal=   None    Shift=    0.000
 RMSDP=1.00D-04 MaxDP=9.52D-03 DE=-2.03D-03 OVMax= 1.85D-03

 Cycle   6  Pass 1  IDiag  1:
 RMSU=  3.27D-05    CP:  8.95D-01  4.76D-01  1.03D+00  5.79D-01  7.76D-01
 E= -402.453811912548     Delta-E=       -0.000048172489 Rises=F Damp=F
 DIIS: error= 1.75D-04 at cycle   6 NSaved=   6.
 NSaved= 6 IEnMin= 6 EnMin= -402.453811912548     IErMin= 6 ErrMin= 1.75D-04
 ErrMax= 1.75D-04 EMaxC= 1.00D-01 BMatC= 8.95D-06 BMatP= 6.52D-05
 IDIUse=3 WtCom= 9.98D-01 WtEn= 1.75D-03
 Coeff-Com: -0.818D-03 0.380D-03 0.402D-01 0.852D-01 0.323D+00 0.552D+00
 Coeff-En:   0.000D+00 0.000D+00 0.000D+00 0.000D+00 0.475D-01 0.953D+00
 Coeff:     -0.817D-03 0.380D-03 0.401D-01 0.851D-01 0.322D+00 0.553D+00
 Gap=     0.236 Goal=   None    Shift=    0.000
 RMSDP=2.00D-05 MaxDP=1.62D-03 DE=-4.82D-05 OVMax= 6.67D-04

 Cycle   7  Pass 1  IDiag  1:
 RMSU=  8.54D-06    CP:  8.96D-01  4.77D-01  1.03D+00  5.80D-01  7.72D-01
                    CP:  8.14D-01
 E= -402.453818914823     Delta-E=       -0.000007002276 Rises=F Damp=F
 DIIS: error= 2.71D-05 at cycle   7 NSaved=   7.
 NSaved= 7 IEnMin= 7 EnMin= -402.453818914823     IErMin= 7 ErrMin= 2.71D-05
 ErrMax= 2.71D-05 EMaxC= 1.00D-01 BMatC= 2.59D-07 BMatP= 8.95D-06
 IDIUse=1 WtCom= 1.00D+00 WtEn= 0.00D+00
 Coeff-Com: -0.199D-03-0.297D-03 0.129D-01 0.293D-01 0.124D+00 0.250D+00
 Coeff-Com:  0.585D+00
 Coeff:     -0.199D-03-0.297D-03 0.129D-01 0.293D-01 0.124D+00 0.250D+00
 Coeff:      0.585D+00
 Gap=     0.236 Goal=   None    Shift=    0.000
 RMSDP=5.84D-06 MaxDP=4.30D-04 DE=-7.00D-06 OVMax= 1.68D-04

 Cycle   8  Pass 1  IDiag  1:
 RMSU=  2.90D-06    CP:  8.96D-01  4.77D-01  1.03D+00  5.81D-01  7.76D-01
                    CP:  8.04D-01  7.76D-01
 E= -402.453819061607     Delta-E=       -0.000000146784 Rises=F Damp=F
 DIIS: error= 2.47D-05 at cycle   8 NSaved=   8.
 NSaved= 8 IEnMin= 8 EnMin= -402.453819061607     IErMin= 8 ErrMin= 2.47D-05
 ErrMax= 2.47D-05 EMaxC= 1.00D-01 BMatC= 9.10D-08 BMatP= 2.59D-07
 IDIUse=1 WtCom= 1.00D+00 WtEn= 0.00D+00
 Coeff-Com:  0.264D-04-0.303D-03 0.144D-02 0.434D-02 0.244D-01 0.657D-01
 Coeff-Com:  0.382D+00 0.522D+00
 Coeff:      0.264D-04-0.303D-03 0.144D-02 0.434D-02 0.244D-01 0.657D-01
 Coeff:      0.382D+00 0.522D+00
 Gap=     0.236 Goal=   None    Shift=    0.000
 RMSDP=1.70D-06 MaxDP=1.01D-04 DE=-1.47D-07 OVMax= 1.19D-04

 Cycle   9  Pass 1  IDiag  1:
 RMSU=  9.69D-07    CP:  8.96D-01  4.77D-01  1.03D+00  5.82D-01  7.74D-01
                    CP:  8.08D-01  7.91D-01  9.53D-01
 E= -402.453819116913     Delta-E=       -0.000000055306 Rises=F Damp=F
 DIIS: error= 1.13D-05 at cycle   9 NSaved=   9.
 NSaved= 9 IEnMin= 9 EnMin= -402.453819116913     IErMin= 9 ErrMin= 1.13D-05
 ErrMax= 1.13D-05 EMaxC= 1.00D-01 BMatC= 1.78D-08 BMatP= 9.10D-08
 IDIUse=1 WtCom= 1.00D+00 WtEn= 0.00D+00
 Coeff-Com:  0.366D-04-0.180D-03-0.320D-03-0.159D-04 0.377D-02 0.178D-01
 Coeff-Com:  0.198D+00 0.360D+00 0.421D+00
 Coeff:      0.366D-04-0.180D-03-0.320D-03-0.159D-04 0.377D-02 0.178D-01
 Coeff:      0.198D+00 0.360D+00 0.421D+00
 Gap=     0.236 Goal=   None    Shift=    0.000
 RMSDP=7.29D-07 MaxDP=3.56D-05 DE=-5.53D-08 OVMax= 4.18D-05

 Cycle  10  Pass 1  IDiag  1:
 RMSU=  3.16D-07    CP:  8.96D-01  4.77D-01  1.03D+00  5.81D-01  7.74D-01
                    CP:  8.12D-01  8.15D-01  9.38D-01  7.37D-01
 E= -402.453819129720     Delta-E=       -0.000000012807 Rises=F Damp=F
 DIIS: error= 1.35D-06 at cycle  10 NSaved=  10.
 NSaved=10 IEnMin=10 EnMin= -402.453819129720     IErMin=10 ErrMin= 1.35D-06
 ErrMax= 1.35D-06 EMaxC= 1.00D-01 BMatC= 4.44D-10 BMatP= 1.78D-08
 IDIUse=1 WtCom= 1.00D+00 WtEn= 0.00D+00
 Coeff-Com:  0.104D-04-0.433D-04-0.266D-03-0.415D-03-0.682D-03 0.833D-03
 Coeff-Com:  0.474D-01 0.974D-01 0.183D+00 0.673D+00
 Coeff:      0.104D-04-0.433D-04-0.266D-03-0.415D-03-0.682D-03 0.833D-03
 Coeff:      0.474D-01 0.974D-01 0.183D+00 0.673D+00
 Gap=     0.236 Goal=   None    Shift=    0.000
 RMSDP=2.30D-07 MaxDP=1.83D-05 DE=-1.28D-08 OVMax= 5.14D-06

 Cycle  11  Pass 1  IDiag  1:
 RMSU=  7.86D-08    CP:  8.96D-01  4.77D-01  1.03D+00  5.81D-01  7.74D-01
                    CP:  8.13D-01  8.17D-01  9.37D-01  7.26D-01  7.98D-01
 E= -402.453819130077     Delta-E=       -0.000000000357 Rises=F Damp=F
 DIIS: error= 3.84D-07 at cycle  11 NSaved=  11.
 NSaved=11 IEnMin=11 EnMin= -402.453819130077     IErMin=11 ErrMin= 3.84D-07
 ErrMax= 3.84D-07 EMaxC= 1.00D-01 BMatC= 4.44D-11 BMatP= 4.44D-10
 IDIUse=1 WtCom= 1.00D+00 WtEn= 0.00D+00
 Coeff-Com:  0.162D-05-0.627D-05-0.118D-03-0.226D-03-0.671D-03-0.102D-02
 Coeff-Com:  0.897D-02 0.196D-01 0.547D-01 0.317D+00 0.602D+00
 Coeff:      0.162D-05-0.627D-05-0.118D-03-0.226D-03-0.671D-03-0.102D-02
 Coeff:      0.897D-02 0.196D-01 0.547D-01 0.317D+00 0.602D+00
 Gap=     0.236 Goal=   None    Shift=    0.000
 RMSDP=7.86D-08 MaxDP=6.67D-06 DE=-3.57D-10 OVMax= 1.36D-06

 Cycle  12  Pass 1  IDiag  1:
 RMSU=  1.87D-08    CP:  8.96D-01  4.77D-01  1.03D+00  5.81D-01  7.74D-01
                    CP:  8.13D-01  8.18D-01  9.42D-01  7.35D-01  8.12D-01
                    CP:  8.60D-01
 E= -402.453819130103     Delta-E=       -0.000000000026 Rises=F Damp=F
 DIIS: error= 6.15D-08 at cycle  12 NSaved=  12.
 NSaved=12 IEnMin=12 EnMin= -402.453819130103     IErMin=12 ErrMin= 6.15D-08
 ErrMax= 6.15D-08 EMaxC= 1.00D-01 BMatC= 1.63D-12 BMatP= 4.44D-11
 IDIUse=1 WtCom= 1.00D+00 WtEn= 0.00D+00
 Coeff-Com: -0.807D-06 0.152D-05-0.140D-04-0.330D-04-0.119D-03-0.317D-03
 Coeff-Com: -0.453D-03-0.144D-02 0.269D-02 0.527D-01 0.202D+00 0.745D+00
 Coeff:     -0.807D-06 0.152D-05-0.140D-04-0.330D-04-0.119D-03-0.317D-03
 Coeff:     -0.453D-03-0.144D-02 0.269D-02 0.527D-01 0.202D+00 0.745D+00
 Gap=     0.236 Goal=   None    Shift=    0.000
 RMSDP=1.37D-08 MaxDP=1.22D-06 DE=-2.64D-11 OVMax= 2.69D-07

 Cycle  13  Pass 1  IDiag  1:
 RMSU=  5.04D-09    CP:  8.96D-01  4.77D-01  1.03D+00  5.81D-01  7.74D-01
                    CP:  8.13D-01  8.18D-01  9.43D-01  7.38D-01  8.22D-01
                    CP:  8.59D-01  9.20D-01
 E= -402.453819130113     Delta-E=       -0.000000000010 Rises=F Damp=F
 DIIS: error= 1.12D-08 at cycle  13 NSaved=  13.
 NSaved=13 IEnMin=13 EnMin= -402.453819130113     IErMin=13 ErrMin= 1.12D-08
 ErrMax= 1.12D-08 EMaxC= 1.00D-01 BMatC= 3.73D-14 BMatP= 1.63D-12
 IDIUse=1 WtCom= 1.00D+00 WtEn= 0.00D+00
 Coeff-Com: -0.229D-06 0.599D-06-0.105D-05-0.348D-05-0.177D-04-0.570D-04
 Coeff-Com: -0.398D-03-0.893D-03-0.123D-02 0.200D-02 0.246D-01 0.173D+00
 Coeff-Com:  0.803D+00
 Coeff:     -0.229D-06 0.599D-06-0.105D-05-0.348D-05-0.177D-04-0.570D-04
 Coeff:     -0.398D-03-0.893D-03-0.123D-02 0.200D-02 0.246D-01 0.173D+00
 Coeff:      0.803D+00
 Gap=     0.236 Goal=   None    Shift=    0.000
 RMSDP=2.66D-09 MaxDP=1.22D-07 DE=-1.00D-11 OVMax= 6.28D-08

 Error on total polarization charges =  0.01324
 SCF Done:  E(RB3LYP) =  -402.453819130     A.U. after   13 cycles
             Convg  =    0.2657D-08             -V/T =  2.0041
 KE= 4.008052223989D+02 PE=-1.751984085883D+03 EE= 5.427987438160D+02
 Leave Link  502 at Thu Apr 07 12:08:16 2016, MaxMem=   33554432 cpu:     593.0
 (Enter c:\G09w01\l801.exe)
 Range of M.O.s used for correlation:     1   253
 NBasis=   253 NAE=    32 NBE=    32 NFC=     0 NFV=     0
 NROrb=    253 NOA=    32 NOB=    32 NVA=   221 NVB=   221

 **** Warning!!: The largest alpha MO coefficient is  0.11021302D+03

 Leave Link  801 at Thu Apr 07 12:08:16 2016, MaxMem=   33554432 cpu:       0.0
 (Enter c:\G09w01\l1101.exe)
 Using compressed storage, NAtomX=    19.
 Will process  20 centers per pass.
 Leave Link 1101 at Thu Apr 07 12:08:18 2016, MaxMem=   33554432 cpu:       1.0
 (Enter c:\G09w01\l1102.exe)
 Symmetrizing basis deriv contribution to polar:
 IMax=3 JMax=2 DiffMx= 0.00D+00
 Leave Link 1102 at Thu Apr 07 12:08:18 2016, MaxMem=   33554432 cpu:       0.0
 (Enter c:\G09w01\l1110.exe)
 Forming Gx(P) for the SCF density, NAtomX=    19.
 Integral derivatives from FoFDir/FoFCou, PRISM(SPDF).
 Do as many integral derivatives as possible in FoFDir.
 G2DrvN: MDV=      33554264.
 G2DrvN: will do    20 centers at a time, making    1 passes doing MaxLOS=2.
 Calling FoFCou, ICntrl=  3107 FMM=F I1Cent=   0 AccDes= 0.00D+00.
 FoFCou: FMM=F IPFlag=           0 FMFlag=      100000 FMFlg1=           0
         NFxFlg=           0 DoJE=F BraDBF=F KetDBF=F FulRan=T
         Omega=  0.000000  0.000000  1.000000  0.000000  0.000000 ICntrl=    3107 IOpCl=  0
         NMat0=    1 NMatS0=    1 NMatT0=    0 NMatD0=    1 NMtDS0=    0 NMtDT0=    0
         I1Cent=           0 NGrid=           0.
 Symmetry not used in FoFCou.
 FoFDir/FoFCou used for L=0 through L=2.
 G2PCM: DoFxE=T DoFxN=T DoGrad=T DoPD/DQ/DG=FFF NFrqRd=   0 IEInf=0 DoCFld=F IF1Alg=4.
 GePol: Maximum number of non-zero 1st derivatives   =     206
 End of G2Drv Frequency-dependent properties file   721 does not exist.
 End of G2Drv Frequency-dependent properties file   722 does not exist.
 Leave Link 1110 at Thu Apr 07 12:23:23 2016, MaxMem=   33554432 cpu:     905.0
 (Enter c:\G09w01\l1002.exe)
 Minotr:  Closed shell wavefunction.
          IDoAtm=1111111111111111111
 NEqPCM:  Using equilibrium solvation (IEInf=0, Eps=  78.3553, EpsInf=   1.7778)
          Direct CPHF calculation.
          Differentiating once with respect to nuclear coordinates.
          Requested convergence is 1.0D-06 RMS, and 1.0D-05 maximum.
          Secondary convergence is 1.0D-12 RMS, and 1.0D-12 maximum.
          NewPWx=T KeepS1=F KeepF1=F KeepIn=T MapXYZ=F SortEE=F KeepMc=T.
          MDV=      33554294 using IRadAn=       2.
 Generate precomputed XC quadrature information.
          Solving linear equations simultaneously, MaxMat=       0.
 Integrals replicated using symmetry in FoFDir.
 MinBra= 0 MaxBra= 2 Meth= 1.
 IRaf=       0 NMat=  60 IRICut=     150 DoRegI=T DoRafI=T ISym2E= 2 JSym2E=2.
          There are    60 degrees of freedom in the 1st order CPHF.  IDoFFX=5.
     54 vectors produced by pass  0 Test12= 1.18D-10 1.67D-07 XBig12= 2.70D-01 1.10D-01.
 AX will form    54 AO Fock derivatives at one time.
     54 vectors produced by pass  1 Test12= 1.18D-10 1.67D-07 XBig12= 1.08D-01 1.62D-01.
     54 vectors produced by pass  2 Test12= 1.18D-10 1.67D-07 XBig12= 3.16D-04 2.90D-03.
     54 vectors produced by pass  3 Test12= 1.18D-10 1.67D-07 XBig12= 1.24D-06 1.62D-04.
     30 vectors produced by pass  4 Test12= 1.18D-10 1.67D-07 XBig12= 2.87D-09 4.44D-06.
      1 vectors produced by pass  5 Test12= 1.18D-10 1.67D-07 XBig12= 5.11D-12 2.61D-07.
 Inverted reduced A of dimension   247 with in-core refinement.
 End of Minotr Frequency-dependent properties file   721 does not exist.
 End of Minotr Frequency-dependent properties file   722 does not exist.
 Leave Link 1002 at Thu Apr 07 12:46:14 2016, MaxMem=   33554432 cpu:    1370.0
 (Enter c:\G09w01\l601.exe)
 Copying SCF densities to generalized density rwf, IOpCl= 0 IROHF=0.

 **********************************************************************

            Population analysis using the SCF density.

 **********************************************************************

 Orbital symmetries:
       Occupied  (A) (A) (A) (A) (A) (A) (A) (A) (A) (A) (A) (A)
                 (A) (A) (A) (A) (A) (A) (A) (A) (A) (A) (A) (A)
                 (A) (A) (A) (A) (A) (A) (A) (A)
       Virtual   (A) (A) (A) (A) (A) (A) (A) (A) (A) (A) (A) (A)
                 (A) (A) (A) (A) (A) (A) (A) (A) (A) (A) (A) (A)
                 (A) (A) (A) (A) (A) (A) (A) (A) (A) (A) (A) (A)
                 (A) (A) (A) (A) (A) (A) (A) (A) (A) (A) (A) (A)
                 (A) (A) (A) (A) (A) (A) (A) (A) (A) (A) (A) (A)
                 (A) (A) (A) (A) (A) (A) (A) (A) (A) (A) (A) (A)
                 (A) (A) (A) (A) (A) (A) (A) (A) (A) (A) (A) (A)
                 (A) (A) (A) (A) (A) (A) (A) (A) (A) (A) (A) (A)
                 (A) (A) (A) (A) (A) (A) (A) (A) (A) (A) (A) (A)
                 (A) (A) (A) (A) (A) (A) (A) (A) (A) (A) (A) (A)
                 (A) (A) (A) (A) (A) (A) (A) (A) (A) (A) (A) (A)
                 (A) (A) (A) (A) (A) (A) (A) (A) (A) (A) (A) (A)
                 (A) (A) (A) (A) (A) (A) (A) (A) (A) (A) (A) (A)
                 (A) (A) (A) (A) (A) (A) (A) (A) (A) (A) (A) (A)
                 (A) (A) (A) (A) (A) (A) (A) (A) (A) (A) (A) (A)
                 (A) (A) (A) (A) (A) (A) (A) (A) (A) (A) (A) (A)
                 (A) (A) (A) (A) (A) (A) (A) (A) (A) (A) (A) (A)
                 (A) (A) (A) (A) (A) (A) (A) (A) (A) (A) (A) (A)
                 (A) (A) (A) (A) (A)
 The electronic state is 1-A.
 Alpha  occ. eigenvalues --  -19.15750 -19.15557 -14.31353 -10.32599 -10.23177
 Alpha  occ. eigenvalues --  -10.19005 -10.16440 -10.15883  -1.15219  -1.00469
 Alpha  occ. eigenvalues --   -0.91341  -0.80568  -0.71732  -0.68927  -0.60139
 Alpha  occ. eigenvalues --   -0.56740  -0.53405  -0.50770  -0.49104  -0.47866
 Alpha  occ. eigenvalues --   -0.46507  -0.43939  -0.43084  -0.40374  -0.39378
 Alpha  occ. eigenvalues --   -0.38428  -0.35008  -0.34679  -0.33873  -0.32816
 Alpha  occ. eigenvalues --   -0.31597  -0.26782
 Alpha virt. eigenvalues --   -0.03178  -0.01116   0.00636   0.00858   0.01326
 Alpha virt. eigenvalues --    0.02960   0.03912   0.04128   0.04787   0.05330
 Alpha virt. eigenvalues --    0.06916   0.07436   0.07671   0.08230   0.08690
 Alpha virt. eigenvalues --    0.09300   0.09674   0.10404   0.10522   0.12275
 Alpha virt. eigenvalues --    0.12639   0.13065   0.13219   0.13987   0.14488
 Alpha virt. eigenvalues --    0.14881   0.15554   0.16351   0.16668   0.16921
 Alpha virt. eigenvalues --    0.17387   0.17893   0.18801   0.19303   0.19845
 Alpha virt. eigenvalues --    0.20199   0.21573   0.21721   0.22011   0.22677
 Alpha virt. eigenvalues --    0.23090   0.24668   0.25061   0.25158   0.26604
 Alpha virt. eigenvalues --    0.27239   0.27982   0.28710   0.29438   0.30258
 Alpha virt. eigenvalues --    0.31215   0.31925   0.32620   0.33300   0.34359
 Alpha virt. eigenvalues --    0.35535   0.36984   0.37689   0.39335   0.40383
 Alpha virt. eigenvalues --    0.41788   0.43612   0.44663   0.46282   0.48985
 Alpha virt. eigenvalues --    0.50822   0.52664   0.53960   0.54917   0.57447
 Alpha virt. eigenvalues --    0.58614   0.59228   0.61303   0.63160   0.65207
 Alpha virt. eigenvalues --    0.65532   0.66201   0.67986   0.68656   0.69817
 Alpha virt. eigenvalues --    0.70441   0.71728   0.73878   0.74219   0.75348
 Alpha virt. eigenvalues --    0.77964   0.78351   0.78978   0.82876   0.85496
 Alpha virt. eigenvalues --    0.88148   0.89278   0.97772   0.99975   1.03532
 Alpha virt. eigenvalues --    1.05221   1.06010   1.07994   1.10600   1.11356
 Alpha virt. eigenvalues --    1.12212   1.15525   1.16811   1.19381   1.21907
 Alpha virt. eigenvalues --    1.22724   1.23385   1.27227   1.34367   1.34907
 Alpha virt. eigenvalues --    1.40286   1.42315   1.45317   1.45998   1.46955
 Alpha virt. eigenvalues --    1.48076   1.51431   1.54350   1.55334   1.56145
 Alpha virt. eigenvalues --    1.58448   1.59220   1.60920   1.62032   1.63421
 Alpha virt. eigenvalues --    1.65556   1.66643   1.68109   1.70198   1.72388
 Alpha virt. eigenvalues --    1.75583   1.77404   1.78562   1.78901   1.80791
 Alpha virt. eigenvalues --    1.83964   1.85103   1.88673   1.89726   1.94196
 Alpha virt. eigenvalues --    1.97654   1.98837   2.04044   2.06189   2.09615
 Alpha virt. eigenvalues --    2.12929   2.14598   2.16642   2.20643   2.27585
 Alpha virt. eigenvalues --    2.32413   2.34801   2.36108   2.39870   2.44988
 Alpha virt. eigenvalues --    2.48188   2.49303   2.51258   2.52954   2.54142
 Alpha virt. eigenvalues --    2.56768   2.58910   2.60571   2.61336   2.62226
 Alpha virt. eigenvalues --    2.66162   2.67723   2.70367   2.72292   2.73170
 Alpha virt. eigenvalues --    2.75483   2.76480   2.77345   2.82270   2.85081
 Alpha virt. eigenvalues --    2.89449   2.90863   2.93819   2.96881   2.99848
 Alpha virt. eigenvalues --    3.01081   3.02341   3.06264   3.11859   3.15585
 Alpha virt. eigenvalues --    3.19278   3.22748   3.23470   3.32474   3.39241
 Alpha virt. eigenvalues --    3.41031   3.43206   3.59889   3.67195   3.74801
 Alpha virt. eigenvalues --    3.78326   3.80258   3.83576   3.84389   3.99086
 Alpha virt. eigenvalues --    4.06964   4.11295   4.15117   4.28735   4.31717
 Alpha virt. eigenvalues --    4.72670   4.83957   4.99841   5.05421   5.07403
 Alpha virt. eigenvalues --    5.29916   5.52310   5.80554  23.76985  23.81439
 Alpha virt. eigenvalues --   23.83829  23.97706  23.98074  35.60219  49.88748
 Alpha virt. eigenvalues --   49.98633
          Condensed to atoms (all electrons):
              1          2          3          4          5          6
     1  N    6.716676   0.381766  -0.086590  -0.046048  -0.017053   0.047912
     2  H    0.381766   0.430546   0.017826   0.012093  -0.031212  -0.053412
     3  C   -0.086590   0.017826  10.045239   0.514028  -1.702777  -2.859928
     4  H   -0.046048   0.012093   0.514028   0.512304  -0.011286  -0.208450
     5  C   -0.017053  -0.031212  -1.702777  -0.011286   7.200362   0.572974
     6  C    0.047912  -0.053412  -2.859928  -0.208450   0.572974   8.277664
     7  C    0.065833   0.002850   0.095040  -0.064455  -0.508240   0.143518
     8  O   -0.024825   0.006600  -0.060234   0.005862  -0.040910   0.366658
     9  H   -0.002726  -0.000605  -0.077784   0.006208   0.123031   0.012809
    10  H   -0.000406   0.000092   0.062417  -0.000608  -0.123130  -0.011550
    11  H   -0.010559   0.002121   0.038907  -0.000610  -0.086987  -0.042574
    12  H    0.389081  -0.040438  -0.071992  -0.015444   0.025726   0.034635
    13  O   -0.007646   0.000359  -0.026291   0.003261  -0.041373   0.301807
    14  H   -0.000380  -0.000288  -0.057839  -0.004048   0.020195   0.055172
    15  H   -0.012329   0.001525  -0.084108   0.021020   0.568603  -0.005951
    16  C   -0.077658   0.009765   0.479163   0.005014  -0.168421  -0.313188
    17  H    0.010433  -0.000745  -0.043830  -0.001180  -0.036258   0.006971
    18  H    0.001612   0.000124   0.052038  -0.001985  -0.117411  -0.019188
    19  H   -0.003976   0.000287  -0.035076   0.008398   0.043341   0.008039
              7          8          9         10         11         12
     1  N    0.065833  -0.024825  -0.002726  -0.000406  -0.010559   0.389081
     2  H    0.002850   0.006600  -0.000605   0.000092   0.002121  -0.040438
     3  C    0.095040  -0.060234  -0.077784   0.062417   0.038907  -0.071992
     4  H   -0.064455   0.005862   0.006208  -0.000608  -0.000610  -0.015444
     5  C   -0.508240  -0.040910   0.123031  -0.123130  -0.086987   0.025726
     6  C    0.143518   0.366658   0.012809  -0.011550  -0.042574   0.034635
     7  C    6.065842  -0.039984   0.314974   0.436715   0.441374  -0.002581
     8  O   -0.039984   8.177303   0.002696  -0.003463  -0.005109  -0.002354
     9  H    0.314974   0.002696   0.548483  -0.035742  -0.045116   0.000001
    10  H    0.436715  -0.003463  -0.035742   0.540792  -0.023539   0.000083
    11  H    0.441374  -0.005109  -0.045116  -0.023539   0.570660  -0.000983
    12  H   -0.002581  -0.002354   0.000001   0.000083  -0.000983   0.418724
    13  O   -0.019485  -0.253677  -0.002410  -0.000283  -0.007597  -0.000662
    14  H    0.004036   0.150419   0.000894   0.000289  -0.003838   0.000335
    15  H   -0.129100   0.002857   0.014000  -0.012088  -0.018717  -0.000634
    16  C   -0.151969   0.005286  -0.020789   0.000826   0.019105  -0.005967
    17  H    0.019002   0.000030  -0.003159   0.001639  -0.001873   0.001843
    18  H    0.000894  -0.000208   0.001813  -0.000518   0.002592  -0.000002
    19  H   -0.014234   0.000327   0.008974   0.002937  -0.002195  -0.000760
             13         14         15         16         17         18
     1  N   -0.007646  -0.000380  -0.012329  -0.077658   0.010433   0.001612
     2  H    0.000359  -0.000288   0.001525   0.009765  -0.000745   0.000124
     3  C   -0.026291  -0.057839  -0.084108   0.479163  -0.043830   0.052038
     4  H    0.003261  -0.004048   0.021020   0.005014  -0.001180  -0.001985
     5  C   -0.041373   0.020195   0.568603  -0.168421  -0.036258  -0.117411
     6  C    0.301807   0.055172  -0.005951  -0.313188   0.006971  -0.019188
     7  C   -0.019485   0.004036  -0.129100  -0.151969   0.019002   0.000894
     8  O   -0.253677   0.150419   0.002857   0.005286   0.000030  -0.000208
     9  H   -0.002410   0.000894   0.014000  -0.020789  -0.003159   0.001813
    10  H   -0.000283   0.000289  -0.012088   0.000826   0.001639  -0.000518
    11  H   -0.007597  -0.003838  -0.018717   0.019105  -0.001873   0.002592
    12  H   -0.000662   0.000335  -0.000634  -0.005967   0.001843  -0.000002
    13  O    8.169715   0.134074   0.003205   0.001054  -0.000117  -0.000368
    14  H    0.134074   0.396586   0.000781  -0.005640  -0.000080  -0.000369
    15  H    0.003205   0.000781   0.557759  -0.078424  -0.006771  -0.015733
    16  C    0.001054  -0.005640  -0.078424   5.637957   0.406077   0.447413
    17  H   -0.000117  -0.000080  -0.006771   0.406077   0.545733  -0.023221
    18  H   -0.000368  -0.000369  -0.015733   0.447413  -0.023221   0.557958
    19  H    0.000940   0.000171   0.009595   0.349958  -0.040782  -0.034971
             19
     1  N   -0.003976
     2  H    0.000287
     3  C   -0.035076
     4  H    0.008398
     5  C    0.043341
     6  C    0.008039
     7  C   -0.014234
     8  O    0.000327
     9  H    0.008974
    10  H    0.002937
    11  H   -0.002195
    12  H   -0.000760
    13  O    0.000940
    14  H    0.000171
    15  H    0.009595
    16  C    0.349958
    17  H   -0.040782
    18  H   -0.034971
    19  H    0.556085
 Mulliken atomic charges:
              1
     1  N   -0.323114
     2  H    0.260746
     3  C   -0.198210
     4  H    0.265926
     5  C    0.330827
     6  C   -0.313919
     7  C   -0.660030
     8  O   -0.287272
     9  H    0.154445
    10  H    0.165538
    11  H    0.174940
    12  H    0.271390
    13  O   -0.254506
    14  H    0.309529
    15  H    0.184511
    16  C   -0.539562
    17  H    0.166288
    18  H    0.149532
    19  H    0.142942
 Sum of Mulliken atomic charges =   0.00000
 Mulliken charges with hydrogens summed into heavy atoms:
              1
     1  N    0.209022
     3  C    0.067715
     5  C    0.515338
     6  C   -0.313919
     7  C   -0.165107
     8  O    0.022256
    13  O   -0.254506
    16  C   -0.080799
 Sum of Mulliken charges with hydrogens summed into heavy atoms =   0.00000
 APT atomic charges:
              1
     1  N   -0.925895
     2  H    0.437555
     3  C   -0.701810
     4  H    0.407614
     5  C   -0.110696
     6  C    0.117233
     7  C   -1.097228
     8  O   -0.341374
     9  H    0.330810
    10  H    0.542300
    11  H    0.284374
    12  H    0.601098
    13  O   -0.280624
    14  H    0.435390
    15  H    0.334031
    16  C   -1.270531
    17  H    0.361118
    18  H    0.527478
    19  H    0.349156
 Sum of APT charges=   0.00000
 APT Atomic charges with hydrogens summed into heavy atoms:
              1
     1  N    0.112758
     2  H    0.000000
     3  C   -0.294195
     4  H    0.000000
     5  C    0.223334
     6  C    0.117233
     7  C    0.060258
     8  O    0.094016
     9  H    0.000000
    10  H    0.000000
    11  H    0.000000
    12  H    0.000000
    13  O   -0.280624
    14  H    0.000000
    15  H    0.000000
    16  C   -0.032779
    17  H    0.000000
    18  H    0.000000
    19  H    0.000000
 Sum of APT charges=   0.00000
 Electronic spatial extent (au):  <R**2>=           1080.0097
 Charge=              0.0000 electrons
 Dipole moment (field-independent basis, Debye):
    X=              1.0096    Y=              0.5340    Z=             -0.0479  Tot=              1.1432
 Quadrupole moment (field-independent basis, Debye-Ang):
   XX=            -52.8135   YY=            -49.5571   ZZ=            -53.0407
   XY=             -4.7184   XZ=              0.0741   YZ=             -1.7365
 Traceless Quadrupole moment (field-independent basis, Debye-Ang):
   XX=             -1.0098   YY=              2.2467   ZZ=             -1.2370
   XY=             -4.7184   XZ=              0.0741   YZ=             -1.7365
 Octapole moment (field-independent basis, Debye-Ang**2):
  XXX=            -15.4117  YYY=              5.9870  ZZZ=             -1.8449  XYY=            -13.8045
  XXY=             -3.5191  XXZ=              5.0122  XZZ=              6.3345  YZZ=              5.3169
  YYZ=              2.8587  XYZ=              5.2185
 Hexadecapole moment (field-independent basis, Debye-Ang**3):
 XXXX=           -808.7276 YYYY=           -417.0229 ZZZZ=           -169.3660 XXXY=              2.0192
 XXXZ=             -5.3775 YYYX=            -23.0824 YYYZ=             -1.0567 ZZZX=             -0.0224
 ZZZY=              1.1011 XXYY=           -209.9940 XXZZ=           -184.6107 YYZZ=            -92.0851
 XXYZ=            -11.6665 YYXZ=              2.1521 ZZXY=             -5.0667
 N-N= 4.059263005376D+02 E-N=-1.751984086700D+03  KE= 4.008052223989D+02
  Exact polarizability:   0.000   0.000   0.000   0.000   0.000   0.000
 Approx polarizability: 106.899   6.446 101.891   0.668   7.009 115.680
 No NMR shielding tensors so no spin-rotation constants.
 Leave Link  601 at Thu Apr 07 12:46:14 2016, MaxMem=   33554432 cpu:       0.0
 (Enter c:\G09w01\l701.exe)
 Compute integral second derivatives.
 ... and contract with generalized density number  0.
 D2PCM: C-PCM CHGder 2nd derivatives, FixD1E=F FixD2E=F DoIter=F DoCFld=F I1PDM=0
 GePol: Maximum number of non-zero 2nd derivatives   =     206
 Leave Link  701 at Thu Apr 07 12:47:03 2016, MaxMem=   33554432 cpu:      48.0
 (Enter c:\G09w01\l702.exe)
 L702 exits ... SP integral derivatives will be done elsewhere.
 Leave Link  702 at Thu Apr 07 12:47:03 2016, MaxMem=   33554432 cpu:       0.0
 (Enter c:\G09w01\l703.exe)
 Compute integral second derivatives, UseDBF=F ICtDFT=           0.
 Integral derivatives from FoFDir, PRISM(SPDF).
 Calling FoFJK, ICntrl=    100147 FMM=F ISym2X=0 I1Cent= 0 IOpClX= 0 NMat=1 NMatS=1 NMatT=0.
 FoFCou: FMM=F IPFlag=           0 FMFlag=      100000 FMFlg1=         800
         NFxFlg=           0 DoJE=F BraDBF=F KetDBF=F FulRan=T
         Omega=  0.000000  0.000000  1.000000  0.000000  0.000000 ICntrl=  100147 IOpCl=  0
         NMat0=    1 NMatS0=    1 NMatT0=    0 NMatD0=    1 NMtDS0=    0 NMtDT0=    0
         I1Cent=           0 NGrid=           0.
 Symmetry not used in FoFCou.
 Leave Link  703 at Thu Apr 07 13:04:03 2016, MaxMem=   33554432 cpu:    1020.0
 (Enter c:\G09w01\l716.exe)
 Dipole        = 3.97226660D-01 2.10094218D-01-1.88293596D-02
 Polarizability= 0.00000000D+00 0.00000000D+00 0.00000000D+00
                 0.00000000D+00 0.00000000D+00 0.00000000D+00
 ***** Axes restored to original set *****
 -------------------------------------------------------------------
 Center     Atomic                   Forces (Hartrees/Bohr)
 Number     Number              X              Y              Z
 -------------------------------------------------------------------
      1        7          -0.000057173    0.000136939   -0.000055396
      2        1           0.000064640    0.000498532    0.000062206
      3        6           0.001012317    0.000474635   -0.001070844
      4        1          -0.000144958    0.000026173    0.000312874
      5        6          -0.000355482   -0.000506948    0.000543811
      6        6           0.004388312    0.002798066   -0.000210508
      7        6           0.000458645   -0.000203544   -0.000346430
      8        8          -0.001969579   -0.001261476   -0.000410173
      9        1           0.000133361    0.000197245   -0.000101369
     10        1          -0.000133694    0.000087613    0.000085279
     11        1          -0.000172702   -0.000077159    0.000325548
     12        1          -0.000891333   -0.000211227   -0.000015079
     13        8          -0.001678296   -0.001023285    0.000132647
     14        1          -0.001038287   -0.000319512    0.000705811
     15        1           0.000345996    0.000042224   -0.000043744
     16        6           0.000192351   -0.000529002   -0.000460494
     17        1           0.000314592   -0.000193834    0.000377709
     18        1          -0.000223378    0.000092323    0.000166367
     19        1          -0.000245332   -0.000027763    0.000001785
 -------------------------------------------------------------------
 Cartesian Forces:  Max     0.004388312 RMS     0.000881960
 Leave Link  716 at Thu Apr 07 13:04:03 2016, MaxMem=   33554432 cpu:       0.0
 (Enter c:\G09w01\l103.exe)

 GradGradGradGradGradGradGradGradGradGradGradGradGradGradGradGradGradGrad
 Berny optimization.
 Red2BG is reusing G-inverse.
 Internal  Forces:  Max     0.002061545 RMS     0.000534340
 Search for a saddle point.
 Step number   1 out of a maximum of  103
 All quantities printed in internal units (Hartrees-Bohrs-Radians)
 Swaping is turned off.
 Second derivative matrix not updated -- analytic derivatives used.
 ITU=  0
     Eigenvalues ---   -0.09776   0.00086   0.00186   0.00285   0.00300
     Eigenvalues ---    0.00395   0.02823   0.03016   0.03500   0.04099
     Eigenvalues ---    0.04213   0.04478   0.04518   0.04591   0.04643
     Eigenvalues ---    0.04747   0.05308   0.05381   0.07449   0.07699
     Eigenvalues ---    0.11779   0.12142   0.12175   0.13198   0.13948
     Eigenvalues ---    0.14314   0.14835   0.15061   0.15502   0.16814
     Eigenvalues ---    0.18244   0.18554   0.20251   0.21587   0.26432
     Eigenvalues ---    0.27865   0.28255   0.29863   0.32558   0.32852
     Eigenvalues ---    0.32974   0.33076   0.33287   0.33607   0.34157
     Eigenvalues ---    0.34540   0.35785   0.44672   0.45084   0.45391
     Eigenvalues ---    0.53263
 Eigenvectors required to have negative eigenvalues:
                          R16       R17       A33       A32       R10
   1                   -0.64501   0.64417  -0.34492  -0.13448   0.10175
                          R11       A16       A17       D40       D21
   1                   -0.09954   0.06287  -0.06191   0.02519   0.01946
 RFO step:  Lambda0=1.407675408D-06 Lambda=-2.44819405D-04.
 Linear search not attempted -- option 19 set.
 Iteration  1 RMS(Cart)=  0.02200261 RMS(Int)=  0.00060026
 Iteration  2 RMS(Cart)=  0.00061991 RMS(Int)=  0.00001543
 Iteration  3 RMS(Cart)=  0.00000056 RMS(Int)=  0.00001542
 Variable       Old X    -DE/DX   Delta X   Delta X   Delta X     New X
                                 (Linear)    (Quad)   (Total)
    R1        1.91993   0.00013   0.00000   0.00070   0.00070   1.92064
    R2        2.76839   0.00038   0.00000   0.00010   0.00010   2.76849
    R3        1.91715   0.00044   0.00000   0.00154   0.00154   1.91869
    R4        2.06595  -0.00033   0.00000  -0.00083  -0.00083   2.06512
    R5        2.93045   0.00103   0.00000   0.00170   0.00170   2.93215
    R6        2.85464   0.00025   0.00000   0.00073   0.00073   2.85537
    R7        2.90055  -0.00002   0.00000   0.00079   0.00079   2.90134
    R8        2.07399  -0.00008   0.00000  -0.00042  -0.00042   2.07357
    R9        2.89764  -0.00021   0.00000   0.00009   0.00009   2.89774
   R10        2.41594   0.00073   0.00000   0.00197   0.00197   2.41791
   R11        2.41018   0.00145   0.00000   0.00518   0.00519   2.41537
   R12        2.87194   0.00206   0.00000   0.01089   0.01089   2.88283
   R13        2.06906   0.00007   0.00000  -0.00007  -0.00007   2.06899
   R14        2.06506  -0.00010   0.00000  -0.00046  -0.00046   2.06460
   R15        2.06561   0.00028   0.00000   0.00063   0.00063   2.06625
   R16        2.46410  -0.00106   0.00000  -0.00075  -0.00073   2.46337
   R17        2.46722  -0.00026   0.00000  -0.00308  -0.00312   2.46410
   R18        2.05995  -0.00011   0.00000   0.00010   0.00010   2.06006
   R19        2.06620  -0.00012   0.00000  -0.00029  -0.00029   2.06591
   R20        2.07032  -0.00004   0.00000  -0.00051  -0.00051   2.06981
    A1        1.93040   0.00083   0.00000   0.00144   0.00143   1.93183
    A2        1.87923  -0.00019   0.00000  -0.00532  -0.00534   1.87389
    A3        1.94399  -0.00092   0.00000  -0.00655  -0.00656   1.93743
    A4        1.88774  -0.00034   0.00000  -0.00072  -0.00073   1.88701
    A5        1.93614   0.00165   0.00000   0.00837   0.00837   1.94451
    A6        1.94160  -0.00061   0.00000   0.00069   0.00070   1.94230
    A7        1.89756  -0.00013   0.00000   0.00007   0.00005   1.89761
    A8        1.86601   0.00024   0.00000  -0.00308  -0.00309   1.86293
    A9        1.93235  -0.00085   0.00000  -0.00567  -0.00568   1.92667
   A10        1.95337  -0.00022   0.00000  -0.00173  -0.00172   1.95165
   A11        1.85996  -0.00003   0.00000   0.00412   0.00412   1.86408
   A12        1.92402   0.00080   0.00000   0.00396   0.00395   1.92797
   A13        1.88879   0.00026   0.00000   0.00131   0.00131   1.89009
   A14        1.93770  -0.00068   0.00000  -0.00546  -0.00546   1.93225
   A15        1.89720  -0.00011   0.00000  -0.00189  -0.00190   1.89530
   A16        2.17460   0.00124   0.00000   0.00886   0.00892   2.18351
   A17        2.19566   0.00071   0.00000  -0.00037  -0.00045   2.19520
   A18        1.91254  -0.00194   0.00000  -0.00832  -0.00831   1.90423
   A19        1.93942  -0.00027   0.00000  -0.00177  -0.00177   1.93765
   A20        1.92124  -0.00005   0.00000  -0.00197  -0.00197   1.91927
   A21        1.96332  -0.00003   0.00000   0.00069   0.00069   1.96401
   A22        1.87900   0.00015   0.00000   0.00157   0.00157   1.88057
   A23        1.88314   0.00025   0.00000   0.00271   0.00271   1.88585
   A24        1.87450  -0.00003   0.00000  -0.00109  -0.00109   1.87341
   A25        1.85332   0.00009   0.00000  -0.00181  -0.00182   1.85150
   A26        1.94449   0.00031   0.00000   0.00438   0.00438   1.94887
   A27        1.92332  -0.00032   0.00000  -0.00453  -0.00453   1.91879
   A28        1.93179  -0.00024   0.00000  -0.00012  -0.00012   1.93166
   A29        1.89632  -0.00017   0.00000  -0.00447  -0.00447   1.89185
   A30        1.88713   0.00014   0.00000   0.00176   0.00175   1.88888
   A31        1.87901   0.00030   0.00000   0.00297   0.00297   1.88198
   A32        3.15675  -0.00001   0.00000  -0.00239  -0.00245   3.15430
   A33        3.10844   0.00033   0.00000   0.01285   0.01278   3.12122
    D1        2.98893  -0.00022   0.00000   0.05541   0.05542   3.04435
    D2       -1.21465   0.00038   0.00000   0.05998   0.05998  -1.15467
    D3        0.94458   0.00004   0.00000   0.05920   0.05921   1.00379
    D4        0.89974   0.00007   0.00000   0.06545   0.06545   0.96519
    D5        2.97935   0.00067   0.00000   0.07002   0.07001   3.04936
    D6       -1.14461   0.00033   0.00000   0.06924   0.06924  -1.07537
    D7        3.05521  -0.00009   0.00000   0.00891   0.00890   3.06411
    D8        0.99361  -0.00027   0.00000   0.00573   0.00573   0.99934
    D9       -1.06220  -0.00054   0.00000   0.00351   0.00350  -1.05870
   D10       -1.15427   0.00040   0.00000   0.01306   0.01306  -1.14121
   D11        3.06731   0.00022   0.00000   0.00989   0.00989   3.07720
   D12        1.01150  -0.00006   0.00000   0.00767   0.00766   1.01916
   D13        0.89070   0.00013   0.00000   0.00610   0.00611   0.89681
   D14       -1.17090  -0.00005   0.00000   0.00293   0.00294  -1.16796
   D15        3.05647  -0.00033   0.00000   0.00071   0.00071   3.05718
   D16       -0.95586  -0.00065   0.00000   0.00193   0.00193  -0.95393
   D17        2.15261  -0.00045   0.00000   0.00907   0.00907   2.16168
   D18       -3.01339  -0.00004   0.00000   0.00427   0.00428  -3.00911
   D19        0.09508   0.00016   0.00000   0.01141   0.01141   0.10649
   D20        1.20553   0.00043   0.00000   0.00912   0.00912   1.21464
   D21       -1.96919   0.00063   0.00000   0.01626   0.01626  -1.95294
   D22        1.04193   0.00017   0.00000   0.00307   0.00307   1.04500
   D23        3.12187   0.00016   0.00000   0.00263   0.00264   3.12451
   D24       -1.07158   0.00006   0.00000   0.00036   0.00036  -1.07122
   D25        3.08627   0.00017   0.00000   0.00793   0.00793   3.09421
   D26       -1.11697   0.00016   0.00000   0.00749   0.00750  -1.10947
   D27        0.97277   0.00006   0.00000   0.00522   0.00522   0.97799
   D28       -1.11617  -0.00021   0.00000   0.00321   0.00320  -1.11297
   D29        0.96378  -0.00022   0.00000   0.00277   0.00277   0.96655
   D30        3.05351  -0.00032   0.00000   0.00050   0.00049   3.05400
   D31        0.94106   0.00042   0.00000   0.04372   0.04372   0.98478
   D32        3.04736   0.00018   0.00000   0.03792   0.03792   3.08528
   D33       -1.15935   0.00020   0.00000   0.03865   0.03865  -1.12070
   D34        3.11585   0.00022   0.00000   0.04046   0.04046  -3.12688
   D35       -1.06103  -0.00001   0.00000   0.03467   0.03466  -1.02638
   D36        1.01543   0.00000   0.00000   0.03540   0.03539   1.05082
   D37       -1.09165   0.00006   0.00000   0.03762   0.03763  -1.05402
   D38        1.01466  -0.00017   0.00000   0.03183   0.03183   1.04649
   D39        3.09113  -0.00016   0.00000   0.03256   0.03256   3.12369
   D40        0.00260  -0.00012   0.00000  -0.00007  -0.00007   0.00253
         Item               Value     Threshold  Converged?
 Maximum Force            0.002062     0.000450     NO 
 RMS     Force            0.000534     0.000300     NO 
 Maximum Displacement     0.102298     0.001800     NO 
 RMS     Displacement     0.021985     0.001200     NO 
 Predicted change in Energy=-1.264385D-04
 GradGradGradGradGradGradGradGradGradGradGradGradGradGradGradGradGradGrad

 Leave Link  103 at Thu Apr 07 13:04:03 2016, MaxMem=   33554432 cpu:       0.0
 (Enter c:\G09w01\l202.exe)
                          Input orientation:                          
 ---------------------------------------------------------------------
 Center     Atomic      Atomic             Coordinates (Angstroms)
 Number     Number       Type             X           Y           Z
 ---------------------------------------------------------------------
      1          7           0        0.100060    1.964755   -0.081116
      2          1           0       -0.116618    2.120932    0.899518
      3          6           0        0.049345    0.536013   -0.401137
      4          1           0        0.188849    0.424077   -1.479216
      5          6           0        1.170551   -0.248467    0.330318
      6          6           0       -1.303726   -0.051661   -0.074104
      7          6           0        1.059864   -1.760632    0.088814
      8          8           0       -1.880143    0.018050    1.066075
      9          1           0        1.135308   -1.994474   -0.978121
     10          1           0        1.872052   -2.280826    0.602027
     11          1           0        0.119762   -2.176662    0.461203
     12          1           0       -0.579252    2.484598   -0.628096
     13          8           0       -2.066372   -0.671673   -0.891199
     14          1           0       -2.679557   -0.620644    0.258443
     15          1           0        1.040768   -0.060664    1.403593
     16          6           0        2.550611    0.268716   -0.093145
     17          1           0        2.651340    1.339371    0.085585
     18          1           0        3.331712   -0.249893    0.469067
     19          1           0        2.723632    0.081481   -1.158357
 ---------------------------------------------------------------------
                    Distance matrix (angstroms):
                    1          2          3          4          5
     1  N    0.000000
     2  H    1.016358   0.000000
     3  C    1.465022   2.056992   0.000000
     4  H    2.082368   2.937857   1.092816   0.000000
     5  C    2.492705   2.755874   1.551625   2.165749   0.000000
     6  C    2.456949   2.660324   1.510997   2.104388   2.514823
     7  C    3.850794   4.136169   2.556518   2.826720   1.535325
     8  O    3.004482   2.749522   2.478693   3.305162   3.149461
     9  H    4.189493   4.693550   2.813466   2.645046   2.182155
    10  H    4.650978   4.839295   3.501883   3.805423   2.167121
    11  H    4.176821   4.326350   2.847313   3.245589   2.199824
    12  H    1.015327   1.637037   2.060006   2.357992   3.383786
    13  O    3.507195   3.847967   2.484940   2.575356   3.485524
    14  H    3.811281   3.807344   3.036413   3.512643   3.868722
    15  H    2.681719   2.520515   2.143827   3.044886   1.097284
    16  C    2.980250   3.395614   2.534293   2.742854   1.533416
    17  H    2.632095   2.989133   2.766345   3.057814   2.184916
    18  H    3.956127   4.206789   3.485519   3.758674   2.165611
    19  H    3.404453   4.057244   2.816344   2.577876   2.176484
                    6          7          8          9         10
     6  C    0.000000
     7  C    2.921247   0.000000
     8  O    1.279502   3.572449   0.000000
     9  H    3.246638   1.094863   4.161963   0.000000
    10  H    3.938514   1.092537   4.424832   1.766822   0.000000
    11  H    2.613140   1.093410   3.030223   1.770927   1.761022
    12  H    2.695251   4.606804   3.262881   4.808775   5.498305
    13  O    1.278158   3.452479   2.083584   3.465273   4.508912
    14  H    1.525529   3.913007   1.303558   4.239068   4.857098
    15  H    2.771340   2.149163   2.941401   3.069384   2.502531
    16  C    3.867676   2.524617   4.586743   2.812169   2.728346
    17  H    4.195595   3.484656   4.820953   3.813705   3.738961
    18  H    4.671362   2.754673   5.252775   3.156281   2.504591
    19  H    4.172882   2.777939   5.113401   2.620085   3.066698
                   11         12         13         14         15
    11  H    0.000000
    12  H    4.837616   0.000000
    13  O    2.978786   3.498970   0.000000
    14  H    3.209126   3.852241   1.303946   0.000000
    15  H    2.492749   3.637387   3.910719   3.932654   0.000000
    16  C    3.492306   3.871995   4.778887   5.316882   2.151358
    17  H    4.348846   3.501087   5.220653   5.682429   2.508223
    18  H    3.745547   4.896616   5.582790   6.026374   2.481445
    19  H    3.808192   4.118881   4.856208   5.629809   3.068521
                   16         17         18         19
    16  C    0.000000
    17  H    1.090134   0.000000
    18  H    1.093233   1.770797   0.000000
    19  H    1.095294   1.770567   1.768638   0.000000
 Stoichiometry    C5H11NO2
 Framework group  C1[X(C5H11NO2)]
 Deg. of freedom    51
 Full point group                 C1      NOp   1
 Largest Abelian subgroup         C1      NOp   1
 Largest concise Abelian subgroup C1      NOp   1
                         Standard orientation:                         
 ---------------------------------------------------------------------
 Center     Atomic      Atomic             Coordinates (Angstroms)
 Number     Number       Type             X           Y           Z
 ---------------------------------------------------------------------
      1          7           0        0.102256    1.963897   -0.076542
      2          1           0       -0.114171    2.118990    0.904319
      3          6           0        0.050173    0.535623   -0.398430
      4          1           0        0.189458    0.424971   -1.476670
      5          6           0        1.170726   -0.250860    0.331874
      6          6           0       -1.303410   -0.051217   -0.072020
      7          6           0        1.058603   -1.762604    0.088400
      8          8           0       -1.879639    0.017537    1.068312
      9          1           0        1.133714   -1.995117   -0.978849
     10          1           0        1.870360   -2.284227    0.600843
     11          1           0        0.118153   -2.178244    0.460347
     12          1           0       -0.576630    2.485089   -0.622767
     13          8           0       -2.066722   -0.669446   -0.889844
     14          1           0       -2.679735   -0.619351    0.259930
     15          1           0        1.041234   -0.064343    1.405408
     16          6           0        2.551222    0.265590   -0.091062
     17          1           0        2.652969    1.335915    0.089061
     18          1           0        3.331900   -0.254483    0.470386
     19          1           0        2.723954    0.079591   -1.156537
 ---------------------------------------------------------------------
 Rotational constants (GHZ):      2.9085527      1.5082446      1.1955866
 Leave Link  202 at Thu Apr 07 13:04:04 2016, MaxMem=   33554432 cpu:       0.0
 (Enter c:\G09w01\l301.exe)
 Standard basis: 6-311++G(d,p) (5D, 7F)
 Ernie: Thresh=  0.10000D-02 Tol=  0.10000D-05 Strict=F.
 There are   253 symmetry adapted basis functions of A   symmetry.
 Integral buffers will be    262144 words long.
 Raffenetti 2 integral format.
 Two-electron integral symmetry is turned on.
   253 basis functions,   387 primitive gaussians,   261 cartesian basis functions
    32 alpha electrons       32 beta electrons
       nuclear repulsion energy       405.7440072513 Hartrees.
 IExCor=  402 DFT=T Ex+Corr=B3LYP ExCW=0 ScaHFX=  0.200000
[...]
 440,0.00020909,-0.00270768,0.00071730,-0.00034783,-0.00022430,-0.05341
 521,0.00096442,0.03204946,0.06242991,0.00309120,-0.01104467,-0.0387514
 5,0.00053771,-0.00649047,-0.00137947,0.00075778,-0.05018468,-0.0179989
 0,-0.00104475,0.06413248,-0.00003324,-0.00449992,-0.00580190,0.0001803
 0,-0.00077528,0.00171419,0.03858794,-0.02298557,-0.30130913,-0.0378546
 9,0.02679808,0.32628390,0.00262422,0.00370453,0.00085066,0.00028514,-0
 .00056029,0.00010315,-0.10775487,0.02719264,-0.02749040,0.00146013,-0.
 00134211,-0.00045353,0.45270701,0.02586760,-0.02816267,0.02028541,0.00
 044046,0.00161287,0.00008238,0.01013210,-0.08381547,0.01303210,-0.0009
 1190,0.00093906,0.00039126,0.00949964,0.46169774,0.00463376,-0.0054640
 2,0.00399028,0.00163759,-0.00124791,0.00147397,-0.02400293,0.02121670,
 -0.09962825,-0.02425562,0.01663713,-0.01678385,-0.02449353,0.02844936,
 0.56995903,0.00607399,-0.00593027,-0.00397326,-0.00020729,-0.00059784,
 -0.00064689,-0.16473239,-0.03053761,0.03123641,-0.00587477,-0.00040008
 ,0.00001445,-0.03603729,0.00237037,-0.00180122,0.68342357,-0.02913851,
 -0.03929617,0.00077377,-0.00038187,0.00015991,0.00039211,-0.01791272,-
 0.08500016,0.01720229,0.00078340,0.00140977,-0.00071657,0.01078192,0.0
 1585760,-0.01163577,0.19171780,0.35141259,-0.00633311,-0.00380468,0.00
 274937,-0.00304417,-0.00288144,-0.00017023,0.01761191,0.01178943,-0.09
 362850,0.03286232,0.01275390,-0.00975492,-0.01357880,-0.01035937,0.007
 34382,-0.07121302,0.08878367,0.61829755,-0.00409956,0.00398172,-0.0038
 0920,-0.00002375,-0.00021978,-0.00008094,0.00276756,0.02298418,0.00610
 070,0.00062272,-0.00046116,0.00024911,-0.07821473,-0.00533944,-0.00153
 734,-0.00031751,0.00315079,-0.00042873,0.57123237,0.00175582,-0.000303
 10,0.00149228,0.00016313,-0.00008120,0.00011394,0.00248209,-0.02083478
 ,-0.00113406,-0.00104557,0.00100012,-0.00052056,-0.00721953,-0.1729916
 9,-0.01737084,0.00178190,0.00202824,-0.00066593,-0.00428215,0.45998372
 ,-0.00268704,0.00269188,-0.00185233,-0.00032548,0.00035756,0.00008441,
 0.00297760,0.01493057,0.00241330,0.00016834,0.00074186,0.00053136,-0.0
 0143600,-0.01921719,-0.08241896,0.00099400,-0.00074095,0.00021658,-0.0
 0026650,-0.02089791,0.55826715,-0.00309771,-0.00222018,0.00072367,0.00
 153406,0.00156320,0.00034889,-0.00532035,0.00328630,0.03476952,-0.0076
 9249,-0.00403165,0.00158875,0.00263427,-0.00199368,0.00229210,-0.17643
 230,-0.01921806,0.09393064,-0.00025391,-0.00032826,-0.00023291,0.12650
 887,-0.00152071,0.00275619,0.00176990,0.00099221,0.00133445,0.00066217
 ,-0.00736594,0.00762130,0.00983718,-0.00324959,-0.00027916,0.00114661,
 -0.00156902,-0.00155940,0.00202849,-0.00215442,-0.09400795,-0.04710699
 ,-0.00042758,-0.00073663,-0.00007067,-0.00891615,0.07459960,0.00105569
 ,-0.00000585,0.00074390,0.00033736,0.00115165,0.00025602,0.00799859,-0
 .00128133,-0.00565574,0.00108597,0.00072681,0.00166765,-0.00099137,0.0
 0240601,-0.00276788,0.14293530,-0.02330695,-0.37394071,0.00021084,0.00
 018642,0.00024033,-0.14793626,0.08516244,0.55916176,-0.00003388,0.0000
 4140,-0.00007514,-0.00002450,-0.00001154,-0.00003266,0.00018002,0.0000
 6494,0.00074954,0.00010120,0.00014272,-0.00003451,-0.00114445,0.000172
 66,-0.00181432,0.00000747,-0.00023782,0.00067730,-0.04870054,0.0032516
 7,0.01763450,-0.00016973,0.00023012,-0.00015669,0.04741932,-0.00018829
 ,0.00002567,0.00029706,-0.00014007,0.00023833,0.00008623,-0.00014688,0
 .00152606,-0.00136109,0.00028078,-0.00025355,0.00078167,0.00229128,-0.
 00828750,-0.03388543,0.00000368,-0.00032270,-0.00006146,0.00306753,-0.
 05641300,-0.04876267,0.00000440,0.00008000,0.00008780,-0.00360232,0.06
 330754,0.00004542,-0.00015643,0.00034597,-0.00007112,0.00015291,-0.000
 07340,-0.00022194,0.00040801,0.00051879,0.00043483,-0.00030829,0.00023
 992,0.00066924,-0.00164965,-0.00568580,-0.00041140,-0.00023487,-0.0002
 8282,0.01758375,-0.04982812,-0.29174797,0.00019969,0.00001389,0.000156
 93,-0.01956845,0.05675155,0.31769831,0.00013494,-0.00011324,-0.0002313
 2,-0.00000469,-0.00004911,-0.00001656,0.00044012,-0.00062529,0.0006380
 0,-0.00006214,0.00000791,-0.00011495,0.00096389,-0.00191427,0.00180174
 ,0.00063440,-0.00068270,-0.00006844,-0.19331410,0.09260189,-0.09381922
 ,-0.00013641,0.00011902,0.00002646,0.00234967,-0.00222990,0.00142079,0
 .20808064,0.00154352,-0.00163673,0.00132397,0.00001871,0.00002513,0.00
 002040,-0.00243035,-0.00456424,-0.00267398,-0.00020662,0.00010567,0.00
 003531,0.02442696,-0.01679566,0.01661197,-0.00138896,-0.00093966,0.000
 04831,0.09045765,-0.10147776,0.05768286,0.00044355,0.00023179,-0.00013
 324,-0.00581894,0.00277514,-0.00263862,-0.09951267,0.11378263,0.000110
 67,-0.00026524,0.00046627,-0.00002613,0.00008200,0.00000804,-0.0000966
 8,-0.00110542,0.00040110,0.00021848,-0.00025762,0.00030138,0.00512099,
 -0.00343586,0.00203931,-0.00014567,0.00015371,-0.00038760,-0.09374122,
 0.05898296,-0.10587220,0.00003322,-0.00006644,0.00016083,-0.02382917,0
 .01469685,-0.01402229,0.10300837,-0.06296342,0.11063224,0.00023311,-0.
 00020256,0.00009074,-0.00005456,0.00000374,-0.00000138,0.00021761,0.00
 015601,-0.00029644,-0.00001835,0.00006835,-0.00001688,-0.00076865,0.00
 072170,-0.00060922,-0.00035349,-0.00003874,0.00002709,-0.23998999,-0.0
 8240555,0.07798707,-0.00023276,0.00052177,-0.00013196,-0.00115400,0.00
 030661,0.00038677,-0.02024822,-0.00857812,0.00880920,0.26150619,0.0002
 3980,0.00020312,-0.00032708,-0.00007055,-0.00006799,-0.00002351,-0.001
 11794,0.00115506,0.00027031,0.00006436,-0.00003566,-0.00002345,-0.0286
 1021,-0.00982081,0.01218842,0.00104646,-0.00240565,0.00112665,-0.08094
 167,-0.08288443,0.03239790,-0.00010314,0.00035769,-0.00033191,0.006376
 85,0.00179311,-0.00155535,0.01275559,0.00567420,-0.00640878,0.09001959
 ,0.09099923,-0.00015987,0.00000438,-0.00002640,0.00000707,-0.00000080,
 -0.00000743,0.00040199,0.00028996,-0.00000330,0.00003434,0.00000669,0.
 00002323,-0.00631664,-0.00206614,0.00054287,-0.00014717,0.00110624,0.0
 0062017,0.07805973,0.03311827,-0.07824585,0.00003243,-0.00015990,-0.00
 024796,0.02738153,0.01157077,-0.00959966,-0.01335491,-0.00662768,0.005
 58128,-0.08539156,-0.03573760,0.07967590,-0.20299367,0.16092307,-0.165
 51185,0.00271183,-0.00670481,0.00902693,-0.00291614,-0.01035141,0.0027
 1962,-0.00002748,0.00027134,0.00005006,0.00002655,0.00082348,0.0007477
 7,0.00145745,-0.00204708,0.00065718,-0.00020496,-0.00012565,-0.0004101
 2,-0.00006648,0.00026564,-0.00002014,-0.00000310,0.00001955,0.00005092
 ,0.00010781,0.00019026,0.00001306,0.00007655,0.00009390,0.00001810,0.2
 0098539,0.12550070,-0.13617316,0.08618353,-0.00491536,0.00352350,-0.00
 333131,0.02385895,-0.02068855,0.01995832,0.00018428,0.00126433,-0.0003
 0236,-0.00233176,-0.00591623,-0.00277335,0.00027700,-0.00083821,0.0011
 4140,0.00175477,-0.00027297,0.00102959,0.00005372,0.00046238,-0.000084
 19,0.00001082,0.00002109,-0.00007209,0.00000820,-0.00063346,-0.0001098
 1,-0.00005839,0.00005934,0.00003999,-0.14433841,0.15864275,-0.13383588
 ,0.09015802,-0.16304964,-0.02824367,0.02032013,-0.01964405,0.00865420,
 -0.00601571,0.00665013,0.00044103,0.00021992,0.00042144,-0.00044325,-0
 .00201152,-0.00039919,0.00070484,0.00023159,0.00008172,0.00050531,-0.0
 0040343,0.00071017,-0.00020600,-0.00026796,0.00009527,-0.00000745,0.00
 009581,-0.00005384,0.00002572,-0.00033763,-0.00001770,-0.00003092,-0.0
 0000820,-0.00001371,0.15300298,-0.10156246,0.17497564,-0.00788407,-0.0
 0722810,0.00059757,0.00038945,0.00000181,0.00053712,-0.00688395,-0.014
 52433,-0.02530504,0.00209860,0.00057365,-0.00096172,-0.00016590,-0.003
 26627,0.00236548,-0.22505060,-0.09948515,-0.08349717,-0.00034098,0.000
 09293,-0.00092712,0.08569290,0.01925446,0.00295524,0.00008390,0.000021
 50,0.00004477,-0.00026540,0.00021427,-0.00004315,-0.00045813,-0.000002
 97,0.00018852,0.00032023,0.00064080,-0.00067494,0.18999187,-0.00006171
 ,-0.00029507,0.00045522,0.00012995,0.00014150,0.00013848,-0.01531688,0
 .00780013,-0.01407077,0.00114298,-0.00002004,-0.00008891,-0.00113217,-
 0.00586854,0.00341827,-0.11253574,-0.16304387,-0.10017466,0.00009147,-
 0.00141567,0.00091677,-0.00092703,0.02984558,-0.06593300,-0.00016478,0
 .00015525,0.00019954,0.00034003,0.00051999,-0.00003983,0.00085663,0.00
 042188,-0.00054961,0.00037814,0.00008282,-0.00012564,0.12409982,0.1724
 2423,-0.00103816,0.00038812,0.00195822,0.00113401,0.00161848,0.0005594
 4,0.00468782,-0.00100049,0.00848548,-0.00209237,-0.00065241,0.00230645
 ,0.00174423,0.00066083,-0.00012537,-0.13299332,-0.12311784,-0.26750370
 ,0.00030538,-0.00002303,-0.00004775,-0.06262737,-0.09654001,-0.1643057
 0,-0.00022375,0.00007726,0.00020522,0.00008778,0.00006593,0.00012647,-
 0.00016811,-0.00011085,-0.00024045,-0.00027525,-0.00005251,-0.00024837
 ,0.17998731,0.19702133,0.40227781,-0.00023732,-0.00075333,-0.00078734,
 -0.00028417,-0.00036365,-0.00021405,0.00232976,-0.00179059,0.00022284,
 0.00014477,0.00022543,0.00032992,0.00015462,0.00004836,-0.00010286,-0.
 08513482,-0.04301072,0.03720602,-0.00010257,-0.00012830,0.00013514,-0.
 02253073,0.00424955,-0.00867742,0.00005890,0.00001112,-0.00005179,0.00
 011877,0.00002428,-0.00004635,-0.00002785,0.00030223,-0.00008024,0.000
 05219,0.00001210,0.00000793,-0.03564229,0.00474122,0.01113892,0.141120
 66,0.00123690,0.00068546,-0.00022017,-0.00032973,-0.00052045,-0.000036
 77,-0.00412437,0.00488977,-0.00457755,0.00106774,0.00037484,-0.0005208
 4,-0.00100434,-0.00087193,0.00033729,-0.04257027,0.01930865,0.04726254
 ,0.00007817,-0.00004500,-0.00003098,0.03133806,-0.02143468,0.00222113,
 0.00003567,-0.00000843,-0.00001721,-0.00002755,-0.00001901,-0.00001237
 ,0.00006204,-0.00001213,0.00007801,0.00002365,-0.00021147,0.00009494,-
 0.02159634,-0.04232839,0.02169553,0.03646536,0.04004404,-0.00031796,-0
 .00138736,-0.00104287,-0.00088536,-0.00127214,-0.00012173,0.00036563,-
 0.00334384,-0.00720967,0.00242655,0.00100914,-0.00142014,-0.00027355,-
 0.00001438,-0.00014608,0.03464917,0.04596149,0.12019665,-0.00004873,0.
 00018406,-0.00022325,0.07740488,0.04424055,-0.01792775,0.00015085,-0.0
 0007547,-0.00011971,-0.00008790,-0.00011446,-0.00007531,-0.00006515,0.
 00005431,0.00022700,0.00003504,0.00007184,0.00002734,-0.07397604,-0.01
 970986,0.01541903,-0.03894433,-0.06557126,-0.10706666,0.00112606,-0.00
 154738,0.00088452,-0.00020779,0.00046498,0.00037735,-0.00126380,-0.002
 24324,-0.02599989,-0.00298588,0.00242248,-0.00199962,-0.05088551,0.006
 02179,0.02814257,0.00196381,0.00005861,-0.00160406,-0.00001291,-0.0010
 9961,-0.00231052,0.00046958,0.00028369,0.00066138,0.00069577,-0.000499
 19,-0.00009043,0.00005068,0.00004895,0.00035597,0.00024727,0.00028867,
 -0.00040599,0.00001742,-0.00029766,0.00016134,-0.00053965,-0.00013938,
 0.00026954,-0.00009058,-0.00033927,-0.00052255,0.06043966,-0.00075786,
 0.00152972,0.00030197,0.00045328,-0.00029519,-0.00028692,0.00039385,0.
 00069607,0.01757174,0.00238603,-0.00127644,0.00156458,0.00535998,-0.05
 414981,-0.04078791,-0.00082436,-0.00003644,-0.00015380,0.00293903,-0.0
 0931884,-0.03354906,0.00002022,-0.00013209,-0.00009760,-0.00037074,-0.
 00637082,-0.00125455,0.00035715,0.00136144,0.00054132,-0.00036007,0.00
 145560,0.00053245,-0.00015501,0.00016484,-0.00013452,0.00009675,0.0001
 3466,-0.00005999,0.00001415,0.00006522,0.00008471,-0.00606359,0.063952
 58,0.00062519,-0.00049746,0.00175474,-0.00038446,0.00103938,-0.0000944
 0,-0.00118851,-0.00179789,-0.01954130,-0.00242801,0.00141687,-0.000147
 38,0.02743998,-0.04074917,-0.28456848,0.00153603,0.00077741,-0.0014374
 7,0.00037129,-0.00194789,-0.00450900,0.00009059,0.00009601,0.00114208,
 -0.00009932,-0.00076269,0.00128995,0.00023344,-0.00028954,0.00052875,-
 0.00033760,-0.00024104,0.00044256,-0.00006945,-0.00007884,0.00045016,-
 0.00053182,-0.00026360,0.00067858,-0.00009650,-0.00029444,-0.00042028,
 -0.02922096,0.04371531,0.31117250,-0.00165051,-0.00052019,0.00021800,-
 0.00031831,0.00011917,0.00003605,-0.03361606,-0.00355885,0.00336238,0.
 00148511,-0.00092995,0.00104736,-0.15545131,-0.03199601,0.02844913,-0.
 00032496,0.00376276,-0.00212075,-0.00563123,-0.00758250,0.00091683,-0.
 00030307,-0.00046250,0.00053733,0.00026881,0.00107001,0.00008983,0.000
 65744,0.00145950,-0.00001336,0.00085784,0.00140003,-0.00014256,0.00013
 054,-0.00064020,-0.00008255,-0.00079609,-0.00076422,0.00002917,0.00000
 854,-0.00024798,-0.00001402,-0.00617479,-0.00228763,0.00219404,0.47507
 511,-0.00043215,-0.00021402,-0.00008168,0.00011248,0.00003318,-0.00009
 318,0.01562385,0.00681310,-0.00492211,-0.00047717,0.00043408,-0.000266
 89,-0.02836751,-0.08695199,0.00926219,-0.00009087,-0.00501815,0.002833
 39,-0.03361715,-0.01797731,0.01044650,0.00107791,0.00090829,-0.0008620
 6,-0.00006041,0.00154598,0.00038829,-0.00098799,0.00146833,0.00010307,
 -0.00136701,-0.00647726,-0.00112213,0.00019357,0.00015967,-0.00017976,
 0.00130524,0.00181766,-0.00002305,-0.00006328,0.00016442,-0.00009596,0
 .00433165,0.00145408,-0.00092066,-0.03133940,0.56861940,-0.00015502,0.
 00011887,0.00115792,-0.00015681,0.00008687,-0.00012236,-0.01774026,-0.
 00518402,0.00304246,-0.00101600,-0.00053247,0.00105869,0.02995798,0.00
 999498,-0.08686975,0.00008468,0.00527182,-0.00346658,-0.00458712,-0.00
 109969,0.00153489,-0.00052854,-0.00080798,0.00147784,-0.00095480,-0.00
 062824,0.00069842,0.00035310,0.00047561,0.00007631,-0.00064519,-0.0016
 7367,0.00045235,-0.00021843,-0.00014582,0.00012922,-0.00123808,-0.0016
 5855,0.00042047,0.00002653,-0.00046389,-0.00014510,0.03040539,0.011616
 06,-0.00870520,0.03094407,0.00927374,0.55028994,-0.00017681,0.00060028
 ,0.00046153,-0.00031713,0.00004909,0.00008162,0.00056360,-0.00080563,-
 0.00041138,-0.00008977,0.00011483,-0.00007163,-0.00156243,-0.02929588,
 -0.00648137,-0.00004477,-0.00035148,0.00019815,-0.00570085,-0.00076766
 ,0.00205068,0.00016205,0.00011114,-0.00011801,-0.00000891,0.00020228,-
 0.00009912,0.00020023,0.00005755,0.00019270,-0.00024698,-0.00196359,-0
 .00017421,0.00042902,0.00023967,-0.00008652,0.00019119,0.00010591,0.00
 006140,0.00000602,-0.00001970,-0.00001831,0.00118666,0.00057971,0.0000
 5567,-0.04769844,-0.02011023,-0.00306563,0.05134108,0.00274930,-0.0004
 6028,0.00031739,-0.00000152,-0.00003124,-0.00001973,0.00029496,-0.0010
 4147,0.00022784,-0.00002427,-0.00001569,0.00000546,-0.00073127,-0.0091
 8152,-0.00187526,-0.00002168,0.00004830,-0.00018016,-0.00272041,0.0002
 4515,0.00156683,-0.00000479,0.00001505,0.00000324,0.00009882,0.0001551
 2,-0.00006788,0.00011285,0.00033272,-0.00005507,-0.00006171,-0.0007489
 4,-0.00028514,0.00024722,0.00021147,-0.00002220,-0.00008054,-0.0000972
 9,0.00005505,0.00000800,-0.00003326,-0.00002098,-0.00008668,0.00050305
 ,0.00029515,-0.02384279,-0.30476672,-0.04501975,0.02510772,0.33159433,
 0.00049999,0.00007104,-0.00020523,0.00009428,-0.00002458,-0.00002378,-
 0.00026905,-0.00056499,0.00023081,0.00002875,-0.00003191,-0.00000161,-
 0.00022589,0.01008070,0.00038461,-0.00010322,0.00001445,0.00001442,0.0
 0173084,0.00047818,0.00005188,0.00000687,0.00000133,-0.00002876,0.0001
 1796,0.00038006,0.00026598,0.00016635,-0.00036152,-0.00002211,0.000303
 17,0.00050051,0.00052418,0.00002949,0.00001062,-0.00004586,0.00004755,
 -0.00000242,0.00000754,-0.00000637,0.00000718,0.00000918,-0.00070173,0
 .00010682,0.00037548,-0.00377643,-0.04491973,-0.05568513,0.00207894,0.
 04836615,0.05547384,0.00045137,0.00002120,-0.00000579,-0.00000269,0.00
 001288,-0.00004330,-0.00504021,-0.00320219,0.00251126,0.00025141,-0.00
 023131,0.00011427,-0.02207908,0.01359278,-0.01571100,0.00065188,0.0025
 4625,-0.00139043,0.00105436,0.00146562,-0.00054254,-0.00063565,-0.0004
 2261,0.00046385,-0.00000122,-0.00008980,0.00002660,0.00029375,-0.00082
 951,0.00017420,0.00036449,-0.00000105,0.00036650,-0.00005610,-0.000007
 57,0.00009235,-0.00075022,-0.00082691,0.00010253,0.00002165,-0.0001351
 3,0.00003632,0.00110765,0.00042082,0.00026227,-0.17535005,0.08787461,-
 0.09569605,0.00230809,-0.00106815,0.00264375,0.19371079,0.00151207,0.0
 0013937,0.00020863,-0.00000019,0.00004547,-0.00000352,-0.00275289,-0.0
 0132408,0.00027134,0.00005507,-0.00014277,0.00017069,-0.00888069,0.003
 62524,-0.00635029,-0.00032150,0.00070723,-0.00039421,-0.00070164,0.000
 74996,-0.00054942,-0.00001885,-0.00006383,0.00013942,-0.00003423,-0.00
 005233,0.00001380,-0.00017395,-0.00015446,0.00012880,0.00018586,0.0002
 2484,-0.00003742,0.00016684,0.00007375,-0.00002787,-0.00010520,-0.0002
 6238,0.00004360,-0.00000224,-0.00006617,-0.00001897,0.00059497,0.00025
 359,-0.00015461,0.08969055,-0.10635283,0.06546116,0.02192171,-0.013165
 51,0.01709583,-0.09588585,0.11312006,-0.00007081,0.00013908,0.00000778
 ,-0.00003598,-0.00000682,-0.00001028,0.00233115,0.00056499,0.00017281,
 0.00024713,-0.00006760,0.00030182,0.00784199,-0.00454616,0.00399868,-0
 .00029963,-0.00062631,0.00069397,-0.00008334,-0.00025742,0.00017016,0.
 00005471,0.00002237,-0.00019369,-0.00001951,0.00007121,0.00000819,-0.0
 0008743,-0.00017098,0.00012860,0.00005496,-0.00022041,-0.00001604,0.00
 003649,0.00004667,0.00000162,0.00022981,0.00029151,-0.00000475,-0.0000
 2817,0.00004408,0.00004101,-0.00048145,-0.00050863,0.00070980,-0.09715
 706,0.06514795,-0.11719260,0.00522036,-0.00253922,0.00286508,0.1043086
 4,-0.07284858,0.12369588,-0.00004839,0.00014215,-0.00033676,0.00010521
 ,-0.00015447,-0.00000106,0.00175508,-0.00005467,0.00171406,-0.00032946
 ,0.00022763,-0.00062138,-0.00679160,0.00502652,0.03073927,0.00029760,-
 0.00029668,0.00010806,0.00123058,0.00138974,0.00009328,-0.00013013,0.0
 0006093,-0.00023616,0.00007527,-0.00038230,-0.00043836,-0.00000137,-0.
 00012003,-0.00009513,0.00004992,0.00022364,-0.00031705,-0.00004704,0.0
 0004833,0.00001549,0.00000914,-0.00001733,-0.00012976,0.00003445,0.000
 08708,0.00008544,-0.00514365,-0.00220172,0.00154814,-0.05116857,0.0063
 9383,0.03423018,-0.00054184,0.00002496,-0.00266526,0.00369977,-0.00524
 984,-0.02206186,0.05694504,0.00021129,-0.00022269,0.00041905,-0.000134
 61,-0.00003798,0.00002592,0.00040980,0.00018383,-0.00036057,0.00016955
 ,0.00008277,-0.00019331,-0.00150806,0.00064072,0.01124097,0.00017639,-
 0.00002333,0.00004340,0.00020566,0.00074520,0.00105653,-0.00002555,0.0
 0000141,-0.00004879,-0.00012490,0.00008506,-0.00014495,0.00001404,-0.0
 0005607,0.00003115,0.00016984,0.00010879,-0.00016034,0.00012573,0.0000
 6810,-0.00002352,-0.00001233,-0.00001243,-0.00004595,0.00001029,0.0000
 1852,0.00001857,-0.00219980,0.00000878,0.00065771,0.00667018,-0.055659
 91,-0.04508501,0.00422428,-0.00356327,-0.03120772,-0.00323406,0.002644
 84,0.01546427,-0.00514776,0.05498765,0.00033502,-0.00021675,0.00006194
 ,-0.00010869,0.00007297,-0.00000212,-0.00067191,0.00020003,0.00067561,
 0.00058148,-0.00033028,0.00036889,0.00197475,-0.00133359,-0.01033896,-
 0.00042010,-0.00028932,0.00035829,-0.00053384,-0.00040723,0.00069708,0
 .00005513,0.00003901,-0.00003441,0.00010409,0.00064076,0.00015782,0.00
 001898,0.00004672,-0.00005336,0.00003542,0.00012377,0.00031127,0.00011
 761,0.00003079,-0.00007036,0.00020172,0.00017573,0.00003138,-0.0000318
 8,0.00000480,-0.00000165,0.00207912,0.00079801,0.00087891,0.03548255,-
 0.04396790,-0.28815178,0.00012512,-0.00075171,-0.00419053,0.00228656,-
 0.00314839,-0.01537803,-0.04163113,0.04831259,0.31468000||-0.00000160,
 -0.00000058,0.00000838,-0.00000331,-0.00000480,0.00001066,-0.00000037,
 -0.00000076,0.00000063,-0.00000087,0.00000636,0.00000255,0.00000144,0.
 00000043,0.00000074,-0.00000136,0.00000049,0.00000249,0.00000272,-0.00
 000012,-0.00001084,0.00000004,-0.00001049,0.00000022,0.00000243,0.0000
 0570,-0.00000763,0.00000313,-0.00000084,-0.00001039,0.00000260,-0.0000
 0265,-0.00000880,-0.00000517,0.00000250,0.00001107,0.00000294,-0.00000
 081,-0.00000384,0.00000125,-0.00000543,0.00000016,-0.00000062,-0.00000
 565,-0.00000019,-0.00000059,0.00000381,0.00000087,-0.00000240,0.000002
 58,0.00000583,0.00000065,0.00000209,-0.00000144,-0.00000089,0.00000815
 ,-0.00000047|||@


 IT IS BY LOGIC THAT WE PROVE, BUT BY INTUITION THAT WE DISCOVER.
     -- J.H.POINCARE (1854-1912)
 Job cpu time:  0 days  1 hours  3 minutes  5.0 seconds.
 File lengths (MBytes):  RWF=    139 Int=      0 D2E=      0 Chk=     13 Scr=      1
 Normal termination of Gaussian 09 at Thu Apr 07 14:24:57 2016.
