 Entering Gaussian System, Link 0=g09
 Input=Ala-S-opt-freq-tsa3-6-31g.com
 Output=Ala-S-opt-freq-tsa3-6-31g.log
 Initial command:
 /usr/local/gau/g09/l1.exe "/tmp/Gau-2890.inp" -scrdir="/tmp/"
 Entering Link 1 = /usr/local/gau/g09/l1.exe PID=      2892.
  
 Copyright (c) 1988,1990,1992,1993,1995,1998,2003,2009,2013,
            Gaussian, Inc.  All Rights Reserved.
  
 This is part of the Gaussian(R) 09 program.  It is based on
 the Gaussian(R) 03 system (copyright 2003, Gaussian, Inc.),
 the Gaussian(R) 98 system (copyright 1998, Gaussian, Inc.),
 the Gaussian(R) 94 system (copyright 1995, Gaussian, Inc.),
 the Gaussian 92(TM) system (copyright 1992, Gaussian, Inc.),
 the Gaussian 90(TM) system (copyright 1990, Gaussian, Inc.),
 the Gaussian 88(TM) system (copyright 1988, Gaussian, Inc.),
 the Gaussian 86(TM) system (copyright 1986, Carnegie Mellon
 University), and the Gaussian 82(TM) system (copyright 1983,
 Carnegie Mellon University). Gaussian is a federally registered
 trademark of Gaussian, Inc.
  
 This software contains proprietary and confidential information,
 including trade secrets, belonging to Gaussian, Inc.
  
 This software is provided under written license and may be
 used, copied, transmitted, or stored only in accord with that
 written license.
  
 The following legend is applicable only to US Government
 contracts under FAR:
  
                    RESTRICTED RIGHTS LEGEND
  
 Use, reproduction and disclosure by the US Government is
 subject to restrictions as set forth in subparagraphs (a)
 and (c) of the Commercial Computer Software - Restricted
 Rights clause in FAR 52.227-19.
  
 Gaussian, Inc.
 340 Quinnipiac St., Bldg. 40, Wallingford CT 06492
  
  
 ---------------------------------------------------------------
 Warning -- This program may not be used in any manner that
 competes with the business of Gaussian, Inc. or will provide
 assistance to any competitor of Gaussian, Inc.  The licensee
 of this program is prohibited from giving any competitor of
 Gaussian, Inc. access to this program.  By using this program,
 the user acknowledges that Gaussian, Inc. is engaged in the
 business of creating and licensing software in the field of
 computational chemistry and represents and warrants to the
 licensee that it is not a competitor of Gaussian, Inc. and that
 it will not use this program in any manner prohibited above.
 ---------------------------------------------------------------
  

 Cite this work as:
 Gaussian 09, Revision D.01,
 M. J. Frisch, G. W. Trucks, H. B. Schlegel, G. E. Scuseria, 
 M. A. Robb, J. R. Cheeseman, G. Scalmani, V. Barone, B. Mennucci, 
 G. A. Petersson, H. Nakatsuji, M. Caricato, X. Li, H. P. Hratchian, 
 A. F. Izmaylov, J. Bloino, G. Zheng, J. L. Sonnenberg, M. Hada, 
 M. Ehara, K. Toyota, R. Fukuda, J. Hasegawa, M. Ishida, T. Nakajima, 
 Y. Honda, O. Kitao, H. Nakai, T. Vreven, J. A. Montgomery, Jr., 
 J. E. Peralta, F. Ogliaro, M. Bearpark, J. J. Heyd, E. Brothers, 
 K. N. Kudin, V. N. Staroverov, T. Keith, R. Kobayashi, J. Normand, 
 K. Raghavachari, A. Rendell, J. C. Burant, S. S. Iyengar, J. Tomasi, 
 M. Cossi, N. Rega, J. M. Millam, M. Klene, J. E. Knox, J. B. Cross, 
 V. Bakken, C. Adamo, J. Jaramillo, R. Gomperts, R. E. Stratmann, 
 O. Yazyev, A. J. Austin, R. Cammi, C. Pomelli, J. W. Ochterski, 
 R. L. Martin, K. Morokuma, V. G. Zakrzewski, G. A. Voth, 
 P. Salvador, J. J. Dannenberg, S. Dapprich, A. D. Daniels, 
 O. Farkas, J. B. Foresman, J. V. Ortiz, J. Cioslowski, 
 and D. J. Fox, Gaussian, Inc., Wallingford CT, 2013.
 
 ******************************************
 Gaussian 09:  ES64L-G09RevD.01 24-Apr-2013
                13-Apr-2016 
 ******************************************
 %chk=Ala-S-opt-freq-tsa3-6-31g.chk
 ------------------------------------------------
 #p opt=(calcfc,ts) freq rb3lyp/6-31g iop(1/11=1)
 ------------------------------------------------
 1/5=1,10=4,11=1,14=-1,18=20,26=3,38=1/1,3;
 2/9=110,12=2,17=6,18=5,40=1/2;
 3/5=1,6=6,11=2,16=1,25=1,30=1,71=2,74=-5,116=1,140=1/1,2,3;
 4//1;
 5/5=2,38=5/2;
 8/6=4,10=90,11=11/1;
 11/6=1,8=1,9=11,15=111,16=1/1,2,10;
 10/6=1,13=1/2;
 6/7=2,8=2,9=2,10=2,28=1/1;
 7/10=1,18=20,25=1/1,2,3,16;
 1/5=1,10=4,11=1,14=-1,18=20,26=3/3(2);
 2/9=110/2;
 99//99;
 2/9=110/2;
 3/5=1,6=6,11=2,16=1,25=1,30=1,71=1,74=-5,116=1/1,2,3;
 4/5=5,16=3,69=1/1;
 5/5=2,38=5/2;
 7//1,2,3,16;
 1/5=1,11=1,14=-1,18=20,26=3/3(-5);
 2/9=110/2;
 6/7=2,8=2,9=2,10=2,19=2,28=1/1;
 99/9=1/99;
 Leave Link    1 at Wed Apr 13 09:23:17 2016, MaxMem=           0 cpu:         0.0
 (Enter /usr/local/gau/g09/l101.exe)
 -------------------------
 Ala-S-opt-freq-tsa3-6-31g
 -------------------------
 Symbolic Z-matrix:
 Charge =  0 Multiplicity = 1
 N                     1.11833   1.0294    0.12413 
 H                     2.11556   1.10533   0.04167 
 C                     0.50039  -0.21902   0.0989 
 H                    -2.07292  -1.70113  -0.60673 
 C                     1.40841  -1.4171    0.09122 
 C                    -0.84066  -0.32552   0.09242 
 H                     2.05393  -1.42002   0.97988 
 H                     0.82714  -2.33961   0.08824 
 H                     2.06364  -1.41005  -0.79131 
 O                    -1.61741   0.8895   -0.03368 
 H                     0.55598   1.85718   0.02741 
 O                    -1.5309   -1.54105   0.19653 
 H                    -0.2893    0.93693   0.08536 
 
 Add virtual bond connecting atoms H13        and C3         Dist= 2.65D+00.
 Add virtual bond connecting atoms H13        and C6         Dist= 2.60D+00.
 Add virtual bond connecting atoms H13        and O10        Dist= 2.52D+00.
 Add virtual bond connecting atoms H13        and H11        Dist= 2.36D+00.
 NAtoms=     13 NQM=       13 NQMF=       0 NMMI=      0 NMMIF=      0
                NMic=       0 NMicF=      0.
                    Isotopes and Nuclear Properties:
 (Nuclear quadrupole moments (NQMom) in fm**2, nuclear magnetic moments (NMagM)
  in nuclear magnetons)

  Atom         1           2           3           4           5           6           7           8           9          10
 IAtWgt=          14           1          12           1          12          12           1           1           1          16
 AtmWgt=  14.0030740   1.0078250  12.0000000   1.0078250  12.0000000  12.0000000   1.0078250   1.0078250   1.0078250  15.9949146
 NucSpn=           2           1           0           1           0           0           1           1           1           0
 AtZEff=   0.0000000   0.0000000   0.0000000   0.0000000   0.0000000   0.0000000   0.0000000   0.0000000   0.0000000   0.0000000
 NQMom=    2.0440000   0.0000000   0.0000000   0.0000000   0.0000000   0.0000000   0.0000000   0.0000000   0.0000000   0.0000000
 NMagM=    0.4037610   2.7928460   0.0000000   2.7928460   0.0000000   0.0000000   2.7928460   2.7928460   2.7928460   0.0000000
 AtZNuc=   7.0000000   1.0000000   6.0000000   1.0000000   6.0000000   6.0000000   1.0000000   1.0000000   1.0000000   8.0000000

  Atom        11          12          13
 IAtWgt=           1          16           1
 AtmWgt=   1.0078250  15.9949146   1.0078250
 NucSpn=           1           0           1
 AtZEff=   0.0000000   0.0000000   0.0000000
 NQMom=    0.0000000   0.0000000   0.0000000
 NMagM=    2.7928460   0.0000000   2.7928460
 AtZNuc=   1.0000000   8.0000000   1.0000000
 Leave Link  101 at Wed Apr 13 09:23:18 2016, MaxMem=    33554432 cpu:         0.1
 (Enter /usr/local/gau/g09/l103.exe)

 GradGradGradGradGradGradGradGradGradGradGradGradGradGradGradGradGradGrad
 Berny optimization.
 Initialization pass.
                           ----------------------------
                           !    Initial Parameters    !
                           ! (Angstroms and Degrees)  !
 --------------------------                            --------------------------
 ! Name  Definition              Value          Derivative Info.                !
 --------------------------------------------------------------------------------
 ! R1    R(1,2)                  1.0035         calculate D2E/DX2 analytically  !
 ! R2    R(1,3)                  1.3932         calculate D2E/DX2 analytically  !
 ! R3    R(1,11)                 1.0054         calculate D2E/DX2 analytically  !
 ! R4    R(3,5)                  1.5033         calculate D2E/DX2 analytically  !
 ! R5    R(3,6)                  1.3453         calculate D2E/DX2 analytically  !
 ! R6    R(3,13)                 1.4            calculate D2E/DX2 analytically  !
 ! R7    R(4,12)                 0.9822         calculate D2E/DX2 analytically  !
 ! R8    R(5,7)                  1.0984         calculate D2E/DX2 analytically  !
 ! R9    R(5,8)                  1.0904         calculate D2E/DX2 analytically  !
 ! R10   R(5,9)                  1.0992         calculate D2E/DX2 analytically  !
 ! R11   R(6,10)                 1.4476         calculate D2E/DX2 analytically  !
 ! R12   R(6,12)                 1.4017         calculate D2E/DX2 analytically  !
 ! R13   R(6,13)                 1.3776         calculate D2E/DX2 analytically  !
 ! R14   R(10,13)                1.3343         calculate D2E/DX2 analytically  !
 ! R15   R(11,13)                1.2509         calculate D2E/DX2 analytically  !
 ! A1    A(2,1,3)              120.4689         calculate D2E/DX2 analytically  !
 ! A2    A(2,1,11)             119.0538         calculate D2E/DX2 analytically  !
 ! A3    A(3,1,11)             119.2059         calculate D2E/DX2 analytically  !
 ! A4    A(1,3,5)              116.508          calculate D2E/DX2 analytically  !
 ! A5    A(1,3,6)              120.8748         calculate D2E/DX2 analytically  !
 ! A6    A(1,3,13)              60.6916         calculate D2E/DX2 analytically  !
 ! A7    A(5,3,6)              122.6153         calculate D2E/DX2 analytically  !
 ! A8    A(3,5,7)              110.6686         calculate D2E/DX2 analytically  !
 ! A9    A(3,5,8)              110.6273         calculate D2E/DX2 analytically  !
 ! A10   A(3,5,9)              111.0413         calculate D2E/DX2 analytically  !
 ! A11   A(7,5,8)              108.2564         calculate D2E/DX2 analytically  !
 ! A12   A(7,5,9)              107.4144         calculate D2E/DX2 analytically  !
 ! A13   A(8,5,9)              108.7238         calculate D2E/DX2 analytically  !
 ! A14   A(3,6,10)             117.9609         calculate D2E/DX2 analytically  !
 ! A15   A(3,6,12)             123.9986         calculate D2E/DX2 analytically  !
 ! A16   A(10,6,12)            118.0403         calculate D2E/DX2 analytically  !
 ! A17   A(1,11,13)             76.5727         calculate D2E/DX2 analytically  !
 ! A18   A(4,12,6)             110.6311         calculate D2E/DX2 analytically  !
 ! A19   A(3,13,10)            122.2062         calculate D2E/DX2 analytically  !
 ! A20   A(3,13,11)            103.1043         calculate D2E/DX2 analytically  !
 ! A21   A(6,13,11)            160.8857         calculate D2E/DX2 analytically  !
 ! A22   A(10,13,11)           133.998          calculate D2E/DX2 analytically  !
 ! A23   L(5,3,13,1,-1)        177.1996         calculate D2E/DX2 analytically  !
 ! A24   L(12,6,13,5,-1)       185.9893         calculate D2E/DX2 analytically  !
 ! A25   L(5,3,13,1,-2)        178.9723         calculate D2E/DX2 analytically  !
 ! A26   L(12,6,13,5,-2)       183.9714         calculate D2E/DX2 analytically  !
 ! D1    D(2,1,3,5)              6.2762         calculate D2E/DX2 analytically  !
 ! D2    D(2,1,3,6)           -174.2135         calculate D2E/DX2 analytically  !
 ! D3    D(2,1,3,13)          -172.6961         calculate D2E/DX2 analytically  !
 ! D4    D(11,1,3,5)           173.2777         calculate D2E/DX2 analytically  !
 ! D5    D(11,1,3,6)            -7.2119         calculate D2E/DX2 analytically  !
 ! D6    D(11,1,3,13)           -5.6946         calculate D2E/DX2 analytically  !
 ! D7    D(2,1,11,13)          172.9008         calculate D2E/DX2 analytically  !
 ! D8    D(3,1,11,13)            5.7139         calculate D2E/DX2 analytically  !
 ! D9    D(1,3,5,7)             59.0596         calculate D2E/DX2 analytically  !
 ! D10   D(1,3,5,8)            179.0434         calculate D2E/DX2 analytically  !
 ! D11   D(1,3,5,9)            -60.1392         calculate D2E/DX2 analytically  !
 ! D12   D(6,3,5,7)           -120.4415         calculate D2E/DX2 analytically  !
 ! D13   D(6,3,5,8)             -0.4577         calculate D2E/DX2 analytically  !
 ! D14   D(6,3,5,9)            120.3597         calculate D2E/DX2 analytically  !
 ! D15   D(7,5,13,10)         -126.518          calculate D2E/DX2 analytically  !
 ! D16   D(7,5,13,11)           62.2421         calculate D2E/DX2 analytically  !
 ! D17   D(8,5,13,10)           -5.8574         calculate D2E/DX2 analytically  !
 ! D18   D(8,5,13,11)         -177.0973         calculate D2E/DX2 analytically  !
 ! D19   D(9,5,13,10)          115.1566         calculate D2E/DX2 analytically  !
 ! D20   D(9,5,13,11)          -56.0834         calculate D2E/DX2 analytically  !
 ! D21   D(1,3,6,10)             6.5574         calculate D2E/DX2 analytically  !
 ! D22   D(1,3,6,12)          -173.6291         calculate D2E/DX2 analytically  !
 ! D23   D(5,3,6,10)          -173.9628         calculate D2E/DX2 analytically  !
 ! D24   D(5,3,6,12)             5.8507         calculate D2E/DX2 analytically  !
 ! D25   D(1,3,13,10)          175.799          calculate D2E/DX2 analytically  !
 ! D26   D(1,3,13,11)            4.0987         calculate D2E/DX2 analytically  !
 ! D27   D(3,6,12,4)          -118.4765         calculate D2E/DX2 analytically  !
 ! D28   D(10,6,12,4)           61.3369         calculate D2E/DX2 analytically  !
 ! D29   D(4,12,13,11)        -115.1529         calculate D2E/DX2 analytically  !
 ! D30   D(1,11,13,3)           -5.0943         calculate D2E/DX2 analytically  !
 ! D31   D(1,11,13,6)          -11.8306         calculate D2E/DX2 analytically  !
 ! D32   D(1,11,13,10)        -175.3187         calculate D2E/DX2 analytically  !
 --------------------------------------------------------------------------------
 Trust Radius=3.00D-01 FncErr=1.00D-07 GrdErr=1.00D-06
 Number of steps in this run=     83 maximum allowed number of steps=    100.
 Search for a saddle point of order  1.
 GradGradGradGradGradGradGradGradGradGradGradGradGradGradGradGradGradGrad

 Leave Link  103 at Wed Apr 13 09:23:18 2016, MaxMem=    33554432 cpu:         0.0
 (Enter /usr/local/gau/g09/l202.exe)
                          Input orientation:                          
 ---------------------------------------------------------------------
 Center     Atomic      Atomic             Coordinates (Angstroms)
 Number     Number       Type             X           Y           Z
 ---------------------------------------------------------------------
      1          7           0        1.118326    1.029400    0.124135
      2          1           0        2.115556    1.105326    0.041671
      3          6           0        0.500385   -0.219020    0.098901
      4          1           0       -2.072917   -1.701126   -0.606725
      5          6           0        1.408411   -1.417104    0.091221
      6          6           0       -0.840657   -0.325518    0.092424
      7          1           0        2.053928   -1.420016    0.979877
      8          1           0        0.827144   -2.339612    0.088241
      9          1           0        2.063636   -1.410054   -0.791308
     10          8           0       -1.617413    0.889501   -0.033684
     11          1           0        0.555978    1.857184    0.027413
     12          8           0       -1.530905   -1.541049    0.196530
     13          1           0       -0.289299    0.936927    0.085363
 ---------------------------------------------------------------------
                    Distance matrix (angstroms):
                    1          2          3          4          5
     1  N    0.000000
     2  H    1.003510   0.000000
     3  C    1.393212   2.089484   0.000000
     4  H    4.263093   5.083296   3.052283   0.000000
     5  C    2.463862   2.620145   1.503321   3.561944   0.000000
     6  C    2.382105   3.284674   1.345280   1.974733   2.499974
     7  H    2.758131   2.694695   2.152210   4.430257   1.098367
     8  H    3.381762   3.678284   2.145646   3.049753   1.090367
     9  H    2.771747   2.650224   2.157496   4.150887   1.099194
    10  O    2.743856   3.739962   2.394048   2.692064   3.806789
    11  H    1.005394   1.731409   2.078178   4.469317   3.384032
    12  O    3.692001   4.508210   2.425579   0.982151   2.943812
    13  H    1.411192   2.411140   1.400000   3.258773   2.902365
                    6          7          8          9         10
     6  C    0.000000
     7  H    3.219335   0.000000
     8  H    2.614986   1.773604   0.000000
     9  H    3.223681   1.771240   1.779493   0.000000
    10  O    1.447593   4.454203   4.051901   4.405914   0.000000
    11  H    2.592104   3.727074   4.205987   3.690282   2.379868
    12  O    1.401712   3.671418   2.491952   3.730108   2.442961
    13  H    1.377612   3.441810   3.461527   3.437031   1.334282
                   11         12         13
    11  H    0.000000
    12  O    3.991449   0.000000
    13  H    1.250889   2.773862   0.000000
 Stoichiometry    C3H7NO2
 Framework group  C1[X(C3H7NO2)]
 Deg. of freedom    33
 Full point group                 C1      NOp   1
 Largest Abelian subgroup         C1      NOp   1
 Largest concise Abelian subgroup C1      NOp   1
                         Standard orientation:                         
 ---------------------------------------------------------------------
 Center     Atomic      Atomic             Coordinates (Angstroms)
 Number     Number       Type             X           Y           Z
 ---------------------------------------------------------------------
      1          7           0        1.330351   -1.198928   -0.045392
      2          1           0        2.328482   -1.202951    0.058294
      3          6           0        0.621115   -0.000310   -0.008774
      4          1           0       -2.069477    1.272156    0.667961
      5          6           0        1.437403    1.260977    0.044177
      6          6           0       -0.723965    0.006890   -0.030801
      7          1           0        2.099709    1.331085   -0.829233
      8          1           0        0.789380    2.137843    0.052725
      9          1           0        2.072398    1.282747    0.941136
     10          8           0       -1.410969   -1.264562    0.052628
     11          1           0        0.829019   -2.067841    0.021491
     12          8           0       -1.500097    1.170244   -0.125790
     13          1           0       -0.080762   -1.211333   -0.036949
 ---------------------------------------------------------------------
 Rotational constants (GHZ):      4.7684568      3.3645272      2.0100257
 Leave Link  202 at Wed Apr 13 09:23:18 2016, MaxMem=    33554432 cpu:         0.0
 (Enter /usr/local/gau/g09/l301.exe)
 Standard basis: 6-31G (6D, 7F)
 Ernie: Thresh=  0.10000D-02 Tol=  0.10000D-05 Strict=F.
 There are    68 symmetry adapted cartesian basis functions of A   symmetry.
 There are    68 symmetry adapted basis functions of A   symmetry.
    68 basis functions,   160 primitive gaussians,    68 cartesian basis functions
    24 alpha electrons       24 beta electrons
       nuclear repulsion energy       247.5344284241 Hartrees.
 IExCor=  402 DFT=T Ex+Corr=B3LYP ExCW=0 ScaHFX=  0.200000
 ScaDFX=  0.800000  0.720000  1.000000  0.810000 ScalE2=  1.000000  1.000000
 IRadAn=      0 IRanWt=     -1 IRanGd=            0 ICorTp=0 IEmpDi=  4
 NAtoms=   13 NActive=   13 NUniq=   13 SFac= 1.00D+00 NAtFMM=   60 NAOKFM=F Big=F
 Integral buffers will be    131072 words long.
 Raffenetti 2 integral format.
 Two-electron integral symmetry is turned on.
 Leave Link  301 at Wed Apr 13 09:23:18 2016, MaxMem=    33554432 cpu:         0.0
 (Enter /usr/local/gau/g09/l302.exe)
 NPDir=0 NMtPBC=     1 NCelOv=     1 NCel=       1 NClECP=     1 NCelD=      1
         NCelK=      1 NCelE2=     1 NClLst=     1 CellRange=     0.0.
 One-electron integrals computed using PRISM.
 NBasis=    68 RedAO= T EigKep=  2.88D-03  NBF=    68
 NBsUse=    68 1.00D-06 EigRej= -1.00D+00 NBFU=    68
 Precomputing XC quadrature grid using
 IXCGrd= 4 IRadAn=           0 IRanWt=          -1 IRanGd=           0 AccXCQ= 0.00D+00.
 Generated NRdTot=       0 NPtTot=           0 NUsed=           0 NTot=          32
 NSgBfM=    68    68    68    68    68 MxSgAt=    13 MxSgA2=    13.
 Leave Link  302 at Wed Apr 13 09:23:18 2016, MaxMem=    33554432 cpu:         0.2
 (Enter /usr/local/gau/g09/l303.exe)
 DipDrv:  MaxL=1.
 Leave Link  303 at Wed Apr 13 09:23:18 2016, MaxMem=    33554432 cpu:         0.0
 (Enter /usr/local/gau/g09/l401.exe)
 ExpMin= 1.61D-01 ExpMax= 5.48D+03 ExpMxC= 8.25D+02 IAcc=1 IRadAn=         1 AccDes= 0.00D+00
 Harris functional with IExCor=  402 and IRadAn=       1 diagonalized for initial guess.
 HarFok:  IExCor=  402 AccDes= 0.00D+00 IRadAn=         1 IDoV= 1 UseB2=F ITyADJ=14
 ICtDFT=  3500011 ScaDFX=  1.000000  1.000000  1.000000  1.000000
 FoFCou: FMM=F IPFlag=           0 FMFlag=      100000 FMFlg1=           0
         NFxFlg=           0 DoJE=T BraDBF=F KetDBF=T FulRan=T
         wScrn=  0.000000 ICntrl=     500 IOpCl=  0 I1Cent=   200000004 NGrid=           0
         NMat0=    1 NMatS0=      1 NMatT0=    0 NMatD0=    1 NMtDS0=    0 NMtDT0=    0
 Petite list used in FoFCou.
 Harris En= -323.478291645818    
 JPrj=0 DoOrth=F DoCkMO=F.
 Leave Link  401 at Wed Apr 13 09:23:18 2016, MaxMem=    33554432 cpu:         0.5
 (Enter /usr/local/gau/g09/l502.exe)
 Closed shell SCF:
 Using DIIS extrapolation, IDIIS=  1040.
 Integral symmetry usage will be decided dynamically.
 Keep R1 ints in memory in canonical form, NReq=3676491.
 IVT=       33364 IEndB=       33364 NGot=    33554432 MDV=    30768038
 LenX=    30768038 LenY=    30762973
 Requested convergence on RMS density matrix=1.00D-08 within 128 cycles.
 Requested convergence on MAX density matrix=1.00D-06.
 Requested convergence on             energy=1.00D-06.
 No special actions if energy rises.
 FoFCou: FMM=F IPFlag=           0 FMFlag=           0 FMFlg1=           0
         NFxFlg=           0 DoJE=F BraDBF=F KetDBF=F FulRan=T
         wScrn=  0.000000 ICntrl=     600 IOpCl=  0 I1Cent=           0 NGrid=           0
         NMat0=    1 NMatS0=   2346 NMatT0=    0 NMatD0=    1 NMtDS0=    0 NMtDT0=    0
 Symmetry not used in FoFCou.
 Integral accuracy reduced to 1.0D-05 until final iterations.

 Cycle   1  Pass 0  IDiag  1:
 E= -323.237966176849    
 DIIS: error= 3.80D-02 at cycle   1 NSaved=   1.
 NSaved= 1 IEnMin= 1 EnMin= -323.237966176849     IErMin= 1 ErrMin= 3.80D-02
 ErrMax= 3.80D-02  0.00D+00 EMaxC= 1.00D-01 BMatC= 1.98D-01 BMatP= 1.98D-01
 IDIUse=3 WtCom= 6.20D-01 WtEn= 3.80D-01
 Coeff-Com:  0.100D+01
 Coeff-En:   0.100D+01
 Coeff:      0.100D+01
 Gap=     0.210 Goal=   None    Shift=    0.000
 GapD=    0.210 DampG=1.000 DampE=0.500 DampFc=0.5000 IDamp=-1.
 Damping current iteration by 5.00D-01
 RMSDP=1.76D-02 MaxDP=3.15D-01              OVMax= 1.78D-01

 Cycle   2  Pass 0  IDiag  1:
 E= -323.298919477227     Delta-E=       -0.060953300379 Rises=F Damp=T
 DIIS: error= 1.43D-02 at cycle   2 NSaved=   2.
 NSaved= 2 IEnMin= 2 EnMin= -323.298919477227     IErMin= 2 ErrMin= 1.43D-02
 ErrMax= 1.43D-02  0.00D+00 EMaxC= 1.00D-01 BMatC= 2.23D-02 BMatP= 1.98D-01
 IDIUse=3 WtCom= 8.57D-01 WtEn= 1.43D-01
 Coeff-Com:  0.198D+00 0.802D+00
 Coeff-En:   0.294D+00 0.706D+00
 Coeff:      0.212D+00 0.788D+00
 Gap=     0.220 Goal=   None    Shift=    0.000
 RMSDP=4.32D-03 MaxDP=7.05D-02 DE=-6.10D-02 OVMax= 1.34D-01

 Cycle   3  Pass 0  IDiag  1:
 E= -323.400897248697     Delta-E=       -0.101977771469 Rises=F Damp=F
 DIIS: error= 2.05D-02 at cycle   3 NSaved=   3.
 NSaved= 3 IEnMin= 3 EnMin= -323.400897248697     IErMin= 2 ErrMin= 1.43D-02
 ErrMax= 2.05D-02  0.00D+00 EMaxC= 1.00D-01 BMatC= 2.42D-02 BMatP= 2.23D-02
 IDIUse=3 WtCom= 7.95D-01 WtEn= 2.05D-01
 Coeff-Com:  0.951D-01 0.509D+00 0.396D+00
 Coeff-En:   0.000D+00 0.000D+00 0.100D+01
 Coeff:      0.756D-01 0.404D+00 0.520D+00
 Gap=     0.208 Goal=   None    Shift=    0.000
 RMSDP=3.94D-03 MaxDP=4.45D-02 DE=-1.02D-01 OVMax= 6.90D-02

 Cycle   4  Pass 0  IDiag  1:
 E= -323.413028665930     Delta-E=       -0.012131417233 Rises=F Damp=F
 DIIS: error= 1.52D-02 at cycle   4 NSaved=   4.
 NSaved= 4 IEnMin= 4 EnMin= -323.413028665930     IErMin= 2 ErrMin= 1.43D-02
 ErrMax= 1.52D-02  0.00D+00 EMaxC= 1.00D-01 BMatC= 1.12D-02 BMatP= 2.23D-02
 IDIUse=3 WtCom= 8.48D-01 WtEn= 1.52D-01
 Coeff-Com:  0.396D-01 0.156D+00 0.380D+00 0.424D+00
 Coeff-En:   0.000D+00 0.000D+00 0.350D+00 0.650D+00
 Coeff:      0.336D-01 0.132D+00 0.376D+00 0.459D+00
 Gap=     0.206 Goal=   None    Shift=    0.000
 RMSDP=1.94D-03 MaxDP=2.83D-02 DE=-1.21D-02 OVMax= 4.42D-02

 Cycle   5  Pass 0  IDiag  1:
 E= -323.422286566957     Delta-E=       -0.009257901027 Rises=F Damp=F
 DIIS: error= 3.54D-03 at cycle   5 NSaved=   5.
 NSaved= 5 IEnMin= 5 EnMin= -323.422286566957     IErMin= 5 ErrMin= 3.54D-03
 ErrMax= 3.54D-03  0.00D+00 EMaxC= 1.00D-01 BMatC= 4.60D-04 BMatP= 1.12D-02
 IDIUse=3 WtCom= 9.65D-01 WtEn= 3.54D-02
 Coeff-Com:  0.838D-02 0.221D-02 0.167D+00 0.296D+00 0.526D+00
 Coeff-En:   0.000D+00 0.000D+00 0.000D+00 0.000D+00 0.100D+01
 Coeff:      0.809D-02 0.213D-02 0.161D+00 0.286D+00 0.543D+00
 Gap=     0.204 Goal=   None    Shift=    0.000
 RMSDP=4.32D-04 MaxDP=8.09D-03 DE=-9.26D-03 OVMax= 1.25D-02

 Cycle   6  Pass 0  IDiag  1:
 E= -323.422747430397     Delta-E=       -0.000460863441 Rises=F Damp=F
 DIIS: error= 8.14D-04 at cycle   6 NSaved=   6.
 NSaved= 6 IEnMin= 6 EnMin= -323.422747430397     IErMin= 6 ErrMin= 8.14D-04
 ErrMax= 8.14D-04  0.00D+00 EMaxC= 1.00D-01 BMatC= 1.92D-05 BMatP= 4.60D-04
 IDIUse=3 WtCom= 9.92D-01 WtEn= 8.14D-03
 Coeff-Com:  0.221D-02-0.567D-02 0.596D-01 0.113D+00 0.277D+00 0.554D+00
 Coeff-En:   0.000D+00 0.000D+00 0.000D+00 0.000D+00 0.000D+00 0.100D+01
 Coeff:      0.219D-02-0.562D-02 0.591D-01 0.112D+00 0.274D+00 0.558D+00
 Gap=     0.204 Goal=   None    Shift=    0.000
 RMSDP=8.52D-05 MaxDP=1.56D-03 DE=-4.61D-04 OVMax= 2.83D-03

 Cycle   7  Pass 0  IDiag  1:
 E= -323.422764224562     Delta-E=       -0.000016794165 Rises=F Damp=F
 DIIS: error= 1.87D-04 at cycle   7 NSaved=   7.
 NSaved= 7 IEnMin= 7 EnMin= -323.422764224562     IErMin= 7 ErrMin= 1.87D-04
 ErrMax= 1.87D-04  0.00D+00 EMaxC= 1.00D-01 BMatC= 3.15D-06 BMatP= 1.92D-05
 IDIUse=3 WtCom= 9.98D-01 WtEn= 1.87D-03
 Coeff-Com:  0.746D-04-0.278D-02 0.624D-02 0.142D-01 0.721D-01 0.347D+00
 Coeff-Com:  0.563D+00
 Coeff-En:   0.000D+00 0.000D+00 0.000D+00 0.000D+00 0.000D+00 0.108D+00
 Coeff-En:   0.892D+00
 Coeff:      0.745D-04-0.277D-02 0.622D-02 0.141D-01 0.720D-01 0.346D+00
 Coeff:      0.564D+00
 Gap=     0.204 Goal=   None    Shift=    0.000
 RMSDP=3.03D-05 MaxDP=3.77D-04 DE=-1.68D-05 OVMax= 4.96D-04

 Cycle   8  Pass 0  IDiag  1:
 E= -323.422766878916     Delta-E=       -0.000002654353 Rises=F Damp=F
 DIIS: error= 3.61D-05 at cycle   8 NSaved=   8.
 NSaved= 8 IEnMin= 8 EnMin= -323.422766878916     IErMin= 8 ErrMin= 3.61D-05
 ErrMax= 3.61D-05  0.00D+00 EMaxC= 1.00D-01 BMatC= 9.70D-08 BMatP= 3.15D-06
 IDIUse=1 WtCom= 1.00D+00 WtEn= 0.00D+00
 Coeff-Com: -0.532D-04-0.971D-03-0.199D-03 0.462D-03 0.205D-01 0.144D+00
 Coeff-Com:  0.276D+00 0.560D+00
 Coeff:     -0.532D-04-0.971D-03-0.199D-03 0.462D-03 0.205D-01 0.144D+00
 Coeff:      0.276D+00 0.560D+00
 Gap=     0.204 Goal=   None    Shift=    0.000
 RMSDP=5.94D-06 MaxDP=6.66D-05 DE=-2.65D-06 OVMax= 8.86D-05

 Initial convergence to 1.0D-05 achieved.  Increase integral accuracy.
 Cycle   9  Pass 1  IDiag  1:
 E= -323.422801865254     Delta-E=       -0.000034986338 Rises=F Damp=F
 DIIS: error= 1.35D-05 at cycle   1 NSaved=   1.
 NSaved= 1 IEnMin= 1 EnMin= -323.422801865254     IErMin= 1 ErrMin= 1.35D-05
 ErrMax= 1.35D-05  0.00D+00 EMaxC= 1.00D-01 BMatC= 1.39D-08 BMatP= 1.39D-08
 IDIUse=1 WtCom= 1.00D+00 WtEn= 0.00D+00
 Coeff-Com:  0.100D+01
 Coeff:      0.100D+01
 Gap=     0.204 Goal=   None    Shift=    0.000
 RMSDP=5.94D-06 MaxDP=6.66D-05 DE=-3.50D-05 OVMax= 7.70D-05

 Cycle  10  Pass 1  IDiag  1:
 E= -323.422801882560     Delta-E=       -0.000000017306 Rises=F Damp=F
 DIIS: error= 7.41D-06 at cycle   2 NSaved=   2.
 NSaved= 2 IEnMin= 2 EnMin= -323.422801882560     IErMin= 2 ErrMin= 7.41D-06
 ErrMax= 7.41D-06  0.00D+00 EMaxC= 1.00D-01 BMatC= 7.31D-09 BMatP= 1.39D-08
 IDIUse=1 WtCom= 1.00D+00 WtEn= 0.00D+00
 Coeff-Com:  0.394D+00 0.606D+00
 Coeff:      0.394D+00 0.606D+00
 Gap=     0.204 Goal=   None    Shift=    0.000
 RMSDP=2.03D-06 MaxDP=2.68D-05 DE=-1.73D-08 OVMax= 2.55D-05

 Cycle  11  Pass 1  IDiag  1:
 E= -323.422801887646     Delta-E=       -0.000000005086 Rises=F Damp=F
 DIIS: error= 6.11D-06 at cycle   3 NSaved=   3.
 NSaved= 3 IEnMin= 3 EnMin= -323.422801887646     IErMin= 3 ErrMin= 6.11D-06
 ErrMax= 6.11D-06  0.00D+00 EMaxC= 1.00D-01 BMatC= 2.60D-09 BMatP= 7.31D-09
 IDIUse=1 WtCom= 1.00D+00 WtEn= 0.00D+00
 Coeff-Com:  0.556D-01 0.366D+00 0.578D+00
 Coeff:      0.556D-01 0.366D+00 0.578D+00
 Gap=     0.204 Goal=   None    Shift=    0.000
 RMSDP=1.03D-06 MaxDP=1.20D-05 DE=-5.09D-09 OVMax= 1.53D-05

 Cycle  12  Pass 1  IDiag  1:
 E= -323.422801889480     Delta-E=       -0.000000001834 Rises=F Damp=F
 DIIS: error= 3.20D-06 at cycle   4 NSaved=   4.
 NSaved= 4 IEnMin= 4 EnMin= -323.422801889480     IErMin= 4 ErrMin= 3.20D-06
 ErrMax= 3.20D-06  0.00D+00 EMaxC= 1.00D-01 BMatC= 5.96D-10 BMatP= 2.60D-09
 IDIUse=1 WtCom= 1.00D+00 WtEn= 0.00D+00
 Coeff-Com: -0.177D-01 0.162D+00 0.389D+00 0.467D+00
 Coeff:     -0.177D-01 0.162D+00 0.389D+00 0.467D+00
 Gap=     0.204 Goal=   None    Shift=    0.000
 RMSDP=4.37D-07 MaxDP=6.12D-06 DE=-1.83D-09 OVMax= 6.60D-06

 Cycle  13  Pass 1  IDiag  1:
 E= -323.422801889932     Delta-E=       -0.000000000452 Rises=F Damp=F
 DIIS: error= 1.15D-06 at cycle   5 NSaved=   5.
 NSaved= 5 IEnMin= 5 EnMin= -323.422801889932     IErMin= 5 ErrMin= 1.15D-06
 ErrMax= 1.15D-06  0.00D+00 EMaxC= 1.00D-01 BMatC= 3.58D-11 BMatP= 5.96D-10
 IDIUse=1 WtCom= 1.00D+00 WtEn= 0.00D+00
 Coeff-Com: -0.132D-01 0.849D-01 0.219D+00 0.297D+00 0.412D+00
 Coeff:     -0.132D-01 0.849D-01 0.219D+00 0.297D+00 0.412D+00
 Gap=     0.204 Goal=   None    Shift=    0.000
 RMSDP=1.32D-07 MaxDP=2.02D-06 DE=-4.52D-10 OVMax= 3.96D-06

 Cycle  14  Pass 1  IDiag  1:
 E= -323.422801889968     Delta-E=       -0.000000000036 Rises=F Damp=F
 DIIS: error= 3.30D-07 at cycle   6 NSaved=   6.
 NSaved= 6 IEnMin= 6 EnMin= -323.422801889968     IErMin= 6 ErrMin= 3.30D-07
 ErrMax= 3.30D-07  0.00D+00 EMaxC= 1.00D-01 BMatC= 3.62D-12 BMatP= 3.58D-11
 IDIUse=1 WtCom= 1.00D+00 WtEn= 0.00D+00
 Coeff-Com: -0.450D-02 0.173D-01 0.536D-01 0.821D-01 0.259D+00 0.593D+00
 Coeff:     -0.450D-02 0.173D-01 0.536D-01 0.821D-01 0.259D+00 0.593D+00
 Gap=     0.204 Goal=   None    Shift=    0.000
 RMSDP=3.08D-08 MaxDP=4.71D-07 DE=-3.57D-11 OVMax= 8.75D-07

 Cycle  15  Pass 1  IDiag  1:
 E= -323.422801889974     Delta-E=       -0.000000000006 Rises=F Damp=F
 DIIS: error= 3.82D-08 at cycle   7 NSaved=   7.
 NSaved= 7 IEnMin= 7 EnMin= -323.422801889974     IErMin= 7 ErrMin= 3.82D-08
 ErrMax= 3.82D-08  0.00D+00 EMaxC= 1.00D-01 BMatC= 1.07D-13 BMatP= 3.62D-12
 IDIUse=1 WtCom= 1.00D+00 WtEn= 0.00D+00
 Coeff-Com: -0.875D-03 0.798D-03 0.652D-02 0.119D-01 0.858D-01 0.228D+00
 Coeff-Com:  0.668D+00
 Coeff:     -0.875D-03 0.798D-03 0.652D-02 0.119D-01 0.858D-01 0.228D+00
 Coeff:      0.668D+00
 Gap=     0.204 Goal=   None    Shift=    0.000
 RMSDP=6.28D-09 MaxDP=8.20D-08 DE=-5.68D-12 OVMax= 8.15D-08

 SCF Done:  E(RB3LYP) =  -323.422801890     A.U. after   15 cycles
            NFock= 15  Conv=0.63D-08     -V/T= 2.0047
 KE= 3.219046704309D+02 PE=-1.252413927852D+03 EE= 3.595520271069D+02
 Leave Link  502 at Wed Apr 13 09:23:30 2016, MaxMem=    33554432 cpu:         9.6
 (Enter /usr/local/gau/g09/l801.exe)
 DoSCS=F DFT=T ScalE2(SS,OS)=  1.000000  1.000000
 Range of M.O.s used for correlation:     1    68
 NBasis=    68 NAE=    24 NBE=    24 NFC=     0 NFV=     0
 NROrb=     68 NOA=    24 NOB=    24 NVA=    44 NVB=    44
 Leave Link  801 at Wed Apr 13 09:23:30 2016, MaxMem=    33554432 cpu:         0.0
 (Enter /usr/local/gau/g09/l1101.exe)
 Using compressed storage, NAtomX=    13.
 Will process     14 centers per pass.
 Leave Link 1101 at Wed Apr 13 09:23:30 2016, MaxMem=    33554432 cpu:         0.1
 (Enter /usr/local/gau/g09/l1102.exe)
 Symmetrizing basis deriv contribution to polar:
 IMax=3 JMax=2 DiffMx= 0.00D+00
 Leave Link 1102 at Wed Apr 13 09:23:30 2016, MaxMem=    33554432 cpu:         0.0
 (Enter /usr/local/gau/g09/l1110.exe)
 Forming Gx(P) for the SCF density, NAtomX=    13.
 Integral derivatives from FoFJK, PRISM(SPDF).
 Do as many integral derivatives as possible in FoFJK.
 G2DrvN: MDV=      33554224.
 G2DrvN: will do    14 centers at a time, making    1 passes.
 Calling FoFCou, ICntrl=  3107 FMM=F I1Cent=   0 AccDes= 0.00D+00.
 FoFJK:  IHMeth= 1 ICntrl=    3107 DoSepK=F KAlg= 0 I1Cent=   0 FoldK=F
 IRaf=         0 NMat=   1 IRICut=       1 DoRegI=T DoRafI=F ISym2E= 0.
 FoFCou: FMM=F IPFlag=           0 FMFlag=      100000 FMFlg1=           0
         NFxFlg=           0 DoJE=F BraDBF=F KetDBF=F FulRan=T
         wScrn=  0.000000 ICntrl=    3107 IOpCl=  0 I1Cent=           0 NGrid=           0
         NMat0=    1 NMatS0=      1 NMatT0=    0 NMatD0=    1 NMtDS0=    0 NMtDT0=    0
 Symmetry not used in FoFCou.
 End of G2Drv F.D. properties file   721 does not exist.
 End of G2Drv F.D. properties file   722 does not exist.
 End of G2Drv F.D. properties file   788 does not exist.
 Leave Link 1110 at Wed Apr 13 09:23:56 2016, MaxMem=    33554432 cpu:        23.2
 (Enter /usr/local/gau/g09/l1002.exe)
 Minotr:  Closed shell wavefunction.
          IDoAtm=1111111111111
          Direct CPHF calculation.
          Differentiating once with respect to nuclear coordinates.
          Requested convergence is 1.0D-08 RMS, and 1.0D-07 maximum.
          Secondary convergence is 1.0D-12 RMS, and 1.0D-12 maximum.
          NewPWx=T KeepS1=F KeepF1=F KeepIn=T MapXYZ=F SortEE=F KeepMc=T.
          MDV=      33554230 using IRadAn=       2.
 Generate precomputed XC quadrature information.
 Keep R1 ints in memory in canonical form, NReq=3645290.
 FoFCou: FMM=F IPFlag=           0 FMFlag=           0 FMFlg1=           0
         NFxFlg=           0 DoJE=F BraDBF=F KetDBF=F FulRan=T
         wScrn=  0.000000 ICntrl=     600 IOpCl=  0 I1Cent=           0 NGrid=           0
         NMat0=    1 NMatS0=   2346 NMatT0=    0 NMatD0=    1 NMtDS0=    0 NMtDT0=    0
 Symmetry not used in FoFCou.
          Solving linear equations simultaneously, MaxMat=       0.
          There are    42 degrees of freedom in the 1st order CPHF.  IDoFFX=6 NUNeed=     0.
     36 vectors produced by pass  0 Test12= 2.51D-15 2.38D-09 XBig12= 1.54D-01 1.28D-01.
 AX will form    36 AO Fock derivatives at one time.
     36 vectors produced by pass  1 Test12= 2.51D-15 2.38D-09 XBig12= 2.77D-02 4.79D-02.
     36 vectors produced by pass  2 Test12= 2.51D-15 2.38D-09 XBig12= 9.35D-05 1.54D-03.
     36 vectors produced by pass  3 Test12= 2.51D-15 2.38D-09 XBig12= 1.92D-07 7.35D-05.
     36 vectors produced by pass  4 Test12= 2.51D-15 2.38D-09 XBig12= 2.10D-10 2.41D-06.
     16 vectors produced by pass  5 Test12= 2.51D-15 2.38D-09 XBig12= 1.08D-13 4.62D-08.
 InvSVY:  IOpt=1 It=  1 EMax= 1.22D-15
 Solved reduced A of dimension   196 with    36 vectors.
 End of Minotr F.D. properties file   721 does not exist.
 End of Minotr F.D. properties file   722 does not exist.
 End of Minotr F.D. properties file   788 does not exist.
 Leave Link 1002 at Wed Apr 13 09:24:12 2016, MaxMem=    33554432 cpu:        13.3
 (Enter /usr/local/gau/g09/l601.exe)
 Copying SCF densities to generalized density rwf, IOpCl= 0 IROHF=0.

 **********************************************************************

            Population analysis using the SCF density.

 **********************************************************************

 Orbital symmetries:
       Occupied  (A) (A) (A) (A) (A) (A) (A) (A) (A) (A) (A) (A)
                 (A) (A) (A) (A) (A) (A) (A) (A) (A) (A) (A) (A)
       Virtual   (A) (A) (A) (A) (A) (A) (A) (A) (A) (A) (A) (A)
                 (A) (A) (A) (A) (A) (A) (A) (A) (A) (A) (A) (A)
                 (A) (A) (A) (A) (A) (A) (A) (A) (A) (A) (A) (A)
                 (A) (A) (A) (A) (A) (A) (A) (A)
 The electronic state is 1-A.
 Alpha  occ. eigenvalues --  -19.16485 -19.14333 -14.36672 -10.28073 -10.23565
 Alpha  occ. eigenvalues --  -10.19227  -1.06443  -1.01549  -0.94315  -0.77866
 Alpha  occ. eigenvalues --   -0.71508  -0.60872  -0.59382  -0.51963  -0.46847
 Alpha  occ. eigenvalues --   -0.44884  -0.42132  -0.40274  -0.38662  -0.35445
 Alpha  occ. eigenvalues --   -0.32576  -0.30807  -0.28881  -0.18407
 Alpha virt. eigenvalues --    0.01969   0.04870   0.06727   0.09980   0.10885
 Alpha virt. eigenvalues --    0.15684   0.16472   0.17250   0.19723   0.20885
 Alpha virt. eigenvalues --    0.26117   0.37965   0.43328   0.52364   0.55218
 Alpha virt. eigenvalues --    0.56395   0.61355   0.63060   0.65825   0.66693
 Alpha virt. eigenvalues --    0.71825   0.74822   0.75954   0.78988   0.82865
 Alpha virt. eigenvalues --    0.86161   0.87100   0.90706   0.91600   0.94088
 Alpha virt. eigenvalues --    0.96333   0.97692   1.00705   1.03655   1.07924
 Alpha virt. eigenvalues --    1.11532   1.16947   1.22274   1.29045   1.42865
 Alpha virt. eigenvalues --    1.44149   1.55391   1.90377   1.95911
          Condensed to atoms (all electrons):
               1          2          3          4          5          6
     1  N    7.338461   0.322912   0.183744   0.000014  -0.061276  -0.125384
     2  H    0.322912   0.348357  -0.017491   0.000003  -0.003892   0.006083
     3  C    0.183744  -0.017491   5.486361   0.000834   0.305630   0.433346
     4  H    0.000014   0.000003   0.000834   0.423195   0.000366  -0.039823
     5  C   -0.061276  -0.003892   0.305630   0.000366   5.090715   0.009449
     6  C   -0.125384   0.006083   0.433346  -0.039823   0.009449   5.020315
     7  H    0.001947   0.000939  -0.044071  -0.000082   0.367976  -0.002074
     8  H    0.003653  -0.000021  -0.033604  -0.000449   0.376119  -0.003031
     9  H    0.001208   0.002113  -0.046987   0.000148   0.366192   0.000002
    10  O   -0.033009   0.000477  -0.146408   0.002539   0.003371   0.205639
    11  H    0.304892  -0.013758  -0.035501   0.000009   0.003671  -0.007195
    12  O    0.001608   0.000008  -0.100223   0.238728  -0.007863   0.243717
    13  H   -0.064895   0.004236  -0.202212  -0.001263   0.006542  -0.070122
               7          8          9         10         11         12
     1  N    0.001947   0.003653   0.001208  -0.033009   0.304892   0.001608
     2  H    0.000939  -0.000021   0.002113   0.000477  -0.013758   0.000008
     3  C   -0.044071  -0.033604  -0.046987  -0.146408  -0.035501  -0.100223
     4  H   -0.000082  -0.000449   0.000148   0.002539   0.000009   0.238728
     5  C    0.367976   0.376119   0.366192   0.003371   0.003671  -0.007863
     6  C   -0.002074  -0.003031   0.000002   0.205639  -0.007195   0.243717
     7  H    0.588859  -0.023049  -0.043918  -0.000042  -0.000103   0.000289
     8  H   -0.023049   0.507580  -0.024296   0.000162  -0.000181   0.010733
     9  H   -0.043918  -0.024296   0.602820  -0.000001   0.000026   0.000507
    10  O   -0.000042   0.000162  -0.000001   8.361712   0.000021  -0.063230
    11  H   -0.000103  -0.000181   0.000026   0.000021   0.357912  -0.000014
    12  O    0.000289   0.010733   0.000507  -0.063230  -0.000014   8.259768
    13  H   -0.000101  -0.000297  -0.000678   0.208629   0.015410   0.018818
              13
     1  N   -0.064895
     2  H    0.004236
     3  C   -0.202212
     4  H   -0.001263
     5  C    0.006542
     6  C   -0.070122
     7  H   -0.000101
     8  H   -0.000297
     9  H   -0.000678
    10  O    0.208629
    11  H    0.015410
    12  O    0.018818
    13  H    0.741612
 Mulliken charges:
               1
     1  N   -0.873875
     2  H    0.350034
     3  C    0.216581
     4  H    0.375782
     5  C   -0.457001
     6  C    0.329077
     7  H    0.153429
     8  H    0.186682
     9  H    0.142865
    10  O   -0.539861
    11  H    0.374811
    12  O   -0.602847
    13  H    0.344322
 Sum of Mulliken charges =   0.00000
 Mulliken charges with hydrogens summed into heavy atoms:
               1
     1  N   -0.149029
     3  C    0.216581
     5  C    0.025975
     6  C    0.329077
    10  O   -0.195539
    12  O   -0.227065
 APT charges:
               1
     1  N   -1.330523
     2  H    0.760510
     3  C    0.250291
     4  H    0.655217
     5  C   -1.243498
     6  C    0.066112
     7  H    0.436204
     8  H    0.378138
     9  H    0.431441
    10  O   -0.378650
    11  H    0.549299
    12  O   -0.747491
    13  H    0.172952
 Sum of APT charges =   0.00000
 APT charges with hydrogens summed into heavy atoms:
               1
     1  N   -0.020715
     3  C    0.250291
     5  C    0.002284
     6  C    0.066112
    10  O   -0.205698
    12  O   -0.092274
 Electronic spatial extent (au):  <R**2>=            601.3393
 Charge=              0.0000 electrons
 Dipole moment (field-independent basis, Debye):
    X=              3.7921    Y=              0.1244    Z=              1.8757  Tot=              4.2325
 Quadrupole moment (field-independent basis, Debye-Ang):
   XX=            -33.3471   YY=            -35.0257   ZZ=            -37.9544
   XY=             -6.2458   XZ=             -2.7778   YZ=              1.9837
 Traceless Quadrupole moment (field-independent basis, Debye-Ang):
   XX=              2.0953   YY=              0.4167   ZZ=             -2.5120
   XY=             -6.2458   XZ=             -2.7778   YZ=              1.9837
 Octapole moment (field-independent basis, Debye-Ang**2):
  XXX=              5.5735  YYY=             -7.6913  ZZZ=              1.3931  XYY=              8.2421
  XXY=              4.9077  XXZ=              8.4935  XZZ=             -4.5131  YZZ=              2.1946
  YYZ=              3.8443  XYZ=             -5.9384
 Hexadecapole moment (field-independent basis, Debye-Ang**3):
 XXXX=           -344.4977 YYYY=           -270.5093 ZZZZ=            -43.4186 XXXY=            -43.7838
 XXXZ=            -13.4448 YYYX=            -25.8570 YYYZ=              3.1873 ZZZX=             -2.0849
 ZZZY=              0.7734 XXYY=           -111.4144 XXZZ=            -71.7024 YYZZ=            -57.9202
 XXYZ=              7.6868 YYXZ=             -5.0246 ZZXY=             -2.3679
 N-N= 2.475344284241D+02 E-N=-1.252413932771D+03  KE= 3.219046704309D+02
  Exact polarizability:   0.000   0.000   0.000   0.000   0.000   0.000
 Approx polarizability: 111.924   2.033  66.097  -2.959  -0.763  32.342
 No NMR shielding tensors so no spin-rotation constants.
 Leave Link  601 at Wed Apr 13 09:24:12 2016, MaxMem=    33554432 cpu:         0.1
 (Enter /usr/local/gau/g09/l701.exe)
 Compute integral second derivatives.
 ... and contract with generalized density number  0.
 Leave Link  701 at Wed Apr 13 09:24:12 2016, MaxMem=    33554432 cpu:         0.1
 (Enter /usr/local/gau/g09/l702.exe)
 L702 exits ... SP integral derivatives will be done elsewhere.
 Leave Link  702 at Wed Apr 13 09:24:12 2016, MaxMem=    33554432 cpu:         0.0
 (Enter /usr/local/gau/g09/l703.exe)
 Compute integral second derivatives, UseDBF=F ICtDFT=           0.
 Integral derivatives from FoFJK, PRISM(SPDF).
 Calling FoFJK, ICntrl=    100147 FMM=F ISym2X=0 I1Cent= 0 IOpClX= 0 NMat=1 NMatS=1 NMatT=0.
 FoFJK:  IHMeth= 1 ICntrl=  100147 DoSepK=F KAlg= 0 I1Cent=   0 FoldK=F
 IRaf=         0 NMat=   1 IRICut=       1 DoRegI=T DoRafI=F ISym2E= 0.
 FoFCou: FMM=F IPFlag=           0 FMFlag=      100000 FMFlg1=         800
         NFxFlg=           0 DoJE=F BraDBF=F KetDBF=F FulRan=T
         wScrn=  0.000000 ICntrl=  100147 IOpCl=  0 I1Cent=           0 NGrid=           0
         NMat0=    1 NMatS0=      1 NMatT0=    0 NMatD0=    1 NMtDS0=    0 NMtDT0=    0
 Symmetry not used in FoFCou.
 Leave Link  703 at Wed Apr 13 09:24:34 2016, MaxMem=    33554432 cpu:        22.0
 (Enter /usr/local/gau/g09/l716.exe)
 Dipole        = 1.49192842D+00 4.89425733D-02 7.37969061D-01
 Polarizability= 0.00000000D+00 0.00000000D+00 0.00000000D+00
                 0.00000000D+00 0.00000000D+00 0.00000000D+00
 ***** Axes restored to original set *****
 -------------------------------------------------------------------
 Center     Atomic                   Forces (Hartrees/Bohr)
 Number     Number              X              Y              Z
 -------------------------------------------------------------------
      1        7           0.033203717    0.021919888    0.000511537
      2        1           0.000501781    0.001072329    0.000476975
      3        6           0.023776986   -0.081809693    0.000185836
      4        1          -0.001277831    0.002811956    0.001806860
      5        6           0.003734455    0.001674320    0.003090269
      6        6          -0.048766738   -0.031746074   -0.005666978
      7        1           0.000428509   -0.000831567    0.000551549
      8        1          -0.001034392    0.001395746    0.000094322
      9        1          -0.000272406    0.000228167   -0.000669306
     10        8           0.084498094   -0.017668979    0.011261814
     11        1           0.017317626    0.026198961   -0.002199591
     12        8           0.009929114    0.006313648   -0.002195275
     13        1          -0.122038914    0.070441296   -0.007248012
 -------------------------------------------------------------------
 Cartesian Forces:  Max     0.122038914 RMS     0.032394373
 Force constants in Cartesian coordinates: 
                1             2             3             4             5 
      1  0.894207D+00
      2 -0.837208D-03  0.710431D+00
      3 -0.143334D-01 -0.401959D-01 -0.210589D-03
      4 -0.474113D+00 -0.276550D-01  0.324468D-01  0.487791D+00
      5 -0.243302D-01 -0.637629D-01  0.567939D-02  0.325019D-01  0.662305D-01
      6  0.453622D-01  0.656130D-02  0.269481D-02 -0.366708D-01 -0.523790D-02
      7 -0.172922D+00 -0.838954D-01 -0.424524D-03 -0.767535D-02 -0.401178D-01
      8 -0.129682D+00 -0.294822D+00  0.252822D-02 -0.991763D-03  0.572101D-03
      9 -0.350058D-02 -0.779623D-02 -0.161657D-01  0.188115D-02  0.268598D-02
     10 -0.587797D-03  0.199862D-02  0.248202D-02 -0.206248D-03 -0.359025D-03
     11  0.341850D-03 -0.733594D-03  0.134612D-02  0.313631D-03 -0.227853D-03
     12  0.156681D-02 -0.189847D-02 -0.349587D-03  0.396009D-03  0.218011D-03
     13  0.114597D-01 -0.205153D-01  0.484616D-03  0.213921D-02 -0.424965D-03
     14  0.242612D-01 -0.380282D-01  0.000000D+00  0.161235D-02  0.231037D-02
     15  0.102311D-03 -0.575154D-03  0.105622D-02 -0.144015D-03  0.273533D-03
     16 -0.387080D-01  0.745203D-02  0.289910D-02 -0.819880D-03  0.227382D-03
     17 -0.442893D-01 -0.195346D-01 -0.703733D-03  0.505567D-02 -0.792395D-02
     18 -0.341133D-02  0.109365D-02 -0.107097D-02 -0.804807D-04  0.310413D-03
     19  0.222913D-02 -0.824922D-03  0.170527D-02  0.300068D-03  0.200266D-03
     20 -0.120811D-02  0.268975D-02 -0.158421D-02 -0.487288D-03 -0.550079D-03
     21  0.944629D-03  0.732139D-03  0.192314D-03 -0.331185D-03  0.799298D-03
     22 -0.363392D-02  0.415736D-02 -0.206285D-03 -0.409611D-03  0.233798D-03
     23  0.466790D-02 -0.333557D-02  0.197899D-03  0.562283D-03  0.408233D-03
     24  0.119267D-03 -0.929564D-04  0.136833D-02 -0.837437D-04 -0.254746D-04
     25  0.220160D-02 -0.839768D-03 -0.161944D-02  0.381750D-03  0.287392D-03
     26 -0.897976D-03  0.277573D-02  0.135248D-02 -0.716099D-03 -0.598435D-03
     27 -0.941316D-03 -0.696074D-03  0.333289D-03  0.335560D-03 -0.952010D-03
     28  0.126150D-03 -0.408905D-02  0.150135D-02  0.230366D-02  0.227926D-02
     29 -0.141917D-01  0.172734D-01  0.213053D-02 -0.235794D-02  0.222274D-02
     30  0.842268D-03 -0.104095D-02 -0.177411D-02  0.210937D-03  0.226674D-03
     31 -0.180058D+00  0.165138D+00 -0.173813D-01 -0.829965D-02  0.309095D-01
     32  0.180331D+00 -0.341759D+00  0.333687D-01 -0.680097D-02  0.864515D-02
     33 -0.273156D-01  0.430154D-01 -0.828140D-02  0.321297D-02 -0.301654D-02
     34 -0.323176D-02 -0.579962D-02 -0.322179D-02  0.135643D-02 -0.128184D-02
     35 -0.553818D-02 -0.505765D-02 -0.279502D-02  0.788352D-04  0.778204D-04
     36 -0.183879D-02  0.296426D-02  0.100960D-01 -0.376906D-03 -0.685781D-03
     37 -0.369687D-01 -0.342901D-01 -0.433242D-02 -0.274881D-02 -0.125664D-03
     38  0.113728D-01  0.338639D-01 -0.132448D-02 -0.111562D-02 -0.740377D-02
     39  0.240352D-02 -0.207105D-02  0.121114D-01 -0.796364D-03 -0.275591D-03
                6             7             8             9            10 
      6 -0.358240D-02
      7 -0.275729D-02  0.867763D+00
      8 -0.288614D-02 -0.121697D-04  0.659174D+00
      9  0.623318D-03  0.114865D-01 -0.918617D-03  0.798459D-01
     10  0.462981D-03  0.175574D-03 -0.396288D-02 -0.247400D-02  0.155312D+00
     11  0.644540D-03  0.275589D-02 -0.153009D-02 -0.114970D-02  0.627323D-01
     12  0.109100D-03  0.335931D-02  0.394557D-02 -0.253530D-03  0.200388D+00
     13  0.275612D-04 -0.132626D+00  0.651267D-01  0.338493D-03 -0.611618D-03
     14  0.236196D-03  0.529239D-01 -0.158996D+00  0.424208D-03 -0.180389D-03
     15  0.428557D-02 -0.698705D-03  0.424700D-03 -0.660119D-01 -0.128382D-02
     16  0.306116D-03 -0.508324D+00 -0.545566D-01 -0.825375D-02 -0.187478D-01
     17  0.719856D-03 -0.280788D-01 -0.917698D-01 -0.108813D-02 -0.797176D-02
     18 -0.426552D-02 -0.914106D-02 -0.391012D-02 -0.365444D-01 -0.154843D-01
     19 -0.373545D-03 -0.199645D-01  0.404022D-02 -0.164171D-01 -0.203966D-04
     20  0.530119D-03  0.229942D-01 -0.469353D-02  0.233026D-01  0.333822D-04
     21 -0.843904D-03 -0.611648D-03 -0.452218D-03  0.525933D-02  0.225231D-03
     22 -0.723560D-04  0.113187D-01  0.197763D-01 -0.467119D-04 -0.200305D-03
     23  0.424389D-04 -0.152708D-01 -0.225594D-01 -0.551913D-04  0.456230D-04
     24 -0.845392D-03 -0.903190D-04 -0.982958D-04 -0.196314D-02 -0.512470D-03
     25  0.439357D-03 -0.194734D-01  0.342952D-02  0.157137D-01  0.157462D-03
     26 -0.284306D-03  0.220203D-01 -0.432291D-02 -0.225703D-01  0.180423D-04
     27 -0.745548D-03  0.299865D-03  0.497953D-03  0.499398D-02 -0.534644D-04
     28 -0.131323D-02 -0.303821D-01  0.496793D-01 -0.281870D-02  0.373362D-03
     29 -0.154592D-03  0.384657D-02 -0.351139D-01  0.163621D-02  0.976203D-03
     30  0.439803D-03 -0.128974D-03  0.330185D-02  0.372929D-02  0.116244D-03
     31 -0.563943D-02  0.154034D-01 -0.136829D-01  0.164253D-02  0.929110D-04
     32  0.276247D-03  0.203319D-01 -0.202594D-01  0.242802D-02  0.340784D-04
     33  0.720981D-02  0.121285D-02 -0.263271D-02 -0.746509D-02 -0.561825D-03
     34 -0.175172D-03 -0.136803D-01 -0.305484D-01  0.429625D-02 -0.136979D+00
     35 -0.523751D-03 -0.658255D-02 -0.533805D-02  0.290460D-02 -0.534804D-01
     36  0.278646D-02 -0.115500D-02 -0.381643D-02 -0.176783D-03 -0.182704D+00
     37  0.403566D-03  0.103878D-01  0.913848D-01 -0.184774D-02  0.124101D-02
     38  0.759935D-04  0.490847D-01 -0.203416D-01  0.196542D-03  0.116167D-03
     39 -0.786610D-02 -0.135098D-02  0.401625D-02  0.341287D-01 -0.600933D-03
               11            12            13            14            15 
     11  0.522032D-01
     12  0.513346D-01  0.303953D+00
     13  0.415697D-03  0.308722D-03  0.545416D+00
     14  0.135781D-03  0.682475D-04  0.607963D-01  0.541463D+00
     15 -0.111108D-02 -0.248769D-03  0.950699D-03 -0.981189D-03  0.534071D+00
     16 -0.356158D-01  0.563506D-02 -0.247079D-01  0.140214D-01  0.320423D-03
     17 -0.173947D-01  0.938115D-02  0.287255D-01  0.604843D-02 -0.622764D-04
     18 -0.290488D-01  0.546600D-02 -0.558082D-03 -0.565317D-04  0.878909D-02
     19 -0.183481D-04 -0.905777D-04 -0.130917D+00 -0.387827D-02 -0.119165D+00
     20  0.968298D-04 -0.146239D-03 -0.352364D-02 -0.489445D-01 -0.136971D-02
     21  0.578904D-04 -0.114523D-03 -0.119097D+00 -0.276604D-02 -0.217370D+00
     22 -0.169298D-03 -0.512448D-04 -0.129734D+00 -0.130905D+00 -0.605263D-03
     23  0.329352D-03 -0.766319D-04 -0.123506D+00 -0.246078D+00 -0.103567D-02
     24  0.351122D-03  0.786083D-04 -0.286164D-03 -0.601606D-03 -0.492596D-01
     25  0.154280D-03  0.121706D-03 -0.132572D+00 -0.549791D-02  0.119220D+00
     26 -0.131171D-03  0.113477D-03 -0.465394D-02 -0.494930D-01  0.279500D-02
     27  0.116050D-04  0.493190D-04  0.118717D+00  0.489020D-02 -0.213287D+00
     28  0.444836D-02  0.102392D-02  0.945364D-03 -0.750463D-02 -0.139375D-02
     29  0.485690D-03 -0.342222D-03 -0.146026D-02  0.504589D-02  0.760844D-03
     30  0.144567D-02 -0.129947D-02  0.381802D-03 -0.510988D-03  0.104274D-01
     31 -0.213818D-03 -0.411429D-03 -0.248384D-02 -0.133026D-02  0.303908D-03
     32 -0.454600D-03 -0.245839D-03 -0.525913D-02 -0.251268D-02  0.366153D-03
     33 -0.331648D-03  0.226207D-03 -0.332143D-03 -0.463698D-03 -0.448237D-03
     34 -0.327477D-01 -0.210392D+00  0.612643D-03 -0.118514D-02  0.164203D-02
     35 -0.353434D-01 -0.615647D-01  0.254001D-02 -0.389046D-02  0.943963D-03
     36 -0.230625D-01 -0.308212D+00 -0.725731D-03 -0.226643D-03 -0.536964D-02
     37 -0.239706D-02 -0.185419D-02 -0.692102D-02 -0.313393D-02  0.751174D-03
     38  0.256463D-02 -0.786965D-03  0.173859D-02 -0.706117D-02 -0.429117D-03
     39 -0.487866D-03  0.596215D-03 -0.209841D-03 -0.122072D-04 -0.663466D-02
               16            17            18            19            20 
     16  0.788228D+00
     17  0.132238D+00  0.520837D+00
     18  0.302730D-01 -0.761884D-02  0.817102D-01
     19  0.329463D-02  0.246661D-02 -0.690185D-03  0.146970D+00
     20 -0.235411D-02 -0.344049D-02 -0.158692D-03 -0.238314D-02  0.518102D-01
     21  0.205010D-02 -0.318657D-03 -0.575570D-03  0.133301D+00  0.188926D-02
     22  0.410389D-03  0.191310D-02  0.280598D-03 -0.993017D-02 -0.158717D-01
     23 -0.137863D-02 -0.244554D-02  0.121332D-03  0.919404D-03  0.921651D-03
     24  0.149695D-04  0.414587D-04  0.273416D-03 -0.156777D-01 -0.246054D-01
     25  0.282035D-02  0.208780D-02  0.871049D-03  0.113414D-01  0.302717D-03
     26 -0.183712D-02 -0.344087D-02 -0.531217D-04 -0.130128D-03  0.316825D-03
     27 -0.175563D-02  0.540491D-03 -0.805935D-03  0.173845D-01  0.174858D-02
     28 -0.106208D+00  0.105245D+00 -0.774359D-02 -0.183071D-02  0.185916D-02
     29  0.530033D-01 -0.144483D+00  0.947317D-02  0.170142D-02 -0.116710D-02
     30 -0.454701D-02  0.128054D-01 -0.399489D-01  0.137596D-02 -0.179323D-02
     31  0.457431D-02 -0.478617D-04  0.598762D-04 -0.690757D-04 -0.111433D-03
     32  0.644064D-02 -0.523532D-02  0.590543D-03 -0.828094D-04  0.228247D-03
     33 -0.181470D-02  0.153680D-03  0.207839D-02 -0.730865D-04 -0.145804D-03
     34 -0.129863D+00 -0.895295D-01  0.297735D-02 -0.647441D-03 -0.156578D-04
     35 -0.717300D-01 -0.191198D+00  0.296215D-01 -0.570379D-03  0.117257D-02
     36 -0.226956D-01 -0.894986D-02 -0.523906D-01 -0.318428D-03  0.977191D-03
     37  0.280509D-01 -0.107815D+00  0.264720D-02 -0.755300D-03  0.765618D-03
     38 -0.459109D-01 -0.400187D-01 -0.364467D-03 -0.143993D-02  0.155963D-02
     39 -0.243203D-02 -0.490054D-02  0.372848D-01 -0.961039D-03  0.135551D-02
               21            22            23            24            25 
     21  0.237082D+00
     22  0.130098D-02  0.141239D+00
     23  0.750029D-03  0.136401D+00  0.269517D+00
     24  0.301071D-03  0.939252D-03  0.877456D-03  0.496739D-01
     25 -0.167535D-01 -0.972433D-02  0.977941D-03  0.154543D-01  0.148488D+00
     26 -0.120527D-02 -0.153380D-01  0.956019D-03  0.244417D-01 -0.454400D-03
     27 -0.242327D-01 -0.151713D-02 -0.707253D-03  0.510957D-03 -0.133332D+00
     28  0.150454D-04 -0.999533D-04  0.497842D-03  0.345132D-04 -0.135052D-02
     29  0.782247D-03 -0.616431D-03  0.382095D-03 -0.183415D-05  0.151224D-02
     30 -0.292477D-03  0.000000D+00  0.211956D-04 -0.103590D-03 -0.153149D-02
     31  0.103000D-03  0.784821D-03 -0.684588D-03 -0.342836D-04 -0.610829D-04
     32  0.939480D-04  0.144262D-02 -0.940279D-03  0.103292D-04 -0.102031D-03
     33  0.780193D-04  0.817662D-04 -0.193457D-03  0.781341D-03  0.609453D-04
     34 -0.364584D-03 -0.168332D-02 -0.143399D-02  0.129611D-03 -0.122651D-02
     35 -0.304213D-03 -0.780193D-03  0.245514D-02 -0.308961D-03 -0.500675D-03
     36  0.296609D-03 -0.204979D-03  0.155622D-03 -0.654171D-03  0.523007D-03
     37 -0.782191D-03  0.166277D-02 -0.179892D-02 -0.722369D-05 -0.982747D-03
     38 -0.584141D-04 -0.244281D-03  0.389050D-03  0.123849D-04 -0.135711D-02
     39  0.220134D-03  0.101854D-03 -0.977708D-04 -0.161756D-03  0.832007D-03
               26            27            28            29            30 
     26  0.517957D-01
     27 -0.450341D-02  0.233011D+00
     28  0.149188D-02  0.360001D-04  0.121126D+00
     29 -0.905156D-03 -0.897934D-03 -0.846455D-01  0.207784D+00
     30  0.199119D-02 -0.275481D-03  0.130830D-02 -0.123897D-01  0.562679D-01
     31  0.343921D-04 -0.135528D-03 -0.955770D-02  0.202308D-02 -0.865544D-03
     32  0.281121D-03 -0.832757D-04  0.514930D-02  0.645820D-02  0.672650D-04
     33  0.548227D-04  0.390990D-04  0.980129D-03 -0.177936D-02 -0.305910D-02
     34 -0.555802D-03  0.167507D-03  0.168919D-01  0.971038D-02  0.188189D-03
     35  0.132697D-02  0.795818D-04 -0.185474D-01 -0.363217D-01  0.347444D-02
     36 -0.774332D-03  0.890035D-04  0.324554D-02  0.376969D-02  0.571216D-02
     37  0.101888D-02  0.794377D-03  0.766227D-02  0.304987D-01  0.264980D-02
     38  0.143913D-02  0.715486D-04 -0.558636D-01 -0.216609D-01 -0.759886D-02
     39 -0.135798D-02  0.320083D-03  0.512448D-02 -0.298708D-02 -0.298234D-01
               31            32            33            34            35 
     31  0.186693D+00
     32 -0.166160D+00  0.376857D+00
     33  0.208090D-01 -0.399726D-01 -0.186672D-01
     34 -0.828224D-03 -0.492979D-03  0.775613D-03  0.275762D+00
     35  0.135740D-03  0.198729D-02  0.748820D-03  0.149749D+00  0.279408D+00
     36  0.389271D-03 -0.843338D-04 -0.140534D-02  0.203970D+00  0.259993D-01
     37 -0.619128D-02 -0.348319D-01  0.296411D-02 -0.648374D-02  0.522601D-02
     38 -0.160105D-01 -0.232959D-01  0.456308D-02  0.413107D-02 -0.927831D-02
     39  0.115999D-02  0.318492D-02  0.289135D-01  0.677772D-05  0.172451D-02
               36            37            38            39 
     36  0.353783D+00
     37  0.189098D-02  0.120468D-01
     38  0.373385D-02  0.554985D-01  0.892440D-01
     39 -0.455429D-02 -0.327744D-02  0.190890D-02 -0.645347D-01
 FormGI is forming the generalized inverse of G from B-inverse, IUseBI=4.
 Leave Link  716 at Wed Apr 13 09:24:34 2016, MaxMem=    33554432 cpu:         0.0
 (Enter /usr/local/gau/g09/l103.exe)

 GradGradGradGradGradGradGradGradGradGradGradGradGradGradGradGradGradGrad
 Berny optimization.
 Red2BG is reusing G-inverse.
 Internal  Forces:  Max     0.064222630 RMS     0.013326050
 Search for a saddle point.
 Step number   1 out of a maximum of   83
 All quantities printed in internal units (Hartrees-Bohrs-Radians)
 Swapping is turned off.
 Second derivative matrix not updated -- analytic derivatives used.
 ITU=  0
     Eigenvalues ---   -0.01572  -0.00592  -0.00278   0.00098   0.00185
     Eigenvalues ---    0.00248   0.01000   0.01494   0.02163   0.02789
     Eigenvalues ---    0.04035   0.04080   0.04757   0.06706   0.10689
     Eigenvalues ---    0.12416   0.12865   0.13478   0.14246   0.15717
     Eigenvalues ---    0.16057   0.17709   0.20285   0.32243   0.32909
     Eigenvalues ---    0.34121   0.35476   0.35731   0.36450   0.41744
     Eigenvalues ---    0.46133   0.48897   0.49360
 Eigenvectors required to have negative eigenvalues:
                          R14       R6        A21       A24       A20
   1                   -0.63851   0.40315  -0.35638   0.25747  -0.22527
                          A22       A17       A14       R13       D31
   1                    0.21508   0.16785  -0.15414   0.14785   0.11338
 Eigenvalue     2 is  -5.92D-03 should be greater than     0.000000 Eigenvector:
                          D1        D2        D3        D7        D4
   1                   -0.49322  -0.48137  -0.40844   0.40304  -0.18379
                          D5        D32       D28       D29       A26
   1                   -0.17195  -0.12317  -0.11639   0.11227  -0.10990
 Eigenvalue     3 is  -2.78D-03 should be greater than     0.000000 Eigenvector:
                          D31       D32       D29       D25       A25
   1                   -0.50306   0.37276   0.33018  -0.32292   0.23477
                          A26       D4        D3        D7        D17
   1                    0.22794   0.21320  -0.18645   0.18461  -0.18226
 RFO step:  Lambda0=7.083651991D-02 Lambda=-3.67221620D-02.
 Linear search not attempted -- option 19 set.
 Maximum step size (   0.300) exceeded in Quadratic search.
    -- Step size scaled by   0.316
 Iteration  1 RMS(Cart)=  0.03455480 RMS(Int)=  0.00821794
 Iteration  2 RMS(Cart)=  0.00343174 RMS(Int)=  0.00443226
 Iteration  3 RMS(Cart)=  0.00008252 RMS(Int)=  0.00443061
 Iteration  4 RMS(Cart)=  0.00000343 RMS(Int)=  0.00443061
 Iteration  5 RMS(Cart)=  0.00000016 RMS(Int)=  0.00443061
 ITry= 1 IFail=0 DXMaxC= 1.86D-01 DCOld= 1.00D+10 DXMaxT= 3.00D-01 DXLimC= 3.00D+00 Rises=F
 Variable       Old X    -DE/DX   Delta X   Delta X   Delta X     New X
                                 (Linear)    (Quad)   (Total)
    R1        1.89636   0.00054   0.00000   0.00188   0.00188   1.89824
    R2        2.63279   0.04301   0.00000   0.06550   0.06236   2.69515
    R3        1.89992   0.02229   0.00000   0.01739   0.01540   1.91532
    R4        2.84087  -0.00026   0.00000  -0.00579  -0.00582   2.83504
    R5        2.54221   0.01820   0.00000   0.02021   0.01632   2.55853
    R6        2.64562   0.05104   0.00000  -0.08095  -0.07785   2.56777
    R7        1.85600  -0.00124   0.00000  -0.00083  -0.00083   1.85517
    R8        2.07561   0.00070   0.00000  -0.00029  -0.00029   2.07533
    R9        2.06050  -0.00063   0.00000  -0.00038  -0.00038   2.06011
   R10        2.07718   0.00038   0.00000   0.00109   0.00109   2.07827
   R11        2.73555  -0.01978   0.00000  -0.05802  -0.05465   2.68090
   R12        2.64885  -0.01221   0.00000   0.00121   0.00069   2.64954
   R13        2.60331   0.02752   0.00000  -0.00096   0.00183   2.60514
   R14        2.52143  -0.06422   0.00000   0.13583   0.13317   2.65460
   R15        2.36384   0.02984   0.00000   0.04857   0.05127   2.41511
    A1        2.10258   0.00137   0.00000  -0.03001  -0.03042   2.07216
    A2        2.07788  -0.00038   0.00000  -0.01267  -0.01361   2.06427
    A3        2.08053  -0.00106   0.00000   0.02794   0.02807   2.10860
    A4        2.03345  -0.00029   0.00000  -0.00907  -0.00943   2.02402
    A5        2.10966  -0.00485   0.00000  -0.01797  -0.01739   2.09227
    A6        1.05927  -0.00123   0.00000  -0.03356  -0.03303   1.02624
    A7        2.14004   0.00514   0.00000   0.02696   0.02669   2.16673
    A8        1.93153   0.00173   0.00000   0.00470   0.00443   1.93596
    A9        1.93081  -0.00262   0.00000  -0.01135  -0.01142   1.91939
   A10        1.93804  -0.00047   0.00000  -0.00058  -0.00027   1.93777
   A11        1.88943   0.00028   0.00000   0.00393   0.00370   1.89313
   A12        1.87473   0.00010   0.00000   0.00336   0.00335   1.87809
   A13        1.89759   0.00107   0.00000   0.00045   0.00064   1.89823
   A14        2.05881  -0.01550   0.00000   0.02747   0.02763   2.08643
   A15        2.16418  -0.00066   0.00000  -0.04365  -0.04354   2.12064
   A16        2.06019   0.01617   0.00000   0.01627   0.01574   2.07593
   A17        1.33645   0.00729   0.00000  -0.07851  -0.07473   1.26172
   A18        1.93088  -0.00249   0.00000  -0.01189  -0.01238   1.91849
   A19        2.13290  -0.00964   0.00000  -0.03417  -0.03503   2.09787
   A20        1.79951  -0.00515   0.00000   0.08605   0.08223   1.88173
   A21        2.80799  -0.01395   0.00000   0.10724   0.09797   2.90596
   A22        2.33871   0.01460   0.00000  -0.06151  -0.05665   2.28206
   A23        3.09272  -0.00152   0.00000  -0.04263  -0.04246   3.05026
   A24        3.24613   0.01169   0.00000  -0.08395  -0.08277   3.16336
   A25        3.12366   0.00060   0.00000   0.05754   0.05398   3.17763
   A26        3.21091  -0.00054   0.00000   0.05994   0.05100   3.26191
    D1        0.10954   0.00018   0.00000   0.14381   0.14221   0.25174
    D2       -3.04060   0.00049   0.00000   0.13422   0.13219  -2.90841
    D3       -3.01412  -0.00043   0.00000   0.08627   0.08823  -2.92589
    D4        3.02427  -0.00025   0.00000   0.06803   0.07082   3.09508
    D5       -0.12587   0.00007   0.00000   0.05844   0.06080  -0.06507
    D6       -0.09939  -0.00085   0.00000   0.01050   0.01684  -0.08255
    D7        3.01769   0.00109   0.00000  -0.09273  -0.09424   2.92345
    D8        0.09973   0.00128   0.00000  -0.01566  -0.02093   0.07880
    D9        1.03078  -0.00009   0.00000   0.00484   0.00653   1.03732
   D10        3.12490  -0.00032   0.00000   0.00542   0.00658   3.13147
   D11       -1.04963  -0.00104   0.00000  -0.00204  -0.00040  -1.05002
   D12       -2.10210  -0.00036   0.00000   0.01486   0.01727  -2.08483
   D13       -0.00799  -0.00059   0.00000   0.01543   0.01731   0.00933
   D14        2.10067  -0.00131   0.00000   0.00797   0.01034   2.11101
   D15       -2.20816   0.00114   0.00000  -0.02433  -0.02273  -2.23088
   D16        1.08633   0.00025   0.00000   0.01659   0.01064   1.09697
   D17       -0.10223   0.00112   0.00000  -0.03205  -0.02960  -0.13183
   D18       -3.09093   0.00024   0.00000   0.00887   0.00377  -3.08717
   D19        2.00986   0.00084   0.00000  -0.01871  -0.01703   1.99283
   D20       -0.97884  -0.00005   0.00000   0.02221   0.01633  -0.96251
   D21        0.11445  -0.00417   0.00000  -0.01927  -0.01139   0.10306
   D22       -3.03040  -0.00152   0.00000   0.01627   0.01238  -3.01802
   D23       -3.03622  -0.00387   0.00000  -0.02965  -0.02248  -3.05870
   D24        0.10211  -0.00121   0.00000   0.00588   0.00129   0.10341
   D25        3.06827   0.00091   0.00000  -0.06986  -0.06613   3.00215
   D26        0.07154   0.00051   0.00000  -0.00804  -0.01251   0.05902
   D27       -2.06781  -0.00371   0.00000  -0.09757  -0.08618  -2.15398
   D28        1.07053  -0.00111   0.00000  -0.06199  -0.06253   1.00800
   D29       -2.00980  -0.00054   0.00000  -0.01155  -0.02222  -2.03202
   D30       -0.08891  -0.00082   0.00000   0.00861   0.01431  -0.07460
   D31       -0.20648   0.00124   0.00000  -0.13225  -0.15277  -0.35925
   D32       -3.05989   0.00217   0.00000   0.07510   0.07059  -2.98930
         Item               Value     Threshold  Converged?
 Maximum Force            0.064223     0.000450     NO 
 RMS     Force            0.013326     0.000300     NO 
 Maximum Displacement     0.186417     0.001800     NO 
 RMS     Displacement     0.036101     0.001200     NO 
 Predicted change in Energy= 1.024132D-02
 Lowest energy point so far.  Saving SCF results.
 GradGradGradGradGradGradGradGradGradGradGradGradGradGradGradGradGradGrad

 Leave Link  103 at Wed Apr 13 09:24:34 2016, MaxMem=    33554432 cpu:         0.0
 (Enter /usr/local/gau/g09/l202.exe)
                          Input orientation:                          
 ---------------------------------------------------------------------
 Center     Atomic      Atomic             Coordinates (Angstroms)
 Number     Number       Type             X           Y           Z
 ---------------------------------------------------------------------
      1          7           0        1.120652    1.046235    0.129593
      2          1           0        2.105904    1.105412   -0.056977
      3          6           0        0.491188   -0.232947    0.090319
      4          1           0       -2.104247   -1.688766   -0.599352
      5          6           0        1.410767   -1.418248    0.102929
      6          6           0       -0.859757   -0.319440    0.066804
      7          1           0        2.034190   -1.421345    1.007036
      8          1           0        0.829858   -2.340484    0.080845
      9          1           0        2.084862   -1.403945   -0.765915
     10          8           0       -1.634615    0.863611   -0.045524
     11          1           0        0.571379    1.896800    0.083656
     12          8           0       -1.516934   -1.553182    0.175527
     13          1           0       -0.241074    0.911137    0.125116
 ---------------------------------------------------------------------
                    Distance matrix (angstroms):
                    1          2          3          4          5
     1  N    0.000000
     2  H    1.004505   0.000000
     3  C    1.426210   2.102429   0.000000
     4  H    4.290871   5.082025   3.054724   0.000000
     5  C    2.481644   2.622527   1.500241   3.594677   0.000000
     6  C    2.406456   3.292517   1.353916   1.966615   2.522690
     7  H    2.773700   2.742585   2.152560   4.447321   1.098215
     8  H    3.399530   3.677157   2.134595   3.081620   1.090166
     9  H    2.781190   2.607664   2.155033   4.202084   1.099772
    10  O    2.766860   3.748343   2.395815   2.653659   3.808316
    11  H    1.013544   1.732292   2.131267   4.525678   3.419720
    12  O    3.703504   4.499682   2.404753   0.981711   2.931708
    13  H    1.368419   2.362034   1.358804   3.279598   2.855715
                    6          7          8          9         10
     6  C    0.000000
     7  H    3.236226   0.000000
     8  H    2.634315   1.775686   0.000000
     9  H    3.246591   1.773760   1.780209   0.000000
    10  O    1.418672   4.448487   4.044233   4.415346   0.000000
    11  H    2.638211   3.741996   4.245161   3.729252   2.439380
    12  O    1.402078   3.649558   2.477144   3.725791   2.429733
    13  H    1.378582   3.375660   3.423725   3.400518   1.404753
                   11         12         13
    11  H    0.000000
    12  O    4.033841   0.000000
    13  H    1.278019   2.775469   0.000000
 Stoichiometry    C3H7NO2
 Framework group  C1[X(C3H7NO2)]
 Deg. of freedom    33
 Full point group                 C1      NOp   1
 RotChk:  IX=0 Diff= 2.06D-02
 Largest Abelian subgroup         C1      NOp   1
 Largest concise Abelian subgroup C1      NOp   1
                         Standard orientation:                         
 ---------------------------------------------------------------------
 Center     Atomic      Atomic             Coordinates (Angstroms)
 Number     Number       Type             X           Y           Z
 ---------------------------------------------------------------------
      1          7           0        1.353448   -1.201959   -0.048623
      2          1           0        2.334598   -1.179664    0.165570
      3          6           0        0.613931    0.016676   -0.002603
      4          1           0       -2.116620    1.226432    0.639210
      5          6           0        1.426579    1.277192    0.035163
      6          6           0       -0.739542   -0.014768   -0.017034
      7          1           0        2.071992    1.354379   -0.850027
      8          1           0        0.767030    2.144900    0.058385
      9          1           0        2.075190    1.302065    0.922959
     10          8           0       -1.411016   -1.262716    0.049148
     11          1           0        0.879430   -2.097731   -0.035613
     12          8           0       -1.498620    1.159494   -0.120627
     13          1           0       -0.014478   -1.185503   -0.081437
 ---------------------------------------------------------------------
 Rotational constants (GHZ):      4.7630714      3.3485807      2.0027240
 Leave Link  202 at Wed Apr 13 09:24:34 2016, MaxMem=    33554432 cpu:         0.0
 (Enter /usr/local/gau/g09/l301.exe)
 Standard basis: 6-31G (6D, 7F)
 Ernie: Thresh=  0.10000D-02 Tol=  0.10000D-05 Strict=F.
 There are    68 symmetry adapted cartesian basis functions of A   symmetry.
 There are    68 symmetry adapted basis functions of A   symmetry.
    68 basis functions,   160 primitive gaussians,    68 cartesian basis functions
    24 alpha electrons       24 beta electrons
       nuclear repulsion energy       247.1365672304 Hartrees.
 IExCor=  402 DFT=T Ex+Corr=B3LYP ExCW=0 ScaHFX=  0.200000
 ScaDFX=  0.800000  0.720000  1.000000  0.810000 ScalE2=  1.000000  1.000000
 IRadAn=      0 IRanWt=     -1 IRanGd=            0 ICorTp=0 IEmpDi=  4
 NAtoms=   13 NActive=   13 NUniq=   13 SFac= 1.00D+00 NAtFMM=   60 NAOKFM=F Big=F
 Integral buffers will be    131072 words long.
 Raffenetti 2 integral format.
 Two-electron integral symmetry is turned on.
 Leave Link  301 at Wed Apr 13 09:24:35 2016, MaxMem=    33554432 cpu:         0.0
 (Enter /usr/local/gau/g09/l302.exe)
 NPDir=0 NMtPBC=     1 NCelOv=     1 NCel=       1 NClECP=     1 NCelD=      1
         NCelK=      1 NCelE2=     1 NClLst=     1 CellRange=     0.0.
 One-electron integrals computed using PRISM.
 NBasis=    68 RedAO= T EigKep=  3.08D-03  NBF=    68
 NBsUse=    68 1.00D-06 EigRej= -1.00D+00 NBFU=    68
 Precomputing XC quadrature grid using
 IXCGrd= 4 IRadAn=           0 IRanWt=          -1 IRanGd=           0 AccXCQ= 0.00D+00.
 Generated NRdTot=       0 NPtTot=           0 NUsed=           0 NTot=          32
 NSgBfM=    68    68    68    68    68 MxSgAt=    13 MxSgA2=    13.
 Leave Link  302 at Wed Apr 13 09:24:35 2016, MaxMem=    33554432 cpu:         0.2
 (Enter /usr/local/gau/g09/l303.exe)
 DipDrv:  MaxL=1.
 Leave Link  303 at Wed Apr 13 09:24:35 2016, MaxMem=    33554432 cpu:         0.0
 (Enter /usr/local/gau/g09/l401.exe)
 Initial guess from the checkpoint file:  "Ala-S-opt-freq-tsa3-6-31g.chk"
 B after Tr=     0.000000    0.000000    0.000000
         Rot=    0.999991   -0.000177    0.000220   -0.004118 Ang=  -0.47 deg.
 Guess basis will be translated and rotated to current coordinates.
 JPrj=2 DoOrth=T DoCkMO=T.
 Generating alternative initial guess.
 ExpMin= 1.61D-01 ExpMax= 5.48D+03 ExpMxC= 8.25D+02 IAcc=1 IRadAn=         1 AccDes= 0.00D+00
 Harris functional with IExCor=  402 and IRadAn=       1 diagonalized for initial guess.
 HarFok:  IExCor=  402 AccDes= 0.00D+00 IRadAn=         1 IDoV= 1 UseB2=F ITyADJ=14
 ICtDFT=  3500011 ScaDFX=  1.000000  1.000000  1.000000  1.000000
 FoFCou: FMM=F IPFlag=           0 FMFlag=      100000 FMFlg1=           0
         NFxFlg=           0 DoJE=T BraDBF=F KetDBF=T FulRan=T
         wScrn=  0.000000 ICntrl=     500 IOpCl=  0 I1Cent=   200000004 NGrid=           0
         NMat0=    1 NMatS0=      1 NMatT0=    0 NMatD0=    1 NMtDS0=    0 NMtDT0=    0
 Petite list used in FoFCou.
 Harris En= -323.471289250786    
 Leave Link  401 at Wed Apr 13 09:24:35 2016, MaxMem=    33554432 cpu:         0.4
 (Enter /usr/local/gau/g09/l502.exe)
 Closed shell SCF:
 Using DIIS extrapolation, IDIIS=  1040.
 Integral symmetry usage will be decided dynamically.
 Keep R1 ints in memory in canonical form, NReq=3676491.
 IVT=       33364 IEndB=       33364 NGot=    33554432 MDV=    30768038
 LenX=    30768038 LenY=    30762973
 Requested convergence on RMS density matrix=1.00D-08 within 128 cycles.
 Requested convergence on MAX density matrix=1.00D-06.
 Requested convergence on             energy=1.00D-06.
 No special actions if energy rises.
 FoFCou: FMM=F IPFlag=           0 FMFlag=           0 FMFlg1=           0
         NFxFlg=           0 DoJE=F BraDBF=F KetDBF=F FulRan=T
         wScrn=  0.000000 ICntrl=     600 IOpCl=  0 I1Cent=           0 NGrid=           0
         NMat0=    1 NMatS0=   2346 NMatT0=    0 NMatD0=    1 NMtDS0=    0 NMtDT0=    0
 Symmetry not used in FoFCou.
 Integral accuracy reduced to 1.0D-05 until final iterations.

 Cycle   1  Pass 0  IDiag  1:
 E= -323.406526365743    
 DIIS: error= 3.67D-03 at cycle   1 NSaved=   1.
 NSaved= 1 IEnMin= 1 EnMin= -323.406526365743     IErMin= 1 ErrMin= 3.67D-03
 ErrMax= 3.67D-03  0.00D+00 EMaxC= 1.00D-01 BMatC= 3.03D-03 BMatP= 3.03D-03
 IDIUse=3 WtCom= 9.63D-01 WtEn= 3.67D-02
 Coeff-Com:  0.100D+01
 Coeff-En:   0.100D+01
 Coeff:      0.100D+01
 Gap=     0.575 Goal=   None    Shift=    0.000
 GapD=    0.575 DampG=2.000 DampE=1.000 DampFc=2.0000 IDamp=-1.
 RMSDP=2.47D-03 MaxDP=2.18D-02              OVMax= 3.51D-02

 Cycle   2  Pass 0  IDiag  1:
 E= -323.412668128544     Delta-E=       -0.006141762801 Rises=F Damp=F
 DIIS: error= 1.45D-03 at cycle   2 NSaved=   2.
 NSaved= 2 IEnMin= 2 EnMin= -323.412668128544     IErMin= 2 ErrMin= 1.45D-03
 ErrMax= 1.45D-03  0.00D+00 EMaxC= 1.00D-01 BMatC= 1.69D-04 BMatP= 3.03D-03
 IDIUse=3 WtCom= 9.85D-01 WtEn= 1.45D-02
 Coeff-Com:  0.352D-02 0.996D+00
 Coeff-En:   0.000D+00 0.100D+01
 Coeff:      0.347D-02 0.997D+00
 Gap=     0.196 Goal=   None    Shift=    0.000
 RMSDP=7.48D-04 MaxDP=8.86D-03 DE=-6.14D-03 OVMax= 1.52D-02

 Cycle   3  Pass 0  IDiag  1:
 E= -323.412230613693     Delta-E=        0.000437514851 Rises=F Damp=F
 DIIS: error= 4.50D-03 at cycle   3 NSaved=   3.
 NSaved= 3 IEnMin= 2 EnMin= -323.412668128544     IErMin= 2 ErrMin= 1.45D-03
 ErrMax= 4.50D-03  0.00D+00 EMaxC= 1.00D-01 BMatC= 6.99D-04 BMatP= 1.69D-04
 IDIUse=3 WtCom= 1.30D-01 WtEn= 8.70D-01
 Coeff-Com: -0.431D-01 0.712D+00 0.331D+00
 Coeff-En:   0.000D+00 0.737D+00 0.263D+00
 Coeff:     -0.559D-02 0.734D+00 0.272D+00
 Gap=     0.196 Goal=   None    Shift=    0.000
 RMSDP=4.16D-04 MaxDP=5.68D-03 DE= 4.38D-04 OVMax= 1.10D-02

 Cycle   4  Pass 0  IDiag  1:
 E= -323.412873869884     Delta-E=       -0.000643256191 Rises=F Damp=F
 DIIS: error= 3.99D-04 at cycle   4 NSaved=   4.
 NSaved= 4 IEnMin= 4 EnMin= -323.412873869884     IErMin= 4 ErrMin= 3.99D-04
 ErrMax= 3.99D-04  0.00D+00 EMaxC= 1.00D-01 BMatC= 1.33D-05 BMatP= 1.69D-04
 IDIUse=3 WtCom= 9.96D-01 WtEn= 3.99D-03
 Coeff-Com: -0.259D-01 0.335D+00 0.109D+00 0.582D+00
 Coeff-En:   0.000D+00 0.000D+00 0.000D+00 0.100D+01
 Coeff:     -0.258D-01 0.333D+00 0.109D+00 0.583D+00
 Gap=     0.196 Goal=   None    Shift=    0.000
 RMSDP=7.37D-05 MaxDP=8.44D-04 DE=-6.43D-04 OVMax= 1.64D-03

 Cycle   5  Pass 0  IDiag  1:
 E= -323.412884870314     Delta-E=       -0.000011000430 Rises=F Damp=F
 DIIS: error= 1.82D-04 at cycle   5 NSaved=   5.
 NSaved= 5 IEnMin= 5 EnMin= -323.412884870314     IErMin= 5 ErrMin= 1.82D-04
 ErrMax= 1.82D-04  0.00D+00 EMaxC= 1.00D-01 BMatC= 2.15D-06 BMatP= 1.33D-05
 IDIUse=3 WtCom= 9.98D-01 WtEn= 1.82D-03
 Coeff-Com: -0.439D-02 0.205D-01-0.123D-01 0.323D+00 0.674D+00
 Coeff-En:   0.000D+00 0.000D+00 0.000D+00 0.248D-01 0.975D+00
 Coeff:     -0.438D-02 0.205D-01-0.122D-01 0.322D+00 0.674D+00
 Gap=     0.196 Goal=   None    Shift=    0.000
 RMSDP=3.27D-05 MaxDP=2.89D-04 DE=-1.10D-05 OVMax= 5.34D-04

 Cycle   6  Pass 0  IDiag  1:
 E= -323.412886577007     Delta-E=       -0.000001706693 Rises=F Damp=F
 DIIS: error= 4.61D-05 at cycle   6 NSaved=   6.
 NSaved= 6 IEnMin= 6 EnMin= -323.412886577007     IErMin= 6 ErrMin= 4.61D-05
 ErrMax= 4.61D-05  0.00D+00 EMaxC= 1.00D-01 BMatC= 2.48D-07 BMatP= 2.15D-06
 IDIUse=1 WtCom= 1.00D+00 WtEn= 0.00D+00
 Coeff-Com:  0.971D-04-0.175D-01-0.146D-01 0.127D+00 0.365D+00 0.540D+00
 Coeff:      0.971D-04-0.175D-01-0.146D-01 0.127D+00 0.365D+00 0.540D+00
 Gap=     0.196 Goal=   None    Shift=    0.000
 RMSDP=1.09D-05 MaxDP=1.30D-04 DE=-1.71D-06 OVMax= 2.18D-04

 Cycle   7  Pass 0  IDiag  1:
 E= -323.412886788849     Delta-E=       -0.000000211841 Rises=F Damp=F
 DIIS: error= 2.22D-05 at cycle   7 NSaved=   7.
 NSaved= 7 IEnMin= 7 EnMin= -323.412886788849     IErMin= 7 ErrMin= 2.22D-05
 ErrMax= 2.22D-05  0.00D+00 EMaxC= 1.00D-01 BMatC= 2.63D-08 BMatP= 2.48D-07
 IDIUse=1 WtCom= 1.00D+00 WtEn= 0.00D+00
 Coeff-Com:  0.555D-03-0.123D-01-0.464D-02 0.170D-01 0.874D-01 0.281D+00
 Coeff-Com:  0.631D+00
[...]
   D18       -0.72629  -0.00064   0.00000   0.03835   0.03484  -0.69145
   D19        3.07505   0.00337   0.00000  -0.05848  -0.05759   3.01746
   D20       -0.10545   0.00316   0.00000  -0.11840  -0.12269  -0.22814
   D21        0.05962   0.00176   0.00000  -0.17960  -0.17564  -0.11602
   D22        3.11603   0.00050   0.00000  -0.22751  -0.23520   2.88083
   D23        1.31733   0.00264   0.00000  -0.27080  -0.26410   1.05323
   D24       -1.90945   0.00139   0.00000  -0.31871  -0.32365  -2.23310
   D25        2.99774  -0.00001   0.00000   0.03862   0.03589   3.03362
   D26        0.00532  -0.00036   0.00000  -0.01438  -0.01740  -0.01208
   D27        2.90766   0.00367   0.00000   0.01513   0.03478   2.94244
   D28       -0.31964   0.00236   0.00000  -0.03278  -0.02453  -0.34417
   D29       -2.91902   0.00221   0.00000   0.58409   0.55550  -2.36352
   D30       -0.00889   0.00059   0.00000   0.02411   0.02879   0.01990
   D31       -0.31301   0.00198   0.00000  -0.10603  -0.13073  -0.44375
   D32       -2.76596   0.00013   0.00000  -0.11316  -0.11664  -2.88259
         Item               Value     Threshold  Converged?
 Maximum Force            0.007058     0.000450     NO 
 RMS     Force            0.002135     0.000300     NO 
 Maximum Displacement     0.417826     0.001800     NO 
 RMS     Displacement     0.098938     0.001200     NO 
 Predicted change in Energy= 9.338079D-04
 Optimization stopped.
    -- Number of steps exceeded,  NStep=  83
    -- Flag reset to prevent archiving.
                           ----------------------------
                           ! Non-Optimized Parameters !
                           ! (Angstroms and Degrees)  !
 --------------------------                            --------------------------
 ! Name  Definition              Value          Derivative Info.                !
 --------------------------------------------------------------------------------
 ! R1    R(1,2)                  1.0166         -DE/DX =    0.0                 !
 ! R2    R(1,3)                  3.0118         -DE/DX =    0.0027              !
 ! R3    R(1,11)                 1.019          -DE/DX =    0.0018              !
 ! R4    R(3,5)                  1.4409         -DE/DX =    0.0023              !
 ! R5    R(3,6)                  1.4201         -DE/DX =   -0.0019              !
 ! R6    R(3,13)                 2.5655         -DE/DX =    0.0039              !
 ! R7    R(4,12)                 0.9816         -DE/DX =    0.0001              !
 ! R8    R(5,7)                  1.0935         -DE/DX =   -0.0004              !
 ! R9    R(5,8)                  1.0981         -DE/DX =    0.001               !
 ! R10   R(5,9)                  1.1597         -DE/DX =   -0.0022              !
 ! R11   R(6,10)                 1.2663         -DE/DX =   -0.0071              !
 ! R12   R(6,12)                 1.3785         -DE/DX =   -0.0005              !
 ! R13   R(6,13)                 2.6704         -DE/DX =    0.001               !
 ! R14   R(10,13)                2.1277         -DE/DX =   -0.001               !
 ! R15   R(11,13)                1.6626         -DE/DX =    0.0008              !
 ! A1    A(2,1,3)               78.7586         -DE/DX =   -0.0006              !
 ! A2    A(2,1,11)             112.4927         -DE/DX =   -0.0021              !
 ! A3    A(3,1,11)             162.2114         -DE/DX =    0.0059              !
 ! A4    A(1,3,5)               66.5691         -DE/DX =    0.0023              !
 ! A5    A(1,3,6)               97.9044         -DE/DX =   -0.0029              !
 ! A6    A(1,3,13)              19.7297         -DE/DX =   -0.0022              !
 ! A7    A(5,3,6)              124.1112         -DE/DX =   -0.0011              !
 ! A8    A(3,5,7)              121.1698         -DE/DX =   -0.0014              !
 ! A9    A(3,5,8)              111.9894         -DE/DX =    0.0004              !
 ! A10   A(3,5,9)               98.9353         -DE/DX =   -0.0029              !
 ! A11   A(7,5,8)              111.9275         -DE/DX =    0.0015              !
 ! A12   A(7,5,9)              110.0335         -DE/DX =   -0.0011              !
 ! A13   A(8,5,9)               99.7086         -DE/DX =    0.004               !
 ! A14   A(3,6,10)             121.6249         -DE/DX =   -0.0001              !
 ! A15   A(3,6,12)             116.0275         -DE/DX =   -0.0006              !
 ! A16   A(10,6,12)            121.8067         -DE/DX =    0.0007              !
 ! A17   A(1,11,13)             37.2763         -DE/DX =   -0.0055              !
 ! A18   A(4,12,6)             108.9859         -DE/DX =    0.0004              !
 ! A19   A(3,13,10)             59.1206         -DE/DX =   -0.0026              !
 ! A20   A(3,13,11)            140.7657         -DE/DX =    0.0017              !
 ! A21   A(6,13,11)            170.9875         -DE/DX =    0.0013              !
 ! A22   A(10,13,11)           159.6977         -DE/DX =    0.001               !
 ! A23   L(5,3,13,1,-1)         86.2988         -DE/DX =    0.0001              !
 ! A24   L(12,6,13,5,-1)       190.8916         -DE/DX =    0.0005              !
 ! A25   L(5,3,13,1,-2)        244.4858         -DE/DX =   -0.0003              !
 ! A26   L(12,6,13,5,-2)       171.8727         -DE/DX =    0.0005              !
 ! D1    D(2,1,3,5)            115.7331         -DE/DX =    0.0003              !
 ! D2    D(2,1,3,6)           -120.4257         -DE/DX =   -0.0001              !
 ! D3    D(2,1,3,13)          -128.7526         -DE/DX =    0.0006              !
 ! D4    D(11,1,3,5)          -113.1764         -DE/DX =    0.0007              !
 ! D5    D(11,1,3,6)            10.6649         -DE/DX =    0.0003              !
 ! D6    D(11,1,3,13)            2.3379         -DE/DX =    0.001               !
 ! D7    D(2,1,11,13)          124.852          -DE/DX =    0.0013              !
 ! D8    D(3,1,11,13)           -2.0106         -DE/DX =   -0.0009              !
 ! D9    D(1,3,5,7)            107.6515         -DE/DX =   -0.0012              !
 ! D10   D(1,3,5,8)           -116.7097         -DE/DX =    0.0                 !
 ! D11   D(1,3,5,9)            -12.3746         -DE/DX =    0.0032              !
 ! D12   D(6,3,5,7)             24.112          -DE/DX =    0.0003              !
 ! D13   D(6,3,5,8)            159.7508         -DE/DX =    0.0016              !
 ! D14   D(6,3,5,9)            -95.9141         -DE/DX =    0.0047              !
 ! D15   D(7,5,13,10)          -76.5499         -DE/DX =    0.0013              !
 ! D16   D(7,5,13,11)           97.4913         -DE/DX =    0.0011              !
 ! D17   D(8,5,13,10)          146.3417         -DE/DX =   -0.0004              !
 ! D18   D(8,5,13,11)          -39.6172         -DE/DX =   -0.0006              !
 ! D19   D(9,5,13,10)          172.8876         -DE/DX =    0.0034              !
 ! D20   D(9,5,13,11)          -13.0713         -DE/DX =    0.0032              !
 ! D21   D(1,3,6,10)            -6.6477         -DE/DX =    0.0018              !
 ! D22   D(1,3,6,12)           165.0595         -DE/DX =    0.0005              !
 ! D23   D(5,3,6,10)            60.3456         -DE/DX =    0.0026              !
 ! D24   D(5,3,6,12)          -127.9472         -DE/DX =    0.0014              !
 ! D25   D(1,3,13,10)          173.8138         -DE/DX =    0.0                 !
 ! D26   D(1,3,13,11)           -0.6919         -DE/DX =   -0.0004              !
 ! D27   D(3,6,12,4)           168.5895         -DE/DX =    0.0037              !
 ! D28   D(10,6,12,4)          -19.7198         -DE/DX =    0.0024              !
 ! D29   D(4,12,13,11)        -135.4198         -DE/DX =    0.0022              !
 ! D30   D(1,11,13,3)            1.14           -DE/DX =    0.0006              !
 ! D31   D(1,11,13,6)          -25.4248         -DE/DX =    0.002               !
 ! D32   D(1,11,13,10)        -165.1603         -DE/DX =    0.0001              !
 --------------------------------------------------------------------------------
 GradGradGradGradGradGradGradGradGradGradGradGradGradGradGradGradGradGrad

 Largest change from initial coordinates is atom   11       1.646 Angstoms.
 Leave Link  103 at Wed Apr 13 09:45:10 2016, MaxMem=    33554432 cpu:         0.0
 (Enter /usr/local/gau/g09/l202.exe)
                          Input orientation:                          
 ---------------------------------------------------------------------
 Center     Atomic      Atomic             Coordinates (Angstroms)
 Number     Number       Type             X           Y           Z
 ---------------------------------------------------------------------
      1          7           0        1.514818    1.395798    0.099220
      2          1           0        1.613721    1.386678   -0.915991
      3          6           0        0.139926   -1.161343   -0.642258
      4          1           0       -2.902600   -1.613706    0.159504
      5          6           0        1.291289   -1.457991    0.149895
      6          6           0       -1.150427   -0.840931   -0.169868
      7          1           0        1.192092   -1.800671    1.188676
      8          1           0        2.059840   -2.030894   -0.381656
      9          1           0        1.790427   -0.406995    0.161575
     10          8           0       -1.427932    0.298927    0.319912
     11          1           0        1.738300    2.317901    0.458024
     12          8           0       -2.106546   -1.817968   -0.377259
     13          1           0        0.539265    1.176032    0.344282
 ---------------------------------------------------------------------
                    Distance matrix (angstroms):
                    1          2          3          4          5
     1  N    0.000000
     2  H    1.020058   0.000000
     3  C    2.996513   2.956250   0.000000
     4  H    5.345496   5.527762   3.178745   0.000000
     5  C    2.862979   3.054868   1.428685   4.196789   0.000000
     6  C    3.489827   3.627596   1.410967   1.943136   2.538698
     7  H    3.392416   3.842732   2.206380   4.226187   1.098333
     8  H    3.502929   3.487741   2.123700   5.009262   1.096100
     9  H    1.824805   2.099914   1.984777   4.845685   1.163558
    10  O    3.148271   3.458657   2.348689   2.420442   3.241886
    11  H    1.014376   1.664516   3.983787   6.089713   3.814725
    12  O    4.865142   4.939674   2.355423   0.981600   3.457275
    13  H    1.029590   1.669466   2.568279   4.434322   2.746161
                    6          7          8          9         10
     6  C    0.000000
     7  H    2.873002   0.000000
     8  H    3.430260   1.808849   0.000000
     9  H    2.991117   1.831741   1.733416   0.000000
    10  O    1.271286   3.468081   4.252625   3.298671   0.000000
    11  H    4.326339   4.218392   4.440774   2.741471   3.757706
    12  O    1.382670   3.651501   4.171825   4.179424   2.329766
    13  H    2.680960   3.162269   3.622638   2.026022   2.154013
                   11         12         13
    11  H    0.000000
    12  O    5.708411   0.000000
    13  H    1.659665   4.060169   0.000000
 Stoichiometry    C3H7NO2
 Framework group  C1[X(C3H7NO2)]
 Deg. of freedom    33
 Full point group                 C1      NOp   1
 RotChk:  IX=2 Diff= 1.63D-15
 Largest Abelian subgroup         C1      NOp   1
 Largest concise Abelian subgroup C1      NOp   1
                         Standard orientation:                         
 ---------------------------------------------------------------------
 Center     Atomic      Atomic             Coordinates (Angstroms)
 Number     Number       Type             X           Y           Z
 ---------------------------------------------------------------------
      1          7           0        2.472969   -0.685743    0.088077
      2          1           0        2.479953   -0.523480    1.095122
      3          6           0       -0.097644    0.797238    0.502574
      4          1           0       -2.850903   -0.532303   -0.367084
      5          6           0        0.773389    1.583024   -0.312891
      6          6           0       -0.984137   -0.209522    0.065089
      7          1           0        0.581141    1.713301   -1.386392
      8          1           0        1.080983    2.528157    0.149219
      9          1           0        1.753517    0.967562   -0.192792
     10          8           0       -0.579068   -1.363127   -0.283171
     11          1           0        3.176390   -1.375422   -0.153790
     12          8           0       -2.324829    0.118892    0.145489
     13          1           0        1.549667   -1.048173   -0.187992
 ---------------------------------------------------------------------
 Rotational constants (GHZ):      5.1568502      2.1358911      1.5992309
 Leave Link  202 at Wed Apr 13 09:45:10 2016, MaxMem=    33554432 cpu:         0.0
 (Enter /usr/local/gau/g09/l601.exe)
 Copying SCF densities to generalized density rwf, IOpCl= 0 IROHF=0.

 **********************************************************************

            Population analysis using the SCF density.

 **********************************************************************

 Orbital symmetries:
       Occupied  (A) (A) (A) (A) (A) (A) (A) (A) (A) (A) (A) (A)
                 (A) (A) (A) (A) (A) (A) (A) (A) (A) (A) (A) (A)
       Virtual   (A) (A) (A) (A) (A) (A) (A) (A) (A) (A) (A) (A)
                 (A) (A) (A) (A) (A) (A) (A) (A) (A) (A) (A) (A)
                 (A) (A) (A) (A) (A) (A) (A) (A) (A) (A) (A) (A)
                 (A) (A) (A) (A) (A) (A) (A) (A)
 The electronic state is 1-A.
 Alpha  occ. eigenvalues --  -19.18967 -19.14015 -14.32692 -10.32170 -10.24019
 Alpha  occ. eigenvalues --  -10.19877  -1.10042  -1.01198  -0.87568  -0.80507
 Alpha  occ. eigenvalues --   -0.69432  -0.57638  -0.49744  -0.48612  -0.47541
 Alpha  occ. eigenvalues --   -0.46385  -0.45132  -0.41620  -0.40917  -0.38220
 Alpha  occ. eigenvalues --   -0.31079  -0.29066  -0.26212  -0.21478
 Alpha virt. eigenvalues --   -0.09660   0.00952   0.06832   0.08001   0.13372
 Alpha virt. eigenvalues --    0.14887   0.15685   0.18600   0.21306   0.21683
 Alpha virt. eigenvalues --    0.28725   0.36217   0.38565   0.52800   0.54157
 Alpha virt. eigenvalues --    0.55629   0.58375   0.60797   0.63343   0.66009
 Alpha virt. eigenvalues --    0.66990   0.69731   0.72807   0.78355   0.82347
 Alpha virt. eigenvalues --    0.84363   0.86079   0.88946   0.90708   0.91411
 Alpha virt. eigenvalues --    0.92828   0.94712   0.95930   0.98332   1.03601
 Alpha virt. eigenvalues --    1.05408   1.07381   1.13238   1.28101   1.29966
 Alpha virt. eigenvalues --    1.35939   1.50246   1.76251   1.85510
          Condensed to atoms (all electrons):
               1          2          3          4          5          6
     1  N    6.958741   0.308592  -0.001325   0.000002  -0.059386  -0.004754
     2  H    0.308592   0.445605   0.005027   0.000000   0.002046   0.000079
     3  C   -0.001325   0.005027   5.471232   0.010070   0.429222   0.299759
     4  H    0.000002   0.000000   0.010070   0.384396  -0.000391  -0.011251
     5  C   -0.059386   0.002046   0.429222  -0.000391   5.316533  -0.076661
     6  C   -0.004754   0.000079   0.299759  -0.011251  -0.076661   4.815800
     7  H    0.000275   0.000276  -0.056759   0.000012   0.364378  -0.010201
     8  H    0.000823  -0.000356  -0.035909   0.000007   0.346054   0.005673
     9  H    0.080019  -0.007541  -0.021858   0.000005   0.263407  -0.001094
    10  O   -0.011526   0.000222  -0.102566   0.005257   0.001766   0.419061
    11  H    0.313108  -0.027098   0.000220   0.000000   0.001783   0.000117
    12  O   -0.000024   0.000005  -0.109752   0.224910   0.002600   0.163489
    13  H    0.282458  -0.027907  -0.001743  -0.000029  -0.000060   0.004358
               7          8          9         10         11         12
     1  N    0.000275   0.000823   0.080019  -0.011526   0.313108  -0.000024
     2  H    0.000276  -0.000356  -0.007541   0.000222  -0.027098   0.000005
     3  C   -0.056759  -0.035909  -0.021858  -0.102566   0.000220  -0.109752
     4  H    0.000012   0.000007   0.000005   0.005257   0.000000   0.224910
     5  C    0.364378   0.346054   0.263407   0.001766   0.001783   0.002600
     6  C   -0.010201   0.005673  -0.001094   0.419061   0.000117   0.163489
     7  H    0.605488  -0.047146  -0.016857   0.001718  -0.000001   0.000784
     8  H   -0.047146   0.548330  -0.009078  -0.000003  -0.000054  -0.000168
     9  H   -0.016857  -0.009078   0.416441  -0.001060   0.001115  -0.000025
    10  O    0.001718  -0.000003  -0.001060   8.210900   0.000190  -0.094076
    11  H   -0.000001  -0.000054   0.001115   0.000190   0.434656   0.000000
    12  O    0.000784  -0.000168  -0.000025  -0.094076   0.000000   8.366474
    13  H    0.000792   0.000011  -0.011737   0.043123  -0.022966   0.000412
              13
     1  N    0.282458
     2  H   -0.027907
     3  C   -0.001743
     4  H   -0.000029
     5  C   -0.000060
     6  C    0.004358
     7  H    0.000792
     8  H    0.000011
     9  H   -0.011737
    10  O    0.043123
    11  H   -0.022966
    12  O    0.000412
    13  H    0.401678
 Mulliken charges:
               1
     1  N   -0.867004
     2  H    0.301050
     3  C    0.114382
     4  H    0.387010
     5  C   -0.591290
     6  C    0.395625
     7  H    0.157241
     8  H    0.191816
     9  H    0.308264
    10  O   -0.473008
    11  H    0.298930
    12  O   -0.554629
    13  H    0.331611
 Sum of Mulliken charges =   0.00000
 Mulliken charges with hydrogens summed into heavy atoms:
               1
     1  N    0.064587
     3  C    0.114382
     5  C    0.066031
     6  C    0.395625
    10  O   -0.473008
    12  O   -0.167618
 Electronic spatial extent (au):  <R**2>=            744.9516
 Charge=              0.0000 electrons
 Dipole moment (field-independent basis, Debye):
    X=              1.3742    Y=              0.1804    Z=             -0.8477  Tot=              1.6247
 Quadrupole moment (field-independent basis, Debye-Ang):
   XX=            -28.9380   YY=            -36.7195   ZZ=            -37.6553
   XY=             -0.5325   XZ=              5.0802   YZ=             -1.8144
 Traceless Quadrupole moment (field-independent basis, Debye-Ang):
   XX=              5.4996   YY=             -2.2819   ZZ=             -3.2177
   XY=             -0.5325   XZ=              5.0802   YZ=             -1.8144
 Octapole moment (field-independent basis, Debye-Ang**2):
  XXX=             -8.0047  YYY=              0.9822  ZZZ=             -4.0229  XYY=              9.1690
  XXY=            -26.2297  XXZ=             -2.7781  XZZ=              0.6693  YZZ=             -4.4766
  YYZ=             -0.5303  XYZ=             -0.0923
 Hexadecapole moment (field-independent basis, Debye-Ang**3):
 XXXX=           -484.4976 YYYY=           -260.7274 ZZZZ=            -64.6900 XXXY=            -12.4845
 XXXZ=             43.5397 YYYX=             -8.2044 YYYZ=              1.2648 ZZZX=              7.3285
 ZZZY=             -4.6430 XXYY=           -115.3943 XXZZ=            -99.9628 YYZZ=            -55.9464
 XXYZ=              4.1882 YYXZ=             -1.5978 ZZXY=             -1.8442
 N-N= 2.290159758027D+02 E-N=-1.215520584102D+03  KE= 3.217011849787D+02
 No NMR shielding tensors so no spin-rotation constants.
 Leave Link  601 at Wed Apr 13 09:45:11 2016, MaxMem=    33554432 cpu:         0.1
 (Enter /usr/local/gau/g09/l9999.exe)


 CONTRAIWISE...CONTINUED TWEEDLEDEE, IF IT WAS SO, IT MIGHT BE,
 AND IF IT WERE SO, IT WOULD BE.....
 BUT AS IT ISN'T, IT AIN'T....
 THAT'S LOGIC.....
 ALICE THROUGH THE LOOKING GLASS
 Error termination request processed by link 9999.
 Error termination via Lnk1e in /usr/local/gau/g09/l9999.exe at Wed Apr 13 09:45:11 2016.
 Job cpu time:       0 days  0 hours 19 minutes  4.7 seconds.
 File lengths (MBytes):  RWF=     12 Int=      0 D2E=      0 Chk=      2 Scr=      1
