 Entering Gaussian System, Link 0=g09
 Input=Ala-S-opt-freq-tsa3-6-31g.com
 Output=Ala-S-opt-freq-tsa3-6-31g.log
 Initial command:
 /usr/local/gau/g09/l1.exe "/tmp/Gau-3236.inp" -scrdir="/tmp/"
 Entering Link 1 = /usr/local/gau/g09/l1.exe PID=      3238.
  
 Copyright (c) 1988,1990,1992,1993,1995,1998,2003,2009,2013,
            Gaussian, Inc.  All Rights Reserved.
  
 This is part of the Gaussian(R) 09 program.  It is based on
 the Gaussian(R) 03 system (copyright 2003, Gaussian, Inc.),
 the Gaussian(R) 98 system (copyright 1998, Gaussian, Inc.),
 the Gaussian(R) 94 system (copyright 1995, Gaussian, Inc.),
 the Gaussian 92(TM) system (copyright 1992, Gaussian, Inc.),
 the Gaussian 90(TM) system (copyright 1990, Gaussian, Inc.),
 the Gaussian 88(TM) system (copyright 1988, Gaussian, Inc.),
 the Gaussian 86(TM) system (copyright 1986, Carnegie Mellon
 University), and the Gaussian 82(TM) system (copyright 1983,
 Carnegie Mellon University). Gaussian is a federally registered
 trademark of Gaussian, Inc.
  
 This software contains proprietary and confidential information,
 including trade secrets, belonging to Gaussian, Inc.
  
 This software is provided under written license and may be
 used, copied, transmitted, or stored only in accord with that
 written license.
  
 The following legend is applicable only to US Government
 contracts under FAR:
  
                    RESTRICTED RIGHTS LEGEND
  
 Use, reproduction and disclosure by the US Government is
 subject to restrictions as set forth in subparagraphs (a)
 and (c) of the Commercial Computer Software - Restricted
 Rights clause in FAR 52.227-19.
  
 Gaussian, Inc.
 340 Quinnipiac St., Bldg. 40, Wallingford CT 06492
  
  
 ---------------------------------------------------------------
 Warning -- This program may not be used in any manner that
 competes with the business of Gaussian, Inc. or will provide
 assistance to any competitor of Gaussian, Inc.  The licensee
 of this program is prohibited from giving any competitor of
 Gaussian, Inc. access to this program.  By using this program,
 the user acknowledges that Gaussian, Inc. is engaged in the
 business of creating and licensing software in the field of
 computational chemistry and represents and warrants to the
 licensee that it is not a competitor of Gaussian, Inc. and that
 it will not use this program in any manner prohibited above.
 ---------------------------------------------------------------
  

 Cite this work as:
 Gaussian 09, Revision D.01,
 M. J. Frisch, G. W. Trucks, H. B. Schlegel, G. E. Scuseria, 
 M. A. Robb, J. R. Cheeseman, G. Scalmani, V. Barone, B. Mennucci, 
 G. A. Petersson, H. Nakatsuji, M. Caricato, X. Li, H. P. Hratchian, 
 A. F. Izmaylov, J. Bloino, G. Zheng, J. L. Sonnenberg, M. Hada, 
 M. Ehara, K. Toyota, R. Fukuda, J. Hasegawa, M. Ishida, T. Nakajima, 
 Y. Honda, O. Kitao, H. Nakai, T. Vreven, J. A. Montgomery, Jr., 
 J. E. Peralta, F. Ogliaro, M. Bearpark, J. J. Heyd, E. Brothers, 
 K. N. Kudin, V. N. Staroverov, T. Keith, R. Kobayashi, J. Normand, 
 K. Raghavachari, A. Rendell, J. C. Burant, S. S. Iyengar, J. Tomasi, 
 M. Cossi, N. Rega, J. M. Millam, M. Klene, J. E. Knox, J. B. Cross, 
 V. Bakken, C. Adamo, J. Jaramillo, R. Gomperts, R. E. Stratmann, 
 O. Yazyev, A. J. Austin, R. Cammi, C. Pomelli, J. W. Ochterski, 
 R. L. Martin, K. Morokuma, V. G. Zakrzewski, G. A. Voth, 
 P. Salvador, J. J. Dannenberg, S. Dapprich, A. D. Daniels, 
 O. Farkas, J. B. Foresman, J. V. Ortiz, J. Cioslowski, 
 and D. J. Fox, Gaussian, Inc., Wallingford CT, 2013.
 
 ******************************************
 Gaussian 09:  ES64L-G09RevD.01 24-Apr-2013
                14-Apr-2016 
 ******************************************
 %chk=Ala-S-opt-freq-tsa3-6-31g.chk
 ------------------------------------------------
 #p opt=(calcfc,ts) freq rb3lyp/6-31g iop(1/11=1)
 ------------------------------------------------
 1/5=1,10=4,11=1,14=-1,18=20,26=3,38=1/1,3;
 2/9=110,12=2,17=6,18=5,40=1/2;
 3/5=1,6=6,11=2,16=1,25=1,30=1,71=2,74=-5,116=1,140=1/1,2,3;
 4//1;
 5/5=2,38=5/2;
 8/6=4,10=90,11=11/1;
 11/6=1,8=1,9=11,15=111,16=1/1,2,10;
 10/6=1,13=1/2;
 6/7=2,8=2,9=2,10=2,28=1/1;
 7/10=1,18=20,25=1/1,2,3,16;
 1/5=1,10=4,11=1,14=-1,18=20,26=3/3(2);
 2/9=110/2;
 99//99;
 2/9=110/2;
 3/5=1,6=6,11=2,16=1,25=1,30=1,71=1,74=-5,116=1/1,2,3;
 4/5=5,16=3,69=1/1;
 5/5=2,38=5/2;
 7//1,2,3,16;
 1/5=1,11=1,14=-1,18=20,26=3/3(-5);
 2/9=110/2;
 6/7=2,8=2,9=2,10=2,19=2,28=1/1;
 99/9=1/99;
 Leave Link    1 at Thu Apr 14 10:40:24 2016, MaxMem=           0 cpu:         0.0
 (Enter /usr/local/gau/g09/l101.exe)
 -------------------------
 Ala-S-opt-freq-tsa3-6-31g
 -------------------------
 Symbolic Z-matrix:
 Charge =  0 Multiplicity = 1
 N                     1.29269   1.03731   0.2166 
 H                     2.28992   1.11323   0.13413 
 C                     0.67475  -0.21111   0.19136 
 H                    -2.05278  -1.70547  -0.51501 
 C                     1.58278  -1.4092    0.18368 
 C                    -0.82052  -0.32986   0.18414 
 H                     2.2283   -1.41211   1.07234 
 H                     1.00151  -2.3317    0.1807 
 H                     2.238    -1.40215  -0.69885 
 O                    -1.6298    0.82135   0.09284 
 H                     0.73035   1.86509   0.11987 
 O                    -1.51077  -1.54539   0.28825 
 H                    -0.20587   0.26963  -0.92167 
 
 Add virtual bond connecting atoms H13        and C3         Dist= 2.83D+00.
 Add virtual bond connecting atoms H13        and C6         Dist= 2.65D+00.
 NAtoms=     13 NQM=       13 NQMF=       0 NMMI=      0 NMMIF=      0
                NMic=       0 NMicF=      0.
                    Isotopes and Nuclear Properties:
 (Nuclear quadrupole moments (NQMom) in fm**2, nuclear magnetic moments (NMagM)
  in nuclear magnetons)

  Atom         1           2           3           4           5           6           7           8           9          10
 IAtWgt=          14           1          12           1          12          12           1           1           1          16
 AtmWgt=  14.0030740   1.0078250  12.0000000   1.0078250  12.0000000  12.0000000   1.0078250   1.0078250   1.0078250  15.9949146
 NucSpn=           2           1           0           1           0           0           1           1           1           0
 AtZEff=   0.0000000   0.0000000   0.0000000   0.0000000   0.0000000   0.0000000   0.0000000   0.0000000   0.0000000   0.0000000
 NQMom=    2.0440000   0.0000000   0.0000000   0.0000000   0.0000000   0.0000000   0.0000000   0.0000000   0.0000000   0.0000000
 NMagM=    0.4037610   2.7928460   0.0000000   2.7928460   0.0000000   0.0000000   2.7928460   2.7928460   2.7928460   0.0000000
 AtZNuc=   7.0000000   1.0000000   6.0000000   1.0000000   6.0000000   6.0000000   1.0000000   1.0000000   1.0000000   8.0000000

  Atom        11          12          13
 IAtWgt=           1          16           1
 AtmWgt=   1.0078250  15.9949146   1.0078250
 NucSpn=           1           0           1
 AtZEff=   0.0000000   0.0000000   0.0000000
 NQMom=    0.0000000   0.0000000   0.0000000
 NMagM=    2.7928460   0.0000000   2.7928460
 AtZNuc=   1.0000000   8.0000000   1.0000000
 Leave Link  101 at Thu Apr 14 10:40:24 2016, MaxMem=    33554432 cpu:         0.1
 (Enter /usr/local/gau/g09/l103.exe)

 GradGradGradGradGradGradGradGradGradGradGradGradGradGradGradGradGradGrad
 Berny optimization.
 Initialization pass.
                           ----------------------------
                           !    Initial Parameters    !
                           ! (Angstroms and Degrees)  !
 --------------------------                            --------------------------
 ! Name  Definition              Value          Derivative Info.                !
 --------------------------------------------------------------------------------
 ! R1    R(1,2)                  1.0035         calculate D2E/DX2 analytically  !
 ! R2    R(1,3)                  1.3932         calculate D2E/DX2 analytically  !
 ! R3    R(1,11)                 1.0054         calculate D2E/DX2 analytically  !
 ! R4    R(3,5)                  1.5033         calculate D2E/DX2 analytically  !
 ! R5    R(3,6)                  1.5            calculate D2E/DX2 analytically  !
 ! R6    R(3,13)                 1.4985         calculate D2E/DX2 analytically  !
 ! R7    R(4,12)                 0.9822         calculate D2E/DX2 analytically  !
 ! R8    R(5,7)                  1.0984         calculate D2E/DX2 analytically  !
 ! R9    R(5,8)                  1.0904         calculate D2E/DX2 analytically  !
 ! R10   R(5,9)                  1.0992         calculate D2E/DX2 analytically  !
 ! R11   R(6,10)                 1.4102         calculate D2E/DX2 analytically  !
 ! R12   R(6,12)                 1.4017         calculate D2E/DX2 analytically  !
 ! R13   R(6,13)                 1.4            calculate D2E/DX2 analytically  !
 ! A1    A(2,1,3)              120.4689         calculate D2E/DX2 analytically  !
 ! A2    A(2,1,11)             119.0538         calculate D2E/DX2 analytically  !
 ! A3    A(3,1,11)             119.2059         calculate D2E/DX2 analytically  !
 ! A4    A(1,3,5)              116.508          calculate D2E/DX2 analytically  !
 ! A5    A(1,3,6)              120.8748         calculate D2E/DX2 analytically  !
 ! A6    A(1,3,13)              89.2341         calculate D2E/DX2 analytically  !
 ! A7    A(5,3,6)              122.6153         calculate D2E/DX2 analytically  !
 ! A8    A(5,3,13)             127.362          calculate D2E/DX2 analytically  !
 ! A9    A(3,5,7)              110.6686         calculate D2E/DX2 analytically  !
 ! A10   A(3,5,8)              110.6273         calculate D2E/DX2 analytically  !
 ! A11   A(3,5,9)              111.0413         calculate D2E/DX2 analytically  !
 ! A12   A(7,5,8)              108.2564         calculate D2E/DX2 analytically  !
 ! A13   A(7,5,9)              107.4144         calculate D2E/DX2 analytically  !
 ! A14   A(8,5,9)              108.7238         calculate D2E/DX2 analytically  !
 ! A15   A(3,6,10)             120.5154         calculate D2E/DX2 analytically  !
 ! A16   A(3,6,12)             123.9986         calculate D2E/DX2 analytically  !
 ! A17   A(10,6,12)            115.4764         calculate D2E/DX2 analytically  !
 ! A18   A(10,6,13)             81.4453         calculate D2E/DX2 analytically  !
 ! A19   A(12,6,13)            130.2549         calculate D2E/DX2 analytically  !
 ! A20   A(4,12,6)             110.6311         calculate D2E/DX2 analytically  !
 ! D1    D(2,1,3,5)              6.2762         calculate D2E/DX2 analytically  !
 ! D2    D(2,1,3,6)           -174.2135         calculate D2E/DX2 analytically  !
 ! D3    D(2,1,3,13)          -125.9093         calculate D2E/DX2 analytically  !
 ! D4    D(11,1,3,5)           173.2777         calculate D2E/DX2 analytically  !
 ! D5    D(11,1,3,6)            -7.2119         calculate D2E/DX2 analytically  !
 ! D6    D(11,1,3,13)           41.0922         calculate D2E/DX2 analytically  !
 ! D7    D(1,3,5,7)             59.0596         calculate D2E/DX2 analytically  !
 ! D8    D(1,3,5,8)            179.0434         calculate D2E/DX2 analytically  !
 ! D9    D(1,3,5,9)            -60.1392         calculate D2E/DX2 analytically  !
 ! D10   D(6,3,5,7)           -120.4415         calculate D2E/DX2 analytically  !
 ! D11   D(6,3,5,8)             -0.4577         calculate D2E/DX2 analytically  !
 ! D12   D(6,3,5,9)            120.3597         calculate D2E/DX2 analytically  !
 ! D13   D(13,3,5,7)           170.2833         calculate D2E/DX2 analytically  !
 ! D14   D(13,3,5,8)           -69.7329         calculate D2E/DX2 analytically  !
 ! D15   D(13,3,5,9)            51.0845         calculate D2E/DX2 analytically  !
 ! D16   D(1,3,6,10)             5.1914         calculate D2E/DX2 analytically  !
 ! D17   D(1,3,6,12)          -173.6291         calculate D2E/DX2 analytically  !
 ! D18   D(5,3,6,10)          -175.3288         calculate D2E/DX2 analytically  !
 ! D19   D(5,3,6,12)             5.8507         calculate D2E/DX2 analytically  !
 ! D20   D(3,6,12,4)          -118.4765         calculate D2E/DX2 analytically  !
 ! D21   D(10,6,12,4)           62.649          calculate D2E/DX2 analytically  !
 ! D22   D(13,6,12,4)          -38.1593         calculate D2E/DX2 analytically  !
 --------------------------------------------------------------------------------
 Trust Radius=3.00D-01 FncErr=1.00D-07 GrdErr=1.00D-06
 Number of steps in this run=     65 maximum allowed number of steps=    100.
 Search for a saddle point of order  1.
 GradGradGradGradGradGradGradGradGradGradGradGradGradGradGradGradGradGrad

 Leave Link  103 at Thu Apr 14 10:40:24 2016, MaxMem=    33554432 cpu:         0.0
 (Enter /usr/local/gau/g09/l202.exe)
                          Input orientation:                          
 ---------------------------------------------------------------------
 Center     Atomic      Atomic             Coordinates (Angstroms)
 Number     Number       Type             X           Y           Z
 ---------------------------------------------------------------------
      1          7           0        1.292695    1.037309    0.216596
      2          1           0        2.289925    1.113235    0.134132
      3          6           0        0.674754   -0.211111    0.191362
      4          1           0       -2.052781   -1.705466   -0.515009
      5          6           0        1.582780   -1.409195    0.183682
      6          6           0       -0.820521   -0.329858    0.184140
      7          1           0        2.228297   -1.412107    1.072338
      8          1           0        1.001513   -2.331703    0.180702
      9          1           0        2.238005   -1.402145   -0.698847
     10          8           0       -1.629802    0.821349    0.092838
     11          1           0        0.730347    1.865093    0.119874
     12          8           0       -1.510769   -1.545389    0.288246
     13          1           0       -0.205871    0.269630   -0.921672
 ---------------------------------------------------------------------
                    Distance matrix (angstroms):
                    1          2          3          4          5
     1  N    0.000000
     2  H    1.003510   0.000000
     3  C    1.393212   2.089484   0.000000
     4  H    4.387513   5.217811   3.189279   0.000000
     5  C    2.463862   2.620145   1.503321   3.713926   0.000000
     6  C    2.517117   3.429270   1.500000   1.974733   2.634545
     7  H    2.758131   2.694695   2.152210   4.575299   1.098367
     8  H    3.381762   3.678284   2.145646   3.194511   1.090367
     9  H    2.771747   2.650224   2.157496   4.305420   1.099194
    10  O    2.933077   3.930797   2.527184   2.633094   3.912067
    11  H    1.005394   1.731409   2.078178   4.571407   3.384032
    12  O    3.812462   4.640830   2.562458   0.982151   3.098310
    13  H    2.032408   2.838201   1.498484   2.734493   2.690637
                    6          7          8          9         10
     6  C    0.000000
     7  H    3.354914   0.000000
     8  H    2.706881   1.773604   0.000000
     9  H    3.359174   1.771240   1.779493   0.000000
    10  O    1.410159   4.564283   4.107710   4.531073   0.000000
    11  H    2.688332   3.727074   4.205987   3.690282   2.580782
    12  O    1.401712   3.822719   2.634657   3.879198   2.377772
    13  H    1.400000   3.567840   3.072448   2.969345   1.833359
                   11         12         13
    11  H    0.000000
    12  O    4.084401   0.000000
    13  H    2.122928   2.541840   0.000000
 Stoichiometry    C3H7NO2
 Framework group  C1[X(C3H7NO2)]
 Deg. of freedom    33
 Full point group                 C1      NOp   1
 Largest Abelian subgroup         C1      NOp   1
 Largest concise Abelian subgroup C1      NOp   1
                         Standard orientation:                         
 ---------------------------------------------------------------------
 Center     Atomic      Atomic             Coordinates (Angstroms)
 Number     Number       Type             X           Y           Z
 ---------------------------------------------------------------------
      1          7           0        1.427149   -1.206945   -0.073809
      2          1           0        2.425629   -1.200538    0.026329
      3          6           0        0.704863   -0.016478   -0.027625
      4          1           0       -2.151865    1.221307    0.664105
      5          6           0        1.507366    1.253427    0.029880
      6          6           0       -0.794990   -0.024891   -0.046846
      7          1           0        2.165716    1.335967   -0.845433
      8          1           0        0.849740    2.123008    0.045882
      9          1           0        2.145300    1.276965    0.924706
     10          8           0       -1.504839   -1.242541   -0.002223
     11          1           0        0.935681   -2.081725   -0.010282
     12          8           0       -1.584251    1.130346   -0.132237
     13          1           0       -0.150960   -0.601153    1.054584
 ---------------------------------------------------------------------
 Rotational constants (GHZ):      4.8818177      2.9661450      1.8935386
 Leave Link  202 at Thu Apr 14 10:40:24 2016, MaxMem=    33554432 cpu:         0.0
 (Enter /usr/local/gau/g09/l301.exe)
 Standard basis: 6-31G (6D, 7F)
 Ernie: Thresh=  0.10000D-02 Tol=  0.10000D-05 Strict=F.
 There are    68 symmetry adapted cartesian basis functions of A   symmetry.
 There are    68 symmetry adapted basis functions of A   symmetry.
    68 basis functions,   160 primitive gaussians,    68 cartesian basis functions
    24 alpha electrons       24 beta electrons
       nuclear repulsion energy       240.8005503310 Hartrees.
 IExCor=  402 DFT=T Ex+Corr=B3LYP ExCW=0 ScaHFX=  0.200000
 ScaDFX=  0.800000  0.720000  1.000000  0.810000 ScalE2=  1.000000  1.000000
 IRadAn=      0 IRanWt=     -1 IRanGd=            0 ICorTp=0 IEmpDi=  4
 NAtoms=   13 NActive=   13 NUniq=   13 SFac= 1.00D+00 NAtFMM=   60 NAOKFM=F Big=F
 Integral buffers will be    131072 words long.
 Raffenetti 2 integral format.
 Two-electron integral symmetry is turned on.
 Leave Link  301 at Thu Apr 14 10:40:24 2016, MaxMem=    33554432 cpu:         0.0
 (Enter /usr/local/gau/g09/l302.exe)
 NPDir=0 NMtPBC=     1 NCelOv=     1 NCel=       1 NClECP=     1 NCelD=      1
         NCelK=      1 NCelE2=     1 NClLst=     1 CellRange=     0.0.
 One-electron integrals computed using PRISM.
 NBasis=    68 RedAO= T EigKep=  3.92D-03  NBF=    68
 NBsUse=    68 1.00D-06 EigRej= -1.00D+00 NBFU=    68
 Precomputing XC quadrature grid using
 IXCGrd= 4 IRadAn=           0 IRanWt=          -1 IRanGd=           0 AccXCQ= 0.00D+00.
 Generated NRdTot=       0 NPtTot=           0 NUsed=           0 NTot=          32
 NSgBfM=    68    68    68    68    68 MxSgAt=    13 MxSgA2=    13.
 Leave Link  302 at Thu Apr 14 10:40:24 2016, MaxMem=    33554432 cpu:         0.2
 (Enter /usr/local/gau/g09/l303.exe)
 DipDrv:  MaxL=1.
 Leave Link  303 at Thu Apr 14 10:40:24 2016, MaxMem=    33554432 cpu:         0.0
 (Enter /usr/local/gau/g09/l401.exe)
 ExpMin= 1.61D-01 ExpMax= 5.48D+03 ExpMxC= 8.25D+02 IAcc=1 IRadAn=         1 AccDes= 0.00D+00
 Harris functional with IExCor=  402 and IRadAn=       1 diagonalized for initial guess.
 HarFok:  IExCor=  402 AccDes= 0.00D+00 IRadAn=         1 IDoV= 1 UseB2=F ITyADJ=14
 ICtDFT=  3500011 ScaDFX=  1.000000  1.000000  1.000000  1.000000
 FoFCou: FMM=F IPFlag=           0 FMFlag=      100000 FMFlg1=           0
         NFxFlg=           0 DoJE=T BraDBF=F KetDBF=T FulRan=T
         wScrn=  0.000000 ICntrl=     500 IOpCl=  0 I1Cent=   200000004 NGrid=           0
         NMat0=    1 NMatS0=      1 NMatT0=    0 NMatD0=    1 NMtDS0=    0 NMtDT0=    0
 Petite list used in FoFCou.
 Harris En= -323.561151076893    
 JPrj=0 DoOrth=F DoCkMO=F.
 Leave Link  401 at Thu Apr 14 10:40:25 2016, MaxMem=    33554432 cpu:         0.5
 (Enter /usr/local/gau/g09/l502.exe)
 Closed shell SCF:
 Using DIIS extrapolation, IDIIS=  1040.
 Integral symmetry usage will be decided dynamically.
 Keep R1 ints in memory in canonical form, NReq=3676491.
 IVT=       33364 IEndB=       33364 NGot=    33554432 MDV=    30768038
 LenX=    30768038 LenY=    30762973
 Requested convergence on RMS density matrix=1.00D-08 within 128 cycles.
 Requested convergence on MAX density matrix=1.00D-06.
 Requested convergence on             energy=1.00D-06.
 No special actions if energy rises.
 FoFCou: FMM=F IPFlag=           0 FMFlag=           0 FMFlg1=           0
         NFxFlg=           0 DoJE=F BraDBF=F KetDBF=F FulRan=T
         wScrn=  0.000000 ICntrl=     600 IOpCl=  0 I1Cent=           0 NGrid=           0
         NMat0=    1 NMatS0=   2346 NMatT0=    0 NMatD0=    1 NMtDS0=    0 NMtDT0=    0
 Symmetry not used in FoFCou.
 Integral accuracy reduced to 1.0D-05 until final iterations.

 Cycle   1  Pass 0  IDiag  1:
 E= -323.221040673007    
 DIIS: error= 4.18D-02 at cycle   1 NSaved=   1.
 NSaved= 1 IEnMin= 1 EnMin= -323.221040673007     IErMin= 1 ErrMin= 4.18D-02
 ErrMax= 4.18D-02  0.00D+00 EMaxC= 1.00D-01 BMatC= 2.87D-01 BMatP= 2.87D-01
 IDIUse=3 WtCom= 5.82D-01 WtEn= 4.18D-01
 Coeff-Com:  0.100D+01
 Coeff-En:   0.100D+01
 Coeff:      0.100D+01
 Gap=     0.107 Goal=   None    Shift=    0.000
 GapD=    0.107 DampG=1.000 DampE=0.500 DampFc=0.5000 IDamp=-1.
 Damping current iteration by 5.00D-01
 RMSDP=3.90D-02 MaxDP=8.59D-01              OVMax= 7.82D-01

 Cycle   2  Pass 0  IDiag  1:
 E= -322.796744529016     Delta-E=        0.424296143991 Rises=F Damp=T
 DIIS: error= 6.60D-02 at cycle   2 NSaved=   2.
 NSaved= 2 IEnMin= 1 EnMin= -323.221040673007     IErMin= 1 ErrMin= 4.18D-02
 ErrMax= 6.60D-02  0.00D+00 EMaxC= 1.00D-01 BMatC= 2.96D-01 BMatP= 2.87D-01
 IDIUse=3 WtCom= 3.40D-01 WtEn= 6.60D-01
 Coeff-Com:  0.505D+00 0.495D+00
 Coeff-En:   0.753D+00 0.247D+00
 Coeff:      0.669D+00 0.331D+00
 Gap=     0.008 Goal=   None    Shift=    0.000
 RMSDP=1.71D-02 MaxDP=3.57D-01 DE= 4.24D-01 OVMax= 7.34D-01

 Cycle   3  Pass 0  IDiag  1:
 E= -323.356740275351     Delta-E=       -0.559995746335 Rises=F Damp=F
 DIIS: error= 3.37D-02 at cycle   3 NSaved=   3.
 NSaved= 3 IEnMin= 3 EnMin= -323.356740275351     IErMin= 3 ErrMin= 3.37D-02
 ErrMax= 3.37D-02  0.00D+00 EMaxC= 1.00D-01 BMatC= 1.31D-01 BMatP= 2.87D-01
 IDIUse=3 WtCom= 6.63D-01 WtEn= 3.37D-01
 Coeff-Com:  0.347D+00 0.251D+00 0.402D+00
 Coeff-En:   0.297D+00 0.000D+00 0.703D+00
 Coeff:      0.330D+00 0.166D+00 0.504D+00
 Gap=     0.178 Goal=   None    Shift=    0.000
 RMSDP=7.71D-03 MaxDP=9.71D-02 DE=-5.60D-01 OVMax= 2.11D-01

 Cycle   4  Pass 0  IDiag  1:
 E= -323.449690645812     Delta-E=       -0.092950370461 Rises=F Damp=F
 DIIS: error= 2.76D-02 at cycle   4 NSaved=   4.
 NSaved= 4 IEnMin= 4 EnMin= -323.449690645812     IErMin= 4 ErrMin= 2.76D-02
 ErrMax= 2.76D-02  0.00D+00 EMaxC= 1.00D-01 BMatC= 3.38D-02 BMatP= 1.31D-01
 IDIUse=3 WtCom= 7.24D-01 WtEn= 2.76D-01
 Coeff-Com:  0.169D+00 0.200D-01 0.332D+00 0.478D+00
 Coeff-En:   0.000D+00 0.000D+00 0.213D+00 0.787D+00
 Coeff:      0.123D+00 0.145D-01 0.299D+00 0.564D+00
 Gap=     0.175 Goal=   None    Shift=    0.000
 RMSDP=4.33D-03 MaxDP=5.42D-02 DE=-9.30D-02 OVMax= 1.36D-01

 Cycle   5  Pass 0  IDiag  1:
 E= -323.475964336569     Delta-E=       -0.026273690757 Rises=F Damp=F
 DIIS: error= 1.12D-02 at cycle   5 NSaved=   5.
 NSaved= 5 IEnMin= 5 EnMin= -323.475964336569     IErMin= 5 ErrMin= 1.12D-02
 ErrMax= 1.12D-02  0.00D+00 EMaxC= 1.00D-01 BMatC= 6.02D-03 BMatP= 3.38D-02
 IDIUse=3 WtCom= 8.88D-01 WtEn= 1.12D-01
 Coeff-Com: -0.163D-01 0.207D-02 0.505D-01 0.308D+00 0.656D+00
 Coeff-En:   0.000D+00 0.000D+00 0.000D+00 0.208D+00 0.792D+00
 Coeff:     -0.145D-01 0.184D-02 0.448D-01 0.297D+00 0.671D+00
 Gap=     0.167 Goal=   None    Shift=    0.000
 RMSDP=1.46D-03 MaxDP=2.08D-02 DE=-2.63D-02 OVMax= 4.59D-02

 Cycle   6  Pass 0  IDiag  1:
 E= -323.481449792093     Delta-E=       -0.005485455524 Rises=F Damp=F
 DIIS: error= 1.16D-03 at cycle   6 NSaved=   6.
 NSaved= 6 IEnMin= 6 EnMin= -323.481449792093     IErMin= 6 ErrMin= 1.16D-03
 ErrMax= 1.16D-03  0.00D+00 EMaxC= 1.00D-01 BMatC= 1.14D-04 BMatP= 6.02D-03
 IDIUse=3 WtCom= 9.88D-01 WtEn= 1.16D-02
 Coeff-Com: -0.829D-02-0.358D-02 0.605D-02 0.836D-01 0.259D+00 0.664D+00
 Coeff-En:   0.000D+00 0.000D+00 0.000D+00 0.000D+00 0.000D+00 0.100D+01
 Coeff:     -0.819D-02-0.354D-02 0.598D-02 0.826D-01 0.256D+00 0.668D+00
 Gap=     0.168 Goal=   None    Shift=    0.000
 RMSDP=1.84D-04 MaxDP=2.96D-03 DE=-5.49D-03 OVMax= 4.92D-03

 Cycle   7  Pass 0  IDiag  1:
 E= -323.481555567819     Delta-E=       -0.000105775727 Rises=F Damp=F
 DIIS: error= 2.77D-04 at cycle   7 NSaved=   7.
 NSaved= 7 IEnMin= 7 EnMin= -323.481555567819     IErMin= 7 ErrMin= 2.77D-04
 ErrMax= 2.77D-04  0.00D+00 EMaxC= 1.00D-01 BMatC= 6.95D-06 BMatP= 1.14D-04
 IDIUse=3 WtCom= 9.97D-01 WtEn= 2.77D-03
 Coeff-Com: -0.549D-04-0.115D-02-0.225D-02-0.391D-02 0.380D-01 0.341D+00
 Coeff-Com:  0.628D+00
 Coeff-En:   0.000D+00 0.000D+00 0.000D+00 0.000D+00 0.000D+00 0.000D+00
 Coeff-En:   0.100D+01
 Coeff:     -0.547D-04-0.115D-02-0.224D-02-0.390D-02 0.379D-01 0.340D+00
 Coeff:      0.629D+00
 Gap=     0.169 Goal=   None    Shift=    0.000
 RMSDP=5.17D-05 MaxDP=5.38D-04 DE=-1.06D-04 OVMax= 7.06D-04

 Cycle   8  Pass 0  IDiag  1:
 E= -323.481562720891     Delta-E=       -0.000007153071 Rises=F Damp=F
 DIIS: error= 5.70D-05 at cycle   8 NSaved=   8.
 NSaved= 8 IEnMin= 8 EnMin= -323.481562720891     IErMin= 8 ErrMin= 5.70D-05
 ErrMax= 5.70D-05  0.00D+00 EMaxC= 1.00D-01 BMatC= 3.17D-07 BMatP= 6.95D-06
 IDIUse=1 WtCom= 1.00D+00 WtEn= 0.00D+00
 Coeff-Com:  0.574D-03-0.478D-03-0.853D-03-0.499D-02 0.760D-02 0.129D+00
 Coeff-Com:  0.268D+00 0.601D+00
 Coeff:      0.574D-03-0.478D-03-0.853D-03-0.499D-02 0.760D-02 0.129D+00
 Coeff:      0.268D+00 0.601D+00
 Gap=     0.169 Goal=   None    Shift=    0.000
 RMSDP=1.14D-05 MaxDP=1.34D-04 DE=-7.15D-06 OVMax= 1.94D-04

 Cycle   9  Pass 0  IDiag  1:
 E= -323.481563001238     Delta-E=       -0.000000280347 Rises=F Damp=F
 DIIS: error= 2.77D-05 at cycle   9 NSaved=   9.
 NSaved= 9 IEnMin= 9 EnMin= -323.481563001238     IErMin= 9 ErrMin= 2.77D-05
 ErrMax= 2.77D-05  0.00D+00 EMaxC= 1.00D-01 BMatC= 5.71D-08 BMatP= 3.17D-07
 IDIUse=1 WtCom= 1.00D+00 WtEn= 0.00D+00
 Coeff-Com:  0.272D-03-0.101D-03-0.375D-04-0.178D-02-0.259D-02 0.903D-03
 Coeff-Com:  0.281D-02 0.302D+00 0.698D+00
 Coeff:      0.272D-03-0.101D-03-0.375D-04-0.178D-02-0.259D-02 0.903D-03
 Coeff:      0.281D-02 0.302D+00 0.698D+00
 Gap=     0.169 Goal=   None    Shift=    0.000
 RMSDP=6.11D-06 MaxDP=8.53D-05 DE=-2.80D-07 OVMax= 1.52D-04

 Initial convergence to 1.0D-05 achieved.  Increase integral accuracy.
 Cycle  10  Pass 1  IDiag  1:
 E= -323.481628223614     Delta-E=       -0.000065222376 Rises=F Damp=F
 DIIS: error= 1.07D-05 at cycle   1 NSaved=   1.
 NSaved= 1 IEnMin= 1 EnMin= -323.481628223614     IErMin= 1 ErrMin= 1.07D-05
 ErrMax= 1.07D-05  0.00D+00 EMaxC= 1.00D-01 BMatC= 1.82D-08 BMatP= 1.82D-08
 IDIUse=1 WtCom= 1.00D+00 WtEn= 0.00D+00
 Coeff-Com:  0.100D+01
 Coeff:      0.100D+01
 Gap=     0.169 Goal=   None    Shift=    0.000
 RMSDP=6.11D-06 MaxDP=8.53D-05 DE=-6.52D-05 OVMax= 5.92D-05

 Cycle  11  Pass 1  IDiag  1:
 E= -323.481628238655     Delta-E=       -0.000000015041 Rises=F Damp=F
 DIIS: error= 1.56D-05 at cycle   2 NSaved=   2.
 NSaved= 2 IEnMin= 2 EnMin= -323.481628238655     IErMin= 1 ErrMin= 1.07D-05
 ErrMax= 1.56D-05  0.00D+00 EMaxC= 1.00D-01 BMatC= 1.75D-08 BMatP= 1.82D-08
 IDIUse=1 WtCom= 1.00D+00 WtEn= 0.00D+00
 Coeff-Com:  0.494D+00 0.506D+00
 Coeff:      0.494D+00 0.506D+00
 Gap=     0.169 Goal=   None    Shift=    0.000
 RMSDP=2.75D-06 MaxDP=3.02D-05 DE=-1.50D-08 OVMax= 4.19D-05

 Cycle  12  Pass 1  IDiag  1:
 E= -323.481628249735     Delta-E=       -0.000000011079 Rises=F Damp=F
 DIIS: error= 8.99D-06 at cycle   3 NSaved=   3.
 NSaved= 3 IEnMin= 3 EnMin= -323.481628249735     IErMin= 3 ErrMin= 8.99D-06
 ErrMax= 8.99D-06  0.00D+00 EMaxC= 1.00D-01 BMatC= 4.47D-09 BMatP= 1.75D-08
 IDIUse=1 WtCom= 1.00D+00 WtEn= 0.00D+00
 Coeff-Com:  0.551D-01 0.327D+00 0.618D+00
 Coeff:      0.551D-01 0.327D+00 0.618D+00
 Gap=     0.169 Goal=   None    Shift=    0.000
 RMSDP=1.72D-06 MaxDP=2.42D-05 DE=-1.11D-08 OVMax= 4.46D-05

 Cycle  13  Pass 1  IDiag  1:
 E= -323.481628250967     Delta-E=       -0.000000001232 Rises=F Damp=F
 DIIS: error= 6.69D-06 at cycle   4 NSaved=   4.
 NSaved= 4 IEnMin= 4 EnMin= -323.481628250967     IErMin= 4 ErrMin= 6.69D-06
 ErrMax= 6.69D-06  0.00D+00 EMaxC= 1.00D-01 BMatC= 2.48D-09 BMatP= 4.47D-09
 IDIUse=1 WtCom= 1.00D+00 WtEn= 0.00D+00
 Coeff-Com: -0.202D-01 0.193D+00 0.498D+00 0.329D+00
 Coeff:     -0.202D-01 0.193D+00 0.498D+00 0.329D+00
 Gap=     0.169 Goal=   None    Shift=    0.000
 RMSDP=9.73D-07 MaxDP=1.39D-05 DE=-1.23D-09 OVMax= 2.77D-05

 Cycle  14  Pass 1  IDiag  1:
 E= -323.481628253318     Delta-E=       -0.000000002351 Rises=F Damp=F
 DIIS: error= 8.33D-07 at cycle   5 NSaved=   5.
 NSaved= 5 IEnMin= 5 EnMin= -323.481628253318     IErMin= 5 ErrMin= 8.33D-07
 ErrMax= 8.33D-07  0.00D+00 EMaxC= 1.00D-01 BMatC= 4.57D-11 BMatP= 2.48D-09
 IDIUse=1 WtCom= 1.00D+00 WtEn= 0.00D+00
 Coeff-Com: -0.143D-01 0.870D-01 0.236D+00 0.185D+00 0.506D+00
 Coeff:     -0.143D-01 0.870D-01 0.236D+00 0.185D+00 0.506D+00
 Gap=     0.169 Goal=   None    Shift=    0.000
 RMSDP=1.74D-07 MaxDP=2.80D-06 DE=-2.35D-09 OVMax= 3.29D-06

 Cycle  15  Pass 1  IDiag  1:
 E= -323.481628253366     Delta-E=       -0.000000000049 Rises=F Damp=F
 DIIS: error= 1.64D-07 at cycle   6 NSaved=   6.
 NSaved= 6 IEnMin= 6 EnMin= -323.481628253366     IErMin= 6 ErrMin= 1.64D-07
 ErrMax= 1.64D-07  0.00D+00 EMaxC= 1.00D-01 BMatC= 3.04D-12 BMatP= 4.57D-11
 IDIUse=1 WtCom= 1.00D+00 WtEn= 0.00D+00
 Coeff-Com: -0.459D-02 0.222D-01 0.606D-01 0.526D-01 0.249D+00 0.620D+00
 Coeff:     -0.459D-02 0.222D-01 0.606D-01 0.526D-01 0.249D+00 0.620D+00
 Gap=     0.169 Goal=   None    Shift=    0.000
 RMSDP=3.25D-08 MaxDP=4.31D-07 DE=-4.88D-11 OVMax= 5.50D-07

 Cycle  16  Pass 1  IDiag  1:
 E= -323.481628253369     Delta-E=       -0.000000000002 Rises=F Damp=F
 DIIS: error= 5.44D-08 at cycle   7 NSaved=   7.
 NSaved= 7 IEnMin= 7 EnMin= -323.481628253369     IErMin= 7 ErrMin= 5.44D-08
 ErrMax= 5.44D-08  0.00D+00 EMaxC= 1.00D-01 BMatC= 2.52D-13 BMatP= 3.04D-12
 IDIUse=1 WtCom= 1.00D+00 WtEn= 0.00D+00
 Coeff-Com: -0.410D-03 0.243D-03-0.613D-04 0.555D-03 0.616D-01 0.266D+00
 Coeff-Com:  0.672D+00
 Coeff:     -0.410D-03 0.243D-03-0.613D-04 0.555D-03 0.616D-01 0.266D+00
 Coeff:      0.672D+00
 Gap=     0.169 Goal=   None    Shift=    0.000
 RMSDP=1.31D-08 MaxDP=1.58D-07 DE=-2.39D-12 OVMax= 2.33D-07

 Cycle  17  Pass 1  IDiag  1:
 E= -323.481628253366     Delta-E=        0.000000000003 Rises=F Damp=F
 DIIS: error= 2.45D-08 at cycle   8 NSaved=   8.
 NSaved= 8 IEnMin= 7 EnMin= -323.481628253369     IErMin= 8 ErrMin= 2.45D-08
 ErrMax= 2.45D-08  0.00D+00 EMaxC= 1.00D-01 BMatC= 4.30D-14 BMatP= 2.52D-13
 IDIUse=1 WtCom= 1.00D+00 WtEn= 0.00D+00
 Coeff-Com:  0.617D-04-0.154D-02-0.437D-02-0.426D-02 0.173D-01 0.966D-01
 Coeff-Com:  0.363D+00 0.533D+00
 Coeff:      0.617D-04-0.154D-02-0.437D-02-0.426D-02 0.173D-01 0.966D-01
 Coeff:      0.363D+00 0.533D+00
 Gap=     0.169 Goal=   None    Shift=    0.000
 RMSDP=3.47D-09 MaxDP=4.25D-08 DE= 2.73D-12 OVMax= 6.46D-08

 SCF Done:  E(RB3LYP) =  -323.481628253     A.U. after   17 cycles
            NFock= 17  Conv=0.35D-08     -V/T= 2.0066
 KE= 3.213692324966D+02 PE=-1.238898619218D+03 EE= 3.532472081370D+02
 Leave Link  502 at Thu Apr 14 10:40:38 2016, MaxMem=    33554432 cpu:        12.7
 (Enter /usr/local/gau/g09/l801.exe)
 DoSCS=F DFT=T ScalE2(SS,OS)=  1.000000  1.000000
 Range of M.O.s used for correlation:     1    68
 NBasis=    68 NAE=    24 NBE=    24 NFC=     0 NFV=     0
 NROrb=     68 NOA=    24 NOB=    24 NVA=    44 NVB=    44
 Leave Link  801 at Thu Apr 14 10:40:38 2016, MaxMem=    33554432 cpu:         0.0
 (Enter /usr/local/gau/g09/l1101.exe)
 Using compressed storage, NAtomX=    13.
 Will process     14 centers per pass.
 Leave Link 1101 at Thu Apr 14 10:40:38 2016, MaxMem=    33554432 cpu:         0.1
 (Enter /usr/local/gau/g09/l1102.exe)
 Symmetrizing basis deriv contribution to polar:
 IMax=3 JMax=2 DiffMx= 0.00D+00
 Leave Link 1102 at Thu Apr 14 10:40:38 2016, MaxMem=    33554432 cpu:         0.0
 (Enter /usr/local/gau/g09/l1110.exe)
 Forming Gx(P) for the SCF density, NAtomX=    13.
 Integral derivatives from FoFJK, PRISM(SPDF).
 Do as many integral derivatives as possible in FoFJK.
 G2DrvN: MDV=      33554224.
 G2DrvN: will do    14 centers at a time, making    1 passes.
 Calling FoFCou, ICntrl=  3107 FMM=F I1Cent=   0 AccDes= 0.00D+00.
 FoFJK:  IHMeth= 1 ICntrl=    3107 DoSepK=F KAlg= 0 I1Cent=   0 FoldK=F
 IRaf=         0 NMat=   1 IRICut=       1 DoRegI=T DoRafI=F ISym2E= 0.
 FoFCou: FMM=F IPFlag=           0 FMFlag=      100000 FMFlg1=           0
         NFxFlg=           0 DoJE=F BraDBF=F KetDBF=F FulRan=T
         wScrn=  0.000000 ICntrl=    3107 IOpCl=  0 I1Cent=           0 NGrid=           0
         NMat0=    1 NMatS0=      1 NMatT0=    0 NMatD0=    1 NMtDS0=    0 NMtDT0=    0
 Symmetry not used in FoFCou.
 End of G2Drv F.D. properties file   721 does not exist.
 End of G2Drv F.D. properties file   722 does not exist.
 End of G2Drv F.D. properties file   788 does not exist.
 Leave Link 1110 at Thu Apr 14 10:41:02 2016, MaxMem=    33554432 cpu:        23.7
 (Enter /usr/local/gau/g09/l1002.exe)
 Minotr:  Closed shell wavefunction.
          IDoAtm=1111111111111
          Direct CPHF calculation.
          Differentiating once with respect to nuclear coordinates.
          Requested convergence is 1.0D-08 RMS, and 1.0D-07 maximum.
          Secondary convergence is 1.0D-12 RMS, and 1.0D-12 maximum.
          NewPWx=T KeepS1=F KeepF1=F KeepIn=T MapXYZ=F SortEE=F KeepMc=T.
          MDV=      33554230 using IRadAn=       2.
 Generate precomputed XC quadrature information.
 Keep R1 ints in memory in canonical form, NReq=3645297.
 FoFCou: FMM=F IPFlag=           0 FMFlag=           0 FMFlg1=           0
         NFxFlg=           0 DoJE=F BraDBF=F KetDBF=F FulRan=T
         wScrn=  0.000000 ICntrl=     600 IOpCl=  0 I1Cent=           0 NGrid=           0
         NMat0=    1 NMatS0=   2346 NMatT0=    0 NMatD0=    1 NMtDS0=    0 NMtDT0=    0
 Symmetry not used in FoFCou.
          Solving linear equations simultaneously, MaxMat=       0.
          There are    42 degrees of freedom in the 1st order CPHF.  IDoFFX=6 NUNeed=     0.
     36 vectors produced by pass  0 Test12= 2.51D-15 2.38D-09 XBig12= 2.14D-01 1.22D-01.
 AX will form    36 AO Fock derivatives at one time.
     36 vectors produced by pass  1 Test12= 2.51D-15 2.38D-09 XBig12= 4.20D-02 3.93D-02.
     36 vectors produced by pass  2 Test12= 2.51D-15 2.38D-09 XBig12= 1.67D-04 2.42D-03.
     36 vectors produced by pass  3 Test12= 2.51D-15 2.38D-09 XBig12= 2.69D-07 9.53D-05.
     36 vectors produced by pass  4 Test12= 2.51D-15 2.38D-09 XBig12= 2.41D-10 2.23D-06.
     17 vectors produced by pass  5 Test12= 2.51D-15 2.38D-09 XBig12= 1.52D-13 5.33D-08.
 InvSVY:  IOpt=1 It=  1 EMax= 1.22D-15
 Solved reduced A of dimension   197 with    36 vectors.
 End of Minotr F.D. properties file   721 does not exist.
 End of Minotr F.D. properties file   722 does not exist.
 End of Minotr F.D. properties file   788 does not exist.
 Leave Link 1002 at Thu Apr 14 10:41:19 2016, MaxMem=    33554432 cpu:        15.2
 (Enter /usr/local/gau/g09/l601.exe)
 Copying SCF densities to generalized density rwf, IOpCl= 0 IROHF=0.

 **********************************************************************

            Population analysis using the SCF density.

 **********************************************************************

 Orbital symmetries:
       Occupied  (A) (A) (A) (A) (A) (A) (A) (A) (A) (A) (A) (A)
                 (A) (A) (A) (A) (A) (A) (A) (A) (A) (A) (A) (A)
       Virtual   (A) (A) (A) (A) (A) (A) (A) (A) (A) (A) (A) (A)
                 (A) (A) (A) (A) (A) (A) (A) (A) (A) (A) (A) (A)
                 (A) (A) (A) (A) (A) (A) (A) (A) (A) (A) (A) (A)
                 (A) (A) (A) (A) (A) (A) (A) (A)
 The electronic state is 1-A.
 Alpha  occ. eigenvalues --  -19.18183 -19.07788 -14.34912 -10.32404 -10.28610
 Alpha  occ. eigenvalues --  -10.20798  -1.06996  -0.95153  -0.90830  -0.78040
 Alpha  occ. eigenvalues --   -0.70458  -0.60311  -0.56070  -0.52184  -0.47580
 Alpha  occ. eigenvalues --   -0.45113  -0.42722  -0.41367  -0.39337  -0.36653
 Alpha  occ. eigenvalues --   -0.31486  -0.28601  -0.22294  -0.18200
 Alpha virt. eigenvalues --   -0.01339   0.01235   0.05346   0.07894   0.10756
 Alpha virt. eigenvalues --    0.13283   0.15664   0.15796   0.18851   0.21046
 Alpha virt. eigenvalues --    0.24548   0.33600   0.35633   0.52035   0.52594
 Alpha virt. eigenvalues --    0.54556   0.59967   0.61166   0.63434   0.65010
 Alpha virt. eigenvalues --    0.70187   0.71411   0.76928   0.80302   0.81800
 Alpha virt. eigenvalues --    0.84247   0.87032   0.89999   0.91865   0.92564
 Alpha virt. eigenvalues --    0.94472   0.95312   0.98268   1.05924   1.08201
 Alpha virt. eigenvalues --    1.11670   1.13553   1.21648   1.23760   1.37212
 Alpha virt. eigenvalues --    1.44160   1.60793   1.72244   1.98108
          Condensed to atoms (all electrons):
               1          2          3          4          5          6
     1  N    7.091132   0.330301   0.202201   0.000069  -0.073781  -0.049528
     2  H    0.330301   0.396820  -0.031366   0.000002  -0.004925   0.005104
     3  C    0.202201  -0.031366   5.561122   0.005483   0.283710   0.031332
     4  H    0.000069   0.000002   0.005483   0.389829  -0.000384  -0.021924
     5  C   -0.073781  -0.004925   0.283710  -0.000384   5.177082  -0.014851
     6  C   -0.049528   0.005104   0.031332  -0.021924  -0.014851   5.103248
     7  H   -0.002487   0.000671  -0.034839  -0.000025   0.368243  -0.001267
     8  H    0.003738   0.000005  -0.032410  -0.000387   0.370949  -0.002188
     9  H    0.003095   0.001802  -0.037689   0.000063   0.363752   0.002631
    10  O    0.005091   0.000243  -0.128216   0.003963   0.002428   0.358769
    11  H    0.309065  -0.020065  -0.037224  -0.000017   0.005176   0.004134
    12  O    0.001934  -0.000009  -0.105337   0.238660   0.000222   0.155446
    13  H   -0.085852  -0.000175   0.121216  -0.008269  -0.000723   0.104863
               7          8          9         10         11         12
     1  N   -0.002487   0.003738   0.003095   0.005091   0.309065   0.001934
     2  H    0.000671   0.000005   0.001802   0.000243  -0.020065  -0.000009
     3  C   -0.034839  -0.032410  -0.037689  -0.128216  -0.037224  -0.105337
     4  H   -0.000025  -0.000387   0.000063   0.003963  -0.000017   0.238660
     5  C    0.368243   0.370949   0.363752   0.002428   0.005176   0.000222
     6  C   -0.001267  -0.002188   0.002631   0.358769   0.004134   0.155446
     7  H    0.545206  -0.021019  -0.034766  -0.000041  -0.000065   0.000105
     8  H   -0.021019   0.510569  -0.025677   0.000113  -0.000168   0.008562
     9  H   -0.034766  -0.025677   0.572880   0.000015  -0.000128   0.000059
    10  O   -0.000041   0.000113   0.000015   8.427155   0.018840  -0.092379
    11  H   -0.000065  -0.000168  -0.000128   0.018840   0.378542   0.000380
    12  O    0.000105   0.008562   0.000059  -0.092379   0.000380   8.359173
    13  H    0.001478   0.000379  -0.005150  -0.033512   0.004773  -0.000469
              13
     1  N   -0.085852
     2  H   -0.000175
     3  C    0.121216
     4  H   -0.008269
     5  C   -0.000723
     6  C    0.104863
     7  H    0.001478
     8  H    0.000379
     9  H   -0.005150
    10  O   -0.033512
    11  H    0.004773
    12  O   -0.000469
    13  H    0.663741
 Mulliken charges:
               1
     1  N   -0.734978
     2  H    0.321595
     3  C    0.202015
     4  H    0.392938
     5  C   -0.476897
     6  C    0.324232
     7  H    0.178806
     8  H    0.187533
     9  H    0.159112
    10  O   -0.562469
    11  H    0.336758
    12  O   -0.566345
    13  H    0.237700
 Sum of Mulliken charges =   0.00000
 Mulliken charges with hydrogens summed into heavy atoms:
               1
     1  N   -0.076625
     3  C    0.202015
     5  C    0.048554
     6  C    0.561932
    10  O   -0.562469
    12  O   -0.173408
 APT charges:
               1
     1  N   -1.224526
     2  H    0.740343
     3  C    0.119734
     4  H    0.682609
     5  C   -1.250595
     6  C   -0.170645
     7  H    0.488036
     8  H    0.366231
     9  H    0.448898
    10  O   -0.426437
    11  H    0.539728
    12  O   -0.648266
    13  H    0.334891
 Sum of APT charges =   0.00000
 APT charges with hydrogens summed into heavy atoms:
               1
     1  N    0.055545
     3  C    0.119734
     5  C    0.052570
     6  C    0.164246
    10  O   -0.426437
    12  O    0.034343
 Electronic spatial extent (au):  <R**2>=            634.8193
 Charge=              0.0000 electrons
 Dipole moment (field-independent basis, Debye):
    X=              4.4447    Y=              1.9781    Z=              2.5497  Tot=              5.4926
 Quadrupole moment (field-independent basis, Debye-Ang):
   XX=            -34.0245   YY=            -37.0550   ZZ=            -36.5261
   XY=             -6.8136   XZ=             -3.3687   YZ=              1.1251
 Traceless Quadrupole moment (field-independent basis, Debye-Ang):
   XX=              1.8440   YY=             -1.1864   ZZ=             -0.6575
   XY=             -6.8136   XZ=             -3.3687   YZ=              1.1251
 Octapole moment (field-independent basis, Debye-Ang**2):
  XXX=              9.4709  YYY=             -4.1910  ZZZ=              1.2892  XYY=              9.5333
  XXY=              8.7589  XXZ=              8.5384  XZZ=             -4.8361  YZZ=              2.0627
  YYZ=              3.9696  XYZ=             -5.9820
 Hexadecapole moment (field-independent basis, Debye-Ang**3):
 XXXX=           -389.4959 YYYY=           -264.4334 ZZZZ=            -47.4808 XXXY=            -47.3035
 XXXZ=            -16.5441 YYYX=            -26.5802 YYYZ=              2.6198 ZZZX=             -2.1933
 ZZZY=              0.1335 XXYY=           -117.0457 XXZZ=            -78.7911 YYZZ=            -56.2473
 XXYZ=              7.8531 YYXZ=             -5.5718 ZZXY=             -1.6451
 N-N= 2.408005503310D+02 E-N=-1.238898620470D+03  KE= 3.213692324966D+02
  Exact polarizability:   0.000   0.000   0.000   0.000   0.000   0.000
 Approx polarizability: 123.925  14.291  79.737  -3.818  -8.142  46.760
 No NMR shielding tensors so no spin-rotation constants.
 Leave Link  601 at Thu Apr 14 10:41:20 2016, MaxMem=    33554432 cpu:         0.1
 (Enter /usr/local/gau/g09/l701.exe)
 Compute integral second derivatives.
 ... and contract with generalized density number  0.
 Leave Link  701 at Thu Apr 14 10:41:20 2016, MaxMem=    33554432 cpu:         0.1
 (Enter /usr/local/gau/g09/l702.exe)
 L702 exits ... SP integral derivatives will be done elsewhere.
 Leave Link  702 at Thu Apr 14 10:41:20 2016, MaxMem=    33554432 cpu:         0.0
 (Enter /usr/local/gau/g09/l703.exe)
 Compute integral second derivatives, UseDBF=F ICtDFT=           0.
 Integral derivatives from FoFJK, PRISM(SPDF).
 Calling FoFJK, ICntrl=    100147 FMM=F ISym2X=0 I1Cent= 0 IOpClX= 0 NMat=1 NMatS=1 NMatT=0.
 FoFJK:  IHMeth= 1 ICntrl=  100147 DoSepK=F KAlg= 0 I1Cent=   0 FoldK=F
 IRaf=         0 NMat=   1 IRICut=       1 DoRegI=T DoRafI=F ISym2E= 0.
 FoFCou: FMM=F IPFlag=           0 FMFlag=      100000 FMFlg1=         800
         NFxFlg=           0 DoJE=F BraDBF=F KetDBF=F FulRan=T
         wScrn=  0.000000 ICntrl=  100147 IOpCl=  0 I1Cent=           0 NGrid=           0
         NMat0=    1 NMatS0=      1 NMatT0=    0 NMatD0=    1 NMtDS0=    0 NMtDT0=    0
 Symmetry not used in FoFCou.
 Leave Link  703 at Thu Apr 14 10:42:01 2016, MaxMem=    33554432 cpu:        25.5
 (Enter /usr/local/gau/g09/l716.exe)
 Dipole        = 1.74866825D+00 7.78251864D-01 1.00313774D+00
 Polarizability= 0.00000000D+00 0.00000000D+00 0.00000000D+00
                 0.00000000D+00 0.00000000D+00 0.00000000D+00
 ***** Axes restored to original set *****
 -------------------------------------------------------------------
 Center     Atomic                   Forces (Hartrees/Bohr)
 Number     Number              X              Y              Z
 -------------------------------------------------------------------
      1        7           0.000714681    0.001945776    0.017757519
      2        1           0.000380971   -0.001495081    0.000612396
      3        6          -0.033423376    0.001026845   -0.018091732
      4        1          -0.005826099    0.006060093    0.007150214
      5        6          -0.003137366   -0.001244556   -0.007072508
      6        6          -0.033760417    0.095111369   -0.010725796
      7        1          -0.002357565    0.001882473    0.000589404
      8        1          -0.000147240   -0.000712522    0.000290378
      9        1           0.000314087   -0.000838733    0.001218773
     10        8           0.039175973   -0.050345072    0.013558001
     11        1          -0.002993143    0.002347609    0.004917148
     12        8           0.034495306   -0.006363226   -0.008745160
     13        1           0.006564188   -0.047374975   -0.001458638
 -------------------------------------------------------------------
 Cartesian Forces:  Max     0.095111369 RMS     0.022731858
 Force constants in Cartesian coordinates: 
                1             2             3             4             5 
      1  0.874045D+00
      2 -0.453955D-01  0.733019D+00
      3  0.595076D-02 -0.240460D-01  0.305012D-01
      4 -0.475068D+00 -0.247971D-01  0.326770D-01  0.491167D+00
      5 -0.216429D-01 -0.732853D-01  0.701593D-02  0.301979D-01  0.706132D-01
      6  0.417130D-01  0.669180D-02  0.335490D-03 -0.367138D-01 -0.547469D-02
      7 -0.167279D+00 -0.587460D-01 -0.411135D-02 -0.102359D-01 -0.389961D-01
      8 -0.916840D-01 -0.284067D+00 -0.186602D-01  0.267434D-02 -0.195708D-02
      9  0.285359D-02  0.913975D-02 -0.157199D-01 -0.321081D-03  0.225299D-02
     10  0.161488D-03  0.176775D-02  0.197640D-02 -0.157783D-03 -0.334175D-03
     11  0.265461D-03  0.121109D-02  0.590572D-03  0.107934D-05 -0.101135D-03
     12  0.950504D-03 -0.318247D-03 -0.927495D-03  0.234185D-03  0.273992D-03
     13  0.128967D-01 -0.139182D-01 -0.952427D-03  0.135402D-02 -0.123235D-03
     14  0.236119D-01 -0.370075D-01  0.244461D-02  0.131558D-02  0.185687D-02
     15  0.387470D-02  0.173747D-02  0.127344D-02 -0.410151D-04  0.122214D-03
     16 -0.300179D-02  0.108313D-01  0.237212D-01 -0.834580D-03  0.161552D-02
     17 -0.339739D-01  0.384389D-02 -0.141911D-02  0.115094D-02 -0.556464D-02
     18 -0.252471D-01 -0.297865D-01 -0.190724D-01  0.183047D-02 -0.121915D-03
     19  0.175639D-02 -0.116615D-02  0.181043D-02  0.324067D-03  0.134572D-03
     20 -0.882771D-03  0.918089D-03 -0.141703D-02 -0.377481D-03 -0.570878D-03
     21  0.561694D-03 -0.130184D-03  0.879419D-03 -0.179350D-03  0.734791D-03
     22 -0.363630D-02  0.363673D-02 -0.229035D-03 -0.176120D-03  0.223582D-03
     23  0.513525D-02 -0.279324D-02  0.581616D-03  0.377914D-03  0.433800D-03
     24  0.781364D-04 -0.447890D-03  0.147122D-02 -0.871930D-04 -0.434768D-04
     25  0.112025D-02 -0.170680D-02 -0.293372D-03  0.436332D-03  0.214701D-03
     26  0.121423D-04  0.182198D-02  0.112574D-02 -0.539283D-03 -0.735691D-03
     27 -0.451896D-03 -0.392680D-03 -0.512689D-04  0.130702D-03 -0.814413D-03
     28 -0.395145D-02 -0.126767D-01 -0.542889D-02  0.748304D-03  0.113688D-02
     29  0.913487D-02  0.178759D-01  0.149272D-01 -0.254327D-02  0.135352D-02
     30  0.420567D-02  0.115362D-01 -0.258540D-02 -0.587307D-03  0.139348D-03
     31 -0.199132D+00  0.180542D+00 -0.199231D-01 -0.971854D-02  0.289494D-01
     32  0.181667D+00 -0.338865D+00  0.348000D-01 -0.860090D-02  0.887268D-02
     33 -0.244691D-01  0.433422D-01 -0.125718D-01  0.281706D-02 -0.345009D-02
     34 -0.603583D-02  0.446050D-03 -0.162797D-02  0.613761D-03 -0.131835D-02
     35 -0.446188D-02 -0.436890D-02 -0.244084D-02  0.521018D-03 -0.119999D-03
     36 -0.612150D-03  0.147644D-02  0.520639D-02 -0.407842D-03 -0.515672D-03
     37 -0.318768D-01 -0.388169D-01 -0.335697D-01  0.154662D-02 -0.578387D-04
     38 -0.217856D-01 -0.183023D-01 -0.135025D-01  0.619305D-03 -0.795313D-03
     39 -0.940778D-02 -0.188024D-01  0.112611D-01  0.648080D-03 -0.119017D-03
                6             7             8             9            10 
      6  0.329712D-02
      7  0.300712D-02  0.541796D+00
      8 -0.721781D-03  0.499744D-02  0.615956D+00
      9 -0.597564D-03 -0.419882D-01  0.235311D-01  0.859826D-01
     10  0.652361D-03 -0.229922D-02 -0.359407D-02 -0.619520D-02  0.159982D+00
     11  0.385187D-03  0.179610D-02 -0.314908D-02 -0.358023D-02  0.643250D-01
     12  0.983745D-04  0.277767D-02  0.304540D-02  0.606736D-03  0.204083D+00
     13 -0.664704D-03 -0.134649D+00  0.617762D-01  0.261664D-02 -0.159313D-03
     14 -0.159305D-03  0.529227D-01 -0.169594D+00 -0.695764D-02 -0.416957D-03
     15  0.102838D-02  0.660503D-02 -0.428514D-02 -0.729966D-01  0.157381D-03
     16 -0.439581D-04 -0.225902D+00  0.164872D-01 -0.593532D-01 -0.218223D-01
     17  0.210036D-02 -0.223612D-01 -0.107306D+00 -0.112260D-01 -0.130632D-01
     18 -0.684551D-02  0.358234D-01 -0.110761D-01  0.750752D-01 -0.117754D-01
     19 -0.622332D-03 -0.159945D-01  0.249756D-02 -0.182456D-01  0.165209D-03
     20  0.103122D-02  0.194653D-01 -0.182015D-02  0.244387D-01  0.277122D-04
     21 -0.609133D-03 -0.348358D-04  0.210130D-03  0.324135D-02  0.944421D-04
     22 -0.539189D-04  0.131385D-01  0.209964D-01  0.676456D-03 -0.374089D-04
     23 -0.569814D-04 -0.168970D-01 -0.241021D-01 -0.135105D-02  0.213731D-03
     24 -0.841248D-03 -0.447066D-03  0.294174D-03 -0.209735D-02 -0.431266D-03
     25  0.548927D-03 -0.196860D-01  0.372554D-02  0.144133D-01 -0.966374D-04
     26 -0.642965D-03  0.221630D-01 -0.214124D-02 -0.226661D-01  0.164660D-03
     27 -0.512250D-03 -0.990088D-03  0.106354D-02  0.409010D-02 -0.233131D-04
     28 -0.243026D-03 -0.109553D-01  0.339597D-01  0.240209D-01 -0.610240D-05
     29  0.581144D-03 -0.581392D-02 -0.209937D-02 -0.362656D-01  0.288980D-02
     30  0.116461D-02 -0.183929D-01 -0.721325D-02 -0.477417D-02 -0.123686D-02
     31 -0.395172D-02  0.175400D-01 -0.140814D-01  0.472754D-02  0.967819D-04
     32 -0.136852D-03  0.182130D-01 -0.252421D-01  0.224288D-03 -0.169003D-03
     33  0.415618D-03 -0.334939D-03 -0.217858D-02 -0.321639D-02 -0.579920D-03
     34  0.944056D-04 -0.718483D-02 -0.272083D-01  0.303412D-02 -0.138155D+00
     35  0.173583D-03  0.393782D-03 -0.791453D-03  0.734068D-02 -0.527794D-01
     36  0.231008D-02  0.186728D-02 -0.658409D-02 -0.129293D-01 -0.187373D+00
     37 -0.372242D-02  0.217112D-01 -0.105466D-01  0.737607D-01  0.232816D-02
     38 -0.377073D-02  0.228628D-01  0.631418D-02  0.151190D-01  0.968076D-03
     39  0.756018D-03  0.162188D-01  0.225747D-01 -0.566647D-01  0.650692D-03
               11            12            13            14            15 
     11  0.483962D-01
     12  0.510819D-01  0.307099D+00
     13  0.244505D-03  0.905806D-04  0.538853D+00
     14  0.355127D-03  0.262807D-03  0.602263D-01  0.546121D+00
     15  0.459767D-04  0.148980D-03 -0.134987D-02  0.260628D-02  0.538438D+00
     16 -0.347835D-01  0.846901D-02 -0.162265D-01  0.208310D-02 -0.686714D-02
     17 -0.124912D-01  0.136456D-01  0.229416D-01  0.889103D-02  0.117891D-02
     18 -0.289328D-01 -0.144378D-03  0.457354D-03  0.197764D-02 -0.618388D-02
     19  0.116801D-03  0.973573D-04 -0.132846D+00 -0.243787D-02 -0.123052D+00
     20 -0.133293D-03 -0.127000D-03 -0.165807D-02 -0.476122D-01 -0.920562D-03
     21  0.541758D-04 -0.317096D-04 -0.121982D+00 -0.241151D-02 -0.217973D+00
     22 -0.259811D-03 -0.794388D-04 -0.130832D+00 -0.129424D+00 -0.244087D-03
     23  0.222197D-03 -0.496384D-04 -0.122275D+00 -0.245240D+00 -0.888275D-03
     24  0.296449D-03  0.786880D-04  0.456067D-03 -0.502003D-03 -0.492642D-01
     25  0.107751D-03  0.143888D-03 -0.132951D+00 -0.492400D-02  0.120260D+00
     26 -0.334804D-04  0.308193D-05 -0.415964D-02 -0.505651D-01  0.306536D-02
     27 -0.768191D-04 -0.416115D-04  0.121045D+00  0.338184D-02 -0.213762D+00
     28  0.346259D-02  0.203860D-02 -0.158608D-02 -0.334694D-02 -0.256743D-03
     29  0.186873D-02  0.135682D-02 -0.148837D-02  0.312833D-03 -0.336649D-02
     30  0.336369D-02 -0.792668D-03 -0.140948D-02  0.539872D-03  0.752913D-02
     31 -0.256030D-03 -0.270313D-03 -0.191197D-02 -0.305872D-02  0.977508D-04
     32 -0.169800D-03 -0.914270D-04 -0.435041D-02 -0.236078D-02 -0.290616D-03
     33 -0.120687D-03  0.143545D-03  0.106681D-03 -0.471057D-03  0.239278D-02
     34 -0.356890D-01 -0.218722D+00  0.329722D-03  0.438781D-03 -0.171882D-03
     35 -0.365244D-01 -0.693390D-01  0.486568D-03 -0.255025D-02 -0.740800D-03
     36 -0.250743D-01 -0.309261D+00 -0.126723D-03 -0.458870D-03  0.526962D-03
     37  0.669061D-03  0.186222D-03 -0.227187D-02  0.301039D-02  0.988757D-03
     38  0.549019D-03  0.255618D-03  0.229803D-02 -0.260722D-02  0.173566D-02
     39  0.196687D-02  0.302363D-02  0.171281D-02 -0.252671D-03  0.884163D-02
               16            17            18            19            20 
     16  0.412608D+00
     17  0.102310D+00  0.407535D+00
     18  0.813183D-01  0.202945D-01  0.132168D+00
     19 -0.139333D-02  0.325499D-02 -0.146125D-02  0.146379D+00
     20  0.124960D-02 -0.407357D-02  0.104841D-02 -0.125794D-02  0.503328D-01
     21  0.106927D-02 -0.130544D-03 -0.882404D-03  0.135725D+00  0.229832D-02
     22  0.120288D-02  0.191525D-02 -0.552439D-03 -0.973723D-02 -0.158850D-01
     23 -0.190352D-02 -0.245851D-02  0.832213D-03  0.817609D-03  0.737657D-03
     24 -0.123386D-03  0.251313D-04  0.101146D-02 -0.153939D-01 -0.246234D-01
     25  0.611752D-03  0.263170D-02  0.366275D-02  0.114273D-01  0.213228D-04
     26 -0.129902D-02 -0.297815D-02 -0.246281D-02  0.205466D-03  0.313764D-03
     27 -0.486706D-03 -0.275688D-03 -0.774009D-03  0.175382D-01  0.128886D-02
     28 -0.122738D+00  0.574658D-01 -0.121735D-01 -0.966980D-03  0.916312D-03
     29 -0.488728D-02 -0.124097D+00  0.280114D-01 -0.319560D-03  0.100042D-02
     30  0.227039D-01 -0.446877D-01 -0.553750D-01  0.119304D-02 -0.140747D-02
     31  0.554646D-02 -0.520642D-02 -0.426673D-02 -0.244577D-03  0.854120D-04
     32 -0.298087D-03 -0.294557D-02  0.284063D-02 -0.711050D-04  0.306626D-03
     33 -0.347064D-02 -0.610305D-03  0.624302D-02  0.359132D-03 -0.437551D-03
     34 -0.108635D+00 -0.760813D-01 -0.415380D-02 -0.358120D-03 -0.430786D-03
     35 -0.547326D-01 -0.180937D+00  0.151219D-01 -0.468697D-03  0.104346D-02
     36 -0.349331D-01 -0.162190D-01 -0.628222D-01  0.324552D-03  0.156262D-03
     37  0.805856D-01 -0.409843D-01 -0.634620D-01  0.148935D-02 -0.127357D-02
     38 -0.366728D-01  0.225817D-01  0.225340D-02 -0.130568D-02 -0.442711D-03
     39 -0.320036D-01  0.373239D-01 -0.623979D-01  0.172766D-02 -0.132871D-02
               21            22            23            24            25 
     21  0.238121D+00
     22  0.137229D-02  0.140479D+00
     23  0.814753D-03  0.134813D+00  0.270731D+00
     24  0.444296D-03  0.532338D-03  0.718430D-03  0.491711D-01
     25 -0.167479D-01 -0.100290D-01  0.868250D-03  0.151952D-01  0.149699D+00
     26 -0.136314D-02 -0.160363D-01  0.953184D-03  0.244562D-01 -0.877926D-03
     27 -0.233979D-01 -0.156412D-02 -0.635363D-03  0.546776D-03 -0.134028D+00
     28 -0.109610D-03 -0.183091D-03  0.356369D-03  0.102129D-03 -0.108948D-02
     29  0.448900D-03 -0.807805D-04  0.249633D-03 -0.108047D-03  0.423250D-03
     30 -0.101992D-04  0.397090D-03 -0.370771D-03 -0.195284D-03 -0.101819D-02
     31  0.358215D-04  0.720980D-03 -0.886922D-03 -0.299803D-04 -0.246388D-03
     32  0.149491D-03  0.108835D-02 -0.751554D-03  0.125831D-04 -0.199455D-04
     33  0.147446D-03  0.877490D-04 -0.396369D-04  0.810228D-03 -0.429291D-03
     34  0.122875D-04 -0.708874D-03 -0.940698D-03  0.865570D-04 -0.210831D-03
     35 -0.147610D-03 -0.986826D-03  0.222936D-02 -0.286534D-03 -0.245366D-03
     36  0.939273D-04 -0.155529D-03  0.235897D-03 -0.774667D-03 -0.268727D-03
     37  0.182537D-03 -0.201395D-03  0.321586D-03  0.623223D-04  0.101450D-02
     38 -0.527577D-03  0.000000D+00 -0.211721D-03  0.208362D-03 -0.218477D-03
     39 -0.224014D-04 -0.187356D-03  0.208806D-03 -0.360956D-03 -0.143795D-02
               26            27            28            29            30 
     26  0.525169D-01
     27 -0.429077D-02  0.233173D+00
     28  0.108049D-02  0.750585D-04  0.167455D+00
     29 -0.447856D-03  0.305819D-03 -0.830405D-01  0.175730D+00
     30  0.116057D-02 -0.619778D-03 -0.150582D-01  0.131488D-01  0.314573D-01
     31  0.143206D-03 -0.623514D-04 -0.129292D-02  0.808017D-02  0.188411D-02
     32  0.195406D-03 -0.120592D-03  0.242535D-02  0.820004D-03 -0.802677D-04
     33  0.467927D-03  0.188804D-03  0.639823D-03 -0.234565D-02 -0.308956D-02
     34 -0.358096D-03  0.636165D-04  0.203995D-01  0.132433D-01  0.282243D-03
     35  0.879420D-03  0.190295D-03 -0.137614D-01 -0.581615D-01  0.137859D-01
     36  0.131779D-03  0.303772D-04 -0.534970D-02  0.915916D-02  0.143270D-01
     37 -0.498694D-03 -0.124580D-02 -0.458333D-01  0.644023D-01  0.703681D-02
     38  0.220921D-03  0.375986D-03  0.120220D-01 -0.144060D-01  0.100851D-01
     39  0.101507D-02  0.112948D-02  0.117431D-01 -0.258534D-01  0.129640D-01
               31            32            33            34            35 
     31  0.191260D+00
     32 -0.191549D+00  0.360323D+00
     33  0.236805D-01 -0.349493D-01  0.127684D-01
     34 -0.359782D-03  0.601974D-03  0.496710D-03  0.246678D+00
     35  0.149118D-02  0.137802D-02  0.646233D-03  0.127619D+00  0.288349D+00
     36  0.930830D-04 -0.903205D-04 -0.103575D-02  0.218024D+00  0.360689D-01
     37 -0.225833D-02  0.106297D-02  0.109630D-02 -0.637153D-02 -0.307539D-02
     38 -0.425226D-02 -0.156118D-02  0.146475D-03 -0.322483D-03 -0.104256D-01
     39 -0.201456D-02 -0.226767D-02 -0.319634D-02  0.258154D-02 -0.372771D-03
               36            37            38            39 
     36  0.355889D+00
     37  0.891768D-02 -0.198622D-01
     38  0.171382D-02  0.257870D-01  0.190862D-01
     39  0.843906D-02  0.976858D-02 -0.140926D-01  0.762275D-01
 FormGI is forming the generalized inverse of G from B-inverse, IUseBI=4.
 Leave Link  716 at Thu Apr 14 10:42:01 2016, MaxMem=    33554432 cpu:         0.0
 (Enter /usr/local/gau/g09/l103.exe)

 GradGradGradGradGradGradGradGradGradGradGradGradGradGradGradGradGradGrad
 Berny optimization.
 Red2BG is reusing G-inverse.
 Internal  Forces:  Max     0.064459714 RMS     0.014355955
 Search for a saddle point.
 Step number   1 out of a maximum of   65
 All quantities printed in internal units (Hartrees-Bohrs-Radians)
 Swapping is turned off.
 Second derivative matrix not updated -- analytic derivatives used.
 ITU=  0
     Eigenvalues ---   -0.08872  -0.02316  -0.00194  -0.00007   0.00082
     Eigenvalues ---    0.00887   0.01464   0.02330   0.04123   0.04789
     Eigenvalues ---    0.04855   0.05558   0.09284   0.11723   0.12334
     Eigenvalues ---    0.12994   0.13053   0.14705   0.15187   0.15663
     Eigenvalues ---    0.18878   0.21623   0.26295   0.30814   0.32722
     Eigenvalues ---    0.33221   0.34066   0.35734   0.36174   0.45019
     Eigenvalues ---    0.46772   0.49065   0.49868
 Eigenvectors required to have negative eigenvalues:
                          R6        R13       A18       D22       R11
   1                    0.44015  -0.43293  -0.31876   0.29629   0.27920
                          A8        D20       D5        D3        D2
   1                    0.21794  -0.18703   0.18224  -0.17461   0.17207
 Eigenvalue     2 is  -2.32D-02 should be greater than     0.000000 Eigenvector:
                          D16       A18       D21       A19       D18
   1                   -0.41067   0.38645   0.32719  -0.31197  -0.30994
                          R6        A8        A6        D3        D6
   1                    0.27932  -0.21308   0.15195   0.14599   0.13529
 Eigenvalue     3 is  -1.94D-03 should be greater than     0.000000 Eigenvector:
                          D22       D20       D21       D3        D2
   1                   -0.56668  -0.56297  -0.54074   0.12193   0.10448
                          D1        A20       D14       R6        D15
   1                    0.10243  -0.07158   0.06058   0.05857   0.05638
 Eigenvalue     4 is  -6.98D-05 should be greater than     0.000000 Eigenvector:
                          D1        D3        D2        D22       D16
   1                   -0.57620  -0.54634  -0.51868  -0.13423  -0.12719
                          D17       D20       D21       A19       D18
   1                   -0.11283  -0.09557  -0.08205  -0.07358  -0.06607
 RFO step:  Lambda0=1.420387104D-02 Lambda=-7.19577330D-02.
 Linear search not attempted -- option 19 set.
 Maximum step size (   0.300) exceeded in Quadratic search.
    -- Step size scaled by   0.315
 Iteration  1 RMS(Cart)=  0.06000804 RMS(Int)=  0.00416566
 Iteration  2 RMS(Cart)=  0.00366784 RMS(Int)=  0.00188859
 Iteration  3 RMS(Cart)=  0.00000925 RMS(Int)=  0.00188858
 Iteration  4 RMS(Cart)=  0.00000001 RMS(Int)=  0.00188858
 ITry= 1 IFail=0 DXMaxC= 2.08D-01 DCOld= 1.00D+10 DXMaxT= 3.00D-01 DXLimC= 3.00D+00 Rises=F
 Variable       Old X    -DE/DX   Delta X   Delta X   Delta X     New X
                                 (Linear)    (Quad)   (Total)
    R1        1.89636   0.00022   0.00000   0.00159   0.00159   1.89794
    R2        2.63279   0.00209   0.00000  -0.03980  -0.03980   2.59299
    R3        1.89992   0.00313   0.00000   0.00545   0.00545   1.90537
    R4        2.84087  -0.00246   0.00000  -0.00562  -0.00562   2.83525
    R5        2.83459  -0.03825   0.00000  -0.03428  -0.03553   2.79906
    R6        2.83172  -0.00232   0.00000   0.14741   0.14621   2.97794
    R7        1.85600  -0.00362   0.00000  -0.00366  -0.00366   1.85234
    R8        2.07561  -0.00092   0.00000  -0.00103  -0.00103   2.07459
    R9        2.06050   0.00068   0.00000   0.00010   0.00010   2.06060
   R10        2.07718  -0.00080   0.00000  -0.00069  -0.00069   2.07649
   R11        2.66481  -0.06446   0.00000  -0.03893  -0.03893   2.62588
   R12        2.64885  -0.01398   0.00000   0.00474   0.00474   2.65359
   R13        2.64562  -0.01596   0.00000  -0.14463  -0.14182   2.50380
    A1        2.10258  -0.00120   0.00000   0.01104   0.01105   2.11362
    A2        2.07788   0.00163   0.00000   0.00562   0.00562   2.08350
    A3        2.08053   0.00015   0.00000  -0.01661  -0.01661   2.06392
    A4        2.03345   0.00403   0.00000   0.01997   0.02005   2.05350
    A5        2.10966  -0.01512   0.00000  -0.06485  -0.06348   2.04618
    A6        1.55743   0.01863   0.00000   0.06894   0.06756   1.62499
    A7        2.14004   0.01103   0.00000   0.04512   0.04323   2.18327
    A8        2.22289  -0.02532   0.00000  -0.06246  -0.05842   2.16447
    A9        1.93153  -0.00470   0.00000  -0.00548  -0.00549   1.92605
   A10        1.93081   0.00070   0.00000  -0.00153  -0.00154   1.92927
   A11        1.93804   0.00267   0.00000   0.00413   0.00413   1.94217
   A12        1.88943   0.00106   0.00000   0.00154   0.00153   1.89096
   A13        1.87473   0.00099   0.00000   0.00083   0.00084   1.87557
   A14        1.89759  -0.00070   0.00000   0.00063   0.00063   1.89821
   A15        2.10339  -0.00105   0.00000   0.02486   0.02064   2.12403
   A16        2.16418  -0.01826   0.00000  -0.05982  -0.06145   2.10273
   A17        2.01544   0.01913   0.00000   0.03289   0.03211   2.04756
   A18        1.42149   0.02018   0.00000   0.08856   0.09551   1.51700
   A19        2.27338  -0.03370   0.00000  -0.11569  -0.11934   2.15403
   A20        1.93088  -0.00116   0.00000  -0.00754  -0.00754   1.92334
    D1        0.10954  -0.00282   0.00000   0.00936   0.01156   0.12110
    D2       -3.04060  -0.01154   0.00000   0.03976   0.04178  -2.99882
    D3       -2.19753   0.01347   0.00000   0.03000   0.02578  -2.17175
    D4        3.02427   0.00031   0.00000   0.01029   0.01249   3.03676
    D5       -0.12587  -0.00841   0.00000   0.04069   0.04271  -0.08316
    D6        0.71719   0.01661   0.00000   0.03093   0.02671   0.74391
    D7        1.03078  -0.00609   0.00000  -0.00860  -0.00765   1.02314
    D8        3.12490  -0.00737   0.00000  -0.01126  -0.01029   3.11460
    D9       -1.04963  -0.00600   0.00000  -0.00874  -0.00778  -1.05741
   D10       -2.10210   0.00293   0.00000  -0.03899  -0.03991  -2.14201
   D11       -0.00799   0.00166   0.00000  -0.04164  -0.04256  -0.05054
   D12        2.10067   0.00302   0.00000  -0.03912  -0.04004   2.06063
   D13        2.97200   0.00503   0.00000   0.06365   0.06361   3.03561
   D14       -1.21707   0.00375   0.00000   0.06100   0.06096  -1.15611
   D15        0.89159   0.00512   0.00000   0.06351   0.06347   0.95507
   D16        0.09061   0.00318   0.00000  -0.11176  -0.10981  -0.01921
   D17       -3.03040   0.01379   0.00000   0.01476   0.01613  -3.01427
   D18       -3.06006  -0.00614   0.00000  -0.07964  -0.07727  -3.13733
   D19        0.10211   0.00447   0.00000   0.04688   0.04867   0.15079
   D20       -2.06781  -0.00426   0.00000  -0.11700  -0.11791  -2.18572
   D21        1.09343   0.00605   0.00000   0.00375   0.00272   1.09615
   D22       -0.66600  -0.01987   0.00000  -0.08219  -0.08025  -0.74625
         Item               Value     Threshold  Converged?
 Maximum Force            0.064460     0.000450     NO 
 RMS     Force            0.014356     0.000300     NO 
 Maximum Displacement     0.208220     0.001800     NO 
 RMS     Displacement     0.059012     0.001200     NO 
 Predicted change in Energy=-2.186120D-02
 Lowest energy point so far.  Saving SCF results.
 GradGradGradGradGradGradGradGradGradGradGradGradGradGradGradGradGradGrad

 Leave Link  103 at Thu Apr 14 10:42:01 2016, MaxMem=    33554432 cpu:         0.0
 (Enter /usr/local/gau/g09/l202.exe)
                          Input orientation:                          
 ---------------------------------------------------------------------
 Center     Atomic      Atomic             Coordinates (Angstroms)
 Number     Number       Type             X           Y           Z
 ---------------------------------------------------------------------
      1          7           0        1.263859    1.019250    0.229661
      2          1           0        2.258264    1.131318    0.144120
      3          6           0        0.685288   -0.224517    0.196462
      4          1           0       -2.059489   -1.647064   -0.505710
      5          6           0        1.596452   -1.416474    0.188580
      6          6           0       -0.793780   -0.282951    0.142639
      7          1           0        2.239699   -1.411286    1.078200
      8          1           0        1.017565   -2.340546    0.189045
      9          1           0        2.252620   -1.410979   -0.692805
     10          8           0       -1.570708    0.869095    0.148855
     11          1           0        0.665848    1.826334    0.142341
     12          8           0       -1.462749   -1.511982    0.260107
     13          1           0       -0.274301    0.159444   -0.993112
 ---------------------------------------------------------------------
                    Distance matrix (angstroms):
                    1          2          3          4          5
     1  N    0.000000
     2  H    1.004349   0.000000
     3  C    1.372153   2.077326   0.000000
     4  H    4.323731   5.175392   3.170250   0.000000
     5  C    2.458670   2.632721   1.500349   3.728421   0.000000
     6  C    2.436633   3.363797   1.481200   1.970579   2.645789
     7  H    2.753141   2.708816   2.145245   4.587743   1.097824
     8  H    3.369056   3.687166   2.141972   3.229840   1.090422
     9  H    2.781116   2.676519   2.157549   4.322618   1.098829
    10  O    2.839691   3.837943   2.507542   2.645453   3.905933
    11  H    1.008280   1.737481   2.051657   4.462279   3.374014
    12  O    3.720545   4.565788   2.505130   0.980216   3.061527
    13  H    2.144849   2.941380   1.575856   2.586104   2.716548
                    6          7          8          9         10
     6  C    0.000000
     7  H    3.369037   0.000000
     8  H    2.741683   1.774185   0.000000
     9  H    3.354246   1.771052   1.779639   0.000000
    10  O    1.389556   4.536852   4.123417   4.530449   0.000000
    11  H    2.565073   3.719547   4.181959   3.700745   2.432803
    12  O    1.404220   3.793090   2.616013   3.836953   2.386118
    13  H    1.324954   3.616313   3.052272   2.990275   1.867716
                   11         12         13
    11  H    0.000000
    12  O    3.960953   0.000000
    13  H    2.225231   2.403463   0.000000
 Stoichiometry    C3H7NO2
 Framework group  C1[X(C3H7NO2)]
 Deg. of freedom    33
 Full point group                 C1      NOp   1
 RotChk:  IX=3 Diff= 8.54D-02
 Largest Abelian subgroup         C1      NOp   1
 Largest concise Abelian subgroup C1      NOp   1
                         Standard orientation:                         
 ---------------------------------------------------------------------
 Center     Atomic      Atomic             Coordinates (Angstroms)
 Number     Number       Type             X           Y           Z
 ---------------------------------------------------------------------
      1          7           0        1.308811   -1.258915   -0.058378
      2          1           0        2.303873   -1.344288    0.047822
      3          6           0        0.695373   -0.031909   -0.027483
      4          1           0       -2.102274    1.308174    0.626608
      5          6           0        1.572736    1.184591    0.010045
      6          6           0       -0.785561   -0.014740   -0.005333
      7          1           0        2.234851    1.205015   -0.865400
      8          1           0        0.968577    2.092326    0.004635
      9          1           0        2.209708    1.189373    0.905404
     10          8           0       -1.529913   -1.187660   -0.037948
     11          1           0        0.731684   -2.082916    0.009256
     12          8           0       -1.485693    1.196380   -0.127151
     13          1           0       -0.278539   -0.452696    1.137745
 ---------------------------------------------------------------------
 Rotational constants (GHZ):      4.8847284      3.0792788      1.9405046
 Leave Link  202 at Thu Apr 14 10:42:01 2016, MaxMem=    33554432 cpu:         0.0
 (Enter /usr/local/gau/g09/l301.exe)
 Standard basis: 6-31G (6D, 7F)
 Ernie: Thresh=  0.10000D-02 Tol=  0.10000D-05 Strict=F.
 There are    68 symmetry adapted cartesian basis functions of A   symmetry.
 There are    68 symmetry adapted basis functions of A   symmetry.
    68 basis functions,   160 primitive gaussians,    68 cartesian basis functions
    24 alpha electrons       24 beta electrons
       nuclear repulsion energy       242.9017868493 Hartrees.
 IExCor=  402 DFT=T Ex+Corr=B3LYP ExCW=0 ScaHFX=  0.200000
 ScaDFX=  0.800000  0.720000  1.000000  0.810000 ScalE2=  1.000000  1.000000
 IRadAn=      0 IRanWt=     -1 IRanGd=            0 ICorTp=0 IEmpDi=  4
 NAtoms=   13 NActive=   13 NUniq=   13 SFac= 1.00D+00 NAtFMM=   60 NAOKFM=F Big=F
 Integral buffers will be    131072 words long.
 Raffenetti 2 integral format.
 Two-electron integral symmetry is turned on.
 Leave Link  301 at Thu Apr 14 10:42:01 2016, MaxMem=    33554432 cpu:         0.0
 (Enter /usr/local/gau/g09/l302.exe)
 NPDir=0 NMtPBC=     1 NCelOv=     1 NCel=       1 NClECP=     1 NCelD=      1
         NCelK=      1 NCelE2=     1 NClLst=     1 CellRange=     0.0.
 One-electron integrals computed using PRISM.
 NBasis=    68 RedAO= T EigKep=  3.53D-03  NBF=    68
 NBsUse=    68 1.00D-06 EigRej= -1.00D+00 NBFU=    68
 Precomputing XC quadrature grid using
 IXCGrd= 4 IRadAn=           0 IRanWt=          -1 IRanGd=           0 AccXCQ= 0.00D+00.
 Generated NRdTot=       0 NPtTot=           0 NUsed=           0 NTot=          32
 NSgBfM=    68    68    68    68    68 MxSgAt=    13 MxSgA2=    13.
 Leave Link  302 at Thu Apr 14 10:42:02 2016, MaxMem=    33554432 cpu:         0.2
 (Enter /usr/local/gau/g09/l303.exe)
 DipDrv:  MaxL=1.
 Leave Link  303 at Thu Apr 14 10:42:02 2016, MaxMem=    33554432 cpu:         0.0
 (Enter /usr/local/gau/g09/l401.exe)
 Initial guess from the checkpoint file:  "Ala-S-opt-freq-tsa3-6-31g.chk"
 B after Tr=     0.000000    0.000000    0.000000
         Rot=    0.999676    0.003021    0.001510    0.025223 Ang=   2.92 deg.
 Guess basis will be translated and rotated to current coordinates.
 JPrj=2 DoOrth=T DoCkMO=T.
 Generating alternative initial guess.
 ExpMin= 1.61D-01 ExpMax= 5.48D+03 ExpMxC= 8.25D+02 IAcc=1 IRadAn=         1 AccDes= 0.00D+00
 Harris functional with IExCor=  402 and IRadAn=       1 diagonalized for initial guess.
 HarFok:  IExCor=  402 AccDes= 0.00D+00 IRadAn=         1 IDoV= 1 UseB2=F ITyADJ=14
 ICtDFT=  3500011 ScaDFX=  1.000000  1.000000  1.000000  1.000000
 FoFCou: FMM=F IPFlag=           0 FMFlag=      100000 FMFlg1=           0
         NFxFlg=           0 DoJE=T BraDBF=F KetDBF=T FulRan=T
         wScrn=  0.000000 ICntrl=     500 IOpCl=  0 I1Cent=   200000004 NGrid=           0
         NMat0=    1 NMatS0=      1 NMatT0=    0 NMatD0=    1 NMtDS0=    0 NMtDT0=    0
 Petite list used in FoFCou.
 Harris En= -323.581107874176    
 Leave Link  401 at Thu Apr 14 10:42:02 2016, MaxMem=    33554432 cpu:         0.5
 (Enter /usr/local/gau/g09/l502.exe)
 Closed shell SCF:
 Using DIIS extrapolation, IDIIS=  1040.
 Integral symmetry usage will be decided dynamically.
 Keep R1 ints in memory in canonical form, NReq=3676491.
 IVT=       33364 IEndB=       33364 NGot=    33554432 MDV=    30768038
 LenX=    30768038 LenY=    30762973
 Requested convergence on RMS density matrix=1.00D-08 within 128 cycles.
 Requested convergence on MAX density matrix=1.00D-06.
 Requested convergence on             energy=1.00D-06.
 No special actions if energy rises.
 FoFCou: FMM=F IPFlag=           0 FMFlag=           0 FMFlg1=           0
         NFxFlg=           0 DoJE=F BraDBF=F KetDBF=F FulRan=T
         wScrn=  0.000000 ICntrl=     600 IOpCl=  0 I1Cent=           0 NGrid=           0
         NMat0=    1 NMatS0=   2346 NMatT0=    0 NMatD0=    1 NMtDS0=    0 NMtDT0=    0
 Symmetry not used in FoFCou.
 Integral accuracy reduced to 1.0D-05 until final iterations.

 Cycle   1  Pass 0  IDiag  1:
 E= -323.492514716339    
 DIIS: error= 4.90D-03 at cycle   1 NSaved=   1.
 NSaved= 1 IEnMin= 1 EnMin= -323.492514716339     IErMin= 1 ErrMin= 4.90D-03
 ErrMax= 4.90D-03  0.00D+00 EMaxC= 1.00D-01 BMatC= 3.96D-03 BMatP= 3.96D-03
 IDIUse=3 WtCom= 9.51D-01 WtEn= 4.90D-02
 Coeff-Com:  0.100D+01
 Coeff-En:   0.100D+01
 Coeff:      0.100D+01
 Gap=     0.523 Goal=   None    Shift=    0.000
 GapD=    0.523 DampG=2.000 DampE=1.000 DampFc=2.0000 IDamp=-1.
 RMSDP=4.09D-03 MaxDP=3.59D-02              OVMax= 7.86D-02

 Cycle   2  Pass 0  IDiag  1:
 E= -323.500156899565     Delta-E=       -0.007642183226 Rises=F Damp=F
 DIIS: error= 5.67D-03 at cycle   2 NSaved=   2.
 NSaved= 2 IEnMin= 2 EnMin= -323.500156899565     IErMin= 1 ErrMin= 4.90D-03
 ErrMax= 5.67D-03  0.00D+00 EMaxC= 1.00D-01 BMatC= 2.60D-03 BMatP= 3.96D-03
 IDIUse=3 WtCom= 9.43D-01 WtEn= 5.67D-02
 Coeff-Com:  0.411D+00 0.589D+00
 Coeff-En:   0.000D+00 0.100D+01
 Coeff:      0.388D+00 0.612D+00
 Gap=     0.145 Goal=   None    Shift=    0.000
 RMSDP=2.24D-03 MaxDP=2.55D-02 DE=-7.64D-03 OVMax= 7.16D-02

 Cycle   3  Pass 0  IDiag  1:
 E= -323.498758036958     Delta-E=        0.001398862607 Rises=F Damp=F
 DIIS: error= 7.79D-03 at cycle   3 NSaved=   3.
 NSaved= 3 IEnMin= 2 EnMin= -323.500156899565     IErMin= 1 ErrMin= 4.90D-03
 ErrMax= 7.79D-03  0.00D+00 EMaxC= 1.00D-01 BMatC= 4.37D-03 BMatP= 2.60D-03
 IDIUse=3 WtCom= 1.02D-01 WtEn= 8.98D-01
 Coeff-Com:  0.438D-01 0.548D+00 0.409D+00
 Coeff-En:   0.000D+00 0.572D+00 0.428D+00
 Coeff:      0.446D-02 0.570D+00 0.426D+00
 Gap=     0.155 Goal=   None    Shift=    0.000
 RMSDP=1.44D-03 MaxDP=1.86D-02 DE= 1.40D-03 OVMax= 4.38D-02

 Cycle   4  Pass 0  IDiag  1:
 E= -323.502658109143     Delta-E=       -0.003900072185 Rises=F Damp=F
 DIIS: error= 1.91D-03 at cycle   4 NSaved=   4.
 NSaved= 4 IEnMin= 4 EnMin= -323.502658109143     IErMin= 4 ErrMin= 1.91D-03
 ErrMax= 1.91D-03  0.00D+00 EMaxC= 1.00D-01 BMatC= 4.55D-04 BMatP= 2.60D-03
 IDIUse=3 WtCom= 9.81D-01 WtEn= 1.91D-02
 Coeff-Com: -0.280D-01 0.328D+00 0.290D+00 0.410D+00
 Coeff-En:   0.000D+00 0.000D+00 0.405D-01 0.960D+00
 Coeff:     -0.275D-01 0.322D+00 0.285D+00 0.420D+00
 Gap=     0.153 Goal=   None    Shift=    0.000
 RMSDP=3.99D-04 MaxDP=5.06D-03 DE=-3.90D-03 OVMax= 5.28D-03

 Cycle   5  Pass 0  IDiag  1:
 E= -323.503062571263     Delta-E=       -0.000404462120 Rises=F Damp=F
 DIIS: error= 2.66D-04 at cycle   5 NSaved=   5.
 NSaved= 5 IEnMin= 5 EnMin= -323.503062571263     IErMin= 5 ErrMin= 2.66D-04
 ErrMax= 2.66D-04  0.00D+00 EMaxC= 1.00D-01 BMatC= 1.07D-05 BMatP= 4.55D-04
 IDIUse=3 WtCom= 9.97D-01 WtEn= 2.66D-03
 Coeff-Com: -0.149D-01 0.101D+00 0.937D-01 0.195D+00 0.625D+00
 Coeff-En:   0.000D+00 0.000D+00 0.000D+00 0.000D+00 0.100D+01
 Coeff:     -0.149D-01 0.101D+00 0.934D-01 0.194D+00 0.626D+00
 Gap=     0.153 Goal=   None    Shift=    0.000
 RMSDP=5.66D-05 MaxDP=7.52D-04 DE=-4.04D-04 OVMax= 9.77D-04

 Cycle   6  Pass 0  IDiag  1:
 E= -323.503071266642     Delta-E=       -0.000008695378 Rises=F Damp=F
 DIIS: error= 7.69D-05 at cycle   6 NSaved=   6.
 NSaved= 6 IEnMin= 6 EnMin= -323.503071266642     IErMin= 6 ErrMin= 7.69D-05
 ErrMax= 7.69D-05  0.00D+00 EMaxC= 1.00D-01 BMatC= 7.41D-07 BMatP= 1.07D-05
 IDIUse=1 WtCom= 1.00D+00 WtEn= 0.00D+00
 Coeff-Com: -0.293D-02 0.138D-01 0.157D-01 0.513D-01 0.275D+00 0.647D+00
 Coeff:     -0.293D-02 0.138D-01 0.157D-01 0.513D-01 0.275D+00 0.647D+00
 Gap=     0.153 Goal=   None    Shift=    0.000
 RMSDP=1.86D-05 MaxDP=3.15D-04 DE=-8.70D-06 OVMax= 2.70D-04

 Cycle   7  Pass 0  IDiag  1:
 E= -323.503071870661     Delta-E=       -0.000000604019 Rises=F Damp=F
 DIIS: error= 3.86D-05 at cycle   7 NSaved=   7.
 NSaved= 7 IEnMin= 7 EnMin= -323.503071870661     IErMin= 7 ErrMin= 3.86D-05
 ErrMax= 3.86D-05  0.00D+00 EMaxC= 1.00D-01 BMatC= 1.32D-07 BMatP= 7.41D-07
 IDIUse=1 WtCom= 1.00D+00 WtEn= 0.00D+00
 Coeff-Com: -0.227D-03-0.356D-02-0.496D-03 0.812D-02 0.813D-01 0.359D+00
 Coeff-Com:  0.556D+00
 Coeff:     -0.227D-03-0.356D-02-0.496D-03 0.812D-02 0.813D-01 0.359D+00
 Coeff:      0.556D+00
 Gap=     0.153 Goal=   None    Shift=    0.000
 RMSDP=7.52D-06 MaxDP=7.31D-05 DE=-6.04D-07 OVMax= 8.67D-05

 Initial convergence to 1.0D-05 achieved.  Increase integral accuracy.
 Cycle   8  Pass 1  IDiag  1:
 E= -323.503097148538     Delta-E=       -0.000025277877 Rises=F Damp=F
 DIIS: error= 1.09D-05 at cycle   1 NSaved=   1.
 NSaved= 1 IEnMin= 1 EnMin= -323.503097148538     IErMin= 1 ErrMin= 1.09D-05
 ErrMax= 1.09D-05  0.00D+00 EMaxC= 1.00D-01 BMatC= 1.98D-08 BMatP= 1.98D-08
 IDIUse=1 WtCom= 1.00D+00 WtEn= 0.00D+00
 Coeff-Com:  0.100D+01
 Coeff:      0.100D+01
 Gap=     0.153 Goal=   None    Shift=    0.000
 RMSDP=7.52D-06 MaxDP=7.31D-05 DE=-2.53D-05 OVMax= 9.48D-05

 Cycle   9  Pass 1  IDiag  1:
 E= -323.503097152076     Delta-E=       -0.000000003538 Rises=F Damp=F
 DIIS: error= 2.08D-05 at cycle   2 NSaved=   2.
 NSaved= 2 IEnMin= 2 EnMin= -323.503097152076     IErMin= 1 ErrMin= 1.09D-05
 ErrMax= 2.08D-05  0.00D+00 EMaxC= 1.00D-01 BMatC= 2.88D-08 BMatP= 1.98D-08
 IDIUse=1 WtCom= 1.00D+00 WtEn= 0.00D+00
 Coeff-Com:  0.562D+00 0.438D+00
 Coeff:      0.562D+00 0.438D+00
 Gap=     0.153 Goal=   None    Shift=    0.000
[...]
   A13        1.88057   0.00000   0.00000   0.00000   0.00000   1.88057
   A14        1.88531   0.00001   0.00000  -0.00001  -0.00001   1.88530
   A15        2.12468   0.00001   0.00000   0.00007   0.00007   2.12476
   A16        1.95678  -0.00001   0.00000   0.00002   0.00002   1.95680
   A17        2.10768   0.00000   0.00000  -0.00004  -0.00004   2.10765
   A18        2.00793  -0.00001   0.00000  -0.00007  -0.00007   2.00787
   A19        1.80573   0.00000   0.00000   0.00001   0.00001   1.80574
   A20        1.85441   0.00000   0.00000  -0.00002  -0.00002   1.85439
    D1        0.35493   0.00000   0.00000   0.00003   0.00003   0.35495
    D2       -2.82083   0.00000   0.00000   0.00013   0.00013  -2.82070
    D3       -1.86267   0.00000   0.00000   0.00021   0.00021  -1.86246
    D4       -2.95490   0.00000   0.00000  -0.00023  -0.00023  -2.95513
    D5        0.15253   0.00000   0.00000  -0.00012  -0.00012   0.15240
    D6        1.11069   0.00000   0.00000  -0.00005  -0.00005   1.11064
    D7       -2.85728   0.00000   0.00000  -0.00063  -0.00063  -2.85791
    D8       -0.71694   0.00000   0.00000  -0.00059  -0.00059  -0.71753
    D9        1.36841   0.00000   0.00000  -0.00066  -0.00066   1.36775
   D10        0.32203   0.00000   0.00000  -0.00075  -0.00075   0.32128
   D11        2.46237   0.00000   0.00000  -0.00071  -0.00071   2.46167
   D12       -1.73546   0.00000   0.00000  -0.00078  -0.00078  -1.73624
   D13       -0.57900   0.00000   0.00000  -0.00077  -0.00077  -0.57977
   D14        1.56134   0.00000   0.00000  -0.00073  -0.00073   1.56061
   D15       -2.63649   0.00000   0.00000  -0.00080  -0.00080  -2.63729
   D16       -0.12916   0.00000   0.00000   0.00009   0.00009  -0.12907
   D17       -2.82078   0.00000   0.00000  -0.00003  -0.00003  -2.82081
   D18        2.97770   0.00000   0.00000   0.00020   0.00020   2.97790
   D19        0.28607   0.00000   0.00000   0.00008   0.00008   0.28615
   D20        3.04039   0.00000   0.00000  -0.00021  -0.00021   3.04018
   D21        0.34381  -0.00001   0.00000  -0.00036  -0.00036   0.34345
   D22       -1.93331   0.00001   0.00000  -0.00025  -0.00025  -1.93356
         Item               Value     Threshold  Converged?
 Maximum Force            0.000038     0.000450     YES
 RMS     Force            0.000009     0.000300     YES
 Maximum Displacement     0.001071     0.001800     YES
 RMS     Displacement     0.000293     0.001200     YES
 Predicted change in Energy=-1.143239D-08
 Optimization completed.
    -- Stationary point found.
                           ----------------------------
                           !   Optimized Parameters   !
                           ! (Angstroms and Degrees)  !
 --------------------------                            --------------------------
 ! Name  Definition              Value          Derivative Info.                !
 --------------------------------------------------------------------------------
 ! R1    R(1,2)                  1.0074         -DE/DX =    0.0                 !
 ! R2    R(1,3)                  1.3389         -DE/DX =    0.0                 !
 ! R3    R(1,11)                 1.0182         -DE/DX =    0.0                 !
 ! R4    R(3,5)                  1.4939         -DE/DX =    0.0                 !
 ! R5    R(3,6)                  1.4699         -DE/DX =    0.0                 !
 ! R6    R(3,13)                 1.6313         -DE/DX =    0.0                 !
 ! R7    R(4,12)                 0.9786         -DE/DX =    0.0                 !
 ! R8    R(5,7)                  1.0897         -DE/DX =    0.0                 !
 ! R9    R(5,8)                  1.0963         -DE/DX =    0.0                 !
 ! R10   R(5,9)                  1.0983         -DE/DX =    0.0                 !
 ! R11   R(6,10)                 1.2841         -DE/DX =    0.0                 !
 ! R12   R(6,12)                 1.4309         -DE/DX =    0.0                 !
 ! R13   R(6,13)                 1.3209         -DE/DX =    0.0                 !
 ! A1    A(2,1,3)              123.3784         -DE/DX =    0.0                 !
 ! A2    A(2,1,11)             120.5749         -DE/DX =    0.0                 !
 ! A3    A(3,1,11)             115.335          -DE/DX =    0.0                 !
 ! A4    A(1,3,5)              122.4511         -DE/DX =    0.0                 !
 ! A5    A(1,3,6)              113.6099         -DE/DX =    0.0                 !
 ! A6    A(1,3,13)             113.0507         -DE/DX =    0.0                 !
 ! A7    A(5,3,6)              123.9078         -DE/DX =    0.0                 !
 ! A8    A(5,3,13)             104.9417         -DE/DX =    0.0                 !
 ! A9    A(3,5,7)              110.3761         -DE/DX =    0.0                 !
 ! A10   A(3,5,8)              112.4891         -DE/DX =    0.0                 !
 ! A11   A(3,5,9)              108.5564         -DE/DX =    0.0                 !
 ! A12   A(7,5,8)              109.5046         -DE/DX =    0.0                 !
 ! A13   A(7,5,9)              107.7486         -DE/DX =    0.0                 !
 ! A14   A(8,5,9)              108.0202         -DE/DX =    0.0                 !
 ! A15   A(3,6,10)             121.7353         -DE/DX =    0.0                 !
 ! A16   A(3,6,12)             112.1155         -DE/DX =    0.0                 !
 ! A17   A(10,6,12)            120.7613         -DE/DX =    0.0                 !
 ! A18   A(10,6,13)            115.0461         -DE/DX =    0.0                 !
 ! A19   A(12,6,13)            103.4608         -DE/DX =    0.0                 !
 ! A20   A(4,12,6)             106.2499         -DE/DX =    0.0                 !
 ! D1    D(2,1,3,5)             20.3357         -DE/DX =    0.0                 !
 ! D2    D(2,1,3,6)           -161.6219         -DE/DX =    0.0                 !
 ! D3    D(2,1,3,13)          -106.7231         -DE/DX =    0.0                 !
 ! D4    D(11,1,3,5)          -169.3033         -DE/DX =    0.0                 !
 ! D5    D(11,1,3,6)             8.7391         -DE/DX =    0.0                 !
 ! D6    D(11,1,3,13)           63.6378         -DE/DX =    0.0                 !
 ! D7    D(1,3,5,7)           -163.7103         -DE/DX =    0.0                 !
 ! D8    D(1,3,5,8)            -41.0778         -DE/DX =    0.0                 !
 ! D9    D(1,3,5,9)             78.4042         -DE/DX =    0.0                 !
 ! D10   D(6,3,5,7)             18.4511         -DE/DX =    0.0                 !
 ! D11   D(6,3,5,8)            141.0837         -DE/DX =    0.0                 !
 ! D12   D(6,3,5,9)            -99.4344         -DE/DX =    0.0                 !
 ! D13   D(13,3,5,7)           -33.1744         -DE/DX =    0.0                 !
 ! D14   D(13,3,5,8)            89.4581         -DE/DX =    0.0                 !
 ! D15   D(13,3,5,9)          -151.0599         -DE/DX =    0.0                 !
 ! D16   D(1,3,6,10)            -7.4001         -DE/DX =    0.0                 !
 ! D17   D(1,3,6,12)          -161.6189         -DE/DX =    0.0                 !
 ! D18   D(5,3,6,10)           170.6094         -DE/DX =    0.0                 !
 ! D19   D(5,3,6,12)            16.3906         -DE/DX =    0.0                 !
 ! D20   D(3,6,12,4)           174.2015         -DE/DX =    0.0                 !
 ! D21   D(10,6,12,4)           19.6991         -DE/DX =    0.0                 !
 ! D22   D(13,6,12,4)         -110.7704         -DE/DX =    0.0                 !
 --------------------------------------------------------------------------------
 GradGradGradGradGradGradGradGradGradGradGradGradGradGradGradGradGradGrad

 Leave Link  103 at Thu Apr 14 10:54:19 2016, MaxMem=    33554432 cpu:         0.0
 (Enter /usr/local/gau/g09/l9999.exe)

 Test job not archived.
 1\1\GINC-KALI\Freq\RB3LYP\6-31G\C3H7N1O2\ROOT\14-Apr-2016\0\\#P Geom=A
 llCheck Guess=TCheck SCRF=Check Test GenChk RB3LYP/6-31G Freq\\Ala-S-o
 pt-freq-tsa3-6-31g\\0,1\N,1.2538364798,1.0450333535,-0.1116527276\H,2.
 184237212,1.2224380015,-0.4548923207\C,0.7349691555,-0.1833099081,0.00
 90186822\H,-2.1875413983,-1.3075098024,0.7685389465\C,1.5854885717,-1.
 4095688025,0.0778811461\C,-0.7313423949,-0.1955543463,0.1115177709\H,0
 .9855007906,-2.2987092408,-0.114000131\H,2.4263213483,-1.3767210336,-0
 .6248328449\H,1.9946690861,-1.4945528774,1.0935885565\O,-1.4095523166,
 0.8888802489,0.2250897992\H,0.5961730595,1.8108414951,0.0216237536\O,-
 1.2234095864,-1.4263146102,0.6505008134\H,-0.3907807674,-0.5153104176,
 -1.1239993442\\Version=ES64L-G09RevD.01\State=1-A\HF=-323.5570892\RMSD
 =3.429e-09\RMSF=1.451e-05\ZeroPoint=0.1026957\Thermal=0.109189\Dipole=
 1.7595123,-0.214771,-0.3667876\DipoleDeriv=-0.5866819,-0.2368174,-0.20
 97157,-0.6302814,-0.834308,-0.1125549,-0.1874943,0.0698144,-0.5820258,
 0.2264502,0.0325297,0.0813337,0.0138943,0.2214078,-0.0201644,0.1537471
 ,0.009419,0.3714979,0.707499,0.3217564,0.346412,0.751226,0.8034041,0.0
 78773,0.8025136,0.0449905,0.1011,0.1869503,0.0614092,0.0127913,0.15467
 3,0.3019704,0.0139042,-0.0246532,0.025415,0.3796255,0.0360918,0.063075
 2,-0.0677534,-0.0264615,-0.0933306,0.00857,-0.1823499,0.0386316,0.0957
 009,1.1581012,-0.2199279,-0.589536,-0.1994455,1.2224719,-0.0746246,-1.
 3048351,-0.229403,0.7778095,0.0700424,-0.0741722,-0.0259426,-0.0263131
 ,0.0357106,0.0001671,-0.0133595,-0.0468692,0.0978901,-0.0822198,0.0344
 93,0.0879626,-0.0047094,0.0418574,0.0518616,0.1373636,-0.0041248,0.008
 6589,0.0180038,0.0463065,-0.0521851,0.0547554,0.0718055,-0.0056181,-0.
 0721759,0.0038727,-0.0442013,-0.8632589,0.2528135,0.1698306,0.4308616,
 -1.0035782,-0.0994935,0.306771,0.0043613,-0.5061904,0.201591,0.05514,0
 .0027249,0.0053737,0.2577558,0.0239353,0.0014005,0.0147516,0.3358463,-
 0.4549381,-0.2510639,0.1533979,-0.4633889,-0.8940527,0.2513628,0.35363
 22,0.2055434,-0.6370793,-0.6176309,-0.0855422,0.0906799,-0.0601842,-0.
 1311141,-0.1161185,0.0294399,-0.1364025,-0.3986324\Polar=63.4475445,1.
 8502869,50.7337212,-2.2905265,-0.2114438,32.9437962\PG=C01 [X(C3H7N1O2
 )]\NImag=1\\0.82834064,0.02281376,0.78381132,-0.21463116,-0.02547155,0
 .14392856,-0.40035964,-0.05541133,0.13603876,0.41610669,-0.05455937,-0
 .08574525,0.01923954,0.06813337,0.07983751,0.14610636,0.02308043,-0.06
 572689,-0.14538521,-0.02364563,0.06511865,-0.17502517,-0.08354261,0.03
 996926,-0.01013490,-0.04011342,0.00631932,0.58760323,-0.10200684,-0.37
 545677,0.03894886,-0.00236751,-0.00359377,-0.00211599,0.00368117,0.742
 51178,0.02875327,0.05749949,-0.06258025,-0.00115708,0.01201781,-0.0035
 9437,-0.11799263,-0.08645204,0.15412012,0.00062691,0.00206341,0.000898
 44,-0.00002905,-0.00026876,-0.00023802,-0.00159443,-0.00330224,-0.0010
 7155,0.46972925,-0.00133536,0.00072040,0.00047001,-0.00023516,-0.00057
 060,-0.00014549,-0.00063661,-0.00829907,0.00109491,-0.03679304,0.04741
 821,0.00017223,-0.00050905,0.00072096,0.00011262,0.00002517,0.00079814
 ,-0.00112414,0.00120951,-0.00028126,-0.06491468,-0.01086388,0.02160042
 ,0.01371617,-0.01624885,0.00277935,0.00112372,-0.00044189,-0.00208719,
 -0.13862270,0.06722872,-0.00464219,0.00048811,0.00067014,0.00022867,0.
 56064684,0.02351369,-0.03332408,0.00162213,0.00016871,0.00245597,-0.00
 113221,0.05445228,-0.18253958,0.00062583,-0.00010351,-0.00040562,0.000
 10365,0.05190154,0.54283744,0.00013887,0.00363968,0.00411642,-0.001784
 74,0.00071253,-0.00230369,0.01717751,0.00307360,-0.06313756,0.00026660
 ,-0.00020469,-0.00036358,-0.01277236,0.01381514,0.54333823,-0.02913037
 ,-0.01150858,-0.00035438,-0.00116235,0.00386266,-0.00632037,-0.2476415
 2,-0.01125653,0.02862105,-0.02570359,-0.05483502,0.02165890,-0.0121916
 2,0.00502141,-0.00658341,0.64471943,-0.04792581,-0.02567588,0.00559694
 ,0.00221812,-0.00696454,0.00088140,0.02902282,-0.07063040,0.02515392,0
 .00420797,0.00091441,0.00163649,0.02377135,0.00637568,-0.00923398,-0.0
 9035554,0.59956135,-0.01126980,-0.04951367,-0.00885437,0.00900980,0.00
 304564,0.00646358,0.10990785,0.05893320,0.04817456,0.00499158,0.014647
 28,-0.00347819,-0.00454455,0.00386723,-0.01705911,-0.05936244,-0.06110
 534,0.12928293,-0.00358069,0.00327565,0.00005395,-0.00010042,0.0001181
 6,0.00016558,0.01397514,0.01964420,0.00507373,0.00007985,-0.00024092,-
 0.00016968,-0.13671369,-0.12990623,-0.02760967,0.00081242,0.00132094,-
 0.00210462,0.14664281,0.00504473,-0.00270471,-0.00053626,0.00010369,0.
 00035179,-0.00050864,-0.01822491,-0.02591391,-0.00587374,-0.00012464,0
 .00064442,-0.00005679,-0.12226803,-0.23360033,-0.04085455,-0.00091843,
 -0.00176273,0.00011001,0.13509727,0.25762847,-0.00058249,0.00006129,0.
 00185083,-0.00004227,-0.00034812,-0.00021469,0.00067332,0.00517595,-0.
 00256651,-0.00020282,0.00033531,0.00001747,-0.02538771,-0.04211107,-0.
 05656169,-0.00120546,-0.00088715,0.00216290,0.03115683,0.04400037,0.05
 838335,0.00193680,-0.00124279,-0.00135926,0.00029406,0.00105307,0.0005
 7793,-0.02200510,0.00009614,0.00957117,0.00005357,0.00028810,0.0000258
 9,-0.19682316,-0.00999268,0.12741817,0.00286948,0.00303719,0.00417353,
 -0.01274549,0.00103143,0.01233091,0.21801296,-0.00031297,0.00301160,0.
 00024907,-0.00079300,-0.00077967,0.00013187,0.03027224,-0.00068170,-0.
 01870624,-0.00010155,0.00020883,0.00007388,-0.01022550,-0.05236446,0.0
 0642460,-0.00326209,-0.00516446,-0.00125374,-0.01984617,0.00080994,0.0
 1926318,0.00571183,0.05416371,-0.00076115,-0.00105411,0.00019996,0.000
 53846,-0.00082421,0.00010259,-0.00456937,0.00199384,0.00268157,-0.0000
 7084,0.00000352,0.00004961,0.12918573,0.00606110,-0.15716839,-0.001937
 18,0.00148691,0.00083242,-0.00606733,-0.00038380,0.00407266,-0.1419817
 5,-0.00845357,0.16905535,0.00048251,-0.00110230,0.00063178,0.00004310,
 -0.00002974,-0.00009120,-0.00905494,0.00368826,-0.01852750,0.00014199,
 0.00000599,-0.00003780,-0.08081874,0.00646959,-0.08853036,-0.00051264,
 0.00129402,-0.00467102,-0.00624510,0.00206368,-0.01753613,0.00931683,-
 0.00209028,0.02533226,0.08855708,-0.00054763,-0.00001128,-0.00220391,0
 .00035026,-0.00028550,0.00114716,0.01212940,-0.00650755,0.02730012,-0.
 00010123,-0.00006000,-0.00007834,0.00672904,-0.04748681,0.01711990,0.0
 0119709,-0.00047074,0.00285545,-0.00961134,0.00293845,-0.02634506,0.00
 005553,-0.00004760,0.00194066,-0.01142293,0.05194158,0.00036697,-0.000
 89534,0.00088813,-0.00002251,0.00003811,-0.00050284,-0.00315115,0.0017
 6413,-0.00027190,0.00006177,0.00005792,-0.00009021,-0.08681456,0.01518
 381,-0.26833311,0.00055804,0.00040282,-0.00038357,-0.00097357,0.001464
 14,-0.00574268,-0.00879998,0.00071057,-0.02038804,0.09892491,-0.019006
 19,0.29417113,-0.00298873,0.00403661,-0.00036108,-0.00015545,0.0017630
 0,-0.00100441,-0.03470996,0.04213038,0.01124251,0.00352612,0.00675265,
 -0.00227390,-0.00352486,-0.00323928,0.00366970,-0.20464269,0.15963565,
 0.01516097,0.00022348,-0.00031983,0.00041531,-0.00146284,0.00227906,-0
 .00008194,-0.00047665,-0.00006657,-0.00021756,0.22992411,-0.00412885,0
 .01560858,0.00330641,-0.00342214,0.00255326,-0.00224284,0.00092579,-0.
 02741928,-0.01840403,0.00263660,0.00210754,-0.00202952,-0.00057164,0.0
 0130570,0.00059626,0.16420160,-0.33574910,0.01390761,-0.00040841,0.000
 97147,-0.00005033,0.00067999,-0.00049929,-0.00066255,0.00042373,0.0000
 3954,0.00015889,-0.22474072,0.41986935,0.00462538,0.00943531,0.0017400
 6,-0.00146074,0.00001982,-0.00049093,-0.00918828,-0.01239960,-0.004647
 26,-0.00243930,-0.00380497,-0.00216572,0.00065835,0.00046463,0.0068425
 3,0.02354826,-0.02595583,-0.07194029,0.00043346,0.00003334,-0.00048671
 ,-0.00060726,0.00037437,-0.00030326,0.00168276,-0.00135973,-0.00009137
 ,-0.03854639,0.02800749,0.05954270,-0.21481658,0.16665370,0.04350162,-
 0.00901788,0.02157652,0.00093812,0.02207066,-0.00224865,0.00447479,0.0
 0000296,-0.00068757,-0.00000246,-0.00154390,-0.00287152,0.00167457,0.0
 0748560,-0.01880254,-0.01353619,0.00043402,-0.00075083,-0.00002289,-0.
 00058602,0.00031628,0.00005218,-0.00018376,-0.00017218,-0.00020163,0.0
 0187562,0.01432115,0.00245794,0.20210757,0.16752428,-0.27066749,-0.032
 68944,-0.01061755,0.01190217,0.00245083,0.01951560,-0.03781048,-0.0030
 4973,-0.00018572,-0.00006411,-0.00002394,-0.00403102,-0.00138208,-0.00
 086763,0.00220992,-0.00609261,0.00156004,0.00096566,-0.00078481,0.0003
 4549,0.00005951,0.00024712,-0.00011144,-0.00000578,0.00012769,0.000168
 69,0.00286967,0.00217419,-0.00046003,-0.17991381,0.30163717,0.04108912
 ,-0.02483278,-0.03301220,0.00512186,-0.00943932,-0.00220276,-0.0093872
 4,-0.00126685,0.00769965,0.00007952,0.00024321,-0.00027318,0.00226848,
 0.00255482,0.00459787,0.00236704,0.00131872,0.00135737,-0.00051694,0.0
 0093211,0.00040702,-0.00024893,0.00029982,0.00001140,0.00028188,-0.000
 82586,-0.00001229,-0.00043124,-0.00078905,-0.00486541,-0.04121859,0.03
 380056,0.03108190,-0.00717594,0.00132517,0.00072504,-0.00042307,-0.001
 95833,-0.00087141,-0.01790519,-0.03740690,0.02089863,-0.44955196,0.085
 59571,0.04537667,-0.00135004,-0.00005824,0.00195111,-0.12197333,-0.046
 11141,0.03778734,-0.00183744,-0.00128057,-0.00009611,-0.00072594,-0.00
 101203,-0.00009603,0.00045499,0.00014527,-0.00038453,0.02165478,0.0163
 6797,-0.00827290,-0.00042530,0.00057206,0.00094463,0.58166545,-0.00191
 034,-0.00023830,-0.00105147,0.00074173,0.00037299,0.00136252,-0.003434
 34,-0.00104504,0.01565563,0.03138998,-0.04220988,0.00932536,0.00045799
 ,-0.00105162,-0.00257499,-0.00088665,-0.13983461,0.01186771,-0.0006487
 1,0.00080160,0.00071182,-0.00000923,0.00083932,0.00020199,-0.00106148,
 0.00040361,-0.00024009,-0.00483858,-0.06304111,0.02334190,0.00368524,0
 .00090655,-0.00035690,-0.00822803,0.24886984,0.00427706,0.00920318,0.0
 0319962,-0.00130962,-0.00033755,-0.00110756,-0.00894218,-0.00311187,-0
 .01487854,0.06397197,-0.00102413,-0.01666103,0.00033240,-0.00063327,0.
 00214716,0.01997132,0.05117913,-0.05722771,0.00084235,0.00019205,-0.00
 073519,-0.00019455,0.00004944,0.00005239,0.00130499,-0.00030343,0.0002
 9867,-0.00228707,0.00397958,0.01498706,0.00172549,-0.00069488,0.000009
 25,-0.10659230,-0.07594429,0.08527815,-0.01202591,-0.03111183,-0.00789
 232,0.00381519,0.00086474,0.00189051,0.03304486,0.02211979,0.03475581,
 0.00223026,0.00145109,0.00094768,-0.00438613,0.00464423,-0.01501600,-0
 .01292882,-0.02131276,-0.08554245,-0.00094489,0.00054644,0.00049952,0.
 00186483,-0.00093580,0.00045696,-0.00170467,0.00131530,0.00065381,-0.0
 0924293,0.03371494,0.02710870,-0.00740300,0.00103718,-0.00034957,-0.00
 240700,-0.01525760,0.02690013,0.01008820,-0.00616928,-0.00932814,-0.00
 748032,0.00113081,0.00046565,0.00073660,-0.00404740,-0.00261422,-0.006
 86192,0.00068272,-0.00040453,0.00118745,0.00302814,-0.00082021,0.00835
 413,-0.00346984,-0.01450636,0.00107856,0.00023991,0.00062036,-0.000151
 68,-0.00076810,0.00025667,-0.00019835,0.00176724,-0.00058138,0.0001925
 3,0.01373796,-0.01792084,-0.01769671,-0.00110578,-0.00019330,-0.001638
 47,-0.00795068,-0.00477335,0.01744604,0.00292429,0.04979965,0.00171534
 ,-0.00064287,0.01352917,0.00034065,-0.00050381,0.00366076,-0.01969226,
 -0.00575274,-0.06071824,-0.00133265,-0.00080901,0.00012658,0.00079558,
 -0.00042179,0.00388491,-0.02096136,0.00952598,-0.02933053,-0.00028408,
 0.00148175,-0.00058675,-0.00090587,0.00083676,0.00080173,0.00123544,-0
 .00024077,0.00045808,0.01471510,-0.02577792,0.00187860,0.00015705,-0.0
 0042852,-0.00479860,0.00862985,0.01770081,-0.01536227,0.01558722,0.005
 03213,0.08645655\\0.00001764,-0.00002297,-0.00000916,0.00000086,0.0000
 0315,-0.00000288,-0.00000971,0.00001334,-0.00002960,0.00000089,-0.0000
 0341,0.00000184,0.00001654,0.00000835,0.00001129,-0.00004961,0.0000295
 5,0.00000547,-0.00000322,0.00001364,-0.00000166,0.00000272,-0.00000148
 ,0.00000044,0.00000553,-0.00000116,-0.00000019,0.00002617,-0.00002994,
 0.00000211,-0.00001148,-0.00000111,0.00000436,-0.00000470,-0.00000567,
 0.00000809,0.00000838,-0.00000229,0.00000991\\\@


 OLD AGE AND TREACHERY WILL ALWAYS PREVAIL OVER YOUTH AND SKILL.
 Job cpu time:       0 days  0 hours  1 minutes 13.4 seconds.
 File lengths (MBytes):  RWF=     12 Int=      0 D2E=      0 Chk=      2 Scr=      1
 Normal termination of Gaussian 09 at Thu Apr 14 10:54:19 2016.
