 Entering Link 1 = c:\G03W06\l1.exe PID=      4860.
  
 Copyright (c) 1988,1990,1992,1993,1995,1998,2003,2004,2007, Gaussian, Inc.
                  All Rights Reserved.
  
 This is the Gaussian(R) 03 program.  It is based on the
 the Gaussian(R) 98 system (copyright 1998, Gaussian, Inc.),
 the Gaussian(R) 94 system (copyright 1995, Gaussian, Inc.),
 the Gaussian 92(TM) system (copyright 1992, Gaussian, Inc.),
 the Gaussian 90(TM) system (copyright 1990, Gaussian, Inc.),
 the Gaussian 88(TM) system (copyright 1988, Gaussian, Inc.),
 the Gaussian 86(TM) system (copyright 1986, Carnegie Mellon
 University), and the Gaussian 82(TM) system (copyright 1983,
 Carnegie Mellon University). Gaussian is a federally registered
 trademark of Gaussian, Inc.
  
 This software contains proprietary and confidential information,
 including trade secrets, belonging to Gaussian, Inc.
  
 This software is provided under written license and may be
 used, copied, transmitted, or stored only in accord with that
 written license.
  
 The following legend is applicable only to US Government
 contracts under FAR:
  
                    RESTRICTED RIGHTS LEGEND
  
 Use, reproduction and disclosure by the US Government is
 subject to restrictions as set forth in subparagraphs (a)
 and (c) of the Commercial Computer Software - Restricted
 Rights clause in FAR 52.227-19.
  
 Gaussian, Inc.
 340 Quinnipiac St., Bldg. 40, Wallingford CT 06492
  
  
 ---------------------------------------------------------------
 Warning -- This program may not be used in any manner that
 competes with the business of Gaussian, Inc. or will provide
 assistance to any competitor of Gaussian, Inc.  The licensee
 of this program is prohibited from giving any competitor of
 Gaussian, Inc. access to this program.  By using this program,
 the user acknowledges that Gaussian, Inc. is engaged in the
 business of creating and licensing software in the field of
 computational chemistry and represents and warrants to the
 licensee that it is not a competitor of Gaussian, Inc. and that
 it will not use this program in any manner prohibited above.
 ---------------------------------------------------------------
  

 Cite this work as:
 Gaussian 03, Revision E.01,
 M. J. Frisch, G. W. Trucks, H. B. Schlegel, G. E. Scuseria, 
 M. A. Robb, J. R. Cheeseman, J. A. Montgomery, Jr., T. Vreven, 
 K. N. Kudin, J. C. Burant, J. M. Millam, S. S. Iyengar, J. Tomasi, 
 V. Barone, B. Mennucci, M. Cossi, G. Scalmani, N. Rega, 
 G. A. Petersson, H. Nakatsuji, M. Hada, M. Ehara, K. Toyota, 
 R. Fukuda, J. Hasegawa, M. Ishida, T. Nakajima, Y. Honda, O. Kitao, 
 H. Nakai, M. Klene, X. Li, J. E. Knox, H. P. Hratchian, J. B. Cross, 
 V. Bakken, C. Adamo, J. Jaramillo, R. Gomperts, R. E. Stratmann, 
 O. Yazyev, A. J. Austin, R. Cammi, C. Pomelli, J. W. Ochterski, 
 P. Y. Ayala, K. Morokuma, G. A. Voth, P. Salvador, J. J. Dannenberg, 
 V. G. Zakrzewski, S. Dapprich, A. D. Daniels, M. C. Strain, 
 O. Farkas, D. K. Malick, A. D. Rabuck, K. Raghavachari, 
 J. B. Foresman, J. V. Ortiz, Q. Cui, A. G. Baboul, S. Clifford, 
 J. Cioslowski, B. B. Stefanov, G. Liu, A. Liashenko, P. Piskorz, 
 I. Komaromi, R. L. Martin, D. J. Fox, T. Keith, M. A. Al-Laham, 
 C. Y. Peng, A. Nanayakkara, M. Challacombe, P. M. W. Gill, 
 B. Johnson, W. Chen, M. W. Wong, C. Gonzalez, and J. A. Pople, 
 Gaussian, Inc., Wallingford CT, 2004.
 
 ******************************************
 Gaussian 03:  IA32W-G03RevE.01 11-Sep-2007
                01-Apr-2016 
 ******************************************
 %chk=E:\YangJ\Amiano\Ala\ts1\s\Ala-S-opt-freq-ts1-6-311++gdp.chk
 -------------------------------------------------------
 # opt=(calcfc,ts) freq rb3lyp/6-311++g(d,p) iop(1/11=1)
 -------------------------------------------------------
 1/5=1,10=4,11=1,14=-1,18=20,26=3,38=1/1,3;
 2/9=110,17=6,18=5,40=1/2;
 3/5=4,6=6,7=1111,11=2,16=1,25=1,30=1,74=-5/1,2,3;
 4/7=1/1;
 5/5=2,38=5/2;
 8/6=4,10=90,11=11/1;
 11/6=1,8=1,9=11,15=111,16=1/1,2,10;
 10/6=1,7=6/2;
 6/7=2,8=2,9=2,10=2,28=1/1;
 7/10=1,18=20,25=1/1,2,3,16;
 1/5=1,10=4,11=1,14=-1,18=20/3(3);
 2/9=110/2;
 6/7=2,8=2,9=2,10=2,19=2,28=1/1;
 99//99;
 2/9=110/2;
 3/5=4,6=6,7=1111,11=2,16=1,25=1,30=1,74=-5/1,2,3;
 4/5=5,7=1,16=3/1;
 5/5=2,38=5/2;
 7//1,2,3,16;
 1/5=1,11=1,14=-1,18=20/3(-5);
 2/9=110/2;
 6/7=2,8=2,9=2,10=2,19=2,28=1/1;
 99/9=1/99;
 -----------------------------
 Ala-S-opt-freq-ts1-6-311++gdp
 -----------------------------
 Symbolic Z-matrix:
 Charge =  0 Multiplicity = 1
 N                    -1.35636  -1.18714  -0.31102 
 H                    -1.04889  -1.77568   0.4507 
 C                    -0.72139   0.11448  -0.41447 
 H                    -0.7952    0.47285  -1.44899 
 C                    -1.30793   1.21955   0.51465 
 C                     0.73475  -0.02873  -0.11154 
 H                    -1.2186    0.91972   1.56419 
 H                    -0.79508   2.17616   0.37045 
 H                    -2.36935   1.35233   0.28075 
 O                     1.26999  -0.96955   0.62147 
 H                    -2.34321  -1.22419  -0.51753 
 O                     1.67298   0.80746  -0.46373 
 H                     2.2885   -0.14631   0.28382 
 

 GradGradGradGradGradGradGradGradGradGradGradGradGradGradGradGradGradGrad
 Berny optimization.
 Initialization pass.
                           ----------------------------
                           !    Initial Parameters    !
                           ! (Angstroms and Degrees)  !
 --------------------------                            --------------------------
 ! Name  Definition              Value          Derivative Info.                !
 --------------------------------------------------------------------------------
 ! R1    R(1,2)                  1.0105         calculate D2E/DX2 analytically  !
 ! R2    R(1,3)                  1.4519         calculate D2E/DX2 analytically  !
 ! R3    R(1,11)                 1.0089         calculate D2E/DX2 analytically  !
 ! R4    R(3,4)                  1.0973         calculate D2E/DX2 analytically  !
 ! R5    R(3,5)                  1.5584         calculate D2E/DX2 analytically  !
 ! R6    R(3,6)                  1.4942         calculate D2E/DX2 analytically  !
 ! R7    R(5,7)                  1.0952         calculate D2E/DX2 analytically  !
 ! R8    R(5,8)                  1.0949         calculate D2E/DX2 analytically  !
 ! R9    R(5,9)                  1.095          calculate D2E/DX2 analytically  !
 ! R10   R(6,10)                 1.3073         calculate D2E/DX2 analytically  !
 ! R11   R(6,12)                 1.3052         calculate D2E/DX2 analytically  !
 ! R12   R(6,13)                 1.6076         calculate D2E/DX2 analytically  !
 ! R13   R(10,13)                1.3524         calculate D2E/DX2 analytically  !
 ! R14   R(12,13)                1.3592         calculate D2E/DX2 analytically  !
 ! A1    A(2,1,3)              116.281          calculate D2E/DX2 analytically  !
 ! A2    A(2,1,11)             115.5005         calculate D2E/DX2 analytically  !
 ! A3    A(3,1,11)             116.4936         calculate D2E/DX2 analytically  !
 ! A4    A(1,3,4)              109.3015         calculate D2E/DX2 analytically  !
 ! A5    A(1,3,5)              115.3809         calculate D2E/DX2 analytically  !
 ! A6    A(1,3,6)              109.0151         calculate D2E/DX2 analytically  !
 ! A7    A(4,3,5)              107.7694         calculate D2E/DX2 analytically  !
 ! A8    A(4,3,6)              106.7375         calculate D2E/DX2 analytically  !
 ! A9    A(5,3,6)              108.2934         calculate D2E/DX2 analytically  !
 ! A10   A(3,5,7)              110.2756         calculate D2E/DX2 analytically  !
 ! A11   A(3,5,8)              111.391          calculate D2E/DX2 analytically  !
 ! A12   A(3,5,9)              108.8738         calculate D2E/DX2 analytically  !
 ! A13   A(7,5,8)              109.0981         calculate D2E/DX2 analytically  !
 ! A14   A(7,5,9)              108.48           calculate D2E/DX2 analytically  !
 ! A15   A(8,5,9)              108.6599         calculate D2E/DX2 analytically  !
 ! A16   A(3,6,10)             125.5683         calculate D2E/DX2 analytically  !
 ! A17   A(3,6,12)             125.7624         calculate D2E/DX2 analytically  !
 ! A18   A(10,6,12)            108.5454         calculate D2E/DX2 analytically  !
 ! A19   A(10,13,12)           102.9094         calculate D2E/DX2 analytically  !
 ! A20   L(3,6,13,5,-1)        177.3053         calculate D2E/DX2 analytically  !
 ! A21   L(3,6,13,5,-2)        178.5763         calculate D2E/DX2 analytically  !
 ! D1    D(2,1,3,4)            156.3192         calculate D2E/DX2 analytically  !
 ! D2    D(2,1,3,5)            -82.0755         calculate D2E/DX2 analytically  !
 ! D3    D(2,1,3,6)             39.9953         calculate D2E/DX2 analytically  !
 ! D4    D(11,1,3,4)           -62.1788         calculate D2E/DX2 analytically  !
 ! D5    D(11,1,3,5)            59.4265         calculate D2E/DX2 analytically  !
 ! D6    D(11,1,3,6)          -178.5027         calculate D2E/DX2 analytically  !
 ! D7    D(1,3,5,7)             59.7788         calculate D2E/DX2 analytically  !
 ! D8    D(1,3,5,8)           -178.935          calculate D2E/DX2 analytically  !
 ! D9    D(1,3,5,9)            -59.1293         calculate D2E/DX2 analytically  !
 ! D10   D(4,3,5,7)           -177.7943         calculate D2E/DX2 analytically  !
 ! D11   D(4,3,5,8)            -56.5081         calculate D2E/DX2 analytically  !
 ! D12   D(4,3,5,9)             63.2975         calculate D2E/DX2 analytically  !
 ! D13   D(6,3,5,7)            -62.678          calculate D2E/DX2 analytically  !
 ! D14   D(6,3,5,8)             58.6083         calculate D2E/DX2 analytically  !
 ! D15   D(6,3,5,9)            178.4139         calculate D2E/DX2 analytically  !
 ! D16   D(1,3,6,10)           -25.2438         calculate D2E/DX2 analytically  !
 ! D17   D(1,3,6,12)           159.2739         calculate D2E/DX2 analytically  !
 ! D18   D(4,3,6,10)          -143.1951         calculate D2E/DX2 analytically  !
 ! D19   D(4,3,6,12)            41.3226         calculate D2E/DX2 analytically  !
 ! D20   D(5,3,6,10)           101.0151         calculate D2E/DX2 analytically  !
 ! D21   D(5,3,6,12)           -74.4672         calculate D2E/DX2 analytically  !
 --------------------------------------------------------------------------------
 Trust Radius=3.00D-01 FncErr=1.00D-07 GrdErr=1.00D-06
 Number of steps in this run=  66 maximum allowed number of steps= 100.
 Search for a saddle point of order  1.
 GradGradGradGradGradGradGradGradGradGradGradGradGradGradGradGradGradGrad

                          Input orientation:                          
 ---------------------------------------------------------------------
 Center     Atomic     Atomic              Coordinates (Angstroms)
 Number     Number      Type              X           Y           Z
 ---------------------------------------------------------------------
    1          7             0       -1.356357   -1.187138   -0.311019
    2          1             0       -1.048891   -1.775684    0.450704
    3          6             0       -0.721394    0.114480   -0.414472
    4          1             0       -0.795202    0.472853   -1.448991
    5          6             0       -1.307925    1.219550    0.514647
    6          6             0        0.734745   -0.028732   -0.111541
    7          1             0       -1.218595    0.919722    1.564187
    8          1             0       -0.795079    2.176161    0.370448
    9          1             0       -2.369349    1.352333    0.280754
   10          8             0        1.269994   -0.969551    0.621469
   11          1             0       -2.343210   -1.224185   -0.517527
   12          8             0        1.672977    0.807462   -0.463729
   13          1             0        2.288501   -0.146310    0.283823
 ---------------------------------------------------------------------
                    Distance matrix (angstroms):
                    1          2          3          4          5
     1  N    0.000000
     2  H    1.010517   0.000000
     3  C    1.451926   2.104401   0.000000
     4  H    2.089365   2.954508   1.097319   0.000000
     5  C    2.544841   3.007094   1.558352   2.162479   0.000000
     6  C    2.398834   2.559164   1.494195   2.093107   2.474433
     7  H    2.823869   2.921277   2.193334   3.075418   1.095176
     8  H    3.477242   3.960800   2.207274   2.492311   1.094947
     9  H    2.797367   3.399556   2.175172   2.498688   1.094969
    10  O    2.795460   2.460943   2.492774   3.260731   3.383673
    11  H    1.008909   1.707889   2.105453   2.478688   2.847637
    12  O    3.630236   3.862305   2.493123   2.678547   3.164303
    13  H    3.836945   3.717646   3.100822   3.590993   3.853976
                    6          7          8          9         10
     6  C    0.000000
     7  H    2.742839   0.000000
     8  H    2.726578   1.784101   0.000000
     9  H    3.420034   1.777241   1.779063   0.000000
    10  O    1.307263   3.263609   3.771345   4.330364   0.000000
    11  H    3.326821   3.192903   3.840255   2.697477   3.797024
    12  O    1.305196   3.533587   2.942871   4.146268   2.120808
    13  H    1.607574   3.882715   3.861326   4.893006   1.352437
                   11         12         13
    11  H    0.000000
    12  O    4.501138   0.000000
    13  H    4.822522   1.359185   0.000000
 Stoichiometry    C3H7NO2
 Framework group  C1[X(C3H7NO2)]
 Deg. of freedom    33
 Full point group                 C1
 Largest Abelian subgroup         C1      NOp   1
 Largest concise Abelian subgroup C1      NOp   1
                         Standard orientation:                         
 ---------------------------------------------------------------------
 Center     Atomic     Atomic              Coordinates (Angstroms)
 Number     Number      Type              X           Y           Z
 ---------------------------------------------------------------------
    1          7             0       -1.356357   -1.187138   -0.311019
    2          1             0       -1.048891   -1.775684    0.450704
    3          6             0       -0.721394    0.114480   -0.414472
    4          1             0       -0.795202    0.472853   -1.448991
    5          6             0       -1.307925    1.219550    0.514647
    6          6             0        0.734745   -0.028732   -0.111541
    7          1             0       -1.218595    0.919722    1.564187
    8          1             0       -0.795079    2.176161    0.370448
    9          1             0       -2.369349    1.352333    0.280754
   10          8             0        1.269994   -0.969551    0.621469
   11          1             0       -2.343210   -1.224185   -0.517527
   12          8             0        1.672977    0.807462   -0.463729
   13          1             0        2.288501   -0.146310    0.283823
 ---------------------------------------------------------------------
 Rotational constants (GHZ):      5.1980700      2.9518886      2.2448026
 Standard basis: 6-311++G(d,p) (5D, 7F)
 There are   181 symmetry adapted basis functions of A   symmetry.
 Integral buffers will be    262144 words long.
 Raffenetti 2 integral format.
 Two-electron integral symmetry is turned on.
   181 basis functions,   279 primitive gaussians,   187 cartesian basis functions
    24 alpha electrons       24 beta electrons
       nuclear repulsion energy       247.6629880094 Hartrees.
 NAtoms=   13 NActive=   13 NUniq=   13 SFac= 7.50D-01 NAtFMM=   80 NAOKFM=F Big=F
 One-electron integrals computed using PRISM.
 NBasis=   181 RedAO= T  NBF=   181
 NBsUse=   181 1.00D-06 NBFU=   181
 Harris functional with IExCor=  402 diagonalized for initial guess.
 ExpMin= 3.60D-02 ExpMax= 8.59D+03 ExpMxC= 1.30D+03 IAcc=3 IRadAn=         5 AccDes= 0.00D+00
 HarFok:  IExCor= 402 AccDes= 0.00D+00 IRadAn=         5 IDoV=1
 ScaDFX=  1.000000  1.000000  1.000000  1.000000
 Initial guess orbital symmetries:
       Occupied  (A) (A) (A) (A) (A) (A) (A) (A) (A) (A) (A) (A)
                 (A) (A) (A) (A) (A) (A) (A) (A) (A) (A) (A) (A)
       Virtual   (A) (A) (A) (A) (A) (A) (A) (A) (A) (A) (A) (A)
                 (A) (A) (A) (A) (A) (A) (A) (A) (A) (A) (A) (A)
                 (A) (A) (A) (A) (A) (A) (A) (A) (A) (A) (A) (A)
                 (A) (A) (A) (A) (A) (A) (A) (A) (A) (A) (A) (A)
                 (A) (A) (A) (A) (A) (A) (A) (A) (A) (A) (A) (A)
                 (A) (A) (A) (A) (A) (A) (A) (A) (A) (A) (A) (A)
                 (A) (A) (A) (A) (A) (A) (A) (A) (A) (A) (A) (A)
                 (A) (A) (A) (A) (A) (A) (A) (A) (A) (A) (A) (A)
                 (A) (A) (A) (A) (A) (A) (A) (A) (A) (A) (A) (A)
                 (A) (A) (A) (A) (A) (A) (A) (A) (A) (A) (A) (A)
                 (A) (A) (A) (A) (A) (A) (A) (A) (A) (A) (A) (A)
                 (A) (A) (A) (A) (A) (A) (A) (A) (A) (A) (A) (A)
                 (A) (A) (A) (A) (A) (A) (A) (A) (A) (A) (A) (A)
                 (A)
 The electronic state of the initial guess is 1-A.
 Requested convergence on RMS density matrix=1.00D-08 within 128 cycles.
 Requested convergence on MAX density matrix=1.00D-06.
 Requested convergence on             energy=1.00D-06.
 No special actions if energy rises.
 SCF Done:  E(RB+HF-LYP) =  -323.789834525     A.U. after   13 cycles
             Convg  =    0.3598D-08             -V/T =  2.0046
             S**2   =   0.0000
 Range of M.O.s used for correlation:     1   181
 NBasis=   181 NAE=    24 NBE=    24 NFC=     0 NFV=     0
 NROrb=    181 NOA=    24 NOB=    24 NVA=   157 NVB=   157

 **** Warning!!: The largest alpha MO coefficient is  0.63413896D+02

 Symmetrizing basis deriv contribution to polar:
 IMax=3 JMax=2 DiffMx= 0.00D+00
 G2DrvN: will do   14 centers at a time, making    1 passes doing MaxLOS=2.
 FoFDir/FoFCou used for L=0 through L=2.
 DoAtom=TTTTTTTTTTTTT
          Differentiating once with respect to electric field.
                with respect to dipole field.
          Differentiating once with respect to nuclear coordinates.
 Integrals replicated using symmetry in FoFDir.
 MinBra= 0 MaxBra= 2 Meth= 1.
 IRaf=       0 NMat=  42 IRICut=      42 DoRegI=T DoRafI=T ISym2E= 2 JSym2E=2.
          There are  42 degrees of freedom in the 1st order CPHF.
    39 vectors were produced by pass  0.
 AX will form  39 AO Fock derivatives at one time.
    39 vectors were produced by pass  1.
    39 vectors were produced by pass  2.
    39 vectors were produced by pass  3.
    22 vectors were produced by pass  4.
     3 vectors were produced by pass  5.
     2 vectors were produced by pass  6.
 Inv2:  IOpt= 1 Iter= 1 AM= 1.79D-15 Conv= 1.00D-12.
 Inverted reduced A of dimension  183 with in-core refinement.
 Isotropic polarizability for W=    0.000000       54.80 Bohr**3.
 End of Minotr Frequency-dependent properties file   721 does not exist.

 **********************************************************************

            Population analysis using the SCF density.

 **********************************************************************

 Orbital symmetries:
       Occupied  (A) (A) (A) (A) (A) (A) (A) (A) (A) (A) (A) (A)
                 (A) (A) (A) (A) (A) (A) (A) (A) (A) (A) (A) (A)
       Virtual   (A) (A) (A) (A) (A) (A) (A) (A) (A) (A) (A) (A)
                 (A) (A) (A) (A) (A) (A) (A) (A) (A) (A) (A) (A)
                 (A) (A) (A) (A) (A) (A) (A) (A) (A) (A) (A) (A)
                 (A) (A) (A) (A) (A) (A) (A) (A) (A) (A) (A) (A)
                 (A) (A) (A) (A) (A) (A) (A) (A) (A) (A) (A) (A)
                 (A) (A) (A) (A) (A) (A) (A) (A) (A) (A) (A) (A)
                 (A) (A) (A) (A) (A) (A) (A) (A) (A) (A) (A) (A)
                 (A) (A) (A) (A) (A) (A) (A) (A) (A) (A) (A) (A)
                 (A) (A) (A) (A) (A) (A) (A) (A) (A) (A) (A) (A)
                 (A) (A) (A) (A) (A) (A) (A) (A) (A) (A) (A) (A)
                 (A) (A) (A) (A) (A) (A) (A) (A) (A) (A) (A) (A)
                 (A) (A) (A) (A) (A) (A) (A) (A) (A) (A) (A) (A)
                 (A) (A) (A) (A) (A) (A) (A) (A) (A) (A) (A) (A)
                 (A)
 The electronic state is 1-A.
 Alpha  occ. eigenvalues --  -19.15535 -19.15339 -14.31046 -10.33095 -10.24814
 Alpha  occ. eigenvalues --  -10.18716  -1.12445  -0.98776  -0.91186  -0.77197
 Alpha  occ. eigenvalues --   -0.68246  -0.57462  -0.52904  -0.50925  -0.47895
 Alpha  occ. eigenvalues --   -0.47436  -0.45058  -0.43072  -0.42039  -0.39055
 Alpha  occ. eigenvalues --   -0.37935  -0.31831  -0.30542  -0.25252
 Alpha virt. eigenvalues --   -0.03860  -0.01815  -0.00126   0.01148   0.01327
 Alpha virt. eigenvalues --    0.03506   0.04649   0.05336   0.06488   0.07058
 Alpha virt. eigenvalues --    0.07560   0.07957   0.09941   0.10413   0.11201
 Alpha virt. eigenvalues --    0.12107   0.12313   0.12852   0.13627   0.14924
 Alpha virt. eigenvalues --    0.16019   0.16541   0.17187   0.17762   0.19082
 Alpha virt. eigenvalues --    0.20246   0.20329   0.21598   0.23062   0.23624
 Alpha virt. eigenvalues --    0.23951   0.26104   0.27183   0.28276   0.28671
 Alpha virt. eigenvalues --    0.29189   0.29904   0.31804   0.33218   0.35718
 Alpha virt. eigenvalues --    0.36330   0.36907   0.39579   0.41838   0.44822
 Alpha virt. eigenvalues --    0.45398   0.49281   0.51668   0.55102   0.55946
 Alpha virt. eigenvalues --    0.57855   0.60415   0.62480   0.62843   0.65823
 Alpha virt. eigenvalues --    0.67239   0.69019   0.69465   0.72754   0.72961
 Alpha virt. eigenvalues --    0.80255   0.82253   0.84553   0.87807   0.94677
 Alpha virt. eigenvalues --    1.01331   1.03667   1.06464   1.10762   1.12533
 Alpha virt. eigenvalues --    1.14128   1.14809   1.17568   1.18280   1.19252
 Alpha virt. eigenvalues --    1.24574   1.29040   1.34929   1.37209   1.40479
 Alpha virt. eigenvalues --    1.41801   1.44864   1.51214   1.51596   1.54875
 Alpha virt. eigenvalues --    1.56866   1.58245   1.61518   1.63240   1.64246
 Alpha virt. eigenvalues --    1.68238   1.70036   1.71259   1.75134   1.79115
 Alpha virt. eigenvalues --    1.81238   1.87876   1.89545   1.92349   2.00660
 Alpha virt. eigenvalues --    2.06418   2.09627   2.12977   2.19066   2.21459
 Alpha virt. eigenvalues --    2.27025   2.33354   2.44239   2.45233   2.51190
 Alpha virt. eigenvalues --    2.52515   2.54828   2.57144   2.58252   2.61264
 Alpha virt. eigenvalues --    2.62110   2.64774   2.69744   2.74829   2.78428
 Alpha virt. eigenvalues --    2.81671   2.85654   2.86939   2.92398   2.96807
 Alpha virt. eigenvalues --    3.00370   3.02592   3.09881   3.17574   3.19693
 Alpha virt. eigenvalues --    3.24351   3.29813   3.33274   3.36012   3.51942
 Alpha virt. eigenvalues --    3.65306   3.70786   3.77858   3.78446   3.98283
 Alpha virt. eigenvalues --    4.06130   4.08378   4.18411   4.76591   4.87031
 Alpha virt. eigenvalues --    4.96964   5.03309   5.04270   5.26291   5.48568
 Alpha virt. eigenvalues --    5.77857  23.70384  23.78707  23.93671  35.60032
 Alpha virt. eigenvalues --   49.87952  49.94272
          Condensed to atoms (all electrons):
              1          2          3          4          5          6
     1  N    6.757519   0.376414  -0.046795  -0.063255  -0.086189   0.056726
     2  H    0.376414   0.420036   0.008604   0.005839  -0.000777  -0.029027
     3  C   -0.046795   0.008604   7.036396   0.480445   0.114796  -1.048607
     4  H   -0.063255   0.005839   0.480445   0.543474  -0.107645  -0.057875
     5  C   -0.086189  -0.000777   0.114796  -0.107645   5.498488  -0.124774
     6  C    0.056726  -0.029027  -1.048607  -0.057875  -0.124774   6.505872
     7  H   -0.012621   0.000020   0.008501   0.009569   0.373555  -0.011396
     8  H    0.026339  -0.001494  -0.104818  -0.009347   0.429951   0.020696
     9  H   -0.009810   0.001768  -0.022576  -0.008084   0.401950  -0.010601
    10  O   -0.013158   0.009612  -0.091485   0.002019  -0.059250   0.347331
    11  H    0.395928  -0.042232  -0.100852  -0.007539   0.008318   0.040500
    12  O   -0.008674   0.001842  -0.065895   0.003867  -0.042211   0.282620
    13  H    0.000306  -0.000369   0.027707  -0.001338   0.003468  -0.017985
              7          8          9         10         11         12
     1  N   -0.012621   0.026339  -0.009810  -0.013158   0.395928  -0.008674
     2  H    0.000020  -0.001494   0.001768   0.009612  -0.042232   0.001842
     3  C    0.008501  -0.104818  -0.022576  -0.091485  -0.100852  -0.065895
     4  H    0.009569  -0.009347  -0.008084   0.002019  -0.007539   0.003867
     5  C    0.373555   0.429951   0.401950  -0.059250   0.008318  -0.042211
     6  C   -0.011396   0.020696  -0.010601   0.347331   0.040500   0.282620
     7  H    0.544535  -0.032389  -0.042638   0.003440   0.001513  -0.002138
     8  H   -0.032389   0.534149  -0.025893   0.001056   0.001079   0.007676
     9  H   -0.042638  -0.025893   0.563838  -0.003009  -0.000367  -0.001887
    10  O    0.003440   0.001056  -0.003009   8.181385   0.001788  -0.223939
    11  H    0.001513   0.001079  -0.000367   0.001788   0.457371  -0.001141
    12  O   -0.002138   0.007676  -0.001887  -0.223939  -0.001141   8.208134
    13  H    0.000235  -0.000701   0.000316   0.129572   0.000180   0.119814
             13
     1  N    0.000306
     2  H   -0.000369
     3  C    0.027707
     4  H   -0.001338
     5  C    0.003468
     6  C   -0.017985
     7  H    0.000235
     8  H   -0.000701
     9  H    0.000316
    10  O    0.129572
    11  H    0.000180
    12  O    0.119814
    13  H    0.419650
 Mulliken atomic charges:
              1
     1  N   -0.372731
     2  H    0.249766
     3  C   -0.195420
     4  H    0.209872
     5  C   -0.409681
     6  C    0.046522
     7  H    0.159813
     8  H    0.153696
     9  H    0.156995
    10  O   -0.285362
    11  H    0.245455
    12  O   -0.278069
    13  H    0.319144
 Sum of Mulliken charges=   0.00000
 Atomic charges with hydrogens summed into heavy atoms:
              1
     1  N    0.122490
     2  H    0.000000
     3  C    0.014452
     4  H    0.000000
     5  C    0.060824
     6  C    0.046522
     7  H    0.000000
     8  H    0.000000
     9  H    0.000000
    10  O    0.033782
    11  H    0.000000
    12  O   -0.278069
    13  H    0.000000
 Sum of Mulliken charges=   0.00000
 APT atomic charges:
              1
     1  N   -0.565528
     2  H    0.197434
     3  C    0.322302
     4  H   -0.018870
     5  C    0.003255
     6  C    0.897365
     7  H    0.001997
     8  H   -0.002679
     9  H   -0.009040
    10  O   -0.722908
    11  H    0.184488
    12  O   -0.724873
    13  H    0.437057
 Sum of APT charges=   0.00000
 APT Atomic charges with hydrogens summed into heavy atoms:
              1
     1  N   -0.183606
     2  H    0.000000
     3  C    0.303432
     4  H    0.000000
     5  C   -0.006468
     6  C    0.897365
     7  H    0.000000
     8  H    0.000000
     9  H    0.000000
    10  O   -0.285851
    11  H    0.000000
    12  O   -0.724873
    13  H    0.000000
 Sum of APT charges=   0.00000
 Electronic spatial extent (au):  <R**2>=   591.8516
 Charge=     0.0000 electrons
 Dipole moment (field-independent basis, Debye):
    X=    -2.5436    Y=     0.5895    Z=     0.3759  Tot=     2.6380
 Quadrupole moment (field-independent basis, Debye-Ang):
   XX=   -33.5679   YY=   -40.3195   ZZ=   -38.1965
   XY=    -0.7412   XZ=     1.2812   YZ=     0.1850
 Traceless Quadrupole moment (field-independent basis, Debye-Ang):
   XX=     3.7934   YY=    -2.9582   ZZ=    -0.8352
   XY=    -0.7412   XZ=     1.2812   YZ=     0.1850
 Octapole moment (field-independent basis, Debye-Ang**2):
  XXX=     1.3764  YYY=    -1.3706  ZZZ=    -0.0934  XYY=    -5.3853
  XXY=    -7.2164  XXZ=     0.3628  XZZ=     0.1675  YZZ=     1.2590
  YYZ=     3.9228  XYZ=     4.9631
 Hexadecapole moment (field-independent basis, Debye-Ang**3):
 XXXX=  -361.3532 YYYY=  -241.4684 ZZZZ=   -98.3923 XXXY=     5.8224
 XXXZ=    20.2357 YYYX=     7.3369 YYYZ=   -10.4410 ZZZX=     1.3907
 ZZZY=    -4.7755 XXYY=  -113.0266 XXZZ=   -89.4138 YYZZ=   -61.8402
 XXYZ=     4.5669 YYXZ=    -3.1561 ZZXY=    -0.4040
 N-N= 2.476629880094D+02 E-N=-1.253490096088D+03  KE= 3.223045803312D+02
  Exact polarizability:  60.510   0.321  57.094  -0.125  -3.095  46.791
 Approx polarizability:  78.543   2.858  83.957   0.186 -12.592  68.817
 ***** Axes restored to original set *****
 -------------------------------------------------------------------
 Center     Atomic                   Forces (Hartrees/Bohr)
 Number     Number              X              Y              Z
 -------------------------------------------------------------------
    1          7           0.005699515   -0.002036942   -0.009284195
    2          1          -0.003205785    0.003327108    0.001324068
    3          6          -0.006701457   -0.001024906    0.003635261
    4          1           0.000640176   -0.000860502    0.001413949
    5          6           0.001447129   -0.000829914   -0.000338627
    6          6           0.052919715   -0.002460500    0.014737306
    7          1          -0.000263637    0.000519277   -0.001672750
    8          1          -0.000726592   -0.001335401    0.000037604
    9          1           0.001842471   -0.000480506    0.000164637
   10          8          -0.008921258    0.026455564   -0.020029563
   11          1           0.000926645    0.001835388    0.004426178
   12          8          -0.021002279   -0.024861740    0.011018619
   13          1          -0.022654643    0.001753075   -0.005432489
 -------------------------------------------------------------------
 Cartesian Forces:  Max     0.052919715 RMS     0.012582966

 GradGradGradGradGradGradGradGradGradGradGradGradGradGradGradGradGradGrad
 Berny optimization.
 Internal  Forces:  Max     0.026907154 RMS     0.006330577
 Search for a saddle point.
 Step number   1 out of a maximum of  66
 All quantities printed in internal units (Hartrees-Bohrs-Radians)
 Swaping is turned off.
 Second derivative matrix not updated -- analytic derivatives used.
     Eigenvalues ---   -0.10536   0.00053   0.00129   0.00277   0.00294
     Eigenvalues ---    0.03128   0.04299   0.04482   0.04733   0.04799
     Eigenvalues ---    0.05475   0.05533   0.07858   0.11692   0.12041
     Eigenvalues ---    0.12455   0.13354   0.15012   0.16771   0.18720
     Eigenvalues ---    0.20875   0.25410   0.30492   0.32021   0.33029
     Eigenvalues ---    0.33164   0.33813   0.36835   0.37070   0.45763
     Eigenvalues ---    0.46450   0.46570   0.470311000.000001000.00000
     Eigenvalues --- 1000.000001000.000001000.000001000.000001000.00000
     Eigenvalues --- 1000.000001000.000001000.000001000.000001000.00000
     Eigenvalues --- 1000.000001000.000001000.000001000.000001000.00000
     Eigenvalues --- 1000.000001000.000001000.000001000.000001000.00000
     Eigenvalues --- 1000.00000
 Eigenvectors required to have negative eigenvalues:
                          R1        R2        R3        R4        R5
         1             -0.00046   0.01162   0.00039  -0.00424  -0.00151
                          R6        R7        R8        R9        R10
         1             -0.00180   0.00026  -0.00116   0.00039   0.13198
                          R11       R12       R13       R14       A1
         1             -0.13151   0.00061  -0.64372   0.64478   0.00786
                          A2        A3        A4        A5        A6
         1             -0.00950   0.00266   0.00008  -0.00909   0.01266
                          A7        A8        A9        A10       A11
         1              0.00804  -0.01380   0.00133   0.00247  -0.00331
                          A12       A13       A14       A15       A16
         1             -0.00091   0.00063  -0.00091   0.00208   0.05369
                          A17       A18       A19       A20       A21
         1             -0.05368   0.00081  -0.00049   0.07091  -0.35033
                          D1        D2        D3        D4        D5
         1             -0.00050   0.00372   0.00888  -0.00272   0.00150
                          D6        D7        D8        D9        D10
         1              0.00666   0.00341   0.00367   0.00361   0.00348
                          D11       D12       D13       D14       D15
         1              0.00374   0.00368  -0.00785  -0.00758  -0.00765
                          D16       D17       D18       D19       D20
         1              0.00521  -0.00979   0.00609  -0.00891   0.00315
                          D21
         1             -0.01185
 RFO step:  Lambda0=1.385563357D-07 Lambda=-1.13187683D-02.
 Linear search not attempted -- option 19 set.
 Maximum step size (   0.300) exceeded in Quadratic search.
    -- Step size scaled by   0.549
 Iteration  1 RMS(Cart)=  0.02915035 RMS(Int)=  0.00265637
 Iteration  2 RMS(Cart)=  0.00199483 RMS(Int)=  0.00194946
 Iteration  3 RMS(Cart)=  0.00001413 RMS(Int)=  0.00194943
 Iteration  4 RMS(Cart)=  0.00000015 RMS(Int)=  0.00194943
 Variable       Old X    -DE/DX   Delta X   Delta X   Delta X     New X
                                 (Linear)    (Quad)   (Total)
    R1        1.90960  -0.00192   0.00000   0.00327   0.00327   1.91287
    R2        2.74374  -0.00455   0.00000   0.00471   0.00471   2.74846
    R3        1.90656  -0.00188   0.00000   0.00363   0.00363   1.91019
    R4        2.07363  -0.00166   0.00000  -0.00320  -0.00320   2.07043
    R5        2.94486  -0.00346   0.00000  -0.00988  -0.00988   2.93498
    R6        2.82362   0.00031   0.00000   0.00666   0.00666   2.83028
    R7        2.06958  -0.00177   0.00000  -0.00206  -0.00206   2.06753
    R8        2.06915  -0.00151   0.00000  -0.00243  -0.00243   2.06672
    R9        2.06919  -0.00188   0.00000  -0.00232  -0.00232   2.06687
   R10        2.47037  -0.02677   0.00000  -0.03622  -0.03637   2.43400
   R11        2.46646  -0.02691   0.00000  -0.03491  -0.03506   2.43140
   R12        3.03788  -0.01710   0.00000  -0.09483  -0.09466   2.94321
   R13        2.55574  -0.01070   0.00000  -0.05226  -0.05221   2.50352
   R14        2.56849  -0.01045   0.00000  -0.05271  -0.05266   2.51583
    A1        2.02949  -0.00142   0.00000  -0.04300  -0.04941   1.98007
    A2        2.01586  -0.00008   0.00000  -0.04286  -0.05277   1.96309
    A3        2.03320  -0.00197   0.00000  -0.04869  -0.05511   1.97809
    A4        1.90767  -0.00060   0.00000  -0.00830  -0.00830   1.89937
    A5        2.01378   0.00076   0.00000   0.00663   0.00663   2.02041
    A6        1.90267   0.00080   0.00000   0.00240   0.00239   1.90507
    A7        1.88093   0.00035   0.00000   0.00313   0.00314   1.88407
    A8        1.86292  -0.00019   0.00000  -0.00274  -0.00274   1.86018
    A9        1.89008  -0.00119   0.00000  -0.00177  -0.00179   1.88829
   A10        1.92467   0.00027   0.00000   0.00378   0.00378   1.92845
   A11        1.94414  -0.00009   0.00000  -0.00036  -0.00036   1.94377
   A12        1.90021  -0.00056   0.00000   0.00188   0.00188   1.90208
   A13        1.90412   0.00006   0.00000  -0.00181  -0.00182   1.90231
   A14        1.89333   0.00011   0.00000  -0.00114  -0.00115   1.89218
   A15        1.89647   0.00022   0.00000  -0.00245  -0.00245   1.89402
   A16        2.19158  -0.00278   0.00000  -0.00464  -0.00464   2.18694
   A17        2.19497  -0.00338   0.00000  -0.00876  -0.00875   2.18621
   A18        1.89447   0.00620   0.00000   0.01369   0.01368   1.90815
   A19        1.79611  -0.01133   0.00000   0.02761   0.02798   1.82409
   A20        3.09456  -0.00084   0.00000   0.00106   0.00106   3.09563
   A21        3.11674   0.00004   0.00000   0.00428   0.00429   3.12103
    D1        2.72828   0.00225   0.00000   0.10079   0.09849   2.82678
    D2       -1.43249   0.00278   0.00000   0.10314   0.10082  -1.33167
    D3        0.69805   0.00238   0.00000   0.10735   0.10505   0.80310
    D4       -1.08523  -0.00270   0.00000  -0.10692  -0.10460  -1.18983
    D5        1.03719  -0.00217   0.00000  -0.10457  -0.10228   0.93491
    D6       -3.11546  -0.00258   0.00000  -0.10036  -0.09805   3.06968
    D7        1.04334   0.00014   0.00000   0.00432   0.00431   1.04765
    D8       -3.12300   0.00034   0.00000   0.00436   0.00435  -3.11865
    D9       -1.03200   0.00019   0.00000   0.00231   0.00231  -1.02969
   D10       -3.10310   0.00014   0.00000   0.00044   0.00045  -3.10265
   D11       -0.98625   0.00034   0.00000   0.00048   0.00049  -0.98576
   D12        1.10475   0.00019   0.00000  -0.00156  -0.00156   1.10319
   D13       -1.09394  -0.00051   0.00000  -0.00206  -0.00206  -1.09599
   D14        1.02291  -0.00031   0.00000  -0.00201  -0.00202   1.02089
   D15        3.11391  -0.00046   0.00000  -0.00406  -0.00406   3.10985
   D16       -0.44059   0.00006   0.00000  -0.01205  -0.01205  -0.45264
   D17        2.77985  -0.00090   0.00000  -0.01788  -0.01787   2.76198
   D18       -2.49923   0.00046   0.00000  -0.00201  -0.00201  -2.50123
   D19        0.72121  -0.00050   0.00000  -0.00783  -0.00783   0.71338
   D20        1.76305   0.00074   0.00000  -0.00337  -0.00337   1.75968
   D21       -1.29970  -0.00022   0.00000  -0.00919  -0.00919  -1.30889
         Item               Value     Threshold  Converged?
 Maximum Force            0.026907     0.000450     NO 
 RMS     Force            0.006331     0.000300     NO 
 Maximum Displacement     0.094055     0.001800     NO 
 RMS     Displacement     0.030021     0.001200     NO 
 Predicted change in Energy=-5.007789D-03
 GradGradGradGradGradGradGradGradGradGradGradGradGradGradGradGradGradGrad

                          Input orientation:                          
 ---------------------------------------------------------------------
 Center     Atomic     Atomic              Coordinates (Angstroms)
 Number     Number      Type              X           Y           Z
 ---------------------------------------------------------------------
    1          7             0       -1.338743   -1.202472   -0.344356
    2          1             0       -1.073618   -1.728705    0.478709
    3          6             0       -0.710118    0.106806   -0.421565
    4          1             0       -0.777153    0.470925   -1.452739
    5          6             0       -1.305047    1.197270    0.510709
    6          6             0        0.748573   -0.029363   -0.110370
    7          1             0       -1.222743    0.892185    1.558172
    8          1             0       -0.795822    2.156026    0.378146
    9          1             0       -2.364043    1.330423    0.271830
   10          8             0        1.272066   -0.958855    0.611423
   11          1             0       -2.340156   -1.174413   -0.479117
   12          8             0        1.663489    0.805482   -0.458805
   13          1             0        2.253529   -0.134347    0.276715
 ---------------------------------------------------------------------
                    Distance matrix (angstroms):
                    1          2          3          4          5
     1  N    0.000000
     2  H    1.012249   0.000000
     3  C    1.454421   2.076470   0.000000
     4  H    2.084264   2.942237   1.095626   0.000000
     5  C    2.547751   2.935288   1.553122   2.159023   0.000000
     6  C    2.405789   2.560304   1.497719   2.092865   2.471381
     7  H    2.832077   2.838405   2.190654   3.072719   1.094089
     8  H    3.477971   3.895949   2.201405   2.488384   1.093661
     9  H    2.801158   3.326599   2.171061   2.496217   1.093739
    10  O    2.790911   2.472350   2.476237   3.241039   3.361626
    11  H    1.010829   1.681901   2.074092   2.469424   2.770575
    12  O    3.613638   3.846140   2.474580   2.656420   3.147327
    13  H    3.798821   3.694954   3.054333   3.541525   3.806760
                    6          7          8          9         10
     6  C    0.000000
     7  H    2.742147   0.000000
     8  H    2.720244   1.781016   0.000000
     9  H    3.418110   1.774625   1.775455   0.000000
    10  O    1.288016   3.247576   3.746073   4.310151   0.000000
    11  H    3.314719   3.109660   3.769839   2.615090   3.779403
    12  O    1.286641   3.522223   2.927912   4.126792   2.100354
    13  H    1.557482   3.844524   3.815054   4.844331   1.324807
                   11         12         13
    11  H    0.000000
    12  O    4.466494   0.000000
    13  H    4.770216   1.331321   0.000000
 Stoichiometry    C3H7NO2
 Framework group  C1[X(C3H7NO2)]
 Deg. of freedom    33
 Full point group                 C1
 Largest Abelian subgroup         C1      NOp   1
 Largest concise Abelian subgroup C1      NOp   1
                         Standard orientation:                         
 ---------------------------------------------------------------------
 Center     Atomic     Atomic              Coordinates (Angstroms)
 Number     Number      Type              X           Y           Z
 ---------------------------------------------------------------------
    1          7             0       -1.350889   -1.193121   -0.325390
    2          1             0       -1.087165   -1.714058    0.501485
    3          6             0       -0.714388    0.111556   -0.414974
    4          1             0       -0.781491    0.467419   -1.449022
    5          6             0       -1.300500    1.213456    0.509406
    6          6             0        0.744131   -0.031004   -0.105841
    7          1             0       -1.217728    0.916666    1.559213
    8          1             0       -0.785679    2.167902    0.367677
    9          1             0       -2.359189    1.351139    0.271736
   10          8             0        1.263506   -0.957625    0.622589
   11          1             0       -2.352409   -1.160008   -0.458189
   12          8             0        1.663387    0.795221   -0.463281
   13          1             0        2.249275   -0.142031    0.278817
 ---------------------------------------------------------------------
 Rotational constants (GHZ):      5.2557487      2.9739543      2.2691716
 Standard basis: 6-311++G(d,p) (5D, 7F)
 There are   181 symmetry adapted basis functions of A   symmetry.
 Integral buffers will be    262144 words long.
 Raffenetti 2 integral format.
 Two-electron integral symmetry is turned on.
   181 basis functions,   279 primitive gaussians,   187 cartesian basis functions
    24 alpha electrons       24 beta electrons
       nuclear repulsion energy       249.0906797230 Hartrees.
 NAtoms=   13 NActive=   13 NUniq=   13 SFac= 7.50D-01 NAtFMM=   80 NAOKFM=F Big=F
 One-electron integrals computed using PRISM.
 NBasis=   181 RedAO= T  NBF=   181
 NBsUse=   181 1.00D-06 NBFU=   181
 Initial guess read from the read-write file:
 Initial guess orbital symmetries:
       Occupied  (A) (A) (A) (A) (A) (A) (A) (A) (A) (A) (A) (A)
                 (A) (A) (A) (A) (A) (A) (A) (A) (A) (A) (A) (A)
       Virtual   (A) (A) (A) (A) (A) (A) (A) (A) (A) (A) (A) (A)
                 (A) (A) (A) (A) (A) (A) (A) (A) (A) (A) (A) (A)
                 (A) (A) (A) (A) (A) (A) (A) (A) (A) (A) (A) (A)
                 (A) (A) (A) (A) (A) (A) (A) (A) (A) (A) (A) (A)
                 (A) (A) (A) (A) (A) (A) (A) (A) (A) (A) (A) (A)
                 (A) (A) (A) (A) (A) (A) (A) (A) (A) (A) (A) (A)
                 (A) (A) (A) (A) (A) (A) (A) (A) (A) (A) (A) (A)
                 (A) (A) (A) (A) (A) (A) (A) (A) (A) (A) (A) (A)
                 (A) (A) (A) (A) (A) (A) (A) (A) (A) (A) (A) (A)
                 (A) (A) (A) (A) (A) (A) (A) (A) (A) (A) (A) (A)
                 (A) (A) (A) (A) (A) (A) (A) (A) (A) (A) (A) (A)
                 (A) (A) (A) (A) (A) (A) (A) (A) (A) (A) (A) (A)
                 (A) (A) (A) (A) (A) (A) (A) (A) (A) (A) (A) (A)
                 (A)
 Harris functional with IExCor=  402 diagonalized for initial guess.
 ExpMin= 3.60D-02 ExpMax= 8.59D+03 ExpMxC= 1.30D+03 IAcc=3 IRadAn=         5 AccDes= 0.00D+00
 HarFok:  IExCor= 402 AccDes= 0.00D+00 IRadAn=         5 IDoV=1
 ScaDFX=  1.000000  1.000000  1.000000  1.000000
 Requested convergence on RMS density matrix=1.00D-08 within 128 cycles.
 Requested convergence on MAX density matrix=1.00D-06.
 Requested convergence on             energy=1.00D-06.
 No special actions if energy rises.
 SCF Done:  E(RB+HF-LYP) =  -323.794647378     A.U. after   11 cycles
             Convg  =    0.6352D-08             -V/T =  2.0041
             S**2   =   0.0000
 ***** Axes restored to original set *****
 -------------------------------------------------------------------
 Center     Atomic                   Forces (Hartrees/Bohr)
 Number     Number              X              Y              Z
 -------------------------------------------------------------------
    1          7           0.003762344   -0.001316669   -0.006252193
    2          1          -0.002532613    0.001502963    0.001268140
    3          6          -0.003019679    0.000281208    0.001958494
    4          1           0.000376510   -0.000312148    0.000647562
    5          6           0.000637820   -0.000639448   -0.000191277
    6          6           0.023835636   -0.000796788    0.006708843
    7          1          -0.000112399    0.000270742   -0.000748734
    8          1          -0.000345424   -0.000653064   -0.000010379
    9          1           0.000844308   -0.000177575    0.000083260
   10          8          -0.003723608    0.011385968   -0.008478299
   11          1          -0.000013542    0.000521667    0.003138801
   12          8          -0.008775001   -0.010869798    0.004570555
   13          1          -0.010934352    0.000802941   -0.002694773
 -------------------------------------------------------------------
 Cartesian Forces:  Max     0.023835636 RMS     0.005694239

 GradGradGradGradGradGradGradGradGradGradGradGradGradGradGradGradGradGrad
 Berny optimization.
 Internal  Forces:  Max     0.011450612 RMS     0.002784138
 Search for a saddle point.
 Step number   2 out of a maximum of  66
 All quantities printed in internal units (Hartrees-Bohrs-Radians)
 Swaping is turned off.
 Update second derivatives using D2CorX and points  1  2
     Eigenvalues ---   -0.10535   0.00072   0.00225   0.00288   0.00543
     Eigenvalues ---    0.03128   0.04298   0.04482   0.04733   0.04799
     Eigenvalues ---    0.05481   0.05607   0.07857   0.11670   0.12020
     Eigenvalues ---    0.12457   0.13354   0.15011   0.16774   0.18726
     Eigenvalues ---    0.20915   0.25416   0.30492   0.32025   0.33029
     Eigenvalues ---    0.33165   0.33813   0.36883   0.37079   0.45776
     Eigenvalues ---    0.46455   0.46863   0.470661000.000001000.00000
     Eigenvalues --- 1000.000001000.000001000.000001000.000001000.00000
     Eigenvalues --- 1000.000001000.000001000.000001000.000001000.00000
     Eigenvalues --- 1000.000001000.000001000.000001000.000001000.00000
     Eigenvalues --- 1000.000001000.000001000.000001000.000001000.00000
     Eigenvalues --- 1000.00000
 Eigenvectors required to have negative eigenvalues:
                          R1        R2        R3        R4        R5
         1             -0.00046   0.01161   0.00039  -0.00424  -0.00150
                          R6        R7        R8        R9        R10
         1             -0.00181   0.00026  -0.00116   0.00039   0.13153
                          R11       R12       R13       R14       A1
         1             -0.13107   0.00054  -0.64213   0.64316   0.00817
                          A2        A3        A4        A5        A6
         1             -0.00902   0.00296   0.00007  -0.00916   0.01268
                          A7        A8        A9        A10       A11
         1              0.00809  -0.01376   0.00127   0.00247  -0.00331
                          A12       A13       A14       A15       A16
         1             -0.00091   0.00064  -0.00091   0.00208   0.05746
                          A17       A18       A19       A20       A21
         1             -0.05746   0.00077  -0.00051   0.07250  -0.35502
                          D1        D2        D3        D4        D5
         1             -0.00034   0.00393   0.00907  -0.00294   0.00133
                          D6        D7        D8        D9        D10
         1              0.00647   0.00340   0.00366   0.00360   0.00347
                          D11       D12       D13       D14       D15
         1              0.00373   0.00367  -0.00782  -0.00756  -0.00763
                          D16       D17       D18       D19       D20
         1              0.00516  -0.00983   0.00605  -0.00895   0.00304
                          D21
         1             -0.01195
 RFO step:  Lambda0=4.058704303D-08 Lambda=-3.53078114D-03.
 Linear search not attempted -- option 19 set.
 Maximum step size (   0.300) exceeded in Quadratic search.
    -- Step size scaled by   0.634
 Iteration  1 RMS(Cart)=  0.03120392 RMS(Int)=  0.00291825
 Iteration  2 RMS(Cart)=  0.00213171 RMS(Int)=  0.00211524
 Iteration  3 RMS(Cart)=  0.00001622 RMS(Int)=  0.00211521
 Iteration  4 RMS(Cart)=  0.00000022 RMS(Int)=  0.00211521
 Variable       Old X    -DE/DX   Delta X   Delta X   Delta X     New X
                                 (Linear)    (Quad)   (Total)
    R1        1.91287  -0.00041   0.00000   0.00619   0.00619   1.91906
    R2        2.74846  -0.00126   0.00000   0.01186   0.01186   2.76032
    R3        1.91019  -0.00039   0.00000   0.00651   0.00651   1.91670
    R4        2.07043  -0.00074   0.00000  -0.00239  -0.00239   2.06804
    R5        2.93498  -0.00176   0.00000  -0.00783  -0.00783   2.92715
    R6        2.83028   0.00037   0.00000   0.00397   0.00397   2.83425
    R7        2.06753  -0.00080   0.00000  -0.00095  -0.00095   2.06658
    R8        2.06672  -0.00073   0.00000  -0.00133  -0.00133   2.06539
    R9        2.06687  -0.00086   0.00000  -0.00108  -0.00108   2.06578
   R10        2.43400  -0.01138   0.00000  -0.01660  -0.01667   2.41733
   R11        2.43140  -0.01145   0.00000  -0.01587  -0.01593   2.41547
   R12        2.94321  -0.00814   0.00000  -0.05180  -0.05175   2.89146
   R13        2.50352  -0.00488   0.00000  -0.02779  -0.02776   2.47576
   R14        2.51583  -0.00480   0.00000  -0.02868  -0.02866   2.48718
    A1        1.98007  -0.00076   0.00000  -0.05618  -0.06175   1.91832
    A2        1.96309  -0.00109   0.00000  -0.07172  -0.08311   1.87997
    A3        1.97809  -0.00100   0.00000  -0.06051  -0.06612   1.91197
    A4        1.89937  -0.00026   0.00000  -0.00829  -0.00829   1.89108
    A5        2.02041   0.00017   0.00000   0.00383   0.00383   2.02424
    A6        1.90507   0.00055   0.00000   0.00098   0.00097   1.90603
    A7        1.88407   0.00023   0.00000   0.00422   0.00423   1.88829
    A8        1.86018  -0.00021   0.00000  -0.00146  -0.00147   1.85871
    A9        1.88829  -0.00051   0.00000   0.00037   0.00037   1.88866
   A10        1.92845   0.00017   0.00000   0.00326   0.00326   1.93171
   A11        1.94377  -0.00009   0.00000  -0.00057  -0.00057   1.94321
   A12        1.90208  -0.00021   0.00000   0.00223   0.00223   1.90431
   A13        1.90231   0.00002   0.00000  -0.00218  -0.00218   1.90013
   A14        1.89218   0.00003   0.00000  -0.00011  -0.00012   1.89206
   A15        1.89402   0.00008   0.00000  -0.00273  -0.00273   1.89130
   A16        2.18694  -0.00134   0.00000  -0.00236  -0.00234   2.18460
   A17        2.18621  -0.00161   0.00000  -0.00453  -0.00453   2.18168
   A18        1.90815   0.00298   0.00000   0.00705   0.00702   1.91518
   A19        1.82409  -0.00441   0.00000   0.01828   0.01842   1.84251
   A20        3.09563  -0.00035   0.00000   0.00043   0.00044   3.09606
   A21        3.12103   0.00004   0.00000   0.00449   0.00448   3.12551
    D1        2.82678   0.00150   0.00000   0.10755   0.10444   2.93122
    D2       -1.33167   0.00172   0.00000   0.10932   0.10620  -1.22547
    D3        0.80310   0.00160   0.00000   0.11333   0.11021   0.91331
    D4       -1.18983  -0.00169   0.00000  -0.10288  -0.09976  -1.28958
    D5        0.93491  -0.00148   0.00000  -0.10111  -0.09800   0.83691
    D6        3.06968  -0.00160   0.00000  -0.09710  -0.09398   2.97569
    D7        1.04765   0.00014   0.00000   0.00379   0.00379   1.05144
    D8       -3.11865   0.00022   0.00000   0.00288   0.00288  -3.11577
    D9       -1.02969   0.00013   0.00000   0.00059   0.00059  -1.02911
   D10       -3.10265   0.00009   0.00000  -0.00113  -0.00112  -3.10377
   D11       -0.98576   0.00018   0.00000  -0.00204  -0.00204  -0.98780
   D12        1.10319   0.00008   0.00000  -0.00433  -0.00433   1.09886
   D13       -1.09599  -0.00030   0.00000  -0.00048  -0.00048  -1.09647
   D14        1.02089  -0.00021   0.00000  -0.00139  -0.00139   1.01950
   D15        3.10985  -0.00031   0.00000  -0.00368  -0.00368   3.10616
   D16       -0.45264   0.00001   0.00000  -0.03407  -0.03407  -0.48671
   D17        2.76198  -0.00050   0.00000  -0.03746  -0.03746   2.72452
   D18       -2.50123   0.00015   0.00000  -0.02402  -0.02402  -2.52525
   D19        0.71338  -0.00035   0.00000  -0.02741  -0.02741   0.68597
   D20        1.75968   0.00024   0.00000  -0.02836  -0.02836   1.73132
   D21       -1.30889  -0.00026   0.00000  -0.03175  -0.03175  -1.34064
         Item               Value     Threshold  Converged?
 Maximum Force            0.011451     0.000450     NO 
 RMS     Force            0.002784     0.000300     NO 
 Maximum Displacement     0.109147     0.001800     NO 
 RMS     Displacement     0.032051     0.001200     NO 
 Predicted change in Energy=-1.691977D-03
 GradGradGradGradGradGradGradGradGradGradGradGradGradGradGradGradGradGrad

                          Input orientation:                          
 ---------------------------------------------------------------------
 Center     Atomic     Atomic              Coordinates (Angstroms)
 Number     Number      Type              X           Y           Z
 ---------------------------------------------------------------------
    1          7             0       -1.323075   -1.219630   -0.380979
    2          1             0       -1.106903   -1.670947    0.502689
    3          6             0       -0.700378    0.100757   -0.430644
    4          1             0       -0.762360    0.472499   -1.458064
    5          6             0       -1.306687    1.172693    0.508866
    6          6             0        0.759449   -0.029861   -0.112346
    7          1             0       -1.230534    0.858227    1.553494
    8          1             0       -0.802330    2.135233    0.391810
    9          1             0       -2.363870    1.305888    0.264664
   10          8             0        1.274944   -0.942809    0.620548
   11          1             0       -2.330953   -1.121934   -0.439193
   12          8             0        1.665440    0.796169   -0.473840
   13          1             0        2.237473   -0.125322    0.271748
 ---------------------------------------------------------------------
                    Distance matrix (angstroms):
                    1          2          3          4          5
     1  N    0.000000
     2  H    1.015522   0.000000
     3  C    1.460699   2.043357   0.000000
     4  H    2.082742   2.925341   1.094361   0.000000
     5  C    2.552509   2.850656   1.548980   2.157633   0.000000
     6  C    2.413425   2.560214   1.499823   2.092660   2.470012
     7  H    2.840464   2.741568   2.188979   3.072044   1.093588
     8  H    3.481879   3.819956   2.196797   2.487633   1.092960
     9  H    2.806840   3.240088   2.168640   2.495429   1.093165
    10  O    2.798105   2.493445   2.468994   3.236407   3.339557
    11  H    1.014274   1.639163   2.038093   2.457804   2.685750
    12  O    3.606008   3.837467   2.466284   2.639635   3.152939
    13  H    3.781675   3.691495   3.029097   3.514062   3.781817
                    6          7          8          9         10
     6  C    0.000000
     7  H    2.742946   0.000000
     8  H    2.716792   1.778654   0.000000
     9  H    3.417818   1.773678   1.772677   0.000000
    10  O    1.279196   3.223591   3.720448   4.292349   0.000000
    11  H    3.293939   3.017078   3.692748   2.528007   3.762663
    12  O    1.278212   3.535618   2.938083   4.128019   2.091463
    13  H    1.530096   3.825873   3.790109   4.818793   1.310118
                   11         12         13
    11  H    0.000000
    12  O    4.432999   0.000000
    13  H    4.729608   1.316157   0.000000
 Stoichiometry    C3H7NO2
 Framework group  C1[X(C3H7NO2)]
 Deg. of freedom    33
 Full point group                 C1
 Largest Abelian subgroup         C1      NOp   1
 Largest concise Abelian subgroup C1      NOp   1
                         Standard orientation:                         
 ---------------------------------------------------------------------
 Center     Atomic     Atomic              Coordinates (Angstroms)
 Number     Number      Type              X           Y           Z
 ---------------------------------------------------------------------
    1          7             0       -1.347313   -1.199418   -0.350408
    2          1             0       -1.134123   -1.642913    0.537932
    3          6             0       -0.708856    0.112657   -0.417279
    4          1             0       -0.769233    0.473033   -1.448836
    5          6             0       -1.299531    1.202814    0.511159
    6          6             0        0.750175   -0.031883   -0.101364
    7          1             0       -1.224244    0.899737    1.559210
    8          1             0       -0.783917    2.157735    0.381432
    9          1             0       -2.355711    1.345926    0.268228
   10          8             0        1.256666   -0.942338    0.640850
   11          1             0       -2.354098   -1.090215   -0.407078
   12          8             0        1.665057    0.778814   -0.474976
   13          1             0        2.228013   -0.140718    0.279881
 ---------------------------------------------------------------------
 Rotational constants (GHZ):      5.2917661      2.9656881      2.2878069
 Standard basis: 6-311++G(d,p) (5D, 7F)
 There are   181 symmetry adapted basis functions of A   symmetry.
 Integral buffers will be    262144 words long.
 Raffenetti 2 integral format.
 Two-electron integral symmetry is turned on.
   181 basis functions,   279 primitive gaussians,   187 cartesian basis functions
    24 alpha electrons       24 beta electrons
       nuclear repulsion energy       249.7312757377 Hartrees.
 NAtoms=   13 NActive=   13 NUniq=   13 SFac= 7.50D-01 NAtFMM=   80 NAOKFM=F Big=F
 One-electron integrals computed using PRISM.
 NBasis=   181 RedAO= T  NBF=   181
 NBsUse=   181 1.00D-06 NBFU=   181
 Initial guess read from the read-write file:
 Initial guess orbital symmetries:
       Occupied  (A) (A) (A) (A) (A) (A) (A) (A) (A) (A) (A) (A)
                 (A) (A) (A) (A) (A) (A) (A) (A) (A) (A) (A) (A)
       Virtual   (A) (A) (A) (A) (A) (A) (A) (A) (A) (A) (A) (A)
                 (A) (A) (A) (A) (A) (A) (A) (A) (A) (A) (A) (A)
                 (A) (A) (A) (A) (A) (A) (A) (A) (A) (A) (A) (A)
                 (A) (A) (A) (A) (A) (A) (A) (A) (A) (A) (A) (A)
                 (A) (A) (A) (A) (A) (A) (A) (A) (A) (A) (A) (A)
                 (A) (A) (A) (A) (A) (A) (A) (A) (A) (A) (A) (A)
                 (A) (A) (A) (A) (A) (A) (A) (A) (A) (A) (A) (A)
                 (A) (A) (A) (A) (A) (A) (A) (A) (A) (A) (A) (A)
                 (A) (A) (A) (A) (A) (A) (A) (A) (A) (A) (A) (A)
                 (A) (A) (A) (A) (A) (A) (A) (A) (A) (A) (A) (A)
                 (A) (A) (A) (A) (A) (A) (A) (A) (A) (A) (A) (A)
                 (A) (A) (A) (A) (A) (A) (A) (A) (A) (A) (A) (A)
                 (A) (A) (A) (A) (A) (A) (A) (A) (A) (A) (A) (A)
                 (A)
 Harris functional with IExCor=  402 diagonalized for initial guess.
 ExpMin= 3.60D-02 ExpMax= 8.59D+03 ExpMxC= 1.30D+03 IAcc=3 IRadAn=         5 AccDes= 0.00D+00
 HarFok:  IExCor= 402 AccDes= 0.00D+00 IRadAn=         5 IDoV=1
 ScaDFX=  1.000000  1.000000  1.000000  1.000000
 Requested convergence on RMS density matrix=1.00D-08 within 128 cycles.
 Requested convergence on MAX density matrix=1.00D-06.
 Requested convergence on             energy=1.00D-06.
 No special actions if energy rises.
 SCF Done:  E(RB+HF-LYP) =  -323.795789784     A.U. after   11 cycles
             Convg  =    0.4886D-08             -V/T =  2.0038
             S**2   =   0.0000
 ***** Axes restored to original set *****
 -------------------------------------------------------------------
 Center     Atomic                   Forces (Hartrees/Bohr)
 Number     Number              X              Y              Z
 -------------------------------------------------------------------
    1          7          -0.000751543    0.002111384    0.001811767
    2          1           0.000085269   -0.001585349    0.000060117
    3          6           0.000515321    0.000804868   -0.000960059
    4          1           0.000278514    0.000236523    0.000231517
    5          6           0.000129875   -0.000580143   -0.000075015
    6          6           0.008513922    0.000077507    0.002323728
    7          1          -0.000031117    0.000090985   -0.000241772
    8          1          -0.000103035   -0.000314413   -0.000038437
    9          1           0.000284866   -0.000022007    0.000034195
   10          8          -0.001418298    0.003844526   -0.002840351
   11          1          -0.000833686   -0.001211320   -0.000786261
   12          8          -0.002963219   -0.003729113    0.001444451
   13          1          -0.003706869    0.000276552   -0.000963880
 -------------------------------------------------------------------
 Cartesian Forces:  Max     0.008513922 RMS     0.002016119

 GradGradGradGradGradGradGradGradGradGradGradGradGradGradGradGradGradGrad
 Berny optimization.
 Internal  Forces:  Max     0.003890463 RMS     0.001064110
 Search for a saddle point.
 Step number   3 out of a maximum of  66
 All quantities printed in internal units (Hartrees-Bohrs-Radians)
 Swaping is turned off.
 Update second derivatives using D2CorX and points  1  2  3
     Eigenvalues ---   -0.10534   0.00055   0.00228   0.00288   0.02013
     Eigenvalues ---    0.03126   0.04298   0.04483   0.04733   0.04800
     Eigenvalues ---    0.05483   0.05602   0.07858   0.11614   0.11989
     Eigenvalues ---    0.12468   0.13354   0.15010   0.16786   0.18750
     Eigenvalues ---    0.20916   0.25428   0.30498   0.32037   0.33029
     Eigenvalues ---    0.33165   0.33813   0.36965   0.37171   0.45750
     Eigenvalues ---    0.46495   0.46893   0.471291000.000001000.00000
     Eigenvalues --- 1000.000001000.000001000.000001000.000001000.00000
     Eigenvalues --- 1000.000001000.000001000.000001000.000001000.00000
     Eigenvalues --- 1000.000001000.000001000.000001000.000001000.00000
     Eigenvalues --- 1000.000001000.000001000.000001000.000001000.00000
     Eigenvalues --- 1000.00000
 Eigenvectors required to have negative eigenvalues:
                          R1        R2        R3        R4        R5
         1             -0.00046   0.01163   0.00039  -0.00424  -0.00149
                          R6        R7        R8        R9        R10
         1             -0.00183   0.00026  -0.00116   0.00039   0.13122
                          R11       R12       R13       R14       A1
         1             -0.13076   0.00050  -0.64102   0.64209   0.00848
                          A2        A3        A4        A5        A6
         1             -0.00837   0.00327   0.00007  -0.00921   0.01269
                          A7        A8        A9        A10       A11
         1              0.00812  -0.01372   0.00124   0.00247  -0.00331
                          A12       A13       A14       A15       A16
         1             -0.00091   0.00064  -0.00092   0.00208   0.05997
                          A17       A18       A19       A20       A21
         1             -0.05995   0.00072  -0.00053   0.07344  -0.35814
                          D1        D2        D3        D4        D5
         1             -0.00008   0.00424   0.00938  -0.00326   0.00105
                          D6        D7        D8        D9        D10
         1              0.00619   0.00340   0.00366   0.00359   0.00345
                          D11       D12       D13       D14       D15
         1              0.00371   0.00365  -0.00780  -0.00754  -0.00761
                          D16       D17       D18       D19       D20
         1              0.00510  -0.00983   0.00598  -0.00895   0.00296
                          D21
         1             -0.01197
 RFO step:  Lambda0=1.054551121D-08 Lambda=-5.80117288D-04.
 Linear search not attempted -- option 19 set.
 Iteration  1 RMS(Cart)=  0.03945679 RMS(Int)=  0.00195887
 Iteration  2 RMS(Cart)=  0.00160632 RMS(Int)=  0.00034926
 Iteration  3 RMS(Cart)=  0.00000099 RMS(Int)=  0.00034926
 Variable       Old X    -DE/DX   Delta X   Delta X   Delta X     New X
                                 (Linear)    (Quad)   (Total)
    R1        1.91906   0.00077   0.00000  -0.00064  -0.00064   1.91842
    R2        2.76032   0.00129   0.00000  -0.00281  -0.00281   2.75751
    R3        1.91670   0.00076   0.00000  -0.00082  -0.00082   1.91588
    R4        2.06804  -0.00015   0.00000  -0.00188  -0.00188   2.06617
    R5        2.92715  -0.00088   0.00000  -0.00287  -0.00287   2.92428
    R6        2.83425   0.00037   0.00000   0.00383   0.00383   2.83809
    R7        2.06658  -0.00026   0.00000  -0.00102  -0.00102   2.06556
    R8        2.06539  -0.00032   0.00000  -0.00015  -0.00015   2.06524
    R9        2.06578  -0.00029   0.00000  -0.00101  -0.00101   2.06477
   R10        2.41733  -0.00389   0.00000  -0.01065  -0.01069   2.40664
   R11        2.41547  -0.00385   0.00000  -0.01108  -0.01111   2.40436
   R12        2.89146  -0.00284   0.00000  -0.03698  -0.03696   2.85451
   R13        2.47576  -0.00159   0.00000  -0.02058  -0.02054   2.45523
   R14        2.48718  -0.00164   0.00000  -0.02180  -0.02179   2.46539
    A1        1.91832   0.00193   0.00000   0.03344   0.03242   1.95074
    A2        1.87997  -0.00081   0.00000   0.02068   0.01884   1.89882
    A3        1.91197   0.00198   0.00000   0.03520   0.03418   1.94615
    A4        1.89108   0.00012   0.00000   0.00062   0.00062   1.89170
    A5        2.02424  -0.00043   0.00000  -0.00134  -0.00134   2.02290
    A6        1.90603   0.00055   0.00000  -0.00054  -0.00054   1.90549
    A7        1.88829   0.00016   0.00000   0.00299   0.00300   1.89129
    A8        1.85871  -0.00027   0.00000  -0.00026  -0.00026   1.85845
    A9        1.88866  -0.00013   0.00000  -0.00137  -0.00138   1.88728
   A10        1.93171   0.00007   0.00000  -0.00025  -0.00025   1.93146
   A11        1.94321  -0.00014   0.00000   0.00086   0.00086   1.94407
   A12        1.90431  -0.00001   0.00000  -0.00020  -0.00020   1.90411
   A13        1.90013   0.00004   0.00000   0.00016   0.00016   1.90029
   A14        1.89206   0.00000   0.00000   0.00031   0.00031   1.89237
   A15        1.89130   0.00004   0.00000  -0.00090  -0.00090   1.89039
   A16        2.18460  -0.00057   0.00000  -0.00305  -0.00300   2.18160
   A17        2.18168  -0.00053   0.00000  -0.00069  -0.00072   2.18096
   A18        1.91518   0.00111   0.00000   0.00389   0.00387   1.91905
   A19        1.84251  -0.00148   0.00000   0.01425   0.01433   1.85684
   A20        3.09606  -0.00006   0.00000   0.00035   0.00036   3.09642
   A21        3.12551  -0.00002   0.00000   0.00505   0.00500   3.13051
    D1        2.93122  -0.00062   0.00000   0.02322   0.02275   2.95397
    D2       -1.22547  -0.00062   0.00000   0.02670   0.02623  -1.19924
    D3        0.91331  -0.00066   0.00000   0.02348   0.02301   0.93632
    D4       -1.28958   0.00073   0.00000   0.08955   0.09003  -1.19956
    D5        0.83691   0.00073   0.00000   0.09303   0.09351   0.93042
    D6        2.97569   0.00069   0.00000   0.08981   0.09028   3.06598
    D7        1.05144   0.00011   0.00000  -0.00525  -0.00525   1.04619
    D8       -3.11577   0.00012   0.00000  -0.00463  -0.00463  -3.12040
    D9       -1.02911   0.00008   0.00000  -0.00535  -0.00535  -1.03446
   D10       -3.10377   0.00010   0.00000  -0.00303  -0.00303  -3.10680
   D11       -0.98780   0.00011   0.00000  -0.00241  -0.00241  -0.99021
   D12        1.09886   0.00007   0.00000  -0.00313  -0.00313   1.09573
   D13       -1.09647  -0.00020   0.00000  -0.00250  -0.00250  -1.09897
   D14        1.01950  -0.00020   0.00000  -0.00188  -0.00188   1.01762
   D15        3.10616  -0.00024   0.00000  -0.00260  -0.00260   3.10357
   D16       -0.48671   0.00014   0.00000  -0.08215  -0.08215  -0.56885
   D17        2.72452  -0.00006   0.00000  -0.08533  -0.08533   2.63919
   D18       -2.52525  -0.00013   0.00000  -0.08246  -0.08246  -2.60771
   D19        0.68597  -0.00034   0.00000  -0.08564  -0.08564   0.60033
   D20        1.73132  -0.00012   0.00000  -0.08513  -0.08513   1.64618
   D21       -1.34064  -0.00032   0.00000  -0.08831  -0.08831  -1.42896
         Item               Value     Threshold  Converged?
 Maximum Force            0.003890     0.000450     NO 
 RMS     Force            0.001064     0.000300     NO 
 Maximum Displacement     0.135722     0.001800     NO 
 RMS     Displacement     0.039359     0.001200     NO 
 Predicted change in Energy=-3.104607D-04
 GradGradGradGradGradGradGradGradGradGradGradGradGradGradGradGradGradGrad

                          Input orientation:                          
 ---------------------------------------------------------------------
 Center     Atomic     Atomic              Coordinates (Angstroms)
 Number     Number      Type              X           Y           Z
 ---------------------------------------------------------------------
    1          7             0       -1.320458   -1.212527   -0.374035
    2          1             0       -1.136426   -1.682528    0.506779
    3          6             0       -0.699192    0.106899   -0.423527
    4          1             0       -0.764431    0.480566   -1.448988
    5          6             0       -1.300530    1.173196    0.523065
    6          6             0        0.763716   -0.024578   -0.110205
    7          1             0       -1.222263    0.852180    1.564975
    8          1             0       -0.795669    2.135951    0.410793
    9          1             0       -2.357511    1.309699    0.282233
   10          8             0        1.266261   -0.884240    0.683728
   11          1             0       -2.323435   -1.156454   -0.511014
   12          8             0        1.674924    0.749530   -0.545267
   13          1             0        2.225230   -0.116732    0.260217
 ---------------------------------------------------------------------
                    Distance matrix (angstroms):
                    1          2          3          4          5
     1  N    0.000000
     2  H    1.015185   0.000000
     3  C    1.459214   2.063659   0.000000
     4  H    2.081166   2.939792   1.093368   0.000000
     5  C    2.548894   2.860481   1.547460   2.157807   0.000000
     6  C    2.413423   2.596151   1.501850   2.093500   2.469171
     7  H    2.834152   2.748071   2.187050   3.071104   1.093048
     8  H    3.479032   3.834854   2.196008   2.489992   1.092880
     9  H    2.804958   3.239581   2.166760   2.494492   1.092631
    10  O    2.813850   2.538007   2.464015   3.245748   3.293520
    11  H    1.013839   1.649741   2.059582   2.447472   2.746438
    12  O    3.584872   3.863340   2.462564   2.615246   3.189695
    13  H    3.764963   3.716616   3.011604   3.495171   3.763507
                    6          7          8          9         10
     6  C    0.000000
     7  H    2.742088   0.000000
     8  H    2.714960   1.778254   0.000000
     9  H    3.417069   1.773003   1.771601   0.000000
    10  O    1.273538   3.159826   3.667098   4.255149   0.000000
    11  H    3.312444   3.091427   3.744827   2.590813   3.793076
    12  O    1.272330   3.585715   2.989991   4.154405   2.084859
    13  H    1.510539   3.811350   3.771351   4.799657   1.299250
                   11         12         13
    11  H    0.000000
    12  O    4.429540   0.000000
    13  H    4.729289   1.304627   0.000000
 Stoichiometry    C3H7NO2
 Framework group  C1[X(C3H7NO2)]
 Deg. of freedom    33
 Full point group                 C1
 Largest Abelian subgroup         C1      NOp   1
 Largest concise Abelian subgroup C1      NOp   1
                         Standard orientation:                         
 ---------------------------------------------------------------------
 Center     Atomic     Atomic              Coordinates (Angstroms)
 Number     Number      Type              X           Y           Z
 ---------------------------------------------------------------------
    1          7             0       -1.349036   -1.187036   -0.365738
    2          1             0       -1.177160   -1.656911    0.517595
    3          6             0       -0.705551    0.121639   -0.416767
    4          1             0       -0.759563    0.492695   -1.443828
    5          6             0       -1.293543    1.201196    0.523154
    6          6             0        0.753418   -0.033154   -0.095824
    7          1             0       -1.225704    0.882624    1.566545
    8          1             0       -0.772109    2.154974    0.410014
    9          1             0       -2.346915    1.354487    0.276672
   10          8             0        1.237660   -0.898266    0.703544
   11          1             0       -2.350259   -1.114696   -0.507826
   12          8             0        1.679546    0.724066   -0.529101
   13          1             0        2.211375   -0.148403    0.282075
 ---------------------------------------------------------------------
 Rotational constants (GHZ):      5.3094313      2.9242591      2.3203543
 Standard basis: 6-311++G(d,p) (5D, 7F)
 There are   181 symmetry adapted basis functions of A   symmetry.
 Integral buffers will be    262144 words long.
 Raffenetti 2 integral format.
 Two-electron integral symmetry is turned on.
   181 basis functions,   279 primitive gaussians,   187 cartesian basis functions
    24 alpha electrons       24 beta electrons
       nuclear repulsion energy       250.0146915179 Hartrees.
 NAtoms=   13 NActive=   13 NUniq=   13 SFac= 7.50D-01 NAtFMM=   80 NAOKFM=F Big=F
 One-electron integrals computed using PRISM.
 NBasis=   181 RedAO= T  NBF=   181
 NBsUse=   181 1.00D-06 NBFU=   181
 Initial guess read from the read-write file:
 Initial guess orbital symmetries:
       Occupied  (A) (A) (A) (A) (A) (A) (A) (A) (A) (A) (A) (A)
                 (A) (A) (A) (A) (A) (A) (A) (A) (A) (A) (A) (A)
       Virtual   (A) (A) (A) (A) (A) (A) (A) (A) (A) (A) (A) (A)
                 (A) (A) (A) (A) (A) (A) (A) (A) (A) (A) (A) (A)
                 (A) (A) (A) (A) (A) (A) (A) (A) (A) (A) (A) (A)
                 (A) (A) (A) (A) (A) (A) (A) (A) (A) (A) (A) (A)
                 (A) (A) (A) (A) (A) (A) (A) (A) (A) (A) (A) (A)
                 (A) (A) (A) (A) (A) (A) (A) (A) (A) (A) (A) (A)
                 (A) (A) (A) (A) (A) (A) (A) (A) (A) (A) (A) (A)
                 (A) (A) (A) (A) (A) (A) (A) (A) (A) (A) (A) (A)
                 (A) (A) (A) (A) (A) (A) (A) (A) (A) (A) (A) (A)
                 (A) (A) (A) (A) (A) (A) (A) (A) (A) (A) (A) (A)
                 (A) (A) (A) (A) (A) (A) (A) (A) (A) (A) (A) (A)
                 (A) (A) (A) (A) (A) (A) (A) (A) (A) (A) (A) (A)
                 (A) (A) (A) (A) (A) (A) (A) (A) (A) (A) (A) (A)
                 (A)
 Harris functional with IExCor=  402 diagonalized for initial guess.
 ExpMin= 3.60D-02 ExpMax= 8.59D+03 ExpMxC= 1.30D+03 IAcc=3 IRadAn=         5 AccDes= 0.00D+00
 HarFok:  IExCor= 402 AccDes= 0.00D+00 IRadAn=         5 IDoV=1
 ScaDFX=  1.000000  1.000000  1.000000  1.000000
 Requested convergence on RMS density matrix=1.00D-08 within 128 cycles.
 Requested convergence on MAX density matrix=1.00D-06.
 Requested convergence on             energy=1.00D-06.
 No special actions if energy rises.
 SCF Done:  E(RB+HF-LYP) =  -323.795953297     A.U. after   11 cycles
             Convg  =    0.6914D-08             -V/T =  2.0037
             S**2   =   0.0000
 ***** Axes restored to original set *****
 -------------------------------------------------------------------
 Center     Atomic                   Forces (Hartrees/Bohr)
 Number     Number              X              Y              Z
 -------------------------------------------------------------------
    1          7           0.000506665   -0.001125099   -0.000830002
    2          1           0.000147404    0.000791887    0.000078537
    3          6          -0.000813701   -0.000422134    0.000613411
    4          1           0.000005192    0.000025788   -0.000089275
    5          6          -0.000099800    0.000018112    0.000013534
    6          6          -0.002584179    0.000034634   -0.000720469
    7          1           0.000018965   -0.000008730   -0.000035704
    8          1           0.000011874    0.000011360   -0.000005448
    9          1          -0.000020082    0.000010570    0.000010238
   10          8          -0.000115228   -0.001627611    0.001374581
   11          1           0.000292332    0.000854482    0.000264346
   12          8           0.000749004    0.001605689   -0.001070769
   13          1           0.001901554   -0.000168948    0.000397021
 -------------------------------------------------------------------
 Cartesian Forces:  Max     0.002584179 RMS     0.000797886

 GradGradGradGradGradGradGradGradGradGradGradGradGradGradGradGradGradGrad
 Berny optimization.
 Internal  Forces:  Max     0.001416975 RMS     0.000466715
 Search for a saddle point.
 Step number   4 out of a maximum of  66
 All quantities printed in internal units (Hartrees-Bohrs-Radians)
 Swaping is turned off.
 Update second derivatives using D2CorX and points  2  3  4
     Eigenvalues ---   -0.10532  -0.00375   0.00219   0.00288   0.02054
     Eigenvalues ---    0.03118   0.04298   0.04483   0.04733   0.04799
     Eigenvalues ---    0.05484   0.05903   0.07869   0.11739   0.12112
     Eigenvalues ---    0.12503   0.13355   0.15011   0.16788   0.18762
     Eigenvalues ---    0.20964   0.25431   0.30506   0.32045   0.33029
     Eigenvalues ---    0.33165   0.33814   0.36969   0.37206   0.45369
     Eigenvalues ---    0.46535   0.46990   0.471951000.000001000.00000
     Eigenvalues --- 1000.000001000.000001000.000001000.000001000.00000
     Eigenvalues --- 1000.000001000.000001000.000001000.000001000.00000
     Eigenvalues --- 1000.000001000.000001000.000001000.000001000.00000
     Eigenvalues --- 1000.000001000.000001000.000001000.000001000.00000
     Eigenvalues --- 1000.00000
 Eigenvectors required to have negative eigenvalues:
                          R1        R2        R3        R4        R5
         1             -0.00047   0.01161   0.00039  -0.00423  -0.00147
                          R6        R7        R8        R9        R10
         1             -0.00185   0.00026  -0.00116   0.00039   0.13082
                          R11       R12       R13       R14       A1
         1             -0.13040   0.00064  -0.63959   0.64083   0.00837
                          A2        A3        A4        A5        A6
         1             -0.00859   0.00317   0.00008  -0.00924   0.01272
                          A7        A8        A9        A10       A11
         1              0.00815  -0.01371   0.00123   0.00247  -0.00331
                          A12       A13       A14       A15       A16
         1             -0.00092   0.00064  -0.00092   0.00209   0.06305
                          A17       A18       A19       A20       A21
         1             -0.06305   0.00070  -0.00056   0.07419  -0.36205
                          D1        D2        D3        D4        D5
[...]
   A14        1.89270   0.00000   0.00000   0.00001   0.00001   1.89271
   A15        1.88997   0.00000   0.00000  -0.00002  -0.00002   1.88995
   A16        2.17997   0.00000   0.00000  -0.00005  -0.00005   2.17992
   A17        2.18214   0.00000   0.00000   0.00004   0.00004   2.18218
   A18        1.91955   0.00000   0.00000   0.00001   0.00001   1.91957
   A19        1.85111   0.00000   0.00000  -0.00001  -0.00001   1.85111
   A20        3.09798  -0.00001   0.00000   0.00004   0.00004   3.09802
   A21        3.12922   0.00000   0.00000  -0.00002  -0.00002   3.12920
    D1        2.95789   0.00000   0.00000  -0.00036  -0.00036   2.95754
    D2       -1.19462   0.00000   0.00000  -0.00032  -0.00032  -1.19493
    D3        0.94092   0.00000   0.00000  -0.00037  -0.00037   0.94055
    D4       -1.22092  -0.00001   0.00000  -0.00068  -0.00068  -1.22160
    D5        0.90976  -0.00001   0.00000  -0.00064  -0.00064   0.90912
    D6        3.04529  -0.00001   0.00000  -0.00069  -0.00069   3.04460
    D7        1.04616   0.00000   0.00000   0.00003   0.00003   1.04618
    D8       -3.12073   0.00000   0.00000   0.00003   0.00003  -3.12070
    D9       -1.03517   0.00000   0.00000   0.00001   0.00001  -1.03516
   D10       -3.10604   0.00000   0.00000   0.00007   0.00007  -3.10597
   D11       -0.98975   0.00000   0.00000   0.00008   0.00008  -0.98967
   D12        1.09582   0.00000   0.00000   0.00005   0.00005   1.09586
   D13       -1.09736   0.00000   0.00000   0.00013   0.00013  -1.09723
   D14        1.01894   0.00000   0.00000   0.00014   0.00014   1.01908
   D15        3.10450   0.00000   0.00000   0.00011   0.00011   3.10461
   D16       -0.57819   0.00000   0.00000  -0.00076  -0.00076  -0.57896
   D17        2.62873   0.00000   0.00000  -0.00086  -0.00086   2.62787
   D18       -2.61674   0.00000   0.00000  -0.00078  -0.00078  -2.61752
   D19        0.59018   0.00000   0.00000  -0.00087  -0.00087   0.58931
   D20        1.63614   0.00000   0.00000  -0.00084  -0.00084   1.63530
   D21       -1.44013   0.00000   0.00000  -0.00093  -0.00093  -1.44106
         Item               Value     Threshold  Converged?
 Maximum Force            0.000010     0.000450     YES
 RMS     Force            0.000003     0.000300     YES
 Maximum Displacement     0.001082     0.001800     YES
 RMS     Displacement     0.000341     0.001200     YES
 Predicted change in Energy=-9.447082D-09
 Optimization completed.
    -- Stationary point found.
                           ----------------------------
                           !   Optimized Parameters   !
                           ! (Angstroms and Degrees)  !
 --------------------------                            --------------------------
 ! Name  Definition              Value          Derivative Info.                !
 --------------------------------------------------------------------------------
 ! R1    R(1,2)                  1.0155         -DE/DX =    0.0                 !
 ! R2    R(1,3)                  1.4599         -DE/DX =    0.0                 !
 ! R3    R(1,11)                 1.0141         -DE/DX =    0.0                 !
 ! R4    R(3,4)                  1.0935         -DE/DX =    0.0                 !
 ! R5    R(3,5)                  1.5472         -DE/DX =    0.0                 !
 ! R6    R(3,6)                  1.5018         -DE/DX =    0.0                 !
 ! R7    R(5,7)                  1.093          -DE/DX =    0.0                 !
 ! R8    R(5,8)                  1.0929         -DE/DX =    0.0                 !
 ! R9    R(5,9)                  1.0927         -DE/DX =    0.0                 !
 ! R10   R(6,10)                 1.275          -DE/DX =    0.0                 !
 ! R11   R(6,12)                 1.2736         -DE/DX =    0.0                 !
 ! R12   R(6,13)                 1.5167         -DE/DX =    0.0                 !
 ! R13   R(10,13)                1.3037         -DE/DX =    0.0                 !
 ! R14   R(12,13)                1.309          -DE/DX =    0.0                 !
 ! A1    A(2,1,3)              111.0543         -DE/DX =    0.0                 !
 ! A2    A(2,1,11)             108.4654         -DE/DX =    0.0                 !
 ! A3    A(3,1,11)             110.7341         -DE/DX =    0.0                 !
 ! A4    A(1,3,4)              108.4162         -DE/DX =    0.0                 !
 ! A5    A(1,3,5)              115.8906         -DE/DX =    0.0                 !
 ! A6    A(1,3,6)              109.07           -DE/DX =    0.0                 !
 ! A7    A(4,3,5)              108.3828         -DE/DX =    0.0                 !
 ! A8    A(4,3,6)              106.4834         -DE/DX =    0.0                 !
 ! A9    A(5,3,6)              108.2031         -DE/DX =    0.0                 !
 ! A10   A(3,5,7)              110.6679         -DE/DX =    0.0                 !
 ! A11   A(3,5,8)              111.3779         -DE/DX =    0.0                 !
 ! A12   A(3,5,9)              109.1189         -DE/DX =    0.0                 !
 ! A13   A(7,5,8)              108.8684         -DE/DX =    0.0                 !
 ! A14   A(7,5,9)              108.4437         -DE/DX =    0.0                 !
 ! A15   A(8,5,9)              108.2871         -DE/DX =    0.0                 !
 ! A16   A(3,6,10)             124.9031         -DE/DX =    0.0                 !
 ! A17   A(3,6,12)             125.0273         -DE/DX =    0.0                 !
 ! A18   A(10,6,12)            109.9823         -DE/DX =    0.0                 !
 ! A19   A(10,13,12)           106.061          -DE/DX =    0.0                 !
 ! A20   L(3,6,13,5,-1)        177.501          -DE/DX =    0.0                 !
 ! A21   L(3,6,13,5,-2)        179.2914         -DE/DX =    0.0                 !
 ! D1    D(2,1,3,4)            169.4749         -DE/DX =    0.0                 !
 ! D2    D(2,1,3,5)            -68.4465         -DE/DX =    0.0                 !
 ! D3    D(2,1,3,6)             53.9105         -DE/DX =    0.0                 !
 ! D4    D(11,1,3,4)           -69.9535         -DE/DX =    0.0                 !
 ! D5    D(11,1,3,5)            52.1252         -DE/DX =    0.0                 !
 ! D6    D(11,1,3,6)           174.4822         -DE/DX =    0.0                 !
 ! D7    D(1,3,5,7)             59.9405         -DE/DX =    0.0                 !
 ! D8    D(1,3,5,8)           -178.8047         -DE/DX =    0.0                 !
 ! D9    D(1,3,5,9)            -59.3108         -DE/DX =    0.0                 !
 ! D10   D(4,3,5,7)           -177.9631         -DE/DX =    0.0                 !
 ! D11   D(4,3,5,8)            -56.7083         -DE/DX =    0.0                 !
 ! D12   D(4,3,5,9)             62.7856         -DE/DX =    0.0                 !
 ! D13   D(6,3,5,7)            -62.8739         -DE/DX =    0.0                 !
 ! D14   D(6,3,5,8)             58.3809         -DE/DX =    0.0                 !
 ! D15   D(6,3,5,9)            177.8748         -DE/DX =    0.0                 !
 ! D16   D(1,3,6,10)           -33.128          -DE/DX =    0.0                 !
 ! D17   D(1,3,6,12)           150.615          -DE/DX =    0.0                 !
 ! D18   D(4,3,6,10)          -149.9281         -DE/DX =    0.0                 !
 ! D19   D(4,3,6,12)            33.815          -DE/DX =    0.0                 !
 ! D20   D(5,3,6,10)            93.7439         -DE/DX =    0.0                 !
 ! D21   D(5,3,6,12)           -82.5131         -DE/DX =    0.0                 !
 --------------------------------------------------------------------------------
 GradGradGradGradGradGradGradGradGradGradGradGradGradGradGradGradGradGrad


 Test job not archived.
 1|1|UNPC-UNK|Freq|RB3LYP|6-311++G(d,p)|C3H7N1O2|PCUSER|01-Apr-2016|0||
 #N Geom=AllCheck Guess=Read SCRF=Check Test GenChk RB3LYP/6-311++G(d,p
 ) Freq||Ala-S-opt-freq-ts1-6-311++gdp||0,1|N,-1.3180545887,-1.21414738
 18,-0.3797503016|H,-1.1307414184,-1.6740250238,0.5060338104|C,-0.69916
 34258,0.1072410176,-0.4258420266|H,-0.7633629324,0.483225853,-1.450676
 6067|C,-1.3036412729,1.1698216717,0.5224823835|C,0.763343707,-0.024681
 886,-0.1111914244|H,-1.2257136785,0.8466133445,1.5637037939|H,-0.80046
 63524,2.1338183914,0.413037978|H,-2.3606202595,1.3053701589,0.28076787
 77|O,1.2628305185,-0.8817055361,0.689834054|H,-2.3227026963,-1.1444429
 625,-0.4993521547|O,1.6780675857,0.7442359316,-0.5516333687|H,2.230439
 8135,-0.1203625786,0.2613389852||Version=IA32W-G03RevE.01|State=1-A|HF
 =-323.7959969|RMSD=7.759e-009|RMSF=5.403e-006|ZeroPoint=0.1027373|Ther
 mal=0.109496|Dipole=-1.0169687,0.3747468,0.274652|DipoleDeriv=-0.34566
 08,-0.1005416,0.0474343,-0.0445376,-0.7102299,-0.181889,0.0351699,-0.1
 680216,-0.3957852,0.2046351,-0.0476206,-0.0412784,-0.0491091,0.2347958
 ,0.0085588,-0.019565,0.0825178,0.0693169,0.0969954,0.2163765,-0.012844
 8,0.2098263,0.5469167,0.136028,-0.0290064,0.0210455,0.2361907,0.021627
 6,-0.0026752,0.0139379,-0.0311075,-0.0076023,0.0242921,-0.0040832,0.04
 76149,-0.0626761,-0.0019521,0.025202,0.0200979,-0.0715325,-0.0535312,-
 0.0844881,-0.0502373,-0.0624166,0.046518,1.2562802,0.0309571,-0.039512
 7,0.1092178,0.8822278,-0.5271553,0.0711891,-0.5631791,0.6464422,0.0654
 701,0.027378,-0.0217713,0.0132552,0.0284215,0.0836174,0.0095971,0.0195
 415,-0.0889496,0.0443446,-0.0879648,0.0181148,-0.0566038,-0.1058966,-0
 .0246658,0.0196281,0.0081398,0.0589727,-0.1321439,0.0383189,-0.0319972
 ,0.0231402,0.0602697,-0.0161482,-0.0355938,-0.0194218,0.0454454,-0.708
 5594,0.0489485,-0.0541453,-0.0134611,-0.8423109,0.3942812,-0.0583383,0
 .4343049,-0.6622072,0.0175545,-0.0006935,-0.006461,0.0576021,0.1891141
 ,0.0662374,0.040172,0.0939463,0.2621131,-0.8320336,-0.2206529,0.162611
 1,-0.2307666,-0.7928655,0.3470037,0.0953421,0.3311319,-0.5933268,0.313
 4424,0.0729675,-0.0541851,0.0840765,0.5706908,-0.2256723,-0.0742741,-0
 .2252035,0.4379458|Polar=58.6077162,0.6978457,54.5706179,-0.4304102,-3
 .2158836,46.9461738|PG=C01 [X(C3H7N1O2)]|NImag=1||0.61514742,0.0381925
 1,0.39964916,0.13523248,-0.20560760,0.43469790,-0.06480023,0.01194843,
 -0.06139423,0.06869858,0.01410550,-0.10422682,0.13811035,-0.01926441,0
 .12860379,-0.08451216,0.17830088,-0.33068014,0.07778645,-0.17063273,0.
 33595336,-0.10858406,-0.03401927,-0.00859146,0.00298091,0.00583310,0.0
 0313864,0.49582249,-0.06483408,-0.18543667,0.03989546,-0.00621115,-0.0
 2013979,-0.00534505,0.02195295,0.46155818,-0.02819539,0.00415211,-0.08
 085032,0.01815019,0.03288930,-0.00329458,0.03376441,-0.08671921,0.5655
 2304,0.00298911,-0.01066204,0.01479621,-0.00195504,-0.00256873,0.00075
 285,-0.05346791,0.00500393,-0.01927678,0.05775046,0.00192225,-0.021852
 48,0.02907313,-0.00475996,-0.00388227,0.00101190,0.00424579,-0.0710930
 1,0.07787448,-0.00473418,0.09315797,0.00166361,0.00302938,0.00334702,0
 .00060462,-0.00109330,0.00155570,-0.02161341,0.08236193,-0.27633854,0.
 01914185,-0.08734863,0.29824615,0.00678101,-0.01679761,-0.00933952,-0.
 00041286,0.00039098,-0.00068239,-0.09441252,0.02974790,0.02926344,0.00
 202052,-0.00073881,-0.00097116,0.55124900,0.00563382,-0.03814616,-0.02
 109820,0.00022815,0.00083021,-0.00124275,0.01414807,-0.09909708,-0.028
 37400,-0.00257146,0.00607063,0.00292928,0.03925206,0.50455987,-0.00202
 880,-0.00192694,0.00423153,-0.00067407,0.00135177,0.00202829,0.0194061
 2,-0.02893952,-0.11202533,0.01575544,-0.02286810,-0.02100034,0.0306520
 9,-0.06077344,0.51869137,-0.02376743,-0.00880305,-0.00211617,0.0016981
 1,-0.00079467,-0.00059978,-0.19274675,0.00049054,-0.03046616,-0.001456
 75,0.00322610,-0.00043941,-0.01759911,0.01938270,0.00865137,0.80077316
 ,-0.03800630,-0.00398863,-0.00924007,-0.00424628,0.00079784,0.00166989
 ,0.01477558,-0.07590318,0.00181340,0.01141875,-0.00264141,0.00361848,0
 .02612111,-0.00479177,0.00288467,0.03927775,0.51758534,-0.00089997,-0.
 00017915,-0.00039883,0.00394549,0.00133582,-0.00016924,-0.02979183,-0.
 00297509,-0.09213983,-0.03495555,0.00470695,-0.00875996,0.02413145,-0.
 00138470,0.00675428,0.07714720,-0.22002482,0.42153170,-0.00026225,-0.0
 0067130,-0.00104194,0.00042261,0.00011009,-0.00036085,-0.00075098,-0.0
 0444968,0.01436033,-0.00053963,0.00218709,0.00175260,-0.04934876,0.006
 38144,-0.02088087,0.00130774,-0.00105150,0.00244172,0.04956926,-0.0002
 0908,0.00290193,0.00119766,0.00009994,-0.00056911,0.00029810,-0.000849
 11,0.00570257,-0.02347281,0.00216891,-0.00277197,-0.00311763,0.0053471
 1,-0.07253486,0.07795789,-0.00114177,0.00091549,-0.00068026,-0.0088075
 4,0.07549558,-0.00065448,0.00030504,0.00295491,-0.00021263,-0.00103231
 ,-0.00006637,0.00066582,0.00656610,-0.02042888,0.00210800,-0.00308383,
 -0.00077258,-0.02031050,0.07630049,-0.28282210,-0.00210585,0.00106027,
 -0.00161587,0.01993324,-0.08171991,0.30856512,0.00029437,0.00288098,0.
 00175861,0.00001783,-0.00010025,0.00002929,0.00585213,0.01133366,-0.00
 323893,0.00046568,-0.00052302,-0.00029567,-0.10510518,-0.10872497,0.01
 351882,0.00033829,0.00113824,-0.00048879,0.00100551,0.00387991,-0.0001
 2225,0.11031882,0.00166931,-0.00484442,-0.00429434,-0.00019306,0.00051
 240,-0.00031589,-0.01012394,-0.01601816,0.00530230,-0.00006895,0.00065
 354,-0.00026758,-0.10679310,-0.24949262,0.02440922,-0.00186563,-0.0021
 2977,0.00052837,-0.00363176,-0.00711935,0.00049152,0.11757235,0.271378
 64,0.00143512,-0.00471438,-0.00144927,0.00017783,-0.00063454,-0.000465
 84,-0.01133836,-0.01519700,0.00312900,-0.00055638,0.00060594,0.0002666
 5,0.01401459,0.02561014,-0.05189430,-0.00009313,-0.00024608,0.00071700
 ,0.01493855,0.02677225,-0.00124873,-0.01541712,-0.02561646,0.05095691,
 0.00230580,-0.00078207,-0.00022706,-0.00006156,0.00001997,-0.00006316,
 -0.01420794,0.00120630,-0.00257539,0.00045514,-0.00020963,0.00033162,-
 0.29234481,0.02945336,-0.05963984,0.00138217,0.00087245,0.00263985,-0.
 00103360,-0.00011522,-0.00024642,-0.01306275,0.00209283,-0.00328751,0.
 31691470,-0.00010358,0.00260178,0.00118632,0.00016076,-0.00013854,0.00
 005346,0.02443849,-0.00628687,0.00292198,-0.00099518,0.00080564,0.0005
 4886,0.02839515,-0.04867217,0.00870611,-0.00148968,-0.00375232,-0.0037
 8473,0.00962265,-0.00193553,0.00183846,-0.02763277,0.00495406,-0.00722
 610,-0.03358869,0.05181206,-0.00006137,0.00235127,0.00038260,-0.000082
 10,-0.00014481,-0.00005174,0.02348358,-0.00528079,0.00250189,-0.000132
 31,0.00091410,0.00113486,-0.06066589,0.00816973,-0.06009598,-0.0012750
 4,-0.00332364,-0.00406010,-0.03002794,0.00266415,-0.00582602,0.0037482
 8,-0.00058313,-0.00005566,0.06355553,-0.00524978,0.06363806,-0.0003568
 1,0.00196054,-0.00104049,0.00152867,0.00111091,-0.00048344,-0.00707203
 ,0.02427450,-0.02685582,-0.00804340,0.00070992,-0.00153459,-0.00153215
 ,-0.00176679,-0.00256955,-0.17926144,0.04791248,-0.05615971,0.00032159
 ,-0.00040167,0.00018810,-0.00017105,0.00081272,0.00014181,-0.00019516,
 0.00102522,0.00092259,0.11795042,-0.00188451,0.00222823,-0.00087224,0.
 00284570,-0.00005464,-0.00116920,0.00257977,-0.00194623,0.00945035,0.0
 0089700,0.00146549,-0.00163538,-0.00134389,0.00161609,0.00068599,0.091
 86818,-0.27263499,0.17501516,0.00024513,-0.00021619,-0.00058409,-0.000
 27265,0.00081131,0.00024449,0.00023295,0.00023442,-0.00005330,-0.08162
 638,0.37968994,0.00089707,0.00033717,0.00051010,-0.00149057,-0.0008392
 1,-0.00031611,-0.00447816,0.01192824,0.00311392,0.00017381,-0.00020137
 ,0.00111892,-0.00234084,-0.00083971,-0.00353788,-0.09510355,0.16607291
 ,-0.23353611,-0.00069290,0.00013046,0.00120697,0.00022970,-0.00043706,
 -0.00012897,-0.00028081,0.00056564,0.00156648,0.07916082,-0.28067958,0
 .29733486,-0.42157444,0.01614217,-0.06566405,-0.00660025,0.00120007,0.
 00466261,-0.01495139,0.00510722,0.00087467,-0.00008509,-0.00020640,0.0
 0015270,0.00221722,0.00160448,-0.00018793,0.00042086,-0.00212230,0.001
 25075,0.00000359,-0.00017538,-0.00011982,0.00008182,0.00046988,0.00036
 724,0.00040390,-0.00064592,-0.00057209,0.00016752,-0.00037081,0.000031
 73,0.44107127,0.04263468,-0.04814707,0.03147547,0.01907798,-0.00167910
 ,-0.00241532,-0.03924672,-0.00119331,-0.00766083,0.00032140,0.00060630
 ,0.00056328,-0.00115379,0.00235679,-0.00011595,-0.00041740,-0.00761903
 ,0.00147362,0.00016122,-0.00012341,-0.00015987,0.00038310,0.00029531,0
 .00041160,0.00091405,-0.00071434,-0.00009789,0.00104614,0.00140503,-0.
 00023049,-0.02070519,0.05448200,-0.02392896,0.02474650,-0.03412506,-0.
 03610481,0.00087177,-0.00470291,0.00016383,-0.00390532,-0.00103527,0.0
 0036727,0.00010708,-0.00011721,-0.00046707,0.00111692,0.00003939,-0.00
 023394,0.00107741,-0.00035015,-0.00024256,-0.00010427,-0.00020027,0.00
 032702,0.00041070,0.00018911,0.00008090,-0.00040524,0.00030507,-0.0003
 0689,-0.00026965,0.00038714,0.05934403,-0.02332400,0.03936272,-0.00819
 154,0.00059539,-0.00255981,-0.00049615,0.00018570,0.00015320,-0.018282
 71,-0.02147009,0.01464168,0.00142398,-0.00123893,0.00118872,-0.0016229
 3,-0.00307090,-0.00198479,-0.29315912,-0.12526502,0.05920377,-0.000507
 76,0.00012888,0.00061947,-0.00001430,0.00007089,-0.00035853,-0.0006114
 4,0.00080369,0.00098005,0.08818940,-0.00908341,0.01556597,-0.00113951,
 -0.00243110,0.00067660,0.27811123,0.00122643,0.00094769,-0.00021535,0.
 00256334,0.00038709,-0.00035700,-0.00224063,0.00977590,0.00387879,-0.0
 0069847,0.00022028,-0.00109905,-0.00145715,-0.00274670,-0.00120949,-0.
 16804402,-0.24897031,0.10372020,0.00023809,-0.00001883,-0.00036236,-0.
 00023118,0.00178897,0.00021409,0.00025353,0.00116469,0.00040473,-0.068
 71784,-0.08918178,0.10254735,-0.00017411,0.00108915,-0.00047844,0.2254
 7001,0.34100702,-0.00029326,-0.00165795,0.00150556,-0.00228312,-0.0005
 0489,0.00048984,-0.00409637,0.00114551,0.00997492,0.00291290,-0.001006
 60,0.00219367,-0.00197249,-0.00046248,0.00006363,0.09419738,0.11171488
 ,-0.15174828,-0.00056104,0.00019287,0.00064248,0.00010651,-0.00019265,
 -0.00028711,-0.00028908,0.00037712,0.00043807,0.06303964,0.11316340,-0
 .02827203,-0.00030075,-0.00070471,0.00048557,-0.14007381,-0.18969454,0
 .17952661,0.00001906,0.00001532,0.00018742,-0.00102061,-0.00022826,0.0
 0017874,-0.00017924,-0.00215201,-0.00044625,0.00044292,0.00011977,0.00
 001851,0.00011058,0.00005004,-0.00001800,-0.09792972,0.02917503,-0.048
 46437,-0.00018731,0.00007503,0.00025732,-0.00002118,-0.00001154,-0.000
 02411,0.00005555,0.00000987,0.00012670,-0.01152556,-0.00408707,0.00832
 774,-0.00001550,-0.00058437,0.00032460,-0.04369916,0.01181201,-0.01038
 649,0.15395017,-0.00034694,-0.00168655,0.00038942,-0.00224944,-0.00044
 105,0.00014370,-0.00149408,0.00007766,0.00794414,0.00248902,-0.0007386
 9,0.00151035,-0.00096997,0.00004778,-0.00016221,0.02831095,0.10313273,
 -0.05775139,-0.00033393,0.00027368,0.00038049,0.00029661,-0.00078991,-
 0.00022395,-0.00034984,-0.00007287,0.00022936,0.07366025,-0.02341667,0
 .00164566,-0.00012370,-0.00075831,0.00015654,-0.06469511,-0.01546318,-
 0.03236996,-0.03419383,-0.06016461,0.00134611,0.00086367,-0.00012601,0
 .00157697,0.00032279,-0.00028026,-0.00071281,0.00646473,0.00186997,-0.
 00108731,0.00021495,-0.00087434,-0.00131171,0.00004872,-0.00043257,-0.
 04756291,-0.05707729,0.06377538,0.00038166,-0.00011851,-0.00038865,-0.
 00015547,0.00056499,0.00027122,0.00000136,0.00046791,0.00012246,-0.054
 50248,-0.01329594,-0.03944729,0.00016090,0.00078508,-0.00023812,0.0519
 4749,-0.01734893,-0.01501293,0.04991818,0.07810784,-0.00923886||-0.000
 01318,-0.00000069,0.00001388,0.00000952,0.00000021,0.00000332,-0.00000
 315,-0.00000547,0.00000386,-0.00000022,-0.00000342,-0.00000114,0.00000
 198,0.00000129,-0.00000231,-0.00000699,-0.00000045,-0.00000993,-0.0000
 0113,0.00000176,-0.00000215,-0.00000010,0.00000140,-0.00000265,0.00000
 012,0.00000064,-0.00000304,0.00000562,-0.00000196,0.00000874,0.0000009
 4,0.00000204,-0.00001268,0.00000496,0.00000906,0.00000146,0.00000163,-
 0.00000443,0.00000264|||@


 My opinions may have changed, but not the fact that I am right.
                       -- Ashleigh Brilliant
 Job cpu time:  0 days  0 hours 17 minutes 52.0 seconds.
 File lengths (MBytes):  RWF=     50 Int=      0 D2E=      0 Chk=      6 Scr=      1
 Normal termination of Gaussian 03 at Fri Apr 01 17:01:57 2016.
