 Entering Link 1 = c:\G09w01\l1.exe PID=      6552.
  
 Copyright (c) 1988,1990,1992,1993,1995,1998,2003,2009,2010,
            Gaussian, Inc.  All Rights Reserved.
  
 This is part of the Gaussian(R) 09 program.  It is based on
 the Gaussian(R) 03 system (copyright 2003, Gaussian, Inc.),
 the Gaussian(R) 98 system (copyright 1998, Gaussian, Inc.),
 the Gaussian(R) 94 system (copyright 1995, Gaussian, Inc.),
 the Gaussian 92(TM) system (copyright 1992, Gaussian, Inc.),
 the Gaussian 90(TM) system (copyright 1990, Gaussian, Inc.),
 the Gaussian 88(TM) system (copyright 1988, Gaussian, Inc.),
 the Gaussian 86(TM) system (copyright 1986, Carnegie Mellon
 University), and the Gaussian 82(TM) system (copyright 1983,
 Carnegie Mellon University). Gaussian is a federally registered
 trademark of Gaussian, Inc.
  
 This software contains proprietary and confidential information,
 including trade secrets, belonging to Gaussian, Inc.
  
 This software is provided under written license and may be
 used, copied, transmitted, or stored only in accord with that
 written license.
  
 The following legend is applicable only to US Government
 contracts under FAR:
  
                    RESTRICTED RIGHTS LEGEND
  
 Use, reproduction and disclosure by the US Government is
 subject to restrictions as set forth in subparagraphs (a)
 and (c) of the Commercial Computer Software - Restricted
 Rights clause in FAR 52.227-19.
  
 Gaussian, Inc.
 340 Quinnipiac St., Bldg. 40, Wallingford CT 06492
  
  
 ---------------------------------------------------------------
 Warning -- This program may not be used in any manner that
 competes with the business of Gaussian, Inc. or will provide
 assistance to any competitor of Gaussian, Inc.  The licensee
 of this program is prohibited from giving any competitor of
 Gaussian, Inc. access to this program.  By using this program,
 the user acknowledges that Gaussian, Inc. is engaged in the
 business of creating and licensing software in the field of
 computational chemistry and represents and warrants to the
 licensee that it is not a competitor of Gaussian, Inc. and that
 it will not use this program in any manner prohibited above.
 ---------------------------------------------------------------
  

 Cite this work as:
 Gaussian 09, Revision B.01,
 M. J. Frisch, G. W. Trucks, H. B. Schlegel, G. E. Scuseria, 
 M. A. Robb, J. R. Cheeseman, G. Scalmani, V. Barone, B. Mennucci, 
 G. A. Petersson, H. Nakatsuji, M. Caricato, X. Li, H. P. Hratchian, 
 A. F. Izmaylov, J. Bloino, G. Zheng, J. L. Sonnenberg, M. Hada, 
 M. Ehara, K. Toyota, R. Fukuda, J. Hasegawa, M. Ishida, T. Nakajima, 
 Y. Honda, O. Kitao, H. Nakai, T. Vreven, J. A. Montgomery, Jr., 
 J. E. Peralta, F. Ogliaro, M. Bearpark, J. J. Heyd, E. Brothers, 
 K. N. Kudin, V. N. Staroverov, T. Keith, R. Kobayashi, J. Normand, 
 K. Raghavachari, A. Rendell, J. C. Burant, S. S. Iyengar, J. Tomasi, 
 M. Cossi, N. Rega, J. M. Millam, M. Klene, J. E. Knox, J. B. Cross, 
 V. Bakken, C. Adamo, J. Jaramillo, R. Gomperts, R. E. Stratmann, 
 O. Yazyev, A. J. Austin, R. Cammi, C. Pomelli, J. W. Ochterski, 
 R. L. Martin, K. Morokuma, V. G. Zakrzewski, G. A. Voth, 
 P. Salvador, J. J. Dannenberg, S. Dapprich, A. D. Daniels, 
 O. Farkas, J. B. Foresman, J. V. Ortiz, J. Cioslowski, 
 and D. J. Fox, Gaussian, Inc., Wallingford CT, 2010.
 
 ******************************************
 Gaussian 09:  IA32W-G09RevB.01 12-Aug-2010
                17-Apr-2016 
 ******************************************
 %chk=Ser-S-opt-freq-cpcm-w-pa2-6-311++gdp.chk
 -----------------------------------------------------------------
 #p opt freq rb3lyp/6-311++g(d,p) scrf=(cpcm,solvent=water) nosymm
 -----------------------------------------------------------------
 1/14=-1,18=20,19=15,26=3,38=1/1,3;
 2/9=110,12=2,15=1,17=6,18=5,40=1/2;
 3/5=4,6=6,7=1111,11=2,16=1,25=1,30=1,70=2101,71=1,72=1,74=-5,116=1/1,2,3;
 4//1;
 5/5=2,38=5,53=1/2;
 6/7=2,8=2,9=2,10=2,28=1/1;
 7/30=1/1,2,3,16;
 1/14=-1,18=20,19=15/3(2);
 2/9=110,15=1/2;
 99//99;
 2/9=110,15=1/2;
 3/5=4,6=6,7=1111,11=2,16=1,25=1,30=1,70=2105,71=1,72=1,74=-5,116=1/1,2,3;
 4/5=5,16=3/1;
 5/5=2,38=5,53=1/2;
 7/30=1/1,2,3,16;
 1/14=-1,18=20,19=15/3(-5);
 2/9=110,15=1/2;
 6/7=2,8=2,9=2,10=2,19=2,28=1/1;
 99/9=1/99;
 Leave Link    1 at Sun Apr 17 22:59:06 2016, MaxMem=          0 cpu:       1.0
 (Enter c:\G09w01\l101.exe)
 ------------------------------------
 Ser-S-opt-freq-cpcm-w-pa2-6-311++gdp
 ------------------------------------
 Symbolic Z-matrix:
 Charge =  0 Multiplicity = 1
 N                     0.00146   2.07792  -0.01089 
 H                     0.0649    2.35135   0.96947 
 C                     0.16008   0.65671  -0.22909 
 H                    -0.36558  -0.62456  -1.16004 
 C                     1.56648   0.22841   0.18199 
 C                    -0.91858  -0.2354    0.14886 
 H                     2.25734   0.92137  -0.30997 
 H                     1.70787   0.33221   1.27032 
 O                     1.84386  -1.12438  -0.19819 
 O                    -1.79331  -0.07542   1.11185 
 H                     2.6301   -1.41205   0.27806 
 H                    -0.87911   2.42254  -0.3736 
 O                    -1.00856  -1.20082  -0.69647 
 H                    -2.5397   -0.68958   1.01185 
 
 NAtoms=     14 NQM=     14 NQMF=      0 NMic=      0 NMicF=      0 NTot=     14.
                    Isotopes and Nuclear Properties:
 (Nuclear quadrupole moments (NQMom) in fm**2, nuclear magnetic moments (NMagM)
  in nuclear magnetons)

  Atom         1           2           3           4           5           6           7           8           9          10
 IAtWgt=          14           1          12           1          12          12           1           1          16          16
 AtmWgt=  14.0030740   1.0078250  12.0000000   1.0078250  12.0000000  12.0000000   1.0078250   1.0078250  15.9949146  15.9949146
 NucSpn=           2           1           0           1           0           0           1           1           0           0
 AtZEff=   0.0000000   0.0000000   0.0000000   0.0000000   0.0000000   0.0000000   0.0000000   0.0000000   0.0000000   0.0000000
 NQMom=    2.0440000   0.0000000   0.0000000   0.0000000   0.0000000   0.0000000   0.0000000   0.0000000   0.0000000   0.0000000
 NMagM=    0.4037610   2.7928460   0.0000000   2.7928460   0.0000000   0.0000000   2.7928460   2.7928460   0.0000000   0.0000000

  Atom        11          12          13          14
 IAtWgt=           1           1          16           1
 AtmWgt=   1.0078250   1.0078250  15.9949146   1.0078250
 NucSpn=           1           1           0           1
 AtZEff=   0.0000000   0.0000000   0.0000000   0.0000000
 NQMom=    0.0000000   0.0000000   0.0000000   0.0000000
 NMagM=    2.7928460   2.7928460   0.0000000   2.7928460
 Leave Link  101 at Sun Apr 17 22:59:06 2016, MaxMem=   33554432 cpu:       0.0
 (Enter c:\G09w01\l103.exe)

 GradGradGradGradGradGradGradGradGradGradGradGradGradGradGradGradGradGrad
 Berny optimization.
 Initialization pass.
                           ----------------------------
                           !    Initial Parameters    !
                           ! (Angstroms and Degrees)  !
 --------------------------                            --------------------------
 ! Name  Definition              Value          Derivative Info.                !
 --------------------------------------------------------------------------------
 ! R1    R(1,2)                  1.0198         estimate D2E/DX2                !
 ! R2    R(1,3)                  1.4466         estimate D2E/DX2                !
 ! R3    R(1,12)                 1.0128         estimate D2E/DX2                !
 ! R4    R(3,5)                  1.5266         estimate D2E/DX2                !
 ! R5    R(3,6)                  1.4499         estimate D2E/DX2                !
 ! R6    R(4,13)                 0.98           estimate D2E/DX2                !
 ! R7    R(5,7)                  1.0952         estimate D2E/DX2                !
 ! R8    R(5,8)                  1.1024         estimate D2E/DX2                !
 ! R9    R(5,9)                  1.4323         estimate D2E/DX2                !
 ! R10   R(6,10)                 1.3108         estimate D2E/DX2                !
 ! R11   R(6,13)                 1.2864         estimate D2E/DX2                !
 ! R12   R(9,11)                 0.9632         estimate D2E/DX2                !
 ! R13   R(10,14)                0.9717         estimate D2E/DX2                !
 ! A1    A(2,1,3)              113.6791         estimate D2E/DX2                !
 ! A2    A(2,1,12)             107.8873         estimate D2E/DX2                !
 ! A3    A(3,1,12)             112.0629         estimate D2E/DX2                !
 ! A4    A(1,3,5)              109.6364         estimate D2E/DX2                !
 ! A5    A(1,3,6)              118.9211         estimate D2E/DX2                !
 ! A6    A(5,3,6)              116.2681         estimate D2E/DX2                !
 ! A7    A(3,5,7)              106.4191         estimate D2E/DX2                !
 ! A8    A(3,5,8)              110.9527         estimate D2E/DX2                !
 ! A9    A(3,5,9)              111.8347         estimate D2E/DX2                !
 ! A10   A(7,5,8)              107.6366         estimate D2E/DX2                !
 ! A11   A(7,5,9)              110.8675         estimate D2E/DX2                !
 ! A12   A(8,5,9)              109.0349         estimate D2E/DX2                !
 ! A13   A(3,6,10)             127.7986         estimate D2E/DX2                !
 ! A14   A(3,6,13)             110.0305         estimate D2E/DX2                !
 ! A15   A(10,6,13)            121.8511         estimate D2E/DX2                !
 ! A16   A(5,9,11)             107.9943         estimate D2E/DX2                !
 ! A17   A(6,10,14)            111.0903         estimate D2E/DX2                !
 ! A18   A(4,13,6)              79.8426         estimate D2E/DX2                !
 ! D1    D(2,1,3,5)            -64.1618         estimate D2E/DX2                !
 ! D2    D(2,1,3,6)             73.0598         estimate D2E/DX2                !
 ! D3    D(12,1,3,5)           173.1803         estimate D2E/DX2                !
 ! D4    D(12,1,3,6)           -49.598          estimate D2E/DX2                !
 ! D5    D(1,3,5,7)            -50.0849         estimate D2E/DX2                !
 ! D6    D(1,3,5,8)             66.7269         estimate D2E/DX2                !
 ! D7    D(1,3,5,9)           -171.2912         estimate D2E/DX2                !
 ! D8    D(6,3,5,7)            171.4382         estimate D2E/DX2                !
 ! D9    D(6,3,5,8)            -71.7501         estimate D2E/DX2                !
 ! D10   D(6,3,5,9)             50.2318         estimate D2E/DX2                !
 ! D11   D(1,3,6,10)           -29.7794         estimate D2E/DX2                !
 ! D12   D(1,3,6,13)           143.7472         estimate D2E/DX2                !
 ! D13   D(5,3,6,10)           104.7141         estimate D2E/DX2                !
 ! D14   D(5,3,6,13)           -81.7593         estimate D2E/DX2                !
 ! D15   D(3,5,9,11)          -165.3299         estimate D2E/DX2                !
 ! D16   D(7,5,9,11)            76.0746         estimate D2E/DX2                !
 ! D17   D(8,5,9,11)           -42.2538         estimate D2E/DX2                !
 ! D18   D(3,6,10,14)          165.2463         estimate D2E/DX2                !
 ! D19   D(13,6,10,14)          -7.5903         estimate D2E/DX2                !
 ! D20   D(3,6,13,4)            -9.2284         estimate D2E/DX2                !
 ! D21   D(10,6,13,4)          164.7515         estimate D2E/DX2                !
 --------------------------------------------------------------------------------
 Trust Radius=3.00D-01 FncErr=1.00D-07 GrdErr=1.00D-06
 Number of steps in this run=     62 maximum allowed number of steps=    100.
 GradGradGradGradGradGradGradGradGradGradGradGradGradGradGradGradGradGrad

 Leave Link  103 at Sun Apr 17 22:59:06 2016, MaxMem=   33554432 cpu:       0.0
 (Enter c:\G09w01\l202.exe)
                          Input orientation:                          
 ---------------------------------------------------------------------
 Center     Atomic      Atomic             Coordinates (Angstroms)
 Number     Number       Type             X           Y           Z
 ---------------------------------------------------------------------
      1          7           0        0.001462    2.077920   -0.010892
      2          1           0        0.064901    2.351348    0.969471
      3          6           0        0.160081    0.656711   -0.229086
      4          1           0       -0.365578   -0.624559   -1.160039
      5          6           0        1.566481    0.228407    0.181988
      6          6           0       -0.918581   -0.235399    0.148860
      7          1           0        2.257335    0.921375   -0.309968
      8          1           0        1.707873    0.332210    1.270325
      9          8           0        1.843858   -1.124380   -0.198189
     10          8           0       -1.793308   -0.075422    1.111853
     11          1           0        2.630096   -1.412052    0.278060
     12          1           0       -0.879115    2.422545   -0.373601
     13          8           0       -1.008562   -1.200816   -0.696467
     14          1           0       -2.539699   -0.689581    1.011851
 ---------------------------------------------------------------------
                    Distance matrix (angstroms):
                    1          2          3          4          5
     1  N    0.000000
     2  H    1.019754   0.000000
     3  C    1.446583   2.077834   0.000000
     4  H    2.959501   3.684582   1.668724   0.000000
     5  C    2.430470   2.716938   1.526561   2.502287   0.000000
     6  C    2.494683   2.886503   1.449902   1.473252   2.528190
     7  H    2.552647   2.913512   2.115435   3.161045   1.095219
     8  H    2.756966   2.620456   2.179265   3.334857   1.102381
     9  O    3.699220   4.075390   2.451193   2.461013   1.432308
    10  O    3.019708   3.059808   2.479892   2.738878   3.499306
    11  H    4.378712   4.606675   3.261587   3.415017   1.957450
    12  H    1.012788   1.643191   2.054016   3.188580   3.332246
    13  O    3.498610   4.067621   2.243787   0.980000   3.073306
    14  H    3.893914   4.004121   3.262091   3.073782   4.288600
                    6          7          8          9         10
     6  C    0.000000
     7  H    3.411025   0.000000
     8  H    2.911722   1.773795   0.000000
     9  O    2.922636   2.090113   2.072843   0.000000
    10  O    1.310761   4.407141   3.528391   4.005683   0.000000
    11  H    3.740897   2.435079   2.208514   0.963192   4.695561
    12  H    2.709094   3.477769   3.710054   4.475045   3.046664
    13  O    1.286353   3.913970   3.687473   2.896623   2.269881
    14  H    1.891840   5.230098   4.376384   4.568240   0.971746
                   11         12         13         14
    11  H    0.000000
    12  H    5.238641   0.000000
    13  O    3.772818   3.640020   0.000000
    14  H    5.271356   3.789768   2.350339   0.000000
 Symmetry turned off by external request.
 Stoichiometry    C3H7NO3
 Framework group  C1[X(C3H7NO3)]
 Deg. of freedom    36
 Full point group                 C1      NOp   1
 Rotational constants (GHZ):      3.2535678      2.3235484      1.6001592
 Leave Link  202 at Sun Apr 17 22:59:06 2016, MaxMem=   33554432 cpu:       0.0
 (Enter c:\G09w01\l301.exe)
 Standard basis: 6-311++G(d,p) (5D, 7F)
 Ernie: Thresh=  0.10000D-02 Tol=  0.10000D-05 Strict=F.
 Integral buffers will be    262144 words long.
 Raffenetti 2 integral format.
 Two-electron integral symmetry is turned off.
   203 basis functions,   315 primitive gaussians,   210 cartesian basis functions
    28 alpha electrons       28 beta electrons
       nuclear repulsion energy       324.4906746190 Hartrees.
 IExCor=  402 DFT=T Ex+Corr=B3LYP ExCW=0 ScaHFX=  0.200000
 ScaDFX=  0.800000  0.720000  1.000000  0.810000 ScalE2=  1.000000  1.000000
 IRadAn=      0 IRanWt=     -1 IRanGd=            0 ICorTp=0
 NAtoms=   14 NActive=   14 NUniq=   14 SFac= 1.00D+00 NAtFMM=   50 NAOKFM=F Big=F
 ------------------------------------------------------------------------------
 Polarizable Continuum Model (PCM)
 =================================
 Model                : C-PCM.
 Atomic radii         : UFF (Universal Force Field).
 Polarization charges : Total charges.
 Charge compensation  : None.
 Solution method      : Matrix inversion.
 Cavity type          : Scaled VdW (van der Waals Surface) (Alpha=1.100).
 Cavity algorithm     : GePol (No added spheres)
                        Default sphere list used, NSphG=   14.
                        Lebedev-Laikov grids with approx.  5.0 points / Ang**2.
                        Smoothing algorithm: Karplus/York (Gamma=1.0000).
                        Polarization charges: spherical gaussians, with
                                              point-specific exponents (IZeta= 3).
                        Self-potential: point-specific (ISelfS= 7).
                        Self-field    : sphere-specific E.n sum rule (ISelfD= 2).
 1st derivatives      : Analytical E(r).r(x)/FMM algorithm (CHGder, D1EAlg=3).
                        Cavity 1st derivative terms included.
 Solvent              : Water, Eps=  78.355300 Eps(inf)=   1.777849
 ------------------------------------------------------------------------------
 Spheres list:
 ISph  on   Nord    Re0     Alpha      Xe            Ye            Ze
    1   N      1    1.830   1.100      0.001462      2.077920     -0.010892
    2   H      2    1.443   1.100      0.064901      2.351348      0.969471
    3   C      3    1.926   1.100      0.160081      0.656711     -0.229086
    4   H      4    1.443   1.100     -0.365578     -0.624559     -1.160039
    5   C      5    1.926   1.100      1.566481      0.228407      0.181988
    6   C      6    1.926   1.100     -0.918581     -0.235399      0.148860
    7   H      7    1.443   1.100      2.257335      0.921375     -0.309968
    8   H      8    1.443   1.100      1.707873      0.332210      1.270325
    9   O      9    1.750   1.100      1.843858     -1.124380     -0.198189
   10   O     10    1.750   1.100     -1.793308     -0.075422      1.111853
   11   H     11    1.443   1.100      2.630096     -1.412052      0.278060
   12   H     12    1.443   1.100     -0.879115      2.422545     -0.373601
   13   O     13    1.750   1.100     -1.008562     -1.200816     -0.696467
   14   H     14    1.443   1.100     -2.539699     -0.689581      1.011851
 ------------------------------------------------------------------------------
 GePol: Number of generator spheres                  =      14
 GePol: Total number of spheres                      =      14
 GePol: Number of exposed spheres                    =      14 (100.00%)
 GePol: Number of points                             =    1207
 GePol: Average weight of points                     =       0.13
 GePol: Minimum weight of points                     =   0.22D-08
 GePol: Maximum weight of points                     =    0.20577
 GePol: Number of points with low weight             =      71
 GePol: Fraction of low-weight points (<1% of avg)   =       5.88%
 GePol: Cavity surface area                          =    162.245 Ang**2
 GePol: Cavity volume                                =    150.245 Ang**3
 Leave Link  301 at Sun Apr 17 22:59:06 2016, MaxMem=   33554432 cpu:       0.0
 (Enter c:\G09w01\l302.exe)
 NPDir=0 NMtPBC=     1 NCelOv=     1 NCel=       1 NClECP=     1 NCelD=      1
         NCelK=      1 NCelE2=     1 NClLst=     1 CellRange=     0.0.
 One-electron integrals computed using PRISM.
 NBasis=   203 RedAO= T  NBF=   203
 NBsUse=   203 1.00D-06 NBFU=   203
 Precomputing XC quadrature grid using
 IXCGrd= 2 IRadAn=           0 IRanWt=          -1 IRanGd=           0 AccXCQ= 0.00D+00.
 NRdTot=     908 NPtTot=      115688 NUsed=      119926 NTot=      119942
 NSgBfM=   210   210   210   210   210 NAtAll=    14    14.
 Leave Link  302 at Sun Apr 17 22:59:06 2016, MaxMem=   33554432 cpu:       0.0
 (Enter c:\G09w01\l303.exe)
 DipDrv:  MaxL=1.
 Leave Link  303 at Sun Apr 17 22:59:06 2016, MaxMem=   33554432 cpu:       0.0
 (Enter c:\G09w01\l401.exe)
 Harris functional with IExCor=  402 diagonalized for initial guess.
 ExpMin= 3.60D-02 ExpMax= 8.59D+03 ExpMxC= 1.30D+03 IAcc=3 IRadAn=         0 AccDes= 0.00D+00
 HarFok:  IExCor=  402 AccDes= 0.00D+00 IRadAn=         0 IDoV= 1
 ScaDFX=  1.000000  1.000000  1.000000  1.000000
 FoFCou: FMM=F IPFlag=           0 FMFlag=      100000 FMFlg1=           0
         NFxFlg=           0 DoJE=T BraDBF=F KetDBF=T FulRan=T
         Omega=  0.000000  0.000000  1.000000  0.000000  0.000000 ICntrl=     500 IOpCl=  0
         NMat0=    1 NMatS0=    1 NMatT0=    0 NMatD0=    1 NMtDS0=    0 NMtDT0=    0
         I1Cent=           4 NGrid=           0.
 Symmetry not used in FoFCou.
 Harris En= -398.984296805963    
 Leave Link  401 at Sun Apr 17 22:59:11 2016, MaxMem=   33554432 cpu:       5.0
 (Enter c:\G09w01\l502.exe)
 Closed shell SCF:
 Requested convergence on RMS density matrix=1.00D-08 within 128 cycles.
 Requested convergence on MAX density matrix=1.00D-06.
 Requested convergence on             energy=1.00D-06.
 No special actions if energy rises.
 Using DIIS extrapolation, IDIIS=  1040.
 Two-electron integral symmetry not used.
       119802 words used for storage of precomputed grid.
 IEnd=      272667 IEndB=      272667 NGot=    33554432 MDV=    33342716
 LenX=    33342716 LenY=    33298175
 Fock matrices will be formed incrementally for  20 cycles.

 Cycle   1  Pass 1  IDiag  1:
 FoFCou: FMM=F IPFlag=           0 FMFlag=      100000 FMFlg1=           0
         NFxFlg=           0 DoJE=F BraDBF=F KetDBF=F FulRan=T
         Omega=  0.000000  0.000000  1.000000  0.000000  0.000000 ICntrl=       0 IOpCl=  0
         NMat0=    1 NMatS0=    1 NMatT0=    0 NMatD0=    1 NMtDS0=    0 NMtDT0=    0
         I1Cent=           0 NGrid=           0.
 Symmetry not used in FoFCou.
 E= -398.770555903159    
 DIIS: error= 2.36D-02 at cycle   1 NSaved=   1.
 NSaved= 1 IEnMin= 1 EnMin= -398.770555903159     IErMin= 1 ErrMin= 2.36D-02
 ErrMax= 2.36D-02 EMaxC= 1.00D-01 BMatC= 2.80D-01 BMatP= 2.80D-01
 IDIUse=3 WtCom= 7.64D-01 WtEn= 2.36D-01
 Coeff-Com:  0.100D+01
 Coeff-En:   0.100D+01
 Coeff:      0.100D+01
 Gap=     0.077 Goal=   None    Shift=    0.000
 GapD=    0.077 DampG=0.500 DampE=0.500 DampFc=0.2500 IDamp=-1.
 Damping current iteration by 2.50D-01
 RMSDP=2.66D-02 MaxDP=3.04D+00              OVMax= 3.56D-01

 Cycle   2  Pass 1  IDiag  1:
 RMSU=  4.04D-03    CP:  1.18D+00
 E= -398.847045772967     Delta-E=       -0.076489869808 Rises=F Damp=T
 DIIS: error= 9.66D-03 at cycle   2 NSaved=   2.
 NSaved= 2 IEnMin= 2 EnMin= -398.847045772967     IErMin= 2 ErrMin= 9.66D-03
 ErrMax= 9.66D-03 EMaxC= 1.00D-01 BMatC= 5.22D-02 BMatP= 2.80D-01
 IDIUse=3 WtCom= 9.03D-01 WtEn= 9.66D-02
 Coeff-Com: -0.626D+00 0.163D+01
 Coeff-En:   0.000D+00 0.100D+01
 Coeff:     -0.565D+00 0.157D+01
 Gap=     0.157 Goal=   None    Shift=    0.000
 RMSDP=4.99D-03 MaxDP=5.99D-01 DE=-7.65D-02 OVMax= 2.69D-01

 Cycle   3  Pass 1  IDiag  1:
 RMSU=  1.95D-03    CP:  1.03D+00  4.76D-01
 E= -398.972450585485     Delta-E=       -0.125404812518 Rises=F Damp=F
 DIIS: error= 3.84D-03 at cycle   3 NSaved=   3.
 NSaved= 3 IEnMin= 3 EnMin= -398.972450585485     IErMin= 3 ErrMin= 3.84D-03
 ErrMax= 3.84D-03 EMaxC= 1.00D-01 BMatC= 8.91D-03 BMatP= 5.22D-02
 IDIUse=3 WtCom= 9.62D-01 WtEn= 3.84D-02
 Coeff-Com: -0.310D+00 0.748D+00 0.561D+00
 Coeff-En:   0.000D+00 0.000D+00 0.100D+01
 Coeff:     -0.298D+00 0.720D+00 0.578D+00
 Gap=     0.149 Goal=   None    Shift=    0.000
 RMSDP=8.37D-04 MaxDP=1.95D-02 DE=-1.25D-01 OVMax= 6.32D-02

 Cycle   4  Pass 1  IDiag  1:
 RMSU=  5.79D-04    CP:  1.03D+00  5.04D-01  9.88D-01
 E= -398.978667615562     Delta-E=       -0.006217030077 Rises=F Damp=F
 DIIS: error= 2.16D-03 at cycle   4 NSaved=   4.
 NSaved= 4 IEnMin= 4 EnMin= -398.978667615562     IErMin= 4 ErrMin= 2.16D-03
 ErrMax= 2.16D-03 EMaxC= 1.00D-01 BMatC= 2.16D-03 BMatP= 8.91D-03
 IDIUse=3 WtCom= 9.78D-01 WtEn= 2.16D-02
 Coeff-Com: -0.964D-01 0.194D+00 0.335D+00 0.567D+00
 Coeff-En:   0.000D+00 0.000D+00 0.172D+00 0.828D+00
 Coeff:     -0.943D-01 0.190D+00 0.332D+00 0.573D+00
 Gap=     0.153 Goal=   None    Shift=    0.000
 RMSDP=3.72D-04 MaxDP=2.66D-02 DE=-6.22D-03 OVMax= 2.21D-02

 Cycle   5  Pass 1  IDiag  1:
 RMSU=  1.46D-04    CP:  1.02D+00  4.72D-01  1.01D+00  7.84D-01
 E= -398.980154943831     Delta-E=       -0.001487328269 Rises=F Damp=F
 DIIS: error= 6.49D-04 at cycle   5 NSaved=   5.
 NSaved= 5 IEnMin= 5 EnMin= -398.980154943831     IErMin= 5 ErrMin= 6.49D-04
 ErrMax= 6.49D-04 EMaxC= 1.00D-01 BMatC= 1.83D-04 BMatP= 2.16D-03
 IDIUse=3 WtCom= 9.94D-01 WtEn= 6.49D-03
 Coeff-Com: -0.316D-01 0.560D-01 0.140D+00 0.323D+00 0.513D+00
 Coeff-En:   0.000D+00 0.000D+00 0.000D+00 0.136D-01 0.986D+00
 Coeff:     -0.314D-01 0.557D-01 0.139D+00 0.321D+00 0.516D+00
 Gap=     0.152 Goal=   None    Shift=    0.000
 RMSDP=1.42D-04 MaxDP=5.04D-03 DE=-1.49D-03 OVMax= 5.31D-03

 Cycle   6  Pass 1  IDiag  1:
 RMSU=  7.78D-05    CP:  1.02D+00  4.77D-01  1.03D+00  8.52D-01  7.80D-01
 E= -398.980307702737     Delta-E=       -0.000152758906 Rises=F Damp=F
 DIIS: error= 1.44D-04 at cycle   6 NSaved=   6.
 NSaved= 6 IEnMin= 6 EnMin= -398.980307702737     IErMin= 6 ErrMin= 1.44D-04
 ErrMax= 1.44D-04 EMaxC= 1.00D-01 BMatC= 1.17D-05 BMatP= 1.83D-04
 IDIUse=3 WtCom= 9.99D-01 WtEn= 1.44D-03
 Coeff-Com: -0.340D-02 0.330D-02 0.222D-01 0.781D-01 0.252D+00 0.648D+00
 Coeff-En:   0.000D+00 0.000D+00 0.000D+00 0.000D+00 0.000D+00 0.100D+01
 Coeff:     -0.340D-02 0.329D-02 0.222D-01 0.779D-01 0.251D+00 0.649D+00
 Gap=     0.153 Goal=   None    Shift=    0.000
 RMSDP=4.72D-05 MaxDP=2.85D-03 DE=-1.53D-04 OVMax= 8.08D-04

 Cycle   7  Pass 1  IDiag  1:
 RMSU=  1.33D-05    CP:  1.02D+00  4.73D-01  1.03D+00  8.58D-01  8.87D-01
                    CP:  8.28D-01
 E= -398.980316443805     Delta-E=       -0.000008741068 Rises=F Damp=F
 DIIS: error= 5.19D-05 at cycle   7 NSaved=   7.
 NSaved= 7 IEnMin= 7 EnMin= -398.980316443805     IErMin= 7 ErrMin= 5.19D-05
 ErrMax= 5.19D-05 EMaxC= 1.00D-01 BMatC= 1.09D-06 BMatP= 1.17D-05
 IDIUse=1 WtCom= 1.00D+00 WtEn= 0.00D+00
 Coeff-Com: -0.789D-03 0.439D-05 0.723D-02 0.318D-01 0.127D+00 0.363D+00
 Coeff-Com:  0.471D+00
 Coeff:     -0.789D-03 0.439D-05 0.723D-02 0.318D-01 0.127D+00 0.363D+00
 Coeff:      0.471D+00
 Gap=     0.153 Goal=   None    Shift=    0.000
 RMSDP=1.69D-05 MaxDP=1.87D-03 DE=-8.74D-06 OVMax= 3.17D-04

 Cycle   8  Pass 1  IDiag  1:
 RMSU=  4.40D-06    CP:  1.02D+00  4.71D-01  1.03D+00  8.62D-01  9.05D-01
                    CP:  8.30D-01  1.09D+00
 E= -398.980317179888     Delta-E=       -0.000000736082 Rises=F Damp=F
 DIIS: error= 1.37D-05 at cycle   8 NSaved=   8.
 NSaved= 8 IEnMin= 8 EnMin= -398.980317179888     IErMin= 8 ErrMin= 1.37D-05
 ErrMax= 1.37D-05 EMaxC= 1.00D-01 BMatC= 7.99D-08 BMatP= 1.09D-06
 IDIUse=1 WtCom= 1.00D+00 WtEn= 0.00D+00
 Coeff-Com:  0.352D-03-0.580D-03-0.145D-02-0.203D-02 0.649D-02 0.157D-01
 Coeff-Com:  0.210D+00 0.771D+00
 Coeff:      0.352D-03-0.580D-03-0.145D-02-0.203D-02 0.649D-02 0.157D-01
 Coeff:      0.210D+00 0.771D+00
 Gap=     0.153 Goal=   None    Shift=    0.000
 RMSDP=9.03D-06 MaxDP=9.23D-04 DE=-7.36D-07 OVMax= 9.86D-05

 Cycle   9  Pass 1  IDiag  1:
 RMSU=  1.82D-06    CP:  1.02D+00  4.70D-01  1.03D+00  8.63D-01  9.22D-01
                    CP:  8.36D-01  1.22D+00  1.14D+00
 E= -398.980317238331     Delta-E=       -0.000000058443 Rises=F Damp=F
 DIIS: error= 3.92D-06 at cycle   9 NSaved=   9.
 NSaved= 9 IEnMin= 9 EnMin= -398.980317238331     IErMin= 9 ErrMin= 3.92D-06
 ErrMax= 3.92D-06 EMaxC= 1.00D-01 BMatC= 6.40D-09 BMatP= 7.99D-08
 IDIUse=1 WtCom= 1.00D+00 WtEn= 0.00D+00
 Coeff-Com:  0.166D-03-0.255D-03-0.930D-03-0.175D-02-0.247D-03-0.381D-02
 Coeff-Com:  0.894D-01 0.386D+00 0.532D+00
 Coeff:      0.166D-03-0.255D-03-0.930D-03-0.175D-02-0.247D-03-0.381D-02
 Coeff:      0.894D-01 0.386D+00 0.532D+00
 Gap=     0.153 Goal=   None    Shift=    0.000
 RMSDP=1.31D-06 MaxDP=5.60D-05 DE=-5.84D-08 OVMax= 3.21D-05

 Cycle  10  Pass 1  IDiag  1:
 RMSU=  4.08D-07    CP:  1.02D+00  4.70D-01  1.03D+00  8.63D-01  9.25D-01
                    CP:  8.36D-01  1.26D+00  1.19D+00  1.06D+00
 E= -398.980317242840     Delta-E=       -0.000000004509 Rises=F Damp=F
 DIIS: error= 1.29D-06 at cycle  10 NSaved=  10.
 NSaved=10 IEnMin=10 EnMin= -398.980317242840     IErMin=10 ErrMin= 1.29D-06
 ErrMax= 1.29D-06 EMaxC= 1.00D-01 BMatC= 9.19D-10 BMatP= 6.40D-09
 IDIUse=1 WtCom= 1.00D+00 WtEn= 0.00D+00
 Coeff-Com:  0.460D-05-0.657D-06-0.297D-03-0.654D-03-0.187D-02-0.631D-02
 Coeff-Com:  0.403D-02 0.477D-01 0.272D+00 0.685D+00
 Coeff:      0.460D-05-0.657D-06-0.297D-03-0.654D-03-0.187D-02-0.631D-02
 Coeff:      0.403D-02 0.477D-01 0.272D+00 0.685D+00
 Gap=     0.153 Goal=   None    Shift=    0.000
 RMSDP=1.02D-06 MaxDP=9.88D-05 DE=-4.51D-09 OVMax= 1.36D-05

 Cycle  11  Pass 1  IDiag  1:
 RMSU=  1.27D-07    CP:  1.02D+00  4.70D-01  1.03D+00  8.64D-01  9.27D-01
                    CP:  8.36D-01  1.28D+00  1.22D+00  1.15D+00  1.05D+00
 E= -398.980317243704     Delta-E=       -0.000000000864 Rises=F Damp=F
 DIIS: error= 5.17D-07 at cycle  11 NSaved=  11.
 NSaved=11 IEnMin=11 EnMin= -398.980317243704     IErMin=11 ErrMin= 5.17D-07
 ErrMax= 5.17D-07 EMaxC= 1.00D-01 BMatC= 3.60D-11 BMatP= 9.19D-10
 IDIUse=1 WtCom= 1.00D+00 WtEn= 0.00D+00
 Coeff-Com: -0.795D-05 0.130D-04-0.817D-04-0.163D-03-0.673D-03-0.214D-02
 Coeff-Com: -0.234D-02 0.125D-02 0.713D-01 0.233D+00 0.700D+00
 Coeff:     -0.795D-05 0.130D-04-0.817D-04-0.163D-03-0.673D-03-0.214D-02
 Coeff:     -0.234D-02 0.125D-02 0.713D-01 0.233D+00 0.700D+00
 Gap=     0.153 Goal=   None    Shift=    0.000
 RMSDP=2.56D-07 MaxDP=1.39D-05 DE=-8.64D-10 OVMax= 4.03D-06

 Cycle  12  Pass 1  IDiag  1:
 RMSU=  3.99D-08    CP:  1.02D+00  4.70D-01  1.03D+00  8.64D-01  9.28D-01
                    CP:  8.36D-01  1.28D+00  1.23D+00  1.20D+00  1.15D+00
                    CP:  1.02D+00
 E= -398.980317243730     Delta-E=       -0.000000000026 Rises=F Damp=F
 DIIS: error= 1.74D-07 at cycle  12 NSaved=  12.
 NSaved=12 IEnMin=12 EnMin= -398.980317243730     IErMin=12 ErrMin= 1.74D-07
 ErrMax= 1.74D-07 EMaxC= 1.00D-01 BMatC= 1.24D-11 BMatP= 3.60D-11
 IDIUse=1 WtCom= 1.00D+00 WtEn= 0.00D+00
 Coeff-Com: -0.572D-05 0.780D-05-0.525D-05 0.643D-05-0.113D-03-0.301D-03
 Coeff-Com: -0.209D-02-0.668D-02-0.101D-02 0.179D-01 0.399D+00 0.593D+00
 Coeff:     -0.572D-05 0.780D-05-0.525D-05 0.643D-05-0.113D-03-0.301D-03
 Coeff:     -0.209D-02-0.668D-02-0.101D-02 0.179D-01 0.399D+00 0.593D+00
 Gap=     0.153 Goal=   None    Shift=    0.000
 RMSDP=1.10D-07 MaxDP=1.00D-05 DE=-2.57D-11 OVMax= 1.75D-06

 Cycle  13  Pass 1  IDiag  1:
 RMSU=  1.29D-08    CP:  1.02D+00  4.70D-01  1.03D+00  8.64D-01  9.28D-01
                    CP:  8.36D-01  1.28D+00  1.24D+00  1.20D+00  1.17D+00
                    CP:  1.13D+00  8.36D-01
 E= -398.980317243746     Delta-E=       -0.000000000016 Rises=F Damp=F
 DIIS: error= 3.71D-08 at cycle  13 NSaved=  13.
 NSaved=13 IEnMin=13 EnMin= -398.980317243746     IErMin=13 ErrMin= 3.71D-08
 ErrMax= 3.71D-08 EMaxC= 1.00D-01 BMatC= 6.95D-13 BMatP= 1.24D-11
 IDIUse=1 WtCom= 1.00D+00 WtEn= 0.00D+00
 Coeff-Com: -0.140D-05 0.196D-05 0.204D-05 0.144D-04 0.122D-04 0.478D-04
 Coeff-Com: -0.446D-03-0.170D-02-0.453D-02-0.180D-01 0.879D-01 0.230D+00
 Coeff-Com:  0.706D+00
 Coeff:     -0.140D-05 0.196D-05 0.204D-05 0.144D-04 0.122D-04 0.478D-04
 Coeff:     -0.446D-03-0.170D-02-0.453D-02-0.180D-01 0.879D-01 0.230D+00
 Coeff:      0.706D+00
 Gap=     0.153 Goal=   None    Shift=    0.000
 RMSDP=2.43D-08 MaxDP=1.54D-06 DE=-1.64D-11 OVMax= 4.90D-07

 Cycle  14  Pass 1  IDiag  1:
 RMSU=  3.32D-09    CP:  1.02D+00  4.70D-01  1.03D+00  8.64D-01  9.28D-01
                    CP:  8.36D-01  1.28D+00  1.24D+00  1.21D+00  1.18D+00
                    CP:  1.16D+00  9.18D-01  9.56D-01
 E= -398.980317243749     Delta-E=       -0.000000000003 Rises=F Damp=F
 DIIS: error= 1.84D-08 at cycle  14 NSaved=  14.
 NSaved=14 IEnMin=14 EnMin= -398.980317243749     IErMin=14 ErrMin= 1.84D-08
 ErrMax= 1.84D-08 EMaxC= 1.00D-01 BMatC= 1.21D-13 BMatP= 6.95D-13
 IDIUse=1 WtCom= 1.00D+00 WtEn= 0.00D+00
 Coeff-Com:  0.349D-07-0.228D-07 0.174D-05 0.771D-05 0.218D-04 0.708D-04
 Coeff-Com: -0.667D-05-0.173D-03-0.256D-02-0.148D-01-0.829D-02 0.440D-01
 Coeff-Com:  0.354D+00 0.628D+00
 Coeff:      0.349D-07-0.228D-07 0.174D-05 0.771D-05 0.218D-04 0.708D-04
 Coeff:     -0.667D-05-0.173D-03-0.256D-02-0.148D-01-0.829D-02 0.440D-01
 Coeff:      0.354D+00 0.628D+00
 Gap=     0.153 Goal=   None    Shift=    0.000
 RMSDP=1.44D-08 MaxDP=1.26D-06 DE=-2.61D-12 OVMax= 2.05D-07

 Cycle  15  Pass 1  IDiag  1:
 RMSU=  1.55D-09    CP:  1.02D+00  4.70D-01  1.03D+00  8.64D-01  9.28D-01
                    CP:  8.36D-01  1.28D+00  1.24D+00  1.21D+00  1.18D+00
                    CP:  1.17D+00  9.35D-01  1.07D+00  9.81D-01
 E= -398.980317243748     Delta-E=        0.000000000001 Rises=F Damp=F
 DIIS: error= 3.53D-09 at cycle  15 NSaved=  15.
 NSaved=15 IEnMin=14 EnMin= -398.980317243749     IErMin=15 ErrMin= 3.53D-09
 ErrMax= 3.53D-09 EMaxC= 1.00D-01 BMatC= 6.46D-15 BMatP= 1.21D-13
 IDIUse=1 WtCom= 1.00D+00 WtEn= 0.00D+00
 Coeff-Com:  0.806D-07-0.114D-06-0.906D-07 0.653D-06 0.269D-05 0.101D-04
 Coeff-Com:  0.354D-04 0.148D-03 0.631D-04-0.189D-02-0.735D-02-0.774D-02
 Coeff-Com:  0.829D-02 0.178D+00 0.830D+00
 Coeff:      0.806D-07-0.114D-06-0.906D-07 0.653D-06 0.269D-05 0.101D-04
 Coeff:      0.354D-04 0.148D-03 0.631D-04-0.189D-02-0.735D-02-0.774D-02
 Coeff:      0.829D-02 0.178D+00 0.830D+00
 Gap=     0.153 Goal=   None    Shift=    0.000
 RMSDP=1.12D-09 MaxDP=6.16D-08 DE= 1.36D-12 OVMax= 4.54D-08

 Error on total polarization charges =  0.01341
 SCF Done:  E(RB3LYP) =  -398.980317244     A.U. after   15 cycles
             Convg  =    0.1124D-08             -V/T =  2.0030
 KE= 3.977917445369D+02 PE=-1.585745993373D+03 EE= 4.644832569733D+02
 Leave Link  502 at Sun Apr 17 23:02:59 2016, MaxMem=   33554432 cpu:     228.0
 (Enter c:\G09w01\l601.exe)
 Copying SCF densities to generalized density rwf, IOpCl= 0 IROHF=0.

 **********************************************************************

            Population analysis using the SCF density.

 **********************************************************************

 Alpha  occ. eigenvalues --  -19.20834 -19.18301 -19.13122 -14.30211 -10.32841
 Alpha  occ. eigenvalues --  -10.22398 -10.17634  -1.17335  -1.10023  -1.02961
 Alpha  occ. eigenvalues --   -0.88817  -0.73907  -0.68659  -0.63099  -0.57263
 Alpha  occ. eigenvalues --   -0.53727  -0.51263  -0.50355  -0.47346  -0.45918
 Alpha  occ. eigenvalues --   -0.43615  -0.41204  -0.40308  -0.37711  -0.35349
 Alpha  occ. eigenvalues --   -0.29053  -0.26733  -0.19410
 Alpha virt. eigenvalues --   -0.04141  -0.01109   0.00295   0.00788   0.02014
 Alpha virt. eigenvalues --    0.03792   0.04613   0.05508   0.06556   0.07489
 Alpha virt. eigenvalues --    0.08589   0.09444   0.10048   0.10847   0.11391
 Alpha virt. eigenvalues --    0.11690   0.12650   0.13322   0.14613   0.15500
 Alpha virt. eigenvalues --    0.16133   0.16853   0.17665   0.18004   0.19678
 Alpha virt. eigenvalues --    0.19860   0.20563   0.21364   0.23135   0.24216
 Alpha virt. eigenvalues --    0.24471   0.25213   0.26463   0.26808   0.27439
 Alpha virt. eigenvalues --    0.28104   0.28426   0.28960   0.29322   0.30071
 Alpha virt. eigenvalues --    0.31706   0.32790   0.34161   0.35520   0.35642
 Alpha virt. eigenvalues --    0.37459   0.38479   0.41662   0.45980   0.49175
 Alpha virt. eigenvalues --    0.51274   0.53796   0.54382   0.55421   0.57890
 Alpha virt. eigenvalues --    0.59870   0.61673   0.63438   0.64162   0.65374
 Alpha virt. eigenvalues --    0.68348   0.69542   0.71173   0.72774   0.75840
 Alpha virt. eigenvalues --    0.83715   0.84239   0.86570   0.87581   0.89782
 Alpha virt. eigenvalues --    0.99344   1.01535   1.05702   1.08100   1.08298
 Alpha virt. eigenvalues --    1.10209   1.11909   1.14292   1.15013   1.16548
 Alpha virt. eigenvalues --    1.18018   1.21206   1.25668   1.26917   1.32093
 Alpha virt. eigenvalues --    1.37357   1.37812   1.43450   1.45692   1.47371
 Alpha virt. eigenvalues --    1.49737   1.52878   1.54123   1.56336   1.57917
 Alpha virt. eigenvalues --    1.60428   1.63426   1.65597   1.65927   1.69991
 Alpha virt. eigenvalues --    1.72047   1.75276   1.77674   1.80220   1.82582
 Alpha virt. eigenvalues --    1.85475   1.90103   1.94160   2.00004   2.05710
 Alpha virt. eigenvalues --    2.07217   2.08012   2.12212   2.16583   2.18843
 Alpha virt. eigenvalues --    2.21369   2.31043   2.32584   2.44370   2.50597
 Alpha virt. eigenvalues --    2.53894   2.56142   2.58547   2.60134   2.61905
 Alpha virt. eigenvalues --    2.64822   2.67259   2.75571   2.80327   2.86664
 Alpha virt. eigenvalues --    2.89723   2.93211   2.96754   2.99324   3.00319
 Alpha virt. eigenvalues --    3.05235   3.09315   3.12490   3.13579   3.15402
 Alpha virt. eigenvalues --    3.20246   3.21023   3.24783   3.26418   3.30802
 Alpha virt. eigenvalues --    3.34692   3.47722   3.61087   3.74159   3.80223
 Alpha virt. eigenvalues --    3.80948   3.85372   3.91360   3.98953   4.06760
 Alpha virt. eigenvalues --    4.13650   4.22997   4.73272   4.83350   4.95823
 Alpha virt. eigenvalues --    4.98733   5.05874   5.30712   5.37521   5.46192
 Alpha virt. eigenvalues --    5.58317   5.65042   5.84331  23.70620  23.83783
 Alpha virt. eigenvalues --   23.86707  35.61009  49.84154  49.90129  49.93325
          Condensed to atoms (all electrons):
              1          2          3          4          5          6
     1  N    6.717410   0.385965  -0.172070   0.023146   0.029906   0.079567
     2  H    0.385965   0.509756  -0.169713   0.002716   0.036466   0.049897
     3  C   -0.172070  -0.169713   8.938252  -0.077372  -0.676912  -1.033968
     4  H    0.023146   0.002716  -0.077372   0.467607   0.028998   0.132073
     5  C    0.029906   0.036466  -0.676912   0.028998   5.729523   0.278146
     6  C    0.079567   0.049897  -1.033968   0.132073   0.278146   6.060912
     7  H    0.019471  -0.016125  -0.176050  -0.006596   0.464144   0.011358
     8  H   -0.002775   0.028657  -0.114046   0.010997   0.409168   0.000868
     9  O    0.011204  -0.000881  -0.083405  -0.010323   0.176439  -0.003818
    10  O   -0.011363   0.007009  -0.249402   0.024122  -0.004408   0.414121
    11  H    0.000516   0.001330  -0.058936   0.003459   0.041780   0.033635
    12  H    0.401161  -0.060240  -0.036098  -0.004149  -0.008153  -0.026110
    13  O   -0.006831  -0.014626  -0.087295   0.152779  -0.138685   0.209818
    14  H   -0.002433   0.000020   0.031832  -0.000519   0.008750  -0.037810
              7          8          9         10         11         12
     1  N    0.019471  -0.002775   0.011204  -0.011363   0.000516   0.401161
     2  H   -0.016125   0.028657  -0.000881   0.007009   0.001330  -0.060240
     3  C   -0.176050  -0.114046  -0.083405  -0.249402  -0.058936  -0.036098
     4  H   -0.006596   0.010997  -0.010323   0.024122   0.003459  -0.004149
     5  C    0.464144   0.409168   0.176439  -0.004408   0.041780  -0.008153
     6  C    0.011358   0.000868  -0.003818   0.414121   0.033635  -0.026110
     7  H    0.672867  -0.123247  -0.039398  -0.004594  -0.006909   0.004056
     8  H   -0.123247   0.735568  -0.080862   0.015233   0.005822  -0.005089
     9  O   -0.039398  -0.080862   8.164897  -0.001014   0.235520   0.000459
    10  O   -0.004594   0.015233  -0.001014   7.836788   0.001023   0.000667
    11  H   -0.006909   0.005822   0.235520   0.001023   0.472785  -0.000548
    12  H    0.004056  -0.005089   0.000459   0.000667  -0.000548   0.448440
    13  O    0.009917  -0.014993   0.014309  -0.117263  -0.004613   0.010539
    14  H    0.000811  -0.001999   0.000848   0.267869   0.000277   0.000731
             13         14
     1  N   -0.006831  -0.002433
     2  H   -0.014626   0.000020
     3  C   -0.087295   0.031832
     4  H    0.152779  -0.000519
     5  C   -0.138685   0.008750
     6  C    0.209818  -0.037810
     7  H    0.009917   0.000811
     8  H   -0.014993  -0.001999
     9  O    0.014309   0.000848
    10  O   -0.117263   0.267869
    11  H   -0.004613   0.000277
    12  H    0.010539   0.000731
    13  O    8.070124  -0.000240
    14  H   -0.000240   0.403635
 Mulliken atomic charges:
              1
     1  N   -0.472873
     2  H    0.239770
     3  C   -0.034818
     4  H    0.253062
     5  C   -0.375164
     6  C   -0.168689
     7  H    0.190295
     8  H    0.136697
     9  O   -0.383974
    10  O   -0.178788
    11  H    0.274860
    12  H    0.274333
    13  O   -0.082940
    14  H    0.328229
 Sum of Mulliken atomic charges =   0.00000
 Mulliken charges with hydrogens summed into heavy atoms:
              1
     1  N    0.041230
     3  C   -0.034818
     5  C   -0.048172
     6  C   -0.168689
     9  O   -0.109114
    10  O    0.149441
    13  O    0.170122
 Sum of Mulliken charges with hydrogens summed into heavy atoms =   0.00000
 Electronic spatial extent (au):  <R**2>=            780.5874
 Charge=              0.0000 electrons
 Dipole moment (field-independent basis, Debye):
    X=             -2.3009    Y=             -0.5101    Z=              3.1564  Tot=              3.9392
 Quadrupole moment (field-independent basis, Debye-Ang):
   XX=            -29.6821   YY=            -46.7369   ZZ=            -43.4500
   XY=             -1.8255   XZ=              2.2290   YZ=             -1.0613
 Traceless Quadrupole moment (field-independent basis, Debye-Ang):
   XX=             10.2742   YY=             -6.7805   ZZ=             -3.4937
   XY=             -1.8255   XZ=              2.2290   YZ=             -1.0613
 Octapole moment (field-independent basis, Debye-Ang**2):
  XXX=            -10.9374  YYY=            -15.4791  ZZZ=             -5.5167  XYY=             -9.7680
  XXY=            -18.2073  XXZ=             12.2047  XZZ=             -2.9444  YZZ=             -5.2254
  YYZ=              8.9040  XYZ=              3.7731
 Hexadecapole moment (field-independent basis, Debye-Ang**3):
 XXXX=           -344.2553 YYYY=           -384.4628 ZZZZ=           -130.6087 XXXY=             -3.7138
 XXXZ=             17.1859 YYYX=            -31.5870 YYYZ=             -7.1727 ZZZX=             28.0696
 ZZZY=            -12.3358 XXYY=           -122.0492 XXZZ=            -98.3450 YYZZ=            -78.3123
 XXYZ=            -29.6489 YYXZ=             13.5603 ZZXY=              4.5513
 N-N= 3.244906746190D+02 E-N=-1.585745993517D+03  KE= 3.977917445369D+02
 No NMR shielding tensors so no spin-rotation constants.
 Leave Link  601 at Sun Apr 17 23:03:00 2016, MaxMem=   33554432 cpu:       0.0
 (Enter c:\G09w01\l701.exe)
 Compute integral first derivatives.
 ... and contract with generalized density number  0.
 D1PCM: C-PCM CHGder 1st derivatives, ID1Alg=3 FixD1E=F DoIter=F DoCFld=F I1PDM=0.
 GePol: Maximum number of non-zero 1st derivatives   =     195
 Leave Link  701 at Sun Apr 17 23:03:04 2016, MaxMem=   33554432 cpu:       4.0
 (Enter c:\G09w01\l702.exe)
 L702 exits ... SP integral derivatives will be done elsewhere.
 Leave Link  702 at Sun Apr 17 23:03:04 2016, MaxMem=   33554432 cpu:       0.0
 (Enter c:\G09w01\l703.exe)
 Compute integral first derivatives, UseDBF=F ICtDFT=           0.
 Integral derivatives from FoFDir, PRISM(SPDF).
 Calling FoFJK, ICntrl=      2127 FMM=F ISym2X=0 I1Cent= 0 IOpClX= 0 NMat=1 NMatS=1 NMatT=0.
 FoFCou: FMM=F IPFlag=           0 FMFlag=      100000 FMFlg1=         800
         NFxFlg=           0 DoJE=F BraDBF=F KetDBF=F FulRan=T
         Omega=  0.000000  0.000000  1.000000  0.000000  0.000000 ICntrl=    2127 IOpCl=  0
         NMat0=    1 NMatS0=    1 NMatT0=    0 NMatD0=    1 NMtDS0=    0 NMtDT0=    0
         I1Cent=           0 NGrid=           0.
 Symmetry not used in FoFCou.
 Leave Link  703 at Sun Apr 17 23:03:45 2016, MaxMem=   33554432 cpu:      41.0
 (Enter c:\G09w01\l716.exe)
 Dipole        =-9.05257377D-01-2.00670546D-01 1.24180537D+00
 -------------------------------------------------------------------
 Center     Atomic                   Forces (Hartrees/Bohr)
 Number     Number              X              Y              Z
 -------------------------------------------------------------------
      1        7          -0.000192172   -0.001210346    0.006627024
      2        1          -0.000157786    0.002449230    0.000751310
      3        6          -0.009940723    0.008512157    0.023428801
      4        1           0.028275322   -0.013005673   -0.062053454
      5        6          -0.000980671    0.001068642   -0.009285442
      6        6           0.014810618    0.045421256    0.033979636
      7        1           0.001586295   -0.000111719    0.000439083
      8        1          -0.000681748    0.000054300    0.000405772
      9        8           0.000356939   -0.001310596   -0.000134537
     10        8          -0.006476114   -0.001493956   -0.002071365
     11        1          -0.000075461   -0.000348101   -0.000052502
     12        1           0.000000631   -0.000443017    0.000078312
     13        8          -0.024419846   -0.041031168    0.007954738
     14        1          -0.002105284    0.001448992   -0.000067376
 -------------------------------------------------------------------
 Cartesian Forces:  Max     0.062053454 RMS     0.016561975
 Leave Link  716 at Sun Apr 17 23:03:45 2016, MaxMem=   33554432 cpu:       0.0
 (Enter c:\G09w01\l103.exe)

 GradGradGradGradGradGradGradGradGradGradGradGradGradGradGradGradGradGrad
 Berny optimization.
 Internal  Forces:  Max     0.104715101 RMS     0.020799063
 Search for a local minimum.
 Step number   1 out of a maximum of   62
 All quantities printed in internal units (Hartrees-Bohrs-Radians)
 RMS Force = .20799D-01 SwitMx=.10000D-02 MixMth= 1
 Mixed Optimization -- RFO/linear search
 Second derivative matrix not updated -- first step.
 ITU=  0
     Eigenvalues ---    0.00415   0.01076   0.01264   0.01429   0.02177
     Eigenvalues ---    0.02271   0.02872   0.03195   0.04840   0.05941
     Eigenvalues ---    0.07370   0.11568   0.14071   0.16000   0.16000
     Eigenvalues ---    0.16000   0.16000   0.16000   0.19597   0.21637
     Eigenvalues ---    0.22080   0.24912   0.24960   0.29743   0.33420
     Eigenvalues ---    0.34216   0.38258   0.38696   0.40660   0.44377
     Eigenvalues ---    0.45509   0.51385   0.53022   0.54793   0.64291
     Eigenvalues ---    0.71130
 RFO step:  Lambda=-7.24304139D-02 EMin= 4.14602293D-03
 Linear search not attempted -- first point.
 Maximum step size (   0.300) exceeded in Quadratic search.
    -- Step size scaled by   0.594
 Iteration  1 RMS(Cart)=  0.08353556 RMS(Int)=  0.01539470
 Iteration  2 RMS(Cart)=  0.02860390 RMS(Int)=  0.00145041
 Iteration  3 RMS(Cart)=  0.00144761 RMS(Int)=  0.00009259
 Iteration  4 RMS(Cart)=  0.00000392 RMS(Int)=  0.00009256
 Iteration  5 RMS(Cart)=  0.00000000 RMS(Int)=  0.00009256
 Variable       Old X    -DE/DX   Delta X   Delta X   Delta X     New X
                                 (Linear)    (Quad)   (Total)
    R1        1.92706   0.00138   0.00000   0.00159   0.00159   1.92864
    R2        2.73365   0.00195   0.00000   0.00252   0.00252   2.73617
    R3        1.91389  -0.00018   0.00000  -0.00020  -0.00020   1.91369
    R4        2.88478  -0.00197   0.00000  -0.00316  -0.00316   2.88162
    R5        2.73992  -0.00797   0.00000  -0.01041  -0.01041   2.72951
    R6        1.85193   0.04026   0.00000   0.04082   0.04082   1.89275
    R7        2.06966   0.00074   0.00000   0.00106   0.00106   2.07072
    R8        2.08320   0.00031   0.00000   0.00045   0.00045   2.08365
    R9        2.70667   0.00168   0.00000   0.00208   0.00208   2.70875
   R10        2.47698   0.00416   0.00000   0.00346   0.00346   2.48044
   R11        2.43086   0.07583   0.00000   0.05752   0.05752   2.48837
   R12        1.82017   0.00001   0.00000   0.00001   0.00001   1.82018
   R13        1.83633   0.00071   0.00000   0.00070   0.00070   1.83703
    A1        1.98408   0.00365   0.00000   0.00970   0.00970   1.99378
    A2        1.88299  -0.00090   0.00000  -0.00167  -0.00167   1.88132
    A3        1.95587  -0.00126   0.00000  -0.00284  -0.00284   1.95303
    A4        1.91352   0.00161   0.00000   0.00440   0.00442   1.91794
    A5        2.07556  -0.00555   0.00000  -0.01147  -0.01151   2.06406
    A6        2.02926   0.00473   0.00000   0.01117   0.01119   2.04045
    A7        1.85736   0.00203   0.00000   0.00632   0.00632   1.86369
    A8        1.93649  -0.00104   0.00000  -0.00360  -0.00360   1.93289
    A9        1.95188  -0.00064   0.00000  -0.00131  -0.00132   1.95057
   A10        1.87861  -0.00027   0.00000  -0.00059  -0.00058   1.87803
   A11        1.93500  -0.00046   0.00000  -0.00070  -0.00070   1.93431
   A12        1.90302   0.00040   0.00000  -0.00004  -0.00005   1.90297
   A13        2.23051  -0.02087   0.00000  -0.03810  -0.03815   2.19235
   A14        1.92039   0.04947   0.00000   0.09174   0.09171   2.01211
   A15        2.12670  -0.02831   0.00000  -0.05183  -0.05189   2.07482
   A16        1.88486   0.00063   0.00000   0.00162   0.00162   1.88648
   A17        1.93889   0.00253   0.00000   0.00646   0.00646   1.94535
   A18        1.39352   0.10472   0.00000   0.26781   0.26781   1.66132
    D1       -1.11983  -0.00123   0.00000  -0.00289  -0.00288  -1.12271
    D2        1.27513   0.00205   0.00000   0.00740   0.00739   1.28252
    D3        3.02257  -0.00183   0.00000  -0.00585  -0.00584   3.01673
    D4       -0.86565   0.00145   0.00000   0.00444   0.00443  -0.86122
    D5       -0.87415  -0.00073   0.00000   0.00068   0.00071  -0.87344
    D6        1.16460  -0.00042   0.00000   0.00175   0.00177   1.16637
    D7       -2.98960  -0.00111   0.00000  -0.00179  -0.00176  -2.99135
    D8        2.99216   0.00091   0.00000   0.00132   0.00130   2.99346
    D9       -1.25228   0.00122   0.00000   0.00239   0.00236  -1.24991
   D10        0.87671   0.00054   0.00000  -0.00114  -0.00117   0.87554
   D11       -0.51975   0.00600   0.00000   0.04159   0.04146  -0.47829
   D12        2.50886   0.00774   0.00000   0.05778   0.05796   2.56682
   D13        1.82761   0.00782   0.00000   0.04891   0.04872   1.87633
   D14       -1.42697   0.00956   0.00000   0.06509   0.06523  -1.36174
   D15       -2.88555   0.00116   0.00000   0.00445   0.00445  -2.88110
   D16        1.32775  -0.00067   0.00000  -0.00220  -0.00220   1.32556
   D17       -0.73747  -0.00032   0.00000  -0.00103  -0.00104  -0.73850
   D18        2.88409   0.00147   0.00000   0.00289   0.00250   2.88659
   D19       -0.13248  -0.00494   0.00000  -0.02329  -0.02290  -0.15537
   D20       -0.16107  -0.00182   0.00000  -0.01298  -0.01308  -0.17415
   D21        2.87546  -0.00005   0.00000   0.00234   0.00244   2.87789
         Item               Value     Threshold  Converged?
 Maximum Force            0.104715     0.000450     NO 
 RMS     Force            0.020799     0.000300     NO 
 Maximum Displacement     0.596062     0.001800     NO 
 RMS     Displacement     0.109042     0.001200     NO 
 Predicted change in Energy=-3.396798D-02
 GradGradGradGradGradGradGradGradGradGradGradGradGradGradGradGradGradGrad

 Leave Link  103 at Sun Apr 17 23:03:45 2016, MaxMem=   33554432 cpu:       0.0
 (Enter c:\G09w01\l202.exe)
                          Input orientation:                          
 ---------------------------------------------------------------------
 Center     Atomic      Atomic             Coordinates (Angstroms)
 Number     Number       Type             X           Y           Z
 ---------------------------------------------------------------------
      1          7           0        0.000508    2.098975    0.043061
      2          1           0        0.056735    2.358777    1.028431
      3          6           0        0.172619    0.683625   -0.209180
      4          1           0       -0.395694   -0.939981   -1.337540
      5          6           0        1.579790    0.252827    0.190279
      6          6           0       -0.907950   -0.209444    0.138776
      7          1           0        2.272590    0.959057   -0.280888
      8          1           0        1.716645    0.329331    1.281695
      9          8           0        1.861762   -1.090388   -0.223156
     10          8           0       -1.797225   -0.002246    1.081724
     11          1           0        2.647149   -1.389478    0.247435
     12          1           0       -0.881197    2.442462   -0.317680
     13          8           0       -1.044159   -1.259350   -0.644217
     14          1           0       -2.554327   -0.605865    0.995426
 ---------------------------------------------------------------------
                    Distance matrix (angstroms):
                    1          2          3          4          5
     1  N    0.000000
     2  H    1.020594   0.000000
     3  C    1.447918   2.085964   0.000000
     4  H    3.361293   4.084644   2.057248   0.000000
     5  C    2.433941   2.730791   1.524888   2.767591   0.000000
     6  C    2.482591   2.884070   1.444394   1.724992   2.530849
     7  H    2.562560   2.929769   2.119170   3.441308   1.095778
     8  H    2.758801   2.634026   2.175374   3.596321   1.102621
     9  O    3.702320   4.089172   2.449595   2.522019   1.433409
    10  O    2.953946   3.002405   2.452985   2.948978   3.501994
    11  H    4.383582   4.622729   3.260299   3.460215   1.959513
    12  H    1.012681   1.642783   2.053244   3.566055   3.333014
    13  O    3.583578   4.135282   2.333443   1.001599   3.141365
    14  H    3.840618   3.950675   3.248091   3.195944   4.298434
                    6          7          8          9         10
     6  C    0.000000
     7  H    3.414286   0.000000
     8  H    2.912910   1.774062   0.000000
     9  O    2.928883   2.091013   2.073943   0.000000
    10  O    1.312590   4.398205   3.535140   4.034222   0.000000
    11  H    3.747402   2.436193   2.211298   0.963195   4.730001
    12  H    2.691036   3.485430   3.711079   4.473677   2.962099
    13  O    1.316789   4.006764   3.722242   2.941125   2.264131
    14  H    1.897777   5.232312   4.381523   4.606685   0.972115
                   11         12         13         14
    11  H    0.000000
    12  H    5.239499   0.000000
    13  O    3.799702   3.719757   0.000000
    14  H    5.313088   3.716975   2.322946   0.000000
 Symmetry turned off by external request.
 Stoichiometry    C3H7NO3
 Framework group  C1[X(C3H7NO3)]
 Deg. of freedom    36
 Full point group                 C1      NOp   1
 Rotational constants (GHZ):      3.2222310      2.3209145      1.5646098
 Leave Link  202 at Sun Apr 17 23:03:45 2016, MaxMem=   33554432 cpu:       0.0
 (Enter c:\G09w01\l301.exe)
 Standard basis: 6-311++G(d,p) (5D, 7F)
 Ernie: Thresh=  0.10000D-02 Tol=  0.10000D-05 Strict=F.
 Integral buffers will be    262144 words long.
 Raffenetti 2 integral format.
 Two-electron integral symmetry is turned off.
   203 basis functions,   315 primitive gaussians,   210 cartesian basis functions
    28 alpha electrons       28 beta electrons
       nuclear repulsion energy       322.0753687973 Hartrees.
 IExCor=  402 DFT=T Ex+Corr=B3LYP ExCW=0 ScaHFX=  0.200000
 ScaDFX=  0.800000  0.720000  1.000000  0.810000 ScalE2=  1.000000  1.000000
 IRadAn=      0 IRanWt=     -1 IRanGd=            0 ICorTp=0
 NAtoms=   14 NActive=   14 NUniq=   14 SFac= 1.00D+00 NAtFMM=   50 NAOKFM=F Big=F
 ------------------------------------------------------------------------------
 Polarizable Continuum Model (PCM)
 =================================
 Model                : C-PCM.
 Atomic radii         : UFF (Universal Force Field).
 Polarization charges : Total charges.
 Charge compensation  : None.
 Solution method      : Matrix inversion.
 Cavity type          : Scaled VdW (van der Waals Surface) (Alpha=1.100).
 Cavity algorithm     : GePol (No added spheres)
                        Default sphere list used, NSphG=   14.
                        Lebedev-Laikov grids with approx.  5.0 points / Ang**2.
                        Smoothing algorithm: Karplus/York (Gamma=1.0000).
                        Polarization charges: spherical gaussians, with
                                              point-specific exponents (IZeta= 3).
                        Self-potential: point-specific (ISelfS= 7).
                        Self-field    : sphere-specific E.n sum rule (ISelfD= 2).
 1st derivatives      : Analytical E(r).r(x)/FMM algorithm (CHGder, D1EAlg=3).
                        Cavity 1st derivative terms included.
 Solvent              : Water, Eps=  78.355300 Eps(inf)=   1.777849
 ------------------------------------------------------------------------------
 Spheres list:
 ISph  on   Nord    Re0     Alpha      Xe            Ye            Ze
    1   N      1    1.830   1.100      0.000508      2.098975      0.043061
    2   H      2    1.443   1.100      0.056735      2.358777      1.028431
    3   C      3    1.926   1.100      0.172619      0.683625     -0.209180
    4   H      4    1.443   1.100     -0.395694     -0.939981     -1.337540
    5   C      5    1.926   1.100      1.579790      0.252827      0.190279
    6   C      6    1.926   1.100     -0.907950     -0.209444      0.138776
    7   H      7    1.443   1.100      2.272590      0.959057     -0.280888
    8   H      8    1.443   1.100      1.716645      0.329331      1.281695
    9   O      9    1.750   1.100      1.861762     -1.090388     -0.223156
   10   O     10    1.750   1.100     -1.797225     -0.002246      1.081724
   11   H     11    1.443   1.100      2.647149     -1.389478      0.247435
   12   H     12    1.443   1.100     -0.881197      2.442462     -0.317680
   13   O     13    1.750   1.100     -1.044159     -1.259350     -0.644217
   14   H     14    1.443   1.100     -2.554327     -0.605865      0.995426
 ------------------------------------------------------------------------------
 GePol: Number of generator spheres                  =      14
 GePol: Total number of spheres                      =      14
 GePol: Number of exposed spheres                    =      14 (100.00%)
 GePol: Number of points                             =    1204
 GePol: Average weight of points                     =       0.14
 GePol: Minimum weight of points                     =   0.31D-08
 GePol: Maximum weight of points                     =    0.20577
 GePol: Number of points with low weight             =      65
 GePol: Fraction of low-weight points (<1% of avg)   =       5.40%
 GePol: Cavity surface area                          =    163.173 Ang**2
 GePol: Cavity volume                                =    151.676 Ang**3
 Leave Link  301 at Sun Apr 17 23:03:45 2016, MaxMem=   33554432 cpu:       0.0
 (Enter c:\G09w01\l302.exe)
 NPDir=0 NMtPBC=     1 NCelOv=     1 NCel=       1 NClECP=     1 NCelD=      1
         NCelK=      1 NCelE2=     1 NClLst=     1 CellRange=     0.0.
 One-electron integrals computed using PRISM.
 NBasis=   203 RedAO= T  NBF=   203
 NBsUse=   203 1.00D-06 NBFU=   203
 Precomputing XC quadrature grid using
 IXCGrd= 2 IRadAn=           0 IRanWt=          -1 IRanGd=           0 AccXCQ= 0.00D+00.
 NRdTot=     909 NPtTot=      115834 NUsed=      120077 NTot=      120093
 NSgBfM=   210   210   210   210   210 NAtAll=    14    14.
 Leave Link  302 at Sun Apr 17 23:03:46 2016, MaxMem=   33554432 cpu:       1.0
 (Enter c:\G09w01\l303.exe)
 DipDrv:  MaxL=1.
 Leave Link  303 at Sun Apr 17 23:03:46 2016, MaxMem=   33554432 cpu:       0.0
 (Enter c:\G09w01\l401.exe)
 Initial guess read from the read-write file.
 B after Tr=     0.000000    0.000000    0.000000
         Rot=    1.000000    0.000000    0.000000    0.000000 Ang=   0.00 deg.
 Guess basis will be translated and rotated to current coordinates.
 Generating alternative initial guess.
 Harris functional with IExCor=  402 diagonalized for initial guess.
 ExpMin= 3.60D-02 ExpMax= 8.59D+03 ExpMxC= 1.30D+03 IAcc=3 IRadAn=         0 AccDes= 0.00D+00
 HarFok:  IExCor=  402 AccDes= 0.00D+00 IRadAn=         0 IDoV= 1
 ScaDFX=  1.000000  1.000000  1.000000  1.000000
 FoFCou: FMM=F IPFlag=           0 FMFlag=      100000 FMFlg1=           0
         NFxFlg=           0 DoJE=T BraDBF=F KetDBF=T FulRan=T
         Omega=  0.000000  0.000000  1.000000  0.000000  0.000000 ICntrl=     500 IOpCl=  0
         NMat0=    1 NMatS0=    1 NMatT0=    0 NMatD0=    1 NMtDS0=    0 NMtDT0=    0
         I1Cent=           4 NGrid=           0.
 Symmetry not used in FoFCou.
 Harris En= -399.014857266132    
 Leave Link  401 at Sun Apr 17 23:03:51 2016, MaxMem=   33554432 cpu:       5.0
 (Enter c:\G09w01\l502.exe)
 Closed shell SCF:
 Requested convergence on RMS density matrix=1.00D-08 within 128 cycles.
 Requested convergence on MAX density matrix=1.00D-06.
 Requested convergence on             energy=1.00D-06.
 No special actions if energy rises.
 Using DIIS extrapolation, IDIIS=  1040.
 Two-electron integral symmetry not used.
       119953 words used for storage of precomputed grid.
 IEnd=      272818 IEndB=      272818 NGot=    33554432 MDV=    33342565
 LenX=    33342565 LenY=    33298024
 Fock matrices will be formed incrementally for  20 cycles.

 Cycle   1  Pass 1  IDiag  1:
 FoFCou: FMM=F IPFlag=           0 FMFlag=      100000 FMFlg1=           0
         NFxFlg=           0 DoJE=F BraDBF=F KetDBF=F FulRan=T
         Omega=  0.000000  0.000000  1.000000  0.000000  0.000000 ICntrl=       0 IOpCl=  0
         NMat0=    1 NMatS0=    1 NMatT0=    0 NMatD0=    1 NMtDS0=    0 NMtDT0=    0
         I1Cent=           0 NGrid=           0.
 Symmetry not used in FoFCou.
 E= -398.985578986514    
 DIIS: error= 6.68D-03 at cycle   1 NSaved=   1.
 NSaved= 1 IEnMin= 1 EnMin= -398.985578986514     IErMin= 1 ErrMin= 6.68D-03
 ErrMax= 6.68D-03 EMaxC= 1.00D-01 BMatC= 1.80D-02 BMatP= 1.80D-02
 IDIUse=3 WtCom= 9.33D-01 WtEn= 6.68D-02
 Coeff-Com:  0.100D+01
 Coeff-En:   0.100D+01
 Coeff:      0.100D+01
 Gap=     0.153 Goal=   None    Shift=    0.000
 GapD=    0.153 DampG=1.000 DampE=1.000 DampFc=1.0000 IDamp=-1.
 RMSDP=2.43D-03 MaxDP=7.60D-02              OVMax= 8.02D-02

 Cycle   2  Pass 1  IDiag  1:
 RMSU=  1.71D-03    CP:  1.01D+00
 E= -399.008023284686     Delta-E=       -0.022444298173 Rises=F Damp=F
 DIIS: error= 1.65D-03 at cycle   2 NSaved=   2.
 NSaved= 2 IEnMin= 2 EnMin= -399.008023284686     IErMin= 2 ErrMin= 1.65D-03
 ErrMax= 1.65D-03 EMaxC= 1.00D-01 BMatC= 1.21D-03 BMatP= 1.80D-02
 IDIUse=3 WtCom= 9.84D-01 WtEn= 1.65D-02
 Coeff-Com:  0.393D-01 0.961D+00
 Coeff-En:   0.000D+00 0.100D+01
 Coeff:      0.386D-01 0.961D+00
 Gap=     0.155 Goal=   None    Shift=    0.000
 RMSDP=9.01D-04 MaxDP=5.79D-02 DE=-2.24D-02 OVMax= 3.66D-02

 Cycle   3  Pass 1  IDiag  1:
 RMSU=  5.45D-04    CP:  9.87D-01  9.38D-01
 E= -399.006406845060     Delta-E=        0.001616439627 Rises=F Damp=F
 DIIS: error= 2.48D-03 at cycle   3 NSaved=   3.
 NSaved= 3 IEnMin= 2 EnMin= -399.008023284686     IErMin= 2 ErrMin= 1.65D-03
 ErrMax= 2.48D-03 EMaxC= 1.00D-01 BMatC= 3.21D-03 BMatP= 1.21D-03
 IDIUse=3 WtCom= 1.67D-01 WtEn= 8.33D-01
 Coeff-Com: -0.296D-01 0.642D+00 0.388D+00
 Coeff-En:   0.000D+00 0.679D+00 0.321D+00
 Coeff:     -0.495D-02 0.673D+00 0.332D+00
 Gap=     0.149 Goal=   None    Shift=    0.000
 RMSDP=4.51D-04 MaxDP=2.72D-02 DE= 1.62D-03 OVMax= 2.50D-02

 Cycle   4  Pass 1  IDiag  1:
 RMSU=  1.07D-04    CP:  9.97D-01  9.93D-01  5.42D-01
 E= -399.009213172169     Delta-E=       -0.002806327110 Rises=F Damp=F
 DIIS: error= 2.60D-04 at cycle   4 NSaved=   4.
 NSaved= 4 IEnMin= 4 EnMin= -399.009213172169     IErMin= 4 ErrMin= 2.60D-04
 ErrMax= 2.60D-04 EMaxC= 1.00D-01 BMatC= 4.07D-05 BMatP= 1.21D-03
 IDIUse=3 WtCom= 9.97D-01 WtEn= 2.60D-03
 Coeff-Com: -0.162D-01 0.247D+00 0.992D-01 0.670D+00
 Coeff-En:   0.000D+00 0.000D+00 0.000D+00 0.100D+01
 Coeff:     -0.162D-01 0.246D+00 0.989D-01 0.671D+00
 Gap=     0.149 Goal=   None    Shift=    0.000
 RMSDP=1.73D-04 MaxDP=1.57D-02 DE=-2.81D-03 OVMax= 2.81D-03

 Cycle   5  Pass 1  IDiag  1:
 RMSU=  7.32D-05    CP:  1.00D+00  1.01D+00  4.23D-01  1.22D+00
 E= -399.009250820338     Delta-E=       -0.000037648169 Rises=F Damp=F
 DIIS: error= 9.99D-05 at cycle   5 NSaved=   5.
 NSaved= 5 IEnMin= 5 EnMin= -399.009250820338     IErMin= 5 ErrMin= 9.99D-05
 ErrMax= 9.99D-05 EMaxC= 1.00D-01 BMatC= 5.33D-06 BMatP= 4.07D-05
 IDIUse=1 WtCom= 1.00D+00 WtEn= 0.00D+00
 Coeff-Com: -0.295D-02 0.320D-01 0.136D-02 0.316D+00 0.653D+00
 Coeff:     -0.295D-02 0.320D-01 0.136D-02 0.316D+00 0.653D+00
 Gap=     0.149 Goal=   None    Shift=    0.000
 RMSDP=4.54D-05 MaxDP=2.93D-03 DE=-3.76D-05 OVMax= 1.94D-03

 Cycle   6  Pass 1  IDiag  1:
 RMSU=  2.20D-05    CP:  1.00D+00  1.02D+00  4.12D-01  1.36D+00  1.09D+00
 E= -399.009255785682     Delta-E=       -0.000004965344 Rises=F Damp=F
 DIIS: error= 4.88D-05 at cycle   6 NSaved=   6.
 NSaved= 6 IEnMin= 6 EnMin= -399.009255785682     IErMin= 6 ErrMin= 4.88D-05
 ErrMax= 4.88D-05 EMaxC= 1.00D-01 BMatC= 1.00D-06 BMatP= 5.33D-06
 IDIUse=1 WtCom= 1.00D+00 WtEn= 0.00D+00
 Coeff-Com:  0.509D-03-0.163D-01-0.842D-02 0.679D-01 0.352D+00 0.604D+00
 Coeff:      0.509D-03-0.163D-01-0.842D-02 0.679D-01 0.352D+00 0.604D+00
 Gap=     0.149 Goal=   None    Shift=    0.000
 RMSDP=1.93D-05 MaxDP=1.69D-03 DE=-4.97D-06 OVMax= 4.63D-04

 Cycle   7  Pass 1  IDiag  1:
 RMSU=  5.97D-06    CP:  1.00D+00  1.02D+00  4.11D-01  1.40D+00  1.22D+00
                    CP:  1.08D+00
 E= -399.009256656318     Delta-E=       -0.000000870636 Rises=F Damp=F
 DIIS: error= 1.81D-05 at cycle   7 NSaved=   7.
 NSaved= 7 IEnMin= 7 EnMin= -399.009256656318     IErMin= 7 ErrMin= 1.81D-05
 ErrMax= 1.81D-05 EMaxC= 1.00D-01 BMatC= 1.18D-07 BMatP= 1.00D-06
 IDIUse=1 WtCom= 1.00D+00 WtEn= 0.00D+00
 Coeff-Com:  0.704D-03-0.146D-01-0.375D-02-0.114D-01 0.119D+00 0.315D+00
 Coeff-Com:  0.595D+00
 Coeff:      0.704D-03-0.146D-01-0.375D-02-0.114D-01 0.119D+00 0.315D+00
 Coeff:      0.595D+00
 Gap=     0.149 Goal=   None    Shift=    0.000
 RMSDP=1.02D-05 MaxDP=7.98D-04 DE=-8.71D-07 OVMax= 1.93D-04

 Cycle   8  Pass 1  IDiag  1:
 RMSU=  2.43D-06    CP:  1.00D+00  1.02D+00  4.06D-01  1.42D+00  1.27D+00
                    CP:  1.21D+00  1.05D+00
 E= -399.009256756596     Delta-E=       -0.000000100278 Rises=F Damp=F
 DIIS: error= 4.67D-06 at cycle   8 NSaved=   8.
 NSaved= 8 IEnMin= 8 EnMin= -399.009256756596     IErMin= 8 ErrMin= 4.67D-06
 ErrMax= 4.67D-06 EMaxC= 1.00D-01 BMatC= 9.90D-09 BMatP= 1.18D-07
 IDIUse=1 WtCom= 1.00D+00 WtEn= 0.00D+00
 Coeff-Com:  0.215D-03-0.355D-02 0.491D-03-0.167D-01 0.268D-02 0.271D-01
 Coeff-Com:  0.196D+00 0.794D+00
 Coeff:      0.215D-03-0.355D-02 0.491D-03-0.167D-01 0.268D-02 0.271D-01
 Coeff:      0.196D+00 0.794D+00
 Gap=     0.149 Goal=   None    Shift=    0.000
 RMSDP=5.15D-06 MaxDP=5.21D-04 DE=-1.00D-07 OVMax= 6.92D-05

 Cycle   9  Pass 1  IDiag  1:
 RMSU=  5.65D-07    CP:  1.00D+00  1.02D+00  4.05D-01  1.43D+00  1.29D+00
                    CP:  1.27D+00  1.17D+00  1.16D+00
 E= -399.009256765578     Delta-E=       -0.000000008982 Rises=F Damp=F
 DIIS: error= 2.06D-06 at cycle   9 NSaved=   9.
 NSaved= 9 IEnMin= 9 EnMin= -399.009256765578     IErMin= 9 ErrMin= 2.06D-06
 ErrMax= 2.06D-06 EMaxC= 1.00D-01 BMatC= 2.64D-09 BMatP= 9.90D-09
 IDIUse=1 WtCom= 1.00D+00 WtEn= 0.00D+00
 Coeff-Com:  0.322D-04-0.109D-03 0.870D-03-0.687D-02-0.778D-02-0.191D-01
 Coeff-Com:  0.442D-01 0.487D+00 0.502D+00
 Coeff:      0.322D-04-0.109D-03 0.870D-03-0.687D-02-0.778D-02-0.191D-01
 Coeff:      0.442D-01 0.487D+00 0.502D+00
 Gap=     0.149 Goal=   None    Shift=    0.000
 RMSDP=1.18D-06 MaxDP=1.12D-04 DE=-8.98D-09 OVMax= 2.28D-05

 Cycle  10  Pass 1  IDiag  1:
 RMSU=  1.97D-07    CP:  1.00D+00  1.02D+00  4.04D-01  1.43D+00  1.30D+00
                    CP:  1.28D+00  1.21D+00  1.17D+00  9.10D-01
 E= -399.009256767660     Delta-E=       -0.000000002082 Rises=F Damp=F
 DIIS: error= 4.16D-07 at cycle  10 NSaved=  10.
 NSaved=10 IEnMin=10 EnMin= -399.009256767660     IErMin=10 ErrMin= 4.16D-07
 ErrMax= 4.16D-07 EMaxC= 1.00D-01 BMatC= 8.38D-11 BMatP= 2.64D-09
 IDIUse=1 WtCom= 1.00D+00 WtEn= 0.00D+00
 Coeff-Com: -0.533D-05 0.289D-03 0.318D-03-0.152D-02-0.388D-02-0.106D-01
 Coeff-Com:  0.749D-03 0.119D+00 0.206D+00 0.690D+00
 Coeff:     -0.533D-05 0.289D-03 0.318D-03-0.152D-02-0.388D-02-0.106D-01
 Coeff:      0.749D-03 0.119D+00 0.206D+00 0.690D+00
 Gap=     0.149 Goal=   None    Shift=    0.000
 RMSDP=3.74D-07 MaxDP=3.09D-05 DE=-2.08D-09 OVMax= 3.53D-06

 Cycle  11  Pass 1  IDiag  1:
 RMSU=  5.64D-08    CP:  1.00D+00  1.02D+00  4.04D-01  1.43D+00  1.30D+00
                    CP:  1.29D+00  1.22D+00  1.19D+00  9.49D-01  1.07D+00
 E= -399.009256767717     Delta-E=       -0.000000000057 Rises=F Damp=F
 DIIS: error= 2.33D-07 at cycle  11 NSaved=  11.
 NSaved=11 IEnMin=11 EnMin= -399.009256767717     IErMin=11 ErrMin= 2.33D-07
 ErrMax= 2.33D-07 EMaxC= 1.00D-01 BMatC= 1.46D-11 BMatP= 8.38D-11
 IDIUse=1 WtCom= 1.00D+00 WtEn= 0.00D+00
 Coeff-Com: -0.583D-05 0.177D-03 0.113D-03-0.363D-03-0.174D-02-0.494D-02
 Coeff-Com: -0.287D-02 0.305D-01 0.818D-01 0.381D+00 0.516D+00
 Coeff:     -0.583D-05 0.177D-03 0.113D-03-0.363D-03-0.174D-02-0.494D-02
 Coeff:     -0.287D-02 0.305D-01 0.818D-01 0.381D+00 0.516D+00
 Gap=     0.149 Goal=   None    Shift=    0.000
 RMSDP=1.21D-07 MaxDP=1.34D-05 DE=-5.65D-11 OVMax= 9.30D-07

 Cycle  12  Pass 1  IDiag  1:
 RMSU=  1.49D-08    CP:  1.00D+00  1.02D+00  4.04D-01  1.43D+00  1.30D+00
                    CP:  1.29D+00  1.22D+00  1.20D+00  9.75D-01  1.10D+00
                    CP:  8.57D-01
 E= -399.009256767731     Delta-E=       -0.000000000014 Rises=F Damp=F
 DIIS: error= 3.34D-08 at cycle  12 NSaved=  12.
 NSaved=12 IEnMin=12 EnMin= -399.009256767731     IErMin=12 ErrMin= 3.34D-08
 ErrMax= 3.34D-08 EMaxC= 1.00D-01 BMatC= 6.98D-13 BMatP= 1.46D-11
 IDIUse=1 WtCom= 1.00D+00 WtEn= 0.00D+00
 Coeff-Com: -0.135D-05 0.286D-04 0.238D-05 0.320D-04-0.163D-03-0.552D-03
 Coeff-Com: -0.723D-03-0.242D-02 0.796D-02 0.577D-01 0.200D+00 0.739D+00
 Coeff:     -0.135D-05 0.286D-04 0.238D-05 0.320D-04-0.163D-03-0.552D-03
 Coeff:     -0.723D-03-0.242D-02 0.796D-02 0.577D-01 0.200D+00 0.739D+00
 Gap=     0.149 Goal=   None    Shift=    0.000
 RMSDP=3.67D-08 MaxDP=2.95D-06 DE=-1.36D-11 OVMax= 3.36D-07

 Cycle  13  Pass 1  IDiag  1:
 RMSU=  4.09D-09    CP:  1.00D+00  1.02D+00  4.04D-01  1.43D+00  1.30D+00
                    CP:  1.29D+00  1.22D+00  1.20D+00  9.80D-01  1.13D+00
                    CP:  9.45D-01  8.92D-01
 E= -399.009256767736     Delta-E=       -0.000000000006 Rises=F Damp=F
 DIIS: error= 1.75D-08 at cycle  13 NSaved=  13.
 NSaved=13 IEnMin=13 EnMin= -399.009256767736     IErMin=13 ErrMin= 1.75D-08
 ErrMax= 1.75D-08 EMaxC= 1.00D-01 BMatC= 9.54D-14 BMatP= 6.98D-13
 IDIUse=1 WtCom= 1.00D+00 WtEn= 0.00D+00
 Coeff-Com: -0.304D-06 0.299D-05-0.592D-05 0.405D-04 0.433D-04 0.452D-04
 Coeff-Com: -0.153D-03-0.312D-02-0.109D-02 0.271D-02 0.646D-01 0.376D+00
 Coeff-Com:  0.561D+00
 Coeff:     -0.304D-06 0.299D-05-0.592D-05 0.405D-04 0.433D-04 0.452D-04
 Coeff:     -0.153D-03-0.312D-02-0.109D-02 0.271D-02 0.646D-01 0.376D+00
 Coeff:      0.561D+00
 Gap=     0.149 Goal=   None    Shift=    0.000
 RMSDP=1.11D-08 MaxDP=1.21D-06 DE=-5.91D-12 OVMax= 9.49D-08

 Cycle  14  Pass 1  IDiag  1:
 RMSU=  1.32D-09    CP:  1.00D+00  1.02D+00  4.04D-01  1.43D+00  1.30D+00
                    CP:  1.29D+00  1.22D+00  1.20D+00  9.83D-01  1.13D+00
                    CP:  9.59D-01  9.48D-01  8.85D-01
 E= -399.009256767734     Delta-E=        0.000000000003 Rises=F Damp=F
 DIIS: error= 3.20D-09 at cycle  14 NSaved=  14.
 NSaved=14 IEnMin=13 EnMin= -399.009256767736     IErMin=14 ErrMin= 3.20D-09
 ErrMax= 3.20D-09 EMaxC= 1.00D-01 BMatC= 4.24D-15 BMatP= 9.54D-14
 IDIUse=1 WtCom= 1.00D+00 WtEn= 0.00D+00
 Coeff-Com:  0.303D-07-0.178D-05-0.176D-05 0.756D-05 0.283D-04 0.601D-04
 Coeff-Com: -0.509D-05-0.724D-03-0.121D-02-0.581D-02-0.468D-02 0.268D-01
 Coeff-Com:  0.180D+00 0.805D+00
 Coeff:      0.303D-07-0.178D-05-0.176D-05 0.756D-05 0.283D-04 0.601D-04
 Coeff:     -0.509D-05-0.724D-03-0.121D-02-0.581D-02-0.468D-02 0.268D-01
 Coeff:      0.180D+00 0.805D+00
 Gap=     0.149 Goal=   None    Shift=    0.000
 RMSDP=4.25D-09 MaxDP=3.74D-07 DE= 2.84D-12 OVMax= 4.20D-08

 Error on total polarization charges =  0.01367
 SCF Done:  E(RB3LYP) =  -399.009256768     A.U. after   14 cycles
             Convg  =    0.4252D-08             -V/T =  2.0037
 KE= 3.975535917038D+02 PE=-1.581007880892D+03 EE= 4.623696636236D+02
 Leave Link  502 at Sun Apr 17 23:07:00 2016, MaxMem=   33554432 cpu:     189.0
 (Enter c:\G09w01\l701.exe)
 Compute integral first derivatives.
 ... and contract with generalized density number  0.
 D1PCM: C-PCM CHGder 1st derivatives, ID1Alg=3 FixD1E=F DoIter=F DoCFld=F I1PDM=0.
 GePol: Maximum number of non-zero 1st derivatives   =     185
 Leave Link  701 at Sun Apr 17 23:07:04 2016, MaxMem=   33554432 cpu:       4.0
 (Enter c:\G09w01\l702.exe)
 L702 exits ... SP integral derivatives will be done elsewhere.
 Leave Link  702 at Sun Apr 17 23:07:04 2016, MaxMem=   33554432 cpu:       0.0
 (Enter c:\G09w01\l703.exe)
 Compute integral first derivatives, UseDBF=F ICtDFT=           0.
 Integral derivatives from FoFDir, PRISM(SPDF).
 Calling FoFJK, ICntrl=      2127 FMM=F ISym2X=0 I1Cent= 0 IOpClX= 0 NMat=1 NMatS=1 NMatT=0.
 FoFCou: FMM=F IPFlag=           0 FMFlag=      100000 FMFlg1=         800
         NFxFlg=           0 DoJE=F BraDBF=F KetDBF=F FulRan=T
         Omega=  0.000000  0.000000  1.000000  0.000000  0.000000 ICntrl=    2127 IOpCl=  0
         NMat0=    1 NMatS0=    1 NMatT0=    0 NMatD0=    1 NMtDS0=    0 NMtDT0=    0
         I1Cent=           0 NGrid=           0.
 Symmetry not used in FoFCou.
 Leave Link  703 at Sun Apr 17 23:07:41 2016, MaxMem=   33554432 cpu:      37.0
 (Enter c:\G09w01\l716.exe)
 Dipole        =-7.77750673D-01-3.52987095D-01 9.50344026D-01
 -------------------------------------------------------------------
 Center     Atomic                   Forces (Hartrees/Bohr)
 Number     Number              X              Y              Z
 -------------------------------------------------------------------
      1        7           0.000124301   -0.002588128    0.007263064
      2        1           0.000193864    0.001978780    0.000476763
      3        6          -0.022432487   -0.005293533    0.024936146
      4        1          -0.012526200   -0.021605950    0.004758672
      5        6          -0.000910430    0.001381131   -0.015245806
      6        6           0.039512998    0.038176505   -0.008481513
      7        1           0.002325153   -0.000372001    0.000798768
      8        1          -0.001320980    0.000223273    0.000178430
      9        8          -0.000086672   -0.001148985   -0.000385978
     10        8          -0.011912784   -0.001825208   -0.001141909
     11        1          -0.000033274   -0.000388734   -0.000139732
     12        1          -0.000151779   -0.000703660    0.000264176
     13        8           0.008807089   -0.010107227   -0.012015775
     14        1          -0.001588799    0.002273739   -0.001265305
 -------------------------------------------------------------------
 Cartesian Forces:  Max     0.039512998 RMS     0.011628253
 Leave Link  716 at Sun Apr 17 23:07:41 2016, MaxMem=   33554432 cpu:       0.0
 (Enter c:\G09w01\l103.exe)

 GradGradGradGradGradGradGradGradGradGradGradGradGradGradGradGradGradGrad
 Berny optimization.
 Using GEDIIS/GDIIS optimizer.
 Internal  Forces:  Max     0.032957971 RMS     0.010200004
 Search for a local minimum.
 Step number   2 out of a maximum of   62
 All quantities printed in internal units (Hartrees-Bohrs-Radians)
 RMS Force = .10200D-01 SwitMx=.10000D-02 MixMth= 1
 Mixed Optimization -- RFO/linear search
 Update second derivatives using D2CorX and points    1    2
 DE= -2.89D-02 DEPred=-3.40D-02 R= 8.52D-01
 SS=  1.41D+00  RLast= 3.20D-01 DXNew= 5.0454D-01 9.6025D-01
 Trust test= 8.52D-01 RLast= 3.20D-01 DXMaxT set to 5.05D-01
 ITU=  1  0
 Use linear search instead of GDIIS.
 Linear search step of   0.600 exceeds DXMaxT=   0.505 but not scaled.
 Quartic linear search produced a step of  2.00000.
 Iteration  1 RMS(Cart)=  0.13384768 RMS(Int)=  0.05356280
 Iteration  2 RMS(Cart)=  0.06673513 RMS(Int)=  0.02463813
 Iteration  3 RMS(Cart)=  0.04444047 RMS(Int)=  0.00383412
 Iteration  4 RMS(Cart)=  0.00357072 RMS(Int)=  0.00061273
 Iteration  5 RMS(Cart)=  0.00001112 RMS(Int)=  0.00061270
 Iteration  6 RMS(Cart)=  0.00000000 RMS(Int)=  0.00061270
 Variable       Old X    -DE/DX   Delta X   Delta X   Delta X     New X
                                 (Linear)    (Quad)   (Total)
    R1        1.92864   0.00099   0.00317   0.00000   0.00317   1.93182
    R2        2.73617   0.00010   0.00504   0.00000   0.00504   2.74121
    R3        1.91369  -0.00021  -0.00041   0.00000  -0.00041   1.91328
    R4        2.88162  -0.00382  -0.00632   0.00000  -0.00632   2.87530
    R5        2.72951  -0.02533  -0.02082   0.00000  -0.02082   2.70869
    R6        1.89275  -0.01829   0.08163   0.00000   0.08163   1.97438
    R7        2.07072   0.00089   0.00211   0.00000   0.00211   2.07283
    R8        2.08365   0.00002   0.00091   0.00000   0.00091   2.08456
    R9        2.70875   0.00159   0.00416   0.00000   0.00416   2.71291
   R10        2.48044   0.00749   0.00691   0.00000   0.00691   2.48735
   R11        2.48837   0.02998   0.11503   0.00000   0.11503   2.60340
   R12        1.82018   0.00001   0.00001   0.00000   0.00001   1.82019
   R13        1.83703  -0.00006   0.00139   0.00000   0.00139   1.83842
    A1        1.99378   0.00302   0.01941   0.00000   0.01940   2.01318
    A2        1.88132  -0.00058  -0.00335   0.00000  -0.00336   1.87796
    A3        1.95303  -0.00145  -0.00567   0.00000  -0.00568   1.94735
    A4        1.91794   0.00213   0.00885   0.00000   0.00895   1.92689
    A5        2.06406  -0.00723  -0.02302   0.00000  -0.02322   2.04084
    A6        2.04045   0.00732   0.02238   0.00000   0.02248   2.06293
    A7        1.86369   0.00337   0.01265   0.00000   0.01266   1.87634
    A8        1.93289  -0.00167  -0.00720   0.00000  -0.00721   1.92568
    A9        1.95057  -0.00176  -0.00264   0.00000  -0.00266   1.94790
   A10        1.87803  -0.00044  -0.00116   0.00000  -0.00114   1.87689
   A11        1.93431  -0.00062  -0.00140   0.00000  -0.00141   1.93289
   A12        1.90297   0.00115  -0.00010   0.00000  -0.00014   1.90283
   A13        2.19235  -0.00921  -0.07630   0.00000  -0.07663   2.11573
   A14        2.01211   0.03139   0.18342   0.00000   0.18323   2.19533
   A15        2.07482  -0.02205  -0.10377   0.00000  -0.10412   1.97069
   A16        1.88648   0.00078   0.00324   0.00000   0.00324   1.88972
   A17        1.94535   0.00109   0.01292   0.00000   0.01292   1.95827
   A18        1.66132   0.03296   0.53562   0.00000   0.53562   2.19694
    D1       -1.12271  -0.00247  -0.00575   0.00000  -0.00565  -1.12836
    D2        1.28252   0.00364   0.01477   0.00000   0.01467   1.29719
    D3        3.01673  -0.00286  -0.01167   0.00000  -0.01158   3.00515
    D4       -0.86122   0.00325   0.00885   0.00000   0.00875  -0.85247
    D5       -0.87344  -0.00026   0.00142   0.00000   0.00159  -0.87185
    D6        1.16637   0.00028   0.00354   0.00000   0.00367   1.17004
    D7       -2.99135  -0.00064  -0.00352   0.00000  -0.00335  -2.99470
    D8        2.99346   0.00050   0.00260   0.00000   0.00246   2.99592
    D9       -1.24991   0.00105   0.00472   0.00000   0.00454  -1.24538
   D10        0.87554   0.00012  -0.00233   0.00000  -0.00248   0.87306
   D11       -0.47829   0.00990   0.08291   0.00000   0.08213  -0.39616
[...]
   D15       -2.83092   0.00000   0.00000   0.00014   0.00014  -2.83078
   D16        1.37077   0.00000   0.00000   0.00015   0.00015   1.37092
   D17       -0.68882   0.00001   0.00000   0.00021   0.00021  -0.68862
   D18        2.67225   0.00000   0.00000  -0.00007  -0.00007   2.67219
   D19       -0.45826   0.00000   0.00000  -0.00005  -0.00005  -0.45831
   D20       -0.23708   0.00000   0.00000   0.00007   0.00007  -0.23701
   D21        2.89281   0.00000   0.00000   0.00005   0.00005   2.89285
         Item               Value     Threshold  Converged?
 Maximum Force            0.000064     0.000450     YES
 RMS     Force            0.000013     0.000300     YES
 Maximum Displacement     0.000286     0.001800     YES
 RMS     Displacement     0.000090     0.001200     YES
 Predicted change in Energy=-1.614609D-08
 Optimization completed.
    -- Stationary point found.
                           ----------------------------
                           !   Optimized Parameters   !
                           ! (Angstroms and Degrees)  !
 --------------------------                            --------------------------
 ! Name  Definition              Value          Derivative Info.                !
 --------------------------------------------------------------------------------
 ! R1    R(1,2)                  1.0168         -DE/DX =    0.0                 !
 ! R2    R(1,3)                  1.4315         -DE/DX =    0.0                 !
 ! R3    R(1,12)                 1.0144         -DE/DX =    0.0                 !
 ! R4    R(3,5)                  1.5049         -DE/DX =    0.0                 !
 ! R5    R(3,6)                  1.3417         -DE/DX =    0.0                 !
 ! R6    R(4,13)                 0.9801         -DE/DX =    0.0                 !
 ! R7    R(5,7)                  1.0944         -DE/DX =    0.0                 !
 ! R8    R(5,8)                  1.0974         -DE/DX =    0.0                 !
 ! R9    R(5,9)                  1.4485         -DE/DX =    0.0                 !
 ! R10   R(6,10)                 1.3646         -DE/DX =    0.0                 !
 ! R11   R(6,13)                 1.3634         -DE/DX =   -0.0001              !
 ! R12   R(9,11)                 0.9642         -DE/DX =    0.0                 !
 ! R13   R(10,14)                0.9666         -DE/DX =    0.0                 !
 ! A1    A(2,1,3)              111.839          -DE/DX =    0.0                 !
 ! A2    A(2,1,12)             107.2279         -DE/DX =    0.0                 !
 ! A3    A(3,1,12)             110.775          -DE/DX =    0.0                 !
 ! A4    A(1,3,5)              115.4249         -DE/DX =    0.0                 !
 ! A5    A(1,3,6)              121.9822         -DE/DX =    0.0                 !
 ! A6    A(5,3,6)              122.5283         -DE/DX =    0.0                 !
 ! A7    A(3,5,7)              108.4868         -DE/DX =    0.0                 !
 ! A8    A(3,5,8)              111.7767         -DE/DX =    0.0                 !
 ! A9    A(3,5,9)              110.0349         -DE/DX =    0.0                 !
 ! A10   A(7,5,8)              108.0932         -DE/DX =    0.0                 !
 ! A11   A(7,5,9)              109.6702         -DE/DX =    0.0                 !
 ! A12   A(8,5,9)              108.7423         -DE/DX =    0.0                 !
 ! A13   A(3,6,10)             121.5442         -DE/DX =    0.0                 !
 ! A14   A(3,6,13)             126.2197         -DE/DX =    0.0                 !
 ! A15   A(10,6,13)            112.2326         -DE/DX =    0.0                 !
 ! A16   A(5,9,11)             108.8753         -DE/DX =    0.0                 !
 ! A17   A(6,10,14)            108.5931         -DE/DX =    0.0                 !
 ! A18   A(4,13,6)             106.6434         -DE/DX =    0.0                 !
 ! D1    D(2,1,3,5)            -58.8388         -DE/DX =    0.0                 !
 ! D2    D(2,1,3,6)            124.0163         -DE/DX =    0.0                 !
 ! D3    D(12,1,3,5)          -178.3962         -DE/DX =    0.0                 !
 ! D4    D(12,1,3,6)             4.459          -DE/DX =    0.0                 !
 ! D5    D(1,3,5,7)            -23.3286         -DE/DX =    0.0                 !
 ! D6    D(1,3,5,8)             95.7622         -DE/DX =    0.0                 !
 ! D7    D(1,3,5,9)           -143.309          -DE/DX =    0.0                 !
 ! D8    D(6,3,5,7)            153.799          -DE/DX =    0.0                 !
 ! D9    D(6,3,5,8)            -87.1102         -DE/DX =    0.0                 !
 ! D10   D(6,3,5,9)             33.8186         -DE/DX =    0.0                 !
 ! D11   D(1,3,6,10)            -7.3333         -DE/DX =    0.0                 !
 ! D12   D(1,3,6,13)           171.9383         -DE/DX =    0.0                 !
 ! D13   D(5,3,6,10)           175.7253         -DE/DX =    0.0                 !
 ! D14   D(5,3,6,13)            -5.0031         -DE/DX =    0.0                 !
 ! D15   D(3,5,9,11)          -162.2            -DE/DX =    0.0                 !
 ! D16   D(7,5,9,11)            78.5396         -DE/DX =    0.0                 !
 ! D17   D(8,5,9,11)           -39.4667         -DE/DX =    0.0                 !
 ! D18   D(3,6,10,14)          153.1088         -DE/DX =    0.0                 !
 ! D19   D(13,6,10,14)         -26.2564         -DE/DX =    0.0                 !
 ! D20   D(3,6,13,4)           -13.5837         -DE/DX =    0.0                 !
 ! D21   D(10,6,13,4)          165.7457         -DE/DX =    0.0                 !
 --------------------------------------------------------------------------------
 GradGradGradGradGradGradGradGradGradGradGradGradGradGradGradGradGradGrad

 Leave Link  103 at Mon Apr 18 00:32:22 2016, MaxMem=   33554432 cpu:       0.0
 (Enter c:\G09w01\l9999.exe)
 1|1|UNPC-WIN-20150318OUM|Freq|RB3LYP|6-311++G(d,p)|C3H7N1O3|ADMINISTRA
 TOR|18-Apr-2016|0||#P Geom=AllCheck Guess=TCheck SCRF=Check GenChk RB3
 LYP/6-311++G(d,p) Freq||Ser-S-opt-freq-cpcm-w-pa2-6-311++gdp||0,1|N,-0
 .0594029632,2.1439676582,0.2581319272|H,0.4062686772,2.5744731575,1.05
 29411005|C,0.1332922191,0.7257487022,0.2321566942|H,0.085119146,-1.669
 1554117,-0.2949661002|C,1.5659315444,0.2694295019,0.1676418114|C,-0.89
 87229068,-0.1313136561,0.2067728493|H,2.1687203873,1.077602961,-0.2581
 708943|H,1.963937228,0.0355858862,1.1631911904|O,1.6738862985,-0.91040
 79625,-0.66565398|O,-2.1861487998,0.2969628006,0.3527258693|H,2.512356
 218,-1.3484766805,-0.4790108856|H,-1.0453451378,2.3718815108,0.3280016
 267|O,-0.8211646949,-1.480517713,0.0268871968|H,-2.7714805758,-0.32747
 96346,-0.0964831255||Version=IA32W-G09RevB.01|HF=-399.0689607|RMSD=2.5
 70e-009|RMSF=2.292e-005|ZeroPoint=0.1113401|Thermal=0.1195985|Dipole=1
 .0220357,-0.2194388,0.5316057|DipoleDeriv=-0.469612,0.0178393,0.108899
 8,-0.2388927,-1.1398905,0.0929638,0.1637201,0.1982885,-0.3748095,0.311
 0666,0.1249069,-0.0899215,0.0581226,0.2085264,-0.0323786,-0.1627028,-0
 .2055709,0.1191949,-0.4665324,-0.2744411,-0.031687,-0.0457403,0.654452
 8,-0.0405802,-0.0299082,0.0822605,-0.2563225,0.681168,-0.0531989,-0.08
 0643,0.0212388,0.3872736,0.0213138,-0.1072272,0.0029298,0.406319,0.684
 5933,0.008682,-0.0453679,-0.1981061,0.7486927,0.2293099,-0.0961215,0.2
 503186,0.6807799,1.9759337,0.1335913,-0.1243711,0.3101301,1.6031182,0.
 1800142,-0.1163637,0.1769125,0.1180891,-0.0265073,-0.1081505,0.0299881
 ,-0.137925,-0.1357371,0.018637,0.0712867,0.0578722,0.0196987,-0.110115
 2,-0.0063246,-0.0722542,0.1624796,0.0065012,0.0306445,-0.1106599,-0.01
 18427,-0.1666861,-0.7340882,0.060196,0.1964342,0.1093702,-0.9725752,-0
 .2201152,0.2387162,-0.2523097,-0.7306623,-1.8397274,-0.162393,0.100545
 2,0.182324,-0.5022016,0.0690618,0.1693489,0.1292569,-0.3871779,0.24337
 87,0.0252585,-0.0651484,0.0172192,0.3580091,-0.0409233,-0.0802486,-0.0
 260945,0.3528895,0.116069,0.0350827,0.0167331,-0.0334448,0.2166579,-0.
 0601966,0.075313,-0.0940117,0.2984597,-0.79493,0.1613295,0.0365424,-0.
 2444685,-1.7876333,-0.171968,0.0629048,-0.1996738,-0.4436208,0.4293033
 ,0.037622,0.0202503,0.0376927,0.3548058,-0.075783,-0.0780578,-0.108335
 7,0.3638482|Polar=91.9942053,10.6665218,87.1184892,-0.4418951,2.645899
 ,58.277335|PG=C01 [X(C3H7N1O3)]|NImag=0||0.63997279,-0.04996882,0.4701
 6932,0.13560445,0.17261028,0.32900450,-0.12345097,-0.04897541,-0.12994
 498,0.13512421,-0.05220391,-0.09970907,-0.11598558,0.06494214,0.123454
 16,-0.16655559,-0.14514724,-0.26621568,0.15504040,0.13661789,0.2631494
 6,-0.10540635,0.00180580,-0.01247272,0.00576667,-0.01978918,0.00393779
 ,0.71867792,0.02992649,-0.24863259,-0.03133089,0.00025844,-0.02499049,
 0.00484342,0.13082348,0.67182518,-0.01520553,0.00610021,-0.04288165,0.
 00746080,-0.02763901,0.00287253,0.01121396,0.04508879,0.13985824,-0.00
 226188,-0.00378100,0.00015937,0.00081843,-0.00036399,-0.00061842,0.000
 36107,-0.00272023,0.00034436,0.36969005,0.00030719,0.00066008,0.000913
 50,-0.00002185,0.00043597,0.00001868,-0.00090008,-0.00051736,-0.000228
 12,-0.08749034,0.08926539,0.00051877,0.00084918,-0.00100164,-0.0000314
 1,-0.00005677,-0.00010266,-0.00074445,0.00035932,0.00149027,-0.1287270
 9,0.03832712,0.06387785,-0.00331334,0.00624974,-0.00092406,0.00058264,
 -0.00064585,0.00005045,-0.19982591,0.02701542,-0.00596446,0.00445421,-
 0.00410111,-0.00313694,0.52365928,0.03287882,-0.01546882,0.00065875,0.
 00098321,0.00020104,-0.00098266,0.02197668,-0.09312822,0.00503785,-0.0
 1031983,-0.00553819,-0.00085888,0.03605378,0.49954969,0.00064539,-0.00
 228610,0.00195070,0.00062924,0.00009728,0.00096900,0.00261177,-0.00146
 132,-0.06726827,-0.00605313,-0.00180432,0.00221441,0.02021013,-0.07815
 711,0.50895980,0.00983612,0.01286154,-0.00000982,-0.00367470,0.0044531
 2,0.00247238,-0.32555965,-0.20140565,-0.01404018,-0.00314520,0.0455870
 2,0.00637495,-0.03797175,-0.01020638,0.00336489,0.76245615,-0.02534369
 ,-0.02900378,-0.00334630,-0.00100547,-0.00197063,0.00232783,-0.1749535
 4,-0.25892705,-0.01165474,0.01846175,-0.01528934,-0.00556382,-0.004295
 21,0.02281172,0.00573910,0.15370442,0.67657701,-0.00054823,0.00620170,
 0.00150369,-0.00007795,-0.00288544,0.00062167,-0.01562389,-0.02128232,
 -0.05522898,0.00187429,-0.01516250,-0.00340493,0.00223829,0.00116001,-
 0.00323279,-0.01113083,0.07348143,0.14838930,0.00309838,-0.00103120,-0
 .00079049,-0.00045968,0.00025135,0.00061192,-0.02281436,-0.02375772,0.
 01352011,-0.00031613,0.00037757,0.00018425,-0.12964841,-0.09929436,0.0
 5780837,-0.00141628,0.00508809,0.00231444,0.13855714,0.00125388,0.0008
 6267,-0.00034217,0.00014460,0.00013934,0.00001024,0.00279482,0.0065983
 8,-0.00271300,0.00230819,0.00013010,-0.00075021,-0.09934113,-0.1750344
 1,0.07786318,0.00219883,-0.00039946,0.00017767,0.10850252,0.20248630,0
 .00049322,-0.00034690,0.00004939,0.00042034,-0.00002251,-0.00026140,-0
 .00268172,0.00053687,0.00225927,0.00124297,-0.00025421,-0.00062816,0.0
 6243931,0.08142371,-0.09851279,0.00069172,-0.00041561,-0.00001844,-0.0
 6366393,-0.07735394,0.10011194,-0.00082809,-0.00042619,-0.00045681,0.0
 0022237,0.00045095,0.00011926,-0.01963023,0.00646684,-0.02556308,-0.00
 078926,0.00003163,-0.00010669,-0.07840092,0.01797975,-0.07976723,0.004
 54333,0.00638262,-0.00127561,0.00774896,-0.00458157,0.01565719,0.08582
 510,0.00029638,0.00064165,-0.00018788,-0.00018658,-0.00033087,-0.00010
 058,0.00762686,0.00130053,0.00633447,0.00145579,0.00032073,-0.00036919
 ,0.01989992,-0.06474986,0.06457402,-0.00334623,-0.00392636,-0.00006168
 ,0.00794588,-0.00324724,0.02162180,-0.02462200,0.07263320,-0.00097756,
 0.00070728,-0.00029834,-0.00026285,-0.00004102,-0.00053118,-0.00098338
 ,0.00086914,0.00747035,0.00103930,0.00036351,-0.00033766,-0.07428884,0
 .05552802,-0.24607829,0.00096698,0.00010081,0.00152794,-0.00483035,0.0
 0565401,-0.01134284,0.08552999,-0.05164544,0.27365067,-0.00621587,0.00
 248625,0.00094906,-0.00010271,0.00010199,0.00013269,0.00070901,0.03227
 933,0.01970783,0.00441409,0.00388120,0.00063440,-0.08625768,0.01796742
 ,0.00218030,0.00357125,-0.00777246,-0.00082425,0.00696162,-0.01140485,
 -0.01304114,0.00360635,-0.00941265,-0.00393680,0.49741040,0.00576747,0
 .00042351,-0.00143683,-0.00106271,0.00000784,0.00034891,0.00867119,-0.
 01612164,-0.01017587,0.00713473,-0.00604750,0.00149636,-0.01600080,-0.
 13908754,-0.06832372,-0.00647785,-0.00951766,0.00124516,0.00338205,-0.
 03191614,-0.02562904,0.00111529,-0.00728507,-0.01139007,-0.20279385,0.
 32356879,-0.00013903,0.00126699,-0.00077709,-0.00030777,-0.00005786,-0
 .00022072,0.00642851,-0.00263785,0.00127508,0.00093200,-0.00049828,-0.
 00566469,-0.02679312,-0.04703006,-0.10669669,-0.00349713,-0.00186993,0
 .00207194,-0.00275842,-0.00307476,0.00773899,0.00310433,-0.04037151,-0
 .02364595,0.10361817,0.07304890,0.16705432,0.00061866,-0.00908020,0.00
 222654,0.00261610,-0.00009451,-0.00159666,-0.05967878,0.02212596,0.008
 67738,0.00248636,0.00214375,-0.00231040,0.00796480,-0.00957254,-0.0036
 9991,-0.26157931,0.06021834,0.02925362,-0.00241404,-0.00036050,-0.0000
 4250,-0.00417495,0.00239753,0.00000770,-0.00236529,0.00370238,0.002315
 85,0.53337559,-0.00094194,0.00355431,-0.00116893,-0.00133628,-0.000043
 38,0.00111411,-0.01978610,0.01067623,0.00081654,-0.00412684,-0.0073446
 2,0.00252990,-0.00216859,-0.00404449,0.00014371,0.01511446,-0.10794366
 ,-0.02640621,-0.00113374,0.00066077,0.00022277,0.00014270,-0.00008304,
 -0.00000255,0.00277043,0.00140608,-0.00039482,0.10395250,0.36629804,-0
 .00235148,0.00069318,-0.00466962,-0.00027634,-0.00075229,-0.00005770,0
 .00356740,0.00238673,0.01015176,0.00023226,-0.00141264,0.00352588,-0.0
 0224735,-0.00229071,0.00897178,0.00476523,-0.02664645,-0.05177803,-0.0
 0134264,0.00023673,0.00004049,0.00217475,-0.00045740,-0.00067952,-0.00
 004896,0.00036359,-0.00087065,0.10154253,0.19659520,0.14902428,0.00036
 420,0.00012614,0.00032159,-0.00013160,0.00018497,0.00008770,-0.0007385
 0,0.00036323,0.00095450,-0.00121303,0.00178228,-0.00120787,-0.00024695
 ,-0.00369524,-0.00289900,0.00102421,-0.00027875,0.00001571,0.00027388,
 -0.00116937,-0.00066634,0.00091207,-0.00155441,-0.00097042,-0.39726230
 ,0.20424564,-0.08700731,-0.00033762,0.00030506,-0.00016145,0.39790491,
 0.00109728,-0.00029618,-0.00030379,-0.00004311,-0.00006689,-0.00000891
 ,-0.00047100,-0.00307442,-0.00258039,0.00337917,0.00273231,-0.00209090
 ,0.02816024,-0.01582104,0.00704469,-0.00058496,-0.00235836,-0.00031061
 ,0.00046246,-0.00025938,0.00030703,-0.00014175,0.00214467,0.00005719,0
 .17187642,-0.12307700,0.01850588,0.00019735,0.00027783,0.00002102,-0.1
 9996103,0.13922168,0.00141581,-0.00018046,-0.00017219,-0.00005844,0.00
 005509,0.00004285,-0.00128906,-0.00442125,-0.00170576,0.00048865,-0.00
 030877,-0.00041806,0.02451354,-0.01389104,0.00116101,0.00013589,-0.000
 14754,0.00016267,-0.00049481,-0.00001159,0.00021112,0.00065303,0.00032
 474,0.00051501,-0.11713580,0.04051397,-0.04263651,-0.00007920,0.000095
 25,0.00008225,0.09091578,-0.02240344,0.04286522,-0.41054676,0.08834796
 ,0.00661318,-0.01666842,0.00376280,0.00536990,-0.00382853,-0.00046483,
 0.00300302,-0.00019527,0.00008549,0.00008998,0.00061533,0.00016647,-0.
 00002632,0.00186582,-0.00109326,-0.00012050,0.00040977,0.00017732,-0.0
 0010337,-0.00015962,0.00014799,-0.00005353,-0.00008069,0.00009944,-0.0
 0028376,-0.00107983,-0.00106895,0.00029668,0.00012297,0.00004012,0.000
 01604,0.42988996,0.06398241,-0.06611161,-0.02131894,-0.01690418,0.0039
 8252,0.00287920,0.03994910,-0.01185784,-0.00219208,0.00027004,0.000101
 88,-0.00016274,-0.00176473,-0.00503549,-0.00033832,0.00404597,-0.00122
 611,-0.00048468,-0.00010696,0.00004185,-0.00033232,0.00022865,0.000160
 03,0.00015307,0.00159777,-0.00087520,0.00008094,-0.00102380,0.00134378
 ,0.00084093,-0.00005347,-0.00022027,-0.00036413,-0.08945393,0.07839604
 ,0.04566160,-0.03303387,-0.02761111,-0.03249388,0.00820891,-0.00013446
 ,0.00095087,0.00724423,-0.00301270,0.00008200,0.00006718,0.00011133,0.
 00079043,-0.00081239,0.00128828,0.00011908,-0.00093225,0.00188431,-0.0
 0056818,-0.00020589,0.00008365,0.00038158,-0.00050856,-0.00002146,0.00
 033946,-0.00098839,-0.00013909,-0.00064542,0.00016719,-0.00076095,0.00
 004087,-0.00018214,-0.00004363,-0.01440811,0.02123314,0.02921830,-0.00
 244857,0.00002655,-0.00049719,-0.00054248,-0.00096249,0.00086387,0.013
 91141,-0.02548340,-0.00374365,-0.37375118,0.03886167,0.12738961,-0.000
 67754,0.00653412,0.00367560,-0.10748072,0.00096876,0.01304847,0.000485
 41,-0.00078869,-0.00077504,0.00069337,-0.00048510,-0.00119494,-0.02523
 069,-0.00818099,0.00467264,-0.02014315,0.06257645,0.00977321,-0.000708
 46,-0.00405813,0.00086871,-0.00028559,-0.00014751,-0.00029624,0.509552
 83,-0.00643954,-0.01811365,0.00119954,0.00372412,-0.00121905,-0.002201
 49,-0.00161528,-0.03056055,-0.00477219,0.07506847,-0.05823446,-0.03311
 282,0.01152443,-0.00543980,-0.00270853,-0.02716901,-0.27880789,-0.0248
 6527,-0.00095955,-0.00019267,0.00032090,-0.00331540,0.00262561,-0.0003
 1918,-0.00135495,0.00890459,0.00306204,0.02227229,-0.03098617,-0.00582
 202,-0.00027615,0.00093928,0.00072125,-0.00092792,0.00044864,-0.000228
 87,-0.06871354,0.40929656,0.00040596,-0.00687927,0.01164858,-0.0002073
 5,0.00255736,0.00016862,0.00383618,-0.00086025,0.00405141,0.12909962,-
 0.01972902,-0.05943696,0.00223814,0.00013888,-0.00506571,0.00625712,-0
 .03621137,-0.04385992,0.00015101,0.00057254,0.00027091,-0.00051515,0.0
 0073636,-0.00016757,0.00754582,0.00056614,0.00244289,0.00668746,-0.013
 90783,0.00155693,0.00060488,0.00185142,-0.00009865,-0.00029988,0.00050
 004,-0.00078620,-0.15520374,0.06999291,0.09017647,0.00058168,0.0013588
 4,-0.00077812,-0.00009986,-0.00008740,0.00008431,-0.00194378,0.0045726
 5,-0.00036507,-0.00055227,-0.00054442,0.00107291,-0.00093375,-0.001451
 89,0.00131990,-0.04246927,-0.03008160,-0.01914357,-0.00046625,0.000265
 96,0.00002928,0.00043152,-0.00016336,-0.00004530,0.00084251,0.00039800
 ,-0.00028495,-0.19528854,-0.15429916,-0.11592384,0.00003621,0.00004693
 ,0.00004986,-0.00005913,-0.00061935,0.00004592,0.00662536,-0.00181798,
 -0.00060008,0.23329558,-0.00061202,0.00102415,0.00003923,-0.00051691,0
 .00010950,0.00028059,0.00386724,-0.00259017,-0.00142245,0.00072410,-0.
 00067498,-0.00059655,-0.00058610,0.00078541,-0.00038258,0.01122471,0.0
 0998157,0.00919275,0.00027362,0.00012989,-0.00007856,0.00028847,-0.000
 20399,-0.00003477,-0.00022206,-0.00038305,-0.00002967,-0.19687855,-0.2
 3377168,-0.16375587,-0.00001891,-0.00014226,0.00001793,0.00018130,0.00
 085177,-0.00002827,-0.00014768,0.00133957,0.00067210,0.18242278,0.2235
 4428,0.00103220,-0.00055497,-0.00052954,0.00011020,-0.00009605,-0.0003
 0032,0.00124874,0.00066538,0.00066846,-0.00009617,-0.00029213,-0.00022
 499,0.00087446,0.00007562,0.00133955,0.00352971,0.00513884,0.00136157,
 -0.00014129,-0.00006280,-0.00000212,0.00006445,0.00011083,-0.00006115,
 -0.00012078,0.00036091,0.00006819,-0.14233699,-0.15980433,-0.11453690,
 -0.00002864,0.00009294,0.00003467,-0.00009332,-0.00049411,-0.00007626,
 0.00141869,-0.00126626,-0.00090079,0.13453875,0.15612614,0.11315963||-
 0.00000110,-0.00000480,-0.00001115,-0.00000744,0.00000913,-0.00001189,
 0.00002017,-0.00001458,-0.00000646,0.00001315,-0.00000645,0.00000876,0
 .00000972,0.00006154,0.00003898,-0.00004657,0.00007602,0.00000949,-0.0
 0000011,-0.00000554,-0.00000216,-0.00000986,0.00000407,0.00000003,-0.0
 0000484,-0.00003726,-0.00001008,0.00002495,-0.00001706,-0.00001402,0.0
 0000376,0.00000104,0.00001758,-0.00000381,0.00000046,-0.00001564,0.000
 00317,-0.00006168,0.00000260,-0.00000118,-0.00000489,-0.00000604|||@


 O WAD SOME POWER THE GIFTIE GIE US       
 TO SEE OURSELS AS OTHERS SEE US.....     
 IT WOULD FRAE MONIE A BLUNDER FREE US,   
                     AND FOOLISH NOTION...
 WHAT AIRS IN DRESS AND GAIT WAD LEA'E US,
                     AND EV'N DEVOTION....
                                          
              (ROBERT BURNS 'TO A LOUSE') 
 Job cpu time:  0 days  0 hours 16 minutes 56.0 seconds.
 File lengths (MBytes):  RWF=     77 Int=      0 D2E=      0 Chk=      7 Scr=      1
 Normal termination of Gaussian 09 at Mon Apr 18 00:32:22 2016.
