 Entering Link 1 = c:\G03W01\l1.exe PID=      1364.
  
 Copyright (c) 1988,1990,1992,1993,1995,1998,2003,2004,2007, Gaussian, Inc.
                  All Rights Reserved.
  
 This is the Gaussian(R) 03 program.  It is based on the
 the Gaussian(R) 98 system (copyright 1998, Gaussian, Inc.),
 the Gaussian(R) 94 system (copyright 1995, Gaussian, Inc.),
 the Gaussian 92(TM) system (copyright 1992, Gaussian, Inc.),
 the Gaussian 90(TM) system (copyright 1990, Gaussian, Inc.),
 the Gaussian 88(TM) system (copyright 1988, Gaussian, Inc.),
 the Gaussian 86(TM) system (copyright 1986, Carnegie Mellon
 University), and the Gaussian 82(TM) system (copyright 1983,
 Carnegie Mellon University). Gaussian is a federally registered
 trademark of Gaussian, Inc.
  
 This software contains proprietary and confidential information,
 including trade secrets, belonging to Gaussian, Inc.
  
 This software is provided under written license and may be
 used, copied, transmitted, or stored only in accord with that
 written license.
  
 The following legend is applicable only to US Government
 contracts under FAR:
  
                    RESTRICTED RIGHTS LEGEND
  
 Use, reproduction and disclosure by the US Government is
 subject to restrictions as set forth in subparagraphs (a)
 and (c) of the Commercial Computer Software - Restricted
 Rights clause in FAR 52.227-19.
  
 Gaussian, Inc.
 340 Quinnipiac St., Bldg. 40, Wallingford CT 06492
  
  
 ---------------------------------------------------------------
 Warning -- This program may not be used in any manner that
 competes with the business of Gaussian, Inc. or will provide
 assistance to any competitor of Gaussian, Inc.  The licensee
 of this program is prohibited from giving any competitor of
 Gaussian, Inc. access to this program.  By using this program,
 the user acknowledges that Gaussian, Inc. is engaged in the
 business of creating and licensing software in the field of
 computational chemistry and represents and warrants to the
 licensee that it is not a competitor of Gaussian, Inc. and that
 it will not use this program in any manner prohibited above.
 ---------------------------------------------------------------
  

 Cite this work as:
 Gaussian 03, Revision E.01,
 M. J. Frisch, G. W. Trucks, H. B. Schlegel, G. E. Scuseria, 
 M. A. Robb, J. R. Cheeseman, J. A. Montgomery, Jr., T. Vreven, 
 K. N. Kudin, J. C. Burant, J. M. Millam, S. S. Iyengar, J. Tomasi, 
 V. Barone, B. Mennucci, M. Cossi, G. Scalmani, N. Rega, 
 G. A. Petersson, H. Nakatsuji, M. Hada, M. Ehara, K. Toyota, 
 R. Fukuda, J. Hasegawa, M. Ishida, T. Nakajima, Y. Honda, O. Kitao, 
 H. Nakai, M. Klene, X. Li, J. E. Knox, H. P. Hratchian, J. B. Cross, 
 V. Bakken, C. Adamo, J. Jaramillo, R. Gomperts, R. E. Stratmann, 
 O. Yazyev, A. J. Austin, R. Cammi, C. Pomelli, J. W. Ochterski, 
 P. Y. Ayala, K. Morokuma, G. A. Voth, P. Salvador, J. J. Dannenberg, 
 V. G. Zakrzewski, S. Dapprich, A. D. Daniels, M. C. Strain, 
 O. Farkas, D. K. Malick, A. D. Rabuck, K. Raghavachari, 
 J. B. Foresman, J. V. Ortiz, Q. Cui, A. G. Baboul, S. Clifford, 
 J. Cioslowski, B. B. Stefanov, G. Liu, A. Liashenko, P. Piskorz, 
 I. Komaromi, R. L. Martin, D. J. Fox, T. Keith, M. A. Al-Laham, 
 C. Y. Peng, A. Nanayakkara, M. Challacombe, P. M. W. Gill, 
 B. Johnson, W. Chen, M. W. Wong, C. Gonzalez, and J. A. Pople, 
 Gaussian, Inc., Wallingford CT, 2004.
 
 ******************************************
 Gaussian 03:  IA32W-G03RevE.01 11-Sep-2007
                01-Apr-2016 
 ******************************************
 %chk=E:\YangJ\Amiano\Ala\ts1\r\Ala-R-opt-freq-ts1-6-31g.chk
 -----------------------------------------------
 # opt=(calcfc,ts) freq rb3lyp/6-31g iop(1/11=1)
 -----------------------------------------------
 1/5=1,10=4,11=1,14=-1,18=20,26=3,38=1/1,3;
 2/9=110,17=6,18=5,40=1/2;
 3/5=1,6=6,11=2,16=1,25=1,30=1,74=-5/1,2,3;
 4/7=1/1;
 5/5=2,38=5/2;
 8/6=4,10=90,11=11/1;
 11/6=1,8=1,9=11,15=111,16=1/1,2,10;
 10/6=1,7=6/2;
 6/7=2,8=2,9=2,10=2,28=1/1;
 7/10=1,18=20,25=1/1,2,3,16;
 1/5=1,10=4,11=1,14=-1,18=20/3(3);
 2/9=110/2;
 6/7=2,8=2,9=2,10=2,19=2,28=1/1;
 99//99;
 2/9=110/2;
 3/5=1,6=6,11=2,16=1,25=1,30=1,74=-5/1,2,3;
 4/5=5,7=1,16=3/1;
 5/5=2,38=5/2;
 7//1,2,3,16;
 1/5=1,11=1,14=-1,18=20/3(-5);
 2/9=110/2;
 6/7=2,8=2,9=2,10=2,19=2,28=1/1;
 99/9=1/99;
 ------------------------
 Ala-R-opt-freq-ts1-6-31g
 ------------------------
 Symbolic Z-matrix:
 Charge =  0 Multiplicity = 1
 C                     0.66545   0.13696  -0.39831 
 H                     0.64283   0.49218  -1.43313 
 C                    -0.78114  -0.17245  -0.00205 
 O                    -1.14527  -1.13175   0.63091 
 O                    -1.63921   0.78382  -0.43679 
 H                    -2.32472  -0.19712   0.44138 
 N                     1.5479   -1.01754  -0.32927 
 H                     1.24068  -1.7472   -0.96438 
 H                     1.52553  -1.42019   0.60338 
 C                     1.2032    1.27029   0.49052 
 H                     2.21803   1.5179    0.17646 
 H                     0.57731   2.16125   0.41941 
 H                     1.23645   0.9528    1.53716 
 

 GradGradGradGradGradGradGradGradGradGradGradGradGradGradGradGradGradGrad
 Berny optimization.
 Initialization pass.
                           ----------------------------
                           !    Initial Parameters    !
                           ! (Angstroms and Degrees)  !
 --------------------------                            --------------------------
 ! Name  Definition              Value          Derivative Info.                !
 --------------------------------------------------------------------------------
 ! R1    R(1,2)                  1.0943         calculate D2E/DX2 analytically  !
 ! R2    R(1,3)                  1.5315         calculate D2E/DX2 analytically  !
 ! R3    R(1,7)                  1.4548         calculate D2E/DX2 analytically  !
 ! R4    R(1,10)                 1.5374         calculate D2E/DX2 analytically  !
 ! R5    R(3,4)                  1.2056         calculate D2E/DX2 analytically  !
 ! R6    R(3,5)                  1.3564         calculate D2E/DX2 analytically  !
 ! R7    R(3,6)                  1.6062         calculate D2E/DX2 analytically  !
 ! R8    R(4,6)                  1.5168         calculate D2E/DX2 analytically  !
 ! R9    R(5,6)                  1.4844         calculate D2E/DX2 analytically  !
 ! R10   R(7,8)                  1.015          calculate D2E/DX2 analytically  !
 ! R11   R(7,9)                  1.0161         calculate D2E/DX2 analytically  !
 ! R12   R(10,11)                1.0908         calculate D2E/DX2 analytically  !
 ! R13   R(10,12)                1.0912         calculate D2E/DX2 analytically  !
 ! R14   R(10,13)                1.0942         calculate D2E/DX2 analytically  !
 ! A1    A(2,1,3)              106.9022         calculate D2E/DX2 analytically  !
 ! A2    A(2,1,7)              108.3622         calculate D2E/DX2 analytically  !
 ! A3    A(2,1,10)             108.3393         calculate D2E/DX2 analytically  !
 ! A4    A(3,1,7)              113.6004         calculate D2E/DX2 analytically  !
 ! A5    A(3,1,10)             109.2527         calculate D2E/DX2 analytically  !
 ! A6    A(7,1,10)             110.2061         calculate D2E/DX2 analytically  !
 ! A7    A(1,3,4)              125.5845         calculate D2E/DX2 analytically  !
 ! A8    A(1,3,5)              111.8504         calculate D2E/DX2 analytically  !
 ! A9    A(1,3,6)              169.2007         calculate D2E/DX2 analytically  !
 ! A10   A(4,3,5)              122.5605         calculate D2E/DX2 analytically  !
 ! A11   A(4,6,5)               97.0085         calculate D2E/DX2 analytically  !
 ! A12   A(1,7,8)              110.9287         calculate D2E/DX2 analytically  !
 ! A13   A(1,7,9)              110.1631         calculate D2E/DX2 analytically  !
 ! A14   A(8,7,9)              106.4272         calculate D2E/DX2 analytically  !
 ! A15   A(1,10,11)            109.0446         calculate D2E/DX2 analytically  !
 ! A16   A(1,10,12)            111.3223         calculate D2E/DX2 analytically  !
 ! A17   A(1,10,13)            110.4711         calculate D2E/DX2 analytically  !
 ! A18   A(11,10,12)           109.2407         calculate D2E/DX2 analytically  !
 ! A19   A(11,10,13)           108.2393         calculate D2E/DX2 analytically  !
 ! A20   A(12,10,13)           108.4619         calculate D2E/DX2 analytically  !
 ! D1    D(2,1,3,4)            138.1174         calculate D2E/DX2 analytically  !
 ! D2    D(2,1,3,5)            -42.6453         calculate D2E/DX2 analytically  !
 ! D3    D(2,1,3,6)            -77.3033         calculate D2E/DX2 analytically  !
 ! D4    D(7,1,3,4)             18.6416         calculate D2E/DX2 analytically  !
 ! D5    D(7,1,3,5)           -162.1211         calculate D2E/DX2 analytically  !
 ! D6    D(7,1,3,6)            163.2209         calculate D2E/DX2 analytically  !
 ! D7    D(10,1,3,4)          -104.8523         calculate D2E/DX2 analytically  !
 ! D8    D(10,1,3,5)            74.385          calculate D2E/DX2 analytically  !
 ! D9    D(10,1,3,6)            39.727          calculate D2E/DX2 analytically  !
 ! D10   D(2,1,7,8)            -57.4355         calculate D2E/DX2 analytically  !
 ! D11   D(2,1,7,9)           -175.0144         calculate D2E/DX2 analytically  !
 ! D12   D(3,1,7,8)             61.2051         calculate D2E/DX2 analytically  !
 ! D13   D(3,1,7,9)            -56.3738         calculate D2E/DX2 analytically  !
 ! D14   D(10,1,7,8)          -175.8228         calculate D2E/DX2 analytically  !
 ! D15   D(10,1,7,9)            66.5983         calculate D2E/DX2 analytically  !
 ! D16   D(2,1,10,11)          -61.4086         calculate D2E/DX2 analytically  !
 ! D17   D(2,1,10,12)           59.1871         calculate D2E/DX2 analytically  !
 ! D18   D(2,1,10,13)          179.756          calculate D2E/DX2 analytically  !
 ! D19   D(3,1,10,11)         -177.5263         calculate D2E/DX2 analytically  !
 ! D20   D(3,1,10,12)          -56.9306         calculate D2E/DX2 analytically  !
 ! D21   D(3,1,10,13)           63.6383         calculate D2E/DX2 analytically  !
 ! D22   D(7,1,10,11)           56.9927         calculate D2E/DX2 analytically  !
 ! D23   D(7,1,10,12)          177.5884         calculate D2E/DX2 analytically  !
 ! D24   D(7,1,10,13)          -61.8427         calculate D2E/DX2 analytically  !
 --------------------------------------------------------------------------------
 Trust Radius=3.00D-01 FncErr=1.00D-07 GrdErr=1.00D-06
 Number of steps in this run=  68 maximum allowed number of steps= 100.
 Search for a saddle point of order  1.
 GradGradGradGradGradGradGradGradGradGradGradGradGradGradGradGradGradGrad

                          Input orientation:                          
 ---------------------------------------------------------------------
 Center     Atomic     Atomic              Coordinates (Angstroms)
 Number     Number      Type              X           Y           Z
 ---------------------------------------------------------------------
    1          6             0        0.665450    0.136964   -0.398314
    2          1             0        0.642833    0.492184   -1.433125
    3          6             0       -0.781139   -0.172453   -0.002051
    4          8             0       -1.145273   -1.131754    0.630905
    5          8             0       -1.639205    0.783818   -0.436789
    6          1             0       -2.324724   -0.197119    0.441384
    7          7             0        1.547904   -1.017535   -0.329267
    8          1             0        1.240675   -1.747203   -0.964378
    9          1             0        1.525534   -1.420193    0.603377
   10          6             0        1.203198    1.270285    0.490520
   11          1             0        2.218028    1.517903    0.176463
   12          1             0        0.577309    2.161249    0.419414
   13          1             0        1.236449    0.952799    1.537158
 ---------------------------------------------------------------------
                    Distance matrix (angstroms):
                    1          2          3          4          5
     1  C    0.000000
     2  H    1.094316   0.000000
     3  C    1.531464   2.125420   0.000000
     4  O    2.438781   3.177219   1.205606   0.000000
     5  O    2.394021   2.507077   1.356366   2.247967   0.000000
     6  H    3.123755   3.577055   1.606206   1.516762   1.484372
     7  N    1.454772   2.077717   2.499135   2.861499   3.662526
     8  H    2.049731   2.364740   2.737452   2.935380   3.870158
     9  H    2.041536   2.929793   2.691494   2.686478   3.994394
    10  C    1.537405   2.149386   2.502341   3.362263   3.029159
    11  H    2.155890   2.474694   3.447343   4.305693   3.974067
    12  H    2.184989   2.494388   2.732980   3.722350   2.746513
    13  H    2.176621   3.063842   2.775971   3.292302   3.492049
                    6          7          8          9         10
     6  H    0.000000
     7  N    4.032894   0.000000
     8  H    4.134126   1.014973   0.000000
     9  H    4.043098   1.016100   1.626633   0.000000
    10  C    3.821246   2.454586   3.350129   2.712067   0.000000
    11  H    4.862929   2.670819   3.594114   3.048641   1.090792
    12  H    3.739543   3.406941   4.198920   3.709407   1.091151
    13  H    3.899357   2.731806   3.680722   2.566439   1.094237
                   11         12         13
    11  H    0.000000
    12  H    1.779010   0.000000
    13  H    1.770404   1.773180   0.000000
 Stoichiometry    C3H7NO2
 Framework group  C1[X(C3H7NO2)]
 Deg. of freedom    33
 Full point group                 C1
 Largest Abelian subgroup         C1      NOp   1
 Largest concise Abelian subgroup C1      NOp   1
                         Standard orientation:                         
 ---------------------------------------------------------------------
 Center     Atomic     Atomic              Coordinates (Angstroms)
 Number     Number      Type              X           Y           Z
 ---------------------------------------------------------------------
    1          6             0        0.676558    0.116628   -0.396729
    2          1             0        0.693665    0.470517   -1.432101
    3          6             0       -0.792037   -0.115690   -0.029795
    4          8             0       -1.218822   -1.053323    0.596451
    5          8             0       -1.589704    0.883429   -0.482806
    6          1             0       -2.343486   -0.058468    0.382067
    7          7             0        1.495604   -1.082442   -0.308659
    8          1             0        1.163473   -1.796229   -0.949258
    9          1             0        1.433168   -1.481543    0.623692
   10          6             0        1.254873    1.221915    0.501886
   11          1             0        2.287478    1.415333    0.208385
   12          1             0        0.678193    2.144348    0.417228
   13          1             0        1.250123    0.905173    1.549267
 ---------------------------------------------------------------------
 Rotational constants (GHZ):      5.0656700      3.0507291      2.2760262
 Standard basis: 6-31G (6D, 7F)
 There are    68 symmetry adapted basis functions of A   symmetry.
 Integral buffers will be    262144 words long.
 Raffenetti 2 integral format.
 Two-electron integral symmetry is turned on.
    68 basis functions,   160 primitive gaussians,    68 cartesian basis functions
    24 alpha electrons       24 beta electrons
       nuclear repulsion energy       248.3782188640 Hartrees.
 NAtoms=   13 NActive=   13 NUniq=   13 SFac= 7.50D-01 NAtFMM=   80 NAOKFM=F Big=F
 One-electron integrals computed using PRISM.
 NBasis=    68 RedAO= T  NBF=    68
 NBsUse=    68 1.00D-06 NBFU=    68
 Harris functional with IExCor=  402 diagonalized for initial guess.
 ExpMin= 1.61D-01 ExpMax= 5.48D+03 ExpMxC= 8.25D+02 IAcc=1 IRadAn=         1 AccDes= 1.00D-06
 HarFok:  IExCor= 402 AccDes= 1.00D-06 IRadAn=         1 IDoV=1
 ScaDFX=  1.000000  1.000000  1.000000  1.000000
 Initial guess orbital symmetries:
       Occupied  (A) (A) (A) (A) (A) (A) (A) (A) (A) (A) (A) (A)
                 (A) (A) (A) (A) (A) (A) (A) (A) (A) (A) (A) (A)
       Virtual   (A) (A) (A) (A) (A) (A) (A) (A) (A) (A) (A) (A)
                 (A) (A) (A) (A) (A) (A) (A) (A) (A) (A) (A) (A)
                 (A) (A) (A) (A) (A) (A) (A) (A) (A) (A) (A) (A)
                 (A) (A) (A) (A) (A) (A) (A) (A)
 The electronic state of the initial guess is 1-A.
 Requested convergence on RMS density matrix=1.00D-08 within 128 cycles.
 Requested convergence on MAX density matrix=1.00D-06.
 Requested convergence on             energy=1.00D-06.
 No special actions if energy rises.
 Keep R1 integrals in memory in canonical form, NReq=     4577263.
 Integral accuracy reduced to 1.0D-05 until final iterations.
 Initial convergence to 1.0D-05 achieved.  Increase integral accuracy.
 SCF Done:  E(RB+HF-LYP) =  -323.543329170     A.U. after   16 cycles
             Convg  =    0.6147D-08             -V/T =  2.0053
             S**2   =   0.0000
 Range of M.O.s used for correlation:     1    68
 NBasis=    68 NAE=    24 NBE=    24 NFC=     0 NFV=     0
 NROrb=     68 NOA=    24 NOB=    24 NVA=    44 NVB=    44
 Symmetrizing basis deriv contribution to polar:
 IMax=3 JMax=2 DiffMx= 0.00D+00
 G2DrvN: will do   14 centers at a time, making    1 passes doing MaxLOS=1.
 FoFDir/FoFCou used for L=0 through L=1.
 DoAtom=TTTTTTTTTTTTT
          Differentiating once with respect to electric field.
                with respect to dipole field.
          Differentiating once with respect to nuclear coordinates.
          Store integrals in memory, NReq=     3553621.
          There are  42 degrees of freedom in the 1st order CPHF.
    39 vectors were produced by pass  0.
 AX will form  39 AO Fock derivatives at one time.
    39 vectors were produced by pass  1.
    39 vectors were produced by pass  2.
    35 vectors were produced by pass  3.
    10 vectors were produced by pass  4.
     2 vectors were produced by pass  5.
 Inv2:  IOpt= 1 Iter= 1 AM= 1.97D-15 Conv= 1.00D-12.
 Inverted reduced A of dimension  164 with in-core refinement.
 Isotropic polarizability for W=    0.000000       44.49 Bohr**3.
 End of Minotr Frequency-dependent properties file   721 does not exist.

 **********************************************************************

            Population analysis using the SCF density.

 **********************************************************************

 Orbital symmetries:
       Occupied  (A) (A) (A) (A) (A) (A) (A) (A) (A) (A) (A) (A)
                 (A) (A) (A) (A) (A) (A) (A) (A) (A) (A) (A) (A)
       Virtual   (A) (A) (A) (A) (A) (A) (A) (A) (A) (A) (A) (A)
                 (A) (A) (A) (A) (A) (A) (A) (A) (A) (A) (A) (A)
                 (A) (A) (A) (A) (A) (A) (A) (A) (A) (A) (A) (A)
                 (A) (A) (A) (A) (A) (A) (A) (A)
 The electronic state is 1-A.
 Alpha  occ. eigenvalues --  -19.20854 -19.19144 -14.32135 -10.34272 -10.24316
 Alpha  occ. eigenvalues --  -10.18580  -1.16672  -1.02242  -0.91385  -0.76276
 Alpha  occ. eigenvalues --   -0.66449  -0.56257  -0.52826  -0.51593  -0.49178
 Alpha  occ. eigenvalues --   -0.47243  -0.44279  -0.41435  -0.38723  -0.37294
 Alpha  occ. eigenvalues --   -0.36762  -0.32298  -0.31980  -0.24318
 Alpha virt. eigenvalues --   -0.04487  -0.02109   0.07527   0.12137   0.12920
 Alpha virt. eigenvalues --    0.16058   0.17313   0.17582   0.19090   0.22581
 Alpha virt. eigenvalues --    0.23652   0.29697   0.37426   0.51025   0.54707
 Alpha virt. eigenvalues --    0.55589   0.57565   0.58878   0.62508   0.64376
 Alpha virt. eigenvalues --    0.71136   0.74011   0.74714   0.75474   0.82442
 Alpha virt. eigenvalues --    0.84243   0.89192   0.91027   0.91414   0.93862
 Alpha virt. eigenvalues --    0.94562   0.96030   0.97914   1.00638   1.03034
 Alpha virt. eigenvalues --    1.05736   1.07007   1.12669   1.16674   1.37215
 Alpha virt. eigenvalues --    1.45296   1.66515   1.80630   1.90133
          Condensed to atoms (all electrons):
              1          2          3          4          5          6
     1  C    5.329964   0.384531   0.113981  -0.094771  -0.083815   0.023685
     2  H    0.384531   0.554126  -0.052101   0.002039   0.002938  -0.000663
     3  C    0.113981  -0.052101   5.074254   0.341085   0.201295   0.004371
     4  O   -0.094771   0.002039   0.341085   8.270946  -0.148520   0.045163
     5  O   -0.083815   0.002938   0.201295  -0.148520   8.422856   0.091673
     6  H    0.023685  -0.000663   0.004371   0.045163   0.091673   0.506446
     7  N    0.285089  -0.045100  -0.070917  -0.004547   0.003898  -0.001280
     8  H   -0.050198  -0.005740   0.002270   0.001133   0.000089  -0.000039
     9  H   -0.048258   0.006538  -0.003083   0.005492   0.000097  -0.000020
    10  C    0.315848  -0.027948  -0.066534  -0.001268   0.002114  -0.001146
    11  H   -0.030063  -0.006380   0.006220  -0.000064  -0.000040   0.000037
    12  H   -0.034709  -0.002918   0.003224   0.000062   0.004067  -0.000052
    13  H   -0.039374   0.005093  -0.007114   0.001206  -0.000096  -0.000153
              7          8          9         10         11         12
     1  C    0.285089  -0.050198  -0.048258   0.315848  -0.030063  -0.034709
     2  H   -0.045100  -0.005740   0.006538  -0.027948  -0.006380  -0.002918
     3  C   -0.070917   0.002270  -0.003083  -0.066534   0.006220   0.003224
     4  O   -0.004547   0.001133   0.005492  -0.001268  -0.000064   0.000062
     5  O    0.003898   0.000089   0.000097   0.002114  -0.000040   0.004067
     6  H   -0.001280  -0.000039  -0.000020  -0.001146   0.000037  -0.000052
     7  N    6.874557   0.326469   0.320909  -0.063721   0.002492   0.004070
     8  H    0.326469   0.478021  -0.039197   0.007127  -0.000013  -0.000225
     9  H    0.320909  -0.039197   0.478098  -0.005122  -0.000608  -0.000124
    10  C   -0.063721   0.007127  -0.005122   5.116184   0.373420   0.364436
    11  H    0.002492  -0.000013  -0.000608   0.373420   0.538699  -0.023969
    12  H    0.004070  -0.000225  -0.000124   0.364436  -0.023969   0.552652
    13  H   -0.003552  -0.000123   0.004984   0.374942  -0.030043  -0.030099
             13
     1  C   -0.039374
     2  H    0.005093
     3  C   -0.007114
     4  O    0.001206
     5  O   -0.000096
     6  H   -0.000153
     7  N   -0.003552
     8  H   -0.000123
     9  H    0.004984
    10  C    0.374942
    11  H   -0.030043
    12  H   -0.030099
    13  H    0.586441
 Mulliken atomic charges:
              1
     1  C   -0.071908
     2  H    0.185584
     3  C    0.453050
     4  O   -0.417955
     5  O   -0.496555
     6  H    0.331979
     7  N   -0.628367
     8  H    0.280426
     9  H    0.280294
    10  C   -0.388332
    11  H    0.170311
    12  H    0.163586
    13  H    0.137887
 Sum of Mulliken charges=   0.00000
 Atomic charges with hydrogens summed into heavy atoms:
              1
     1  C    0.113676
     2  H    0.000000
     3  C    0.453050
     4  O   -0.417955
     5  O   -0.164576
     6  H    0.000000
     7  N   -0.067646
     8  H    0.000000
     9  H    0.000000
    10  C    0.083452
    11  H    0.000000
    12  H    0.000000
    13  H    0.000000
 Sum of Mulliken charges=   0.00000
 APT atomic charges:
              1
     1  C    0.333776
     2  H    0.001843
     3  C    0.656631
     4  O   -0.599662
     5  O   -0.582551
     6  H    0.304570
     7  N   -0.477636
     8  H    0.146288
     9  H    0.161215
    10  C    0.031735
    11  H    0.013049
    12  H    0.018351
    13  H   -0.007610
 Sum of APT charges=   0.00000
 APT Atomic charges with hydrogens summed into heavy atoms:
              1
     1  C    0.335619
     2  H    0.000000
     3  C    0.656631
     4  O   -0.599662
     5  O   -0.277981
     6  H    0.000000
     7  N   -0.170133
     8  H    0.000000
     9  H    0.000000
    10  C    0.055525
    11  H    0.000000
    12  H    0.000000
    13  H    0.000000
 Sum of APT charges=   0.00000
 Electronic spatial extent (au):  <R**2>=   583.4724
 Charge=     0.0000 electrons
 Dipole moment (field-independent basis, Debye):
    X=     0.0985    Y=    -0.4618    Z=     0.5140  Tot=     0.6979
 Quadrupole moment (field-independent basis, Debye-Ang):
   XX=   -40.5277   YY=   -37.2502   ZZ=   -35.4959
   XY=     2.0991   XZ=    -0.1482   YZ=     2.4340
 Traceless Quadrupole moment (field-independent basis, Debye-Ang):
   XX=    -2.7698   YY=     0.5077   ZZ=     2.2620
   XY=     2.0991   XZ=    -0.1482   YZ=     2.4340
 Octapole moment (field-independent basis, Debye-Ang**2):
  XXX=   -24.8477  YYY=    -7.7109  ZZZ=    -1.3129  XYY=     7.3972
  XXY=     1.1140  XXZ=     7.9420  XZZ=     0.8713  YZZ=    -2.6265
  YYZ=    -1.9204  XYZ=    -5.0920
 Hexadecapole moment (field-independent basis, Debye-Ang**3):
 XXXX=  -401.3768 YYYY=  -221.1951 ZZZZ=   -88.8522 XXXY=    19.7491
 XXXZ=    -2.5629 YYYX=   -10.5372 YYYZ=     3.1788 ZZZX=    -1.4496
 ZZZY=    -1.3976 XXYY=  -112.9499 XXZZ=   -82.9042 YYZZ=   -52.2893
 XXYZ=    -0.0936 YYXZ=     0.6521 ZZXY=    -3.0746
 N-N= 2.483782188640D+02 E-N=-1.253796227716D+03  KE= 3.218318711815D+02
  Exact polarizability:  50.218  -1.130  46.262  -1.909  -4.178  36.986
 Approx polarizability:  64.020  -4.524  78.429  -2.695 -19.233  57.021
 ***** Axes restored to original set *****
 -------------------------------------------------------------------
 Center     Atomic                   Forces (Hartrees/Bohr)
 Number     Number              X              Y              Z
 -------------------------------------------------------------------
    1          6           0.000600137   -0.002070969   -0.000166766
    2          1          -0.001057946   -0.000297336   -0.000046595
    3          6           0.074351735    0.113695067   -0.089003648
    4          8          -0.053497102   -0.058164204    0.051915413
    5          8          -0.021137820   -0.064906151    0.055571962
    6          1          -0.004457777    0.020380994   -0.021983044
    7          7          -0.004642026   -0.007430659    0.002469398
    8          1           0.003567398   -0.002539498   -0.006518527
    9          1           0.006024904   -0.000302427    0.005598096
   10          6          -0.000143358    0.001882778    0.001137579
   11          1           0.001362317   -0.000625532   -0.000615415
   12          1          -0.001279569    0.000703479   -0.000335981
   13          1           0.000309107   -0.000325543    0.001977527
 -------------------------------------------------------------------
 Cartesian Forces:  Max     0.113695067 RMS     0.033670720

 GradGradGradGradGradGradGradGradGradGradGradGradGradGradGradGradGradGrad
 Berny optimization.
 Internal  Forces:  Max     0.086788869 RMS     0.016637056
 Search for a saddle point.
 Step number   1 out of a maximum of  68
 All quantities printed in internal units (Hartrees-Bohrs-Radians)
 Swaping is turned off.
 Second derivative matrix not updated -- analytic derivatives used.
     Eigenvalues ---   -0.08554   0.00099   0.00197   0.00246   0.00317
     Eigenvalues ---    0.03246   0.03737   0.04214   0.04735   0.04952
     Eigenvalues ---    0.05013   0.05257   0.09288   0.12915   0.13507
     Eigenvalues ---    0.14538   0.15452   0.16195   0.16987   0.17621
     Eigenvalues ---    0.18569   0.20514   0.25869   0.30464   0.33216
     Eigenvalues ---    0.34031   0.34455   0.35302   0.35574   0.39772
     Eigenvalues ---    0.45412   0.45824   0.809361000.000001000.00000
     Eigenvalues --- 1000.000001000.000001000.000001000.000001000.00000
     Eigenvalues --- 1000.000001000.000001000.000001000.000001000.00000
     Eigenvalues --- 1000.000001000.000001000.000001000.000001000.00000
     Eigenvalues --- 1000.000001000.000001000.000001000.000001000.00000
     Eigenvalues --- 1000.000001000.000001000.00000
 Eigenvectors required to have negative eigenvalues:
                          R1        R2        R3        R4        R5
         1             -0.00501   0.00459   0.00782  -0.00140   0.06466
                          R6        R7        R8        R9        R10
         1             -0.11282  -0.00691  -0.64196   0.66644   0.00005
                          R11       R12       R13       R14       A1
         1             -0.00005   0.00029  -0.00078   0.00002  -0.01498
                          A2        A3        A4        A5        A6
         1             -0.00102   0.00579   0.01566   0.00060  -0.00652
                          A7        A8        A9        A10       A11
         1              0.02675  -0.03027   0.32349   0.00439  -0.02658
                          A12       A13       A14       A15       A16
         1              0.00204   0.00686   0.00243  -0.00072  -0.00340
                          A17       A18       A19       A20       D1
         1              0.00204   0.00162  -0.00023   0.00079  -0.01416
                          D2        D3        D4        D5        D6
         1              0.05935  -0.04891  -0.01215   0.06137  -0.04689
                          D7        D8        D9        D10       D11
         1             -0.01521   0.05830  -0.04996   0.00639  -0.00213
                          D12       D13       D14       D15       D16
         1             -0.00341  -0.01194   0.00374  -0.00479  -0.00373
                          D17       D18       D19       D20       D21
         1             -0.00434  -0.00423   0.01056   0.00994   0.01006
                          D22       D23       D24
         1             -0.00525  -0.00586  -0.00575
 RFO step:  Lambda0=1.951529054D-03 Lambda=-4.77885389D-02.
 Linear search not attempted -- option 19 set.
 Maximum step size (   0.300) exceeded in Quadratic search.
    -- Step size scaled by   0.598
 Iteration  1 RMS(Cart)=  0.03879128 RMS(Int)=  0.00351976
 Iteration  2 RMS(Cart)=  0.00194617 RMS(Int)=  0.00045173
 Iteration  3 RMS(Cart)=  0.00000174 RMS(Int)=  0.00045172
 Iteration  4 RMS(Cart)=  0.00000000 RMS(Int)=  0.00045172
 Variable       Old X    -DE/DX   Delta X   Delta X   Delta X     New X
                                 (Linear)    (Quad)   (Total)
    R1        2.06796  -0.00003   0.00000   0.00089   0.00089   2.06885
    R2        2.89405   0.00135   0.00000  -0.02507  -0.02507   2.86898
    R3        2.74912   0.01123   0.00000   0.00892   0.00892   2.75804
    R4        2.90528   0.00254   0.00000   0.00596   0.00596   2.91123
    R5        2.27826   0.08679   0.00000   0.07810   0.07914   2.35740
    R6        2.56316  -0.03878   0.00000  -0.07176  -0.07090   2.49226
    R7        3.03529   0.03320   0.00000   0.03841   0.03767   3.07296
    R8        2.86627  -0.00356   0.00000  -0.16168  -0.16242   2.70385
    R9        2.80506  -0.04263   0.00000  -0.08270  -0.08281   2.72225
   R10        1.91802   0.00483   0.00000   0.00316   0.00316   1.92118
   R11        1.92015   0.00513   0.00000   0.00317   0.00317   1.92332
   R12        2.06130   0.00130   0.00000   0.00154   0.00154   2.06284
   R13        2.06198   0.00133   0.00000   0.00231   0.00231   2.06428
   R14        2.06781   0.00199   0.00000   0.00198   0.00198   2.06979
    A1        1.86580  -0.00095   0.00000  -0.00450  -0.00450   1.86129
    A2        1.89128  -0.00028   0.00000  -0.00021  -0.00020   1.89107
    A3        1.89088   0.00083   0.00000   0.00060   0.00059   1.89146
    A4        1.98270   0.00239   0.00000   0.00685   0.00685   1.98955
    A5        1.90682  -0.00117   0.00000  -0.00382  -0.00383   1.90299
    A6        1.92346  -0.00084   0.00000   0.00076   0.00076   1.92422
    A7        2.19186   0.01092   0.00000   0.01325   0.01232   2.20418
    A8        1.95216   0.03333   0.00000   0.11238   0.11298   2.06514
    A9        2.95311   0.01674   0.00000   0.09908   0.09785   3.05096
   A10        2.13908  -0.04436   0.00000  -0.12587  -0.12568   2.01340
   A11        1.69312   0.01229   0.00000   0.02180   0.01944   1.71256
   A12        1.93607   0.00466   0.00000   0.01673   0.01644   1.95251
   A13        1.92271   0.00515   0.00000   0.01689   0.01660   1.93930
   A14        1.85751   0.00051   0.00000   0.01726   0.01671   1.87421
   A15        1.90319  -0.00113   0.00000  -0.00457  -0.00458   1.89861
   A16        1.94294  -0.00078   0.00000  -0.00258  -0.00258   1.94036
   A17        1.92808   0.00078   0.00000   0.00057   0.00057   1.92865
   A18        1.90661   0.00099   0.00000   0.00392   0.00391   1.91052
   A19        1.88913   0.00005   0.00000   0.00190   0.00190   1.89103
   A20        1.89302   0.00012   0.00000   0.00098   0.00098   1.89400
    D1        2.41060   0.00417   0.00000   0.01203   0.01202   2.42263
    D2       -0.74430  -0.00501   0.00000  -0.00892  -0.00895  -0.75325
    D3       -1.34920   0.00094   0.00000  -0.00543  -0.00541  -1.35461
    D4        0.32536   0.00373   0.00000   0.01124   0.01124   0.33660
    D5       -2.82955  -0.00545   0.00000  -0.00971  -0.00973  -2.83928
    D6        2.84874   0.00050   0.00000  -0.00622  -0.00619   2.84255
    D7       -1.83002   0.00402   0.00000   0.00830   0.00830  -1.82172
    D8        1.29826  -0.00516   0.00000  -0.01266  -0.01267   1.28559
    D9        0.69337   0.00079   0.00000  -0.00917  -0.00913   0.68423
   D10       -1.00244   0.00338   0.00000   0.02132   0.02147  -0.98097
   D11       -3.05458  -0.00333   0.00000  -0.02078  -0.02093  -3.07551
   D12        1.06823   0.00347   0.00000   0.01977   0.01991   1.08814
   D13       -0.98391  -0.00323   0.00000  -0.02234  -0.02249  -1.00640
   D14       -3.06869   0.00303   0.00000   0.02029   0.02044  -3.04825
   D15        1.16236  -0.00368   0.00000  -0.02182  -0.02196   1.14040
   D16       -1.07178  -0.00042   0.00000  -0.00286  -0.00287  -1.07465
   D17        1.03301  -0.00042   0.00000  -0.00262  -0.00262   1.03039
   D18        3.13733  -0.00025   0.00000  -0.00271  -0.00272   3.13462
   D19       -3.09842   0.00089   0.00000   0.00422   0.00421  -3.09420
   D20       -0.99363   0.00089   0.00000   0.00446   0.00446  -0.98917
   D21        1.11070   0.00105   0.00000   0.00437   0.00437   1.11506
   D22        0.99471  -0.00074   0.00000  -0.00233  -0.00232   0.99239
   D23        3.09950  -0.00075   0.00000  -0.00208  -0.00208   3.09742
   D24       -1.07936  -0.00058   0.00000  -0.00218  -0.00217  -1.08153
         Item               Value     Threshold  Converged?
 Maximum Force            0.086789     0.000450     NO 
 RMS     Force            0.016637     0.000300     NO 
 Maximum Displacement     0.142396     0.001800     NO 
 RMS     Displacement     0.038400     0.001200     NO 
 Predicted change in Energy=-2.115339D-02
 GradGradGradGradGradGradGradGradGradGradGradGradGradGradGradGradGradGrad

                          Input orientation:                          
 ---------------------------------------------------------------------
 Center     Atomic     Atomic              Coordinates (Angstroms)
 Number     Number      Type              X           Y           Z
 ---------------------------------------------------------------------
    1          6             0        0.670944    0.148408   -0.402261
    2          1             0        0.659765    0.501292   -1.438558
    3          6             0       -0.772773   -0.125091   -0.020419
    4          8             0       -1.189912   -1.095849    0.642785
    5          8             0       -1.691734    0.749681   -0.380474
    6          1             0       -2.335522   -0.272471    0.404342
    7          7             0        1.537406   -1.023524   -0.325253
    8          1             0        1.246103   -1.752947   -0.970740
    9          1             0        1.529614   -1.424401    0.610218
   10          6             0        1.221138    1.277819    0.489387
   11          1             0        2.242973    1.504284    0.179265
   12          1             0        0.608174    2.178390    0.408630
   13          1             0        1.240863    0.963354    1.538375
 ---------------------------------------------------------------------
                    Distance matrix (angstroms):
                    1          2          3          4          5
     1  C    0.000000
     2  H    1.094789   0.000000
     3  C    1.518197   2.110838   0.000000
     4  O    2.470441   3.210008   1.247483   0.000000
     5  O    2.438084   2.590519   1.318847   2.169070   0.000000
     6  H    3.141112   3.600936   1.626139   1.430814   1.440554
     7  N    1.459490   2.082010   2.497405   2.894925   3.684380
     8  H    2.066186   2.375760   2.762043   2.994897   3.904158
     9  H    2.058192   2.943197   2.717884   2.739494   4.010635
    10  C    1.540558   2.152930   2.490730   3.386885   3.085516
    11  H    2.155887   2.475862   3.433578   4.331309   4.045325
    12  H    2.186850   2.495480   2.719765   3.742804   2.820190
    13  H    2.180599   3.068111   2.769346   3.309239   3.511092
                    6          7          8          9         10
     6  H    0.000000
     7  N    4.011977   0.000000
     8  H    4.112262   1.016646   0.000000
     9  H    4.038392   1.017776   1.639435   0.000000
    10  C    3.880781   2.461675   3.364244   2.722453   0.000000
    11  H    4.916314   2.672485   3.595249   3.044963   1.091609
    12  H    3.830416   3.413841   4.214857   3.724217   1.092371
    13  H    3.950168   2.740206   3.697834   2.578027   1.095286
                   11         12         13
    11  H    0.000000
    12  H    1.783142   0.000000
    13  H    1.773136   1.775650   0.000000
 Stoichiometry    C3H7NO2
 Framework group  C1[X(C3H7NO2)]
 Deg. of freedom    33
 Full point group                 C1
 Largest Abelian subgroup         C1      NOp   1
 Largest concise Abelian subgroup C1      NOp   1
                         Standard orientation:                         
 ---------------------------------------------------------------------
 Center     Atomic     Atomic              Coordinates (Angstroms)
 Number     Number      Type              X           Y           Z
 ---------------------------------------------------------------------
    1          6             0        0.698945    0.108587   -0.404460
    2          1             0        0.738599    0.441620   -1.446611
    3          6             0       -0.768910   -0.071187   -0.060940
    4          8             0       -1.262353   -1.002544    0.606370
    5          8             0       -1.623040    0.849655   -0.463270
    6          1             0       -2.349192   -0.117187    0.319746
    7          7             0        1.490948   -1.111125   -0.281400
    8          1             0        1.174963   -1.834143   -0.922467
    9          1             0        1.432367   -1.492858    0.660257
   10          6             0        1.290218    1.220120    0.483352
   11          1             0        2.332252    1.379422    0.199805
   12          1             0        0.734972    2.153850    0.368788
   13          1             0        1.261035    0.925166    1.537773
 ---------------------------------------------------------------------
 Rotational constants (GHZ):      5.1846866      2.9757952      2.2466305
 Standard basis: 6-31G (6D, 7F)
 There are    68 symmetry adapted basis functions of A   symmetry.
 Integral buffers will be    262144 words long.
 Raffenetti 2 integral format.
 Two-electron integral symmetry is turned on.
    68 basis functions,   160 primitive gaussians,    68 cartesian basis functions
    24 alpha electrons       24 beta electrons
       nuclear repulsion energy       248.0050094801 Hartrees.
 NAtoms=   13 NActive=   13 NUniq=   13 SFac= 7.50D-01 NAtFMM=   80 NAOKFM=F Big=F
 One-electron integrals computed using PRISM.
 NBasis=    68 RedAO= T  NBF=    68
 NBsUse=    68 1.00D-06 NBFU=    68
 Initial guess read from the read-write file:
 Initial guess orbital symmetries:
       Occupied  (A) (A) (A) (A) (A) (A) (A) (A) (A) (A) (A) (A)
                 (A) (A) (A) (A) (A) (A) (A) (A) (A) (A) (A) (A)
       Virtual   (A) (A) (A) (A) (A) (A) (A) (A) (A) (A) (A) (A)
                 (A) (A) (A) (A) (A) (A) (A) (A) (A) (A) (A) (A)
                 (A) (A) (A) (A) (A) (A) (A) (A) (A) (A) (A) (A)
                 (A) (A) (A) (A) (A) (A) (A) (A)
 Harris functional with IExCor=  402 diagonalized for initial guess.
 ExpMin= 1.61D-01 ExpMax= 5.48D+03 ExpMxC= 8.25D+02 IAcc=1 IRadAn=         1 AccDes= 1.00D-06
 HarFok:  IExCor= 402 AccDes= 1.00D-06 IRadAn=         1 IDoV=1
 ScaDFX=  1.000000  1.000000  1.000000  1.000000
 Requested convergence on RMS density matrix=1.00D-08 within 128 cycles.
 Requested convergence on MAX density matrix=1.00D-06.
 Requested convergence on             energy=1.00D-06.
 No special actions if energy rises.
 Keep R1 integrals in memory in canonical form, NReq=     4577263.
 Integral accuracy reduced to 1.0D-05 until final iterations.
 Initial convergence to 1.0D-05 achieved.  Increase integral accuracy.
 SCF Done:  E(RB+HF-LYP) =  -323.564184614     A.U. after   13 cycles
             Convg  =    0.8152D-08             -V/T =  2.0054
             S**2   =   0.0000
 ***** Axes restored to original set *****
 -------------------------------------------------------------------
 Center     Atomic                   Forces (Hartrees/Bohr)
 Number     Number              X              Y              Z
 -------------------------------------------------------------------
    1          6           0.001260184   -0.002430603    0.000571584
    2          1          -0.000536562   -0.000103440   -0.000100243
    3          6           0.038572014    0.058259450   -0.043235607
    4          8          -0.031232809   -0.031310656    0.027058047
    5          8          -0.014041069   -0.029533127    0.023883534
    6          1           0.004352629    0.009138808   -0.010053858
    7          7          -0.005656133   -0.005480160    0.002149665
    8          1           0.002862241   -0.000497886   -0.004096923
    9          1           0.004247576    0.000842262    0.002875679
   10          6           0.000091269    0.001355778    0.000538776
   11          1           0.000644664   -0.000387636   -0.000316740
   12          1          -0.000642826    0.000317028   -0.000175899
   13          1           0.000078823   -0.000169817    0.000901985
 -------------------------------------------------------------------
 Cartesian Forces:  Max     0.058259450 RMS     0.017107359

 GradGradGradGradGradGradGradGradGradGradGradGradGradGradGradGradGradGrad
 Berny optimization.
 Internal  Forces:  Max     0.046710901 RMS     0.008411555
 Search for a saddle point.
 Step number   2 out of a maximum of  68
 All quantities printed in internal units (Hartrees-Bohrs-Radians)
 Swaping is turned off.
 Update second derivatives using D2CorX and points  1  2
     Eigenvalues ---   -0.08720   0.00100   0.00196   0.00246   0.00316
     Eigenvalues ---    0.03180   0.03755   0.04215   0.04734   0.04952
     Eigenvalues ---    0.05013   0.05257   0.09224   0.12910   0.13518
     Eigenvalues ---    0.14555   0.16129   0.16908   0.16996   0.17563
     Eigenvalues ---    0.18674   0.20518   0.26178   0.30478   0.33962
     Eigenvalues ---    0.34159   0.34455   0.35303   0.35575   0.39746
     Eigenvalues ---    0.45411   0.45825   0.803951000.000001000.00000
     Eigenvalues --- 1000.000001000.000001000.000001000.000001000.00000
     Eigenvalues --- 1000.000001000.000001000.000001000.000001000.00000
     Eigenvalues --- 1000.000001000.000001000.000001000.000001000.00000
     Eigenvalues --- 1000.000001000.000001000.000001000.000001000.00000
     Eigenvalues --- 1000.000001000.000001000.00000
 Eigenvectors required to have negative eigenvalues:
                          R1        R2        R3        R4        R5
         1             -0.00487   0.00469   0.00768  -0.00078   0.07469
                          R6        R7        R8        R9        R10
         1             -0.10247  -0.00987  -0.64743   0.66136  -0.00012
                          R11       R12       R13       R14       A1
         1             -0.00020   0.00035  -0.00070   0.00008  -0.01525
                          A2        A3        A4        A5        A6
         1             -0.00087   0.00546   0.01541   0.00126  -0.00650
                          A7        A8        A9        A10       A11
         1              0.02373  -0.02917   0.32199   0.00762  -0.01593
                          A12       A13       A14       A15       A16
         1              0.00383   0.00875   0.00465  -0.00095  -0.00351
                          A17       A18       A19       A20       D1
         1              0.00199   0.00182  -0.00010   0.00085  -0.01831
                          D2        D3        D4        D5        D6
         1              0.06278  -0.04935  -0.01602   0.06507  -0.04706
                          D7        D8        D9        D10       D11
         1             -0.01946   0.06163  -0.05050   0.00932  -0.00521
                          D12       D13       D14       D15       D16
         1             -0.00091  -0.01543   0.00697  -0.00755  -0.00385
                          D17       D18       D19       D20       D21
         1             -0.00440  -0.00433   0.01059   0.01004   0.01011
                          D22       D23       D24
         1             -0.00538  -0.00594  -0.00586
 RFO step:  Lambda0=2.454967699D-04 Lambda=-1.54068258D-02.
 Linear search not attempted -- option 19 set.
 Maximum step size (   0.300) exceeded in Quadratic search.
    -- Step size scaled by   0.814
 Iteration  1 RMS(Cart)=  0.02994560 RMS(Int)=  0.00723668
 Iteration  2 RMS(Cart)=  0.00174293 RMS(Int)=  0.00040192
 Iteration  3 RMS(Cart)=  0.00018026 RMS(Int)=  0.00029881
 Iteration  4 RMS(Cart)=  0.00000011 RMS(Int)=  0.00029881
 Variable       Old X    -DE/DX   Delta X   Delta X   Delta X     New X
                                 (Linear)    (Quad)   (Total)
    R1        2.06885   0.00007   0.00000   0.00195   0.00195   2.07080
    R2        2.86898   0.00046   0.00000  -0.02625  -0.02625   2.84273
    R3        2.75804   0.00504   0.00000  -0.00001  -0.00001   2.75802
    R4        2.91123   0.00143   0.00000   0.00674   0.00674   2.91797
    R5        2.35740   0.04671   0.00000   0.06868   0.06849   2.42589
    R6        2.49226  -0.01341   0.00000  -0.01912  -0.01934   2.47292
    R7        3.07296   0.01397   0.00000  -0.03662  -0.03637   3.03659
    R8        2.70385  -0.00408   0.00000  -0.15416  -0.15419   2.54966
    R9        2.72225  -0.02087   0.00000  -0.12850  -0.12838   2.59387
   R10        1.92118   0.00214   0.00000  -0.00119  -0.00119   1.91999
   R11        1.92332   0.00228   0.00000  -0.00126  -0.00126   1.92206
   R12        2.06284   0.00061   0.00000   0.00094   0.00094   2.06378
   R13        2.06428   0.00063   0.00000   0.00168   0.00168   2.06596
   R14        2.06979   0.00091   0.00000   0.00128   0.00128   2.07107
    A1        1.86129  -0.00049   0.00000  -0.00493  -0.00494   1.85636
    A2        1.89107  -0.00010   0.00000   0.00110   0.00111   1.89218
    A3        1.89146   0.00028   0.00000  -0.00362  -0.00363   1.88784
    A4        1.98955   0.00109   0.00000   0.00401   0.00400   1.99356
    A5        1.90299  -0.00046   0.00000  -0.00045  -0.00046   1.90253
    A6        1.92422  -0.00034   0.00000   0.00323   0.00323   1.92745
    A7        2.20418   0.00448   0.00000   0.00823   0.00805   2.21224
    A8        2.06514   0.01753   0.00000   0.09788   0.09803   2.16317
    A9        3.05096   0.00842   0.00000   0.06896   0.06870   3.11966
   A10        2.01340  -0.02208   0.00000  -0.10598  -0.10597   1.90743
   A11        1.71256   0.01004   0.00000   0.06596   0.06647   1.77903
   A12        1.95251   0.00269   0.00000   0.02425   0.02336   1.97587
   A13        1.93930   0.00287   0.00000   0.02464   0.02375   1.96305
   A14        1.87421   0.00083   0.00000   0.03442   0.03293   1.90714
   A15        1.89861  -0.00062   0.00000  -0.00416  -0.00416   1.89445
   A16        1.94036  -0.00041   0.00000  -0.00247  -0.00247   1.93788
   A17        1.92865   0.00032   0.00000  -0.00024  -0.00025   1.92840
   A18        1.91052   0.00055   0.00000   0.00404   0.00403   1.91455
   A19        1.89103   0.00009   0.00000   0.00238   0.00238   1.89341
   A20        1.89400   0.00009   0.00000   0.00066   0.00066   1.89466
    D1        2.42263   0.00129   0.00000  -0.00809  -0.00809   2.41454
    D2       -0.75325  -0.00165   0.00000  -0.00520  -0.00521  -0.75846
    D3       -1.35461   0.00023   0.00000  -0.00845  -0.00845  -1.36306
    D4        0.33660   0.00111   0.00000  -0.00849  -0.00848   0.32812
    D5       -2.83928  -0.00184   0.00000  -0.00560  -0.00560  -2.84488
    D6        2.84255   0.00004   0.00000  -0.00885  -0.00884   2.83370
    D7       -1.82172   0.00113   0.00000  -0.01521  -0.01521  -1.83693
    D8        1.28559  -0.00182   0.00000  -0.01233  -0.01233   1.27326
    D9        0.68423   0.00006   0.00000  -0.01558  -0.01557   0.66866
   D10       -0.98097   0.00242   0.00000   0.03670   0.03707  -0.94391
   D11       -3.07551  -0.00244   0.00000  -0.04047  -0.04084  -3.11635
   D12        1.08814   0.00241   0.00000   0.03373   0.03410   1.12224
   D13       -1.00640  -0.00245   0.00000  -0.04343  -0.04381  -1.05020
   D14       -3.04825   0.00233   0.00000   0.03856   0.03893  -3.00931
   D15        1.14040  -0.00252   0.00000  -0.03861  -0.03897   1.10143
   D16       -1.07465  -0.00024   0.00000  -0.00353  -0.00353  -1.07818
   D17        1.03039  -0.00022   0.00000  -0.00277  -0.00276   1.02763
   D18        3.13462  -0.00016   0.00000  -0.00374  -0.00374   3.13088
   D19       -3.09420   0.00043   0.00000   0.00452   0.00452  -3.08969
   D20       -0.98917   0.00046   0.00000   0.00528   0.00528  -0.98389
   D21        1.11506   0.00051   0.00000   0.00431   0.00431   1.11937
   D22        0.99239  -0.00039   0.00000  -0.00250  -0.00250   0.98989
   D23        3.09742  -0.00037   0.00000  -0.00174  -0.00174   3.09569
   D24       -1.08153  -0.00031   0.00000  -0.00271  -0.00271  -1.08424
         Item               Value     Threshold  Converged?
 Maximum Force            0.046711     0.000450     NO 
 RMS     Force            0.008412     0.000300     NO 
 Maximum Displacement     0.105917     0.001800     NO 
 RMS     Displacement     0.031374     0.001200     NO 
 Predicted change in Energy=-7.997996D-03
 GradGradGradGradGradGradGradGradGradGradGradGradGradGradGradGradGradGrad

                          Input orientation:                          
 ---------------------------------------------------------------------
 Center     Atomic     Atomic              Coordinates (Angstroms)
 Number     Number      Type              X           Y           Z
 ---------------------------------------------------------------------
    1          6             0        0.669554    0.154049   -0.400564
    2          1             0        0.666404    0.506001   -1.438324
    3          6             0       -0.768311   -0.088817   -0.031099
    4          8             0       -1.231818   -1.079097    0.641551
    5          8             0       -1.747783    0.724655   -0.333369
    6          1             0       -2.308581   -0.313543    0.367865
    7          7             0        1.517349   -1.031092   -0.318253
    8          1             0        1.255720   -1.757223   -0.978988
    9          1             0        1.545572   -1.424610    0.619222
   10          6             0        1.233535    1.283182    0.488988
   11          1             0        2.260145    1.489659    0.178929
   12          1             0        0.631677    2.191398    0.398837
   13          1             0        1.243577    0.974385    1.540502
 ---------------------------------------------------------------------
                    Distance matrix (angstroms):
                    1          2          3          4          5
     1  C    0.000000
     2  H    1.095823   0.000000
     3  C    1.504308   2.095829   0.000000
     4  O    2.494367   3.231356   1.283726   0.000000
     5  O    2.484678   2.664026   1.308614   2.114287   0.000000
     6  H    3.111014   3.575543   1.606893   1.349221   1.372617
     7  N    1.459483   2.083584   2.488892   2.912292   3.707285
     8  H    2.081135   2.383372   2.789045   3.045298   3.949376
     9  H    2.073532   2.955282   2.749784   2.798887   4.046351
    10  C    1.544124   2.154108   2.481987   3.417836   3.142687
    11  H    2.156304   2.474491   3.421585   4.359625   4.112320
    12  H    2.188897   2.493378   2.710017   3.771958   2.889515
    13  H    2.184076   3.070166   2.765506   3.339533   3.538643
                    6          7          8          9         10
     6  H    0.000000
     7  N    3.952641   0.000000
     8  H    4.074612   1.016015   0.000000
     9  H    4.018973   1.017110   1.657986   0.000000
    10  C    3.887259   2.467398   3.376315   2.728821   0.000000
    11  H    4.915332   2.674532   3.590527   3.032728   1.092107
    12  H    3.862746   3.418052   4.228409   3.736213   1.093260
    13  H    3.956218   2.748064   3.716134   2.587495   1.095965
                   11         12         13
    11  H    0.000000
    12  H    1.786815   0.000000
    13  H    1.775612   1.777341   0.000000
 Stoichiometry    C3H7NO2
 Framework group  C1[X(C3H7NO2)]
 Deg. of freedom    33
 Full point group                 C1
 Largest Abelian subgroup         C1      NOp   1
 Largest concise Abelian subgroup C1      NOp   1
                         Standard orientation:                         
 ---------------------------------------------------------------------
 Center     Atomic     Atomic              Coordinates (Angstroms)
 Number     Number      Type              X           Y           Z
 ---------------------------------------------------------------------
    1          6             0        0.715056    0.101143   -0.407857
    2          1             0        0.768199    0.417807   -1.455582
    3          6             0       -0.746710   -0.036532   -0.080400
    4          8             0       -1.295185   -0.972079    0.606535
    5          8             0       -1.660823    0.827581   -0.441198
    6          1             0       -2.310375   -0.148563    0.272456
    7          7             0        1.480661   -1.132547   -0.259705
    8          1             0        1.193580   -1.862003   -0.906053
    9          1             0        1.453034   -1.495618    0.689994
   10          6             0        1.322626    1.220771    0.464845
   11          1             0        2.369945    1.350515    0.183799
   12          1             0        0.784497    2.162221    0.325903
   13          1             0        1.278731    0.947164    1.525199
 ---------------------------------------------------------------------
 Rotational constants (GHZ):      5.2666932      2.9182654      2.2151902
 Standard basis: 6-31G (6D, 7F)
 There are    68 symmetry adapted basis functions of A   symmetry.
 Integral buffers will be    262144 words long.
 Raffenetti 2 integral format.
 Two-electron integral symmetry is turned on.
    68 basis functions,   160 primitive gaussians,    68 cartesian basis functions
    24 alpha electrons       24 beta electrons
       nuclear repulsion energy       247.5804760560 Hartrees.
 NAtoms=   13 NActive=   13 NUniq=   13 SFac= 7.50D-01 NAtFMM=   80 NAOKFM=F Big=F
 One-electron integrals computed using PRISM.
 NBasis=    68 RedAO= T  NBF=    68
 NBsUse=    68 1.00D-06 NBFU=    68
 Initial guess read from the read-write file:
 Initial guess orbital symmetries:
       Occupied  (A) (A) (A) (A) (A) (A) (A) (A) (A) (A) (A) (A)
                 (A) (A) (A) (A) (A) (A) (A) (A) (A) (A) (A) (A)
       Virtual   (A) (A) (A) (A) (A) (A) (A) (A) (A) (A) (A) (A)
                 (A) (A) (A) (A) (A) (A) (A) (A) (A) (A) (A) (A)
                 (A) (A) (A) (A) (A) (A) (A) (A) (A) (A) (A) (A)
                 (A) (A) (A) (A) (A) (A) (A) (A)
 Harris functional with IExCor=  402 diagonalized for initial guess.
 ExpMin= 1.61D-01 ExpMax= 5.48D+03 ExpMxC= 8.25D+02 IAcc=1 IRadAn=         1 AccDes= 1.00D-06
 HarFok:  IExCor= 402 AccDes= 1.00D-06 IRadAn=         1 IDoV=1
 ScaDFX=  1.000000  1.000000  1.000000  1.000000
 Requested convergence on RMS density matrix=1.00D-08 within 128 cycles.
 Requested convergence on MAX density matrix=1.00D-06.
 Requested convergence on             energy=1.00D-06.
 No special actions if energy rises.
 Keep R1 integrals in memory in canonical form, NReq=     4577263.
 Integral accuracy reduced to 1.0D-05 until final iterations.
 Initial convergence to 1.0D-05 achieved.  Increase integral accuracy.
 SCF Done:  E(RB+HF-LYP) =  -323.571685108     A.U. after   13 cycles
             Convg  =    0.8049D-08             -V/T =  2.0054
             S**2   =   0.0000
 ***** Axes restored to original set *****
 -------------------------------------------------------------------
 Center     Atomic                   Forces (Hartrees/Bohr)
 Number     Number              X              Y              Z
 -------------------------------------------------------------------
    1          6           0.002927179   -0.000451010    0.000014241
    2          1           0.000133470   -0.000109953   -0.000082703
    3          6           0.008233270    0.021257522   -0.012761541
    4          8          -0.007960174   -0.019663848    0.011257775
    5          8          -0.003264424   -0.002382425    0.000855586
    6          1           0.000173067    0.002327617    0.000094848
    7          7          -0.004046112   -0.002530367    0.001279590
    8          1           0.001582582    0.000252598   -0.001696911
    9          1           0.002095649    0.000778199    0.000896432
   10          6           0.000092547    0.000619111    0.000030519
   11          1           0.000150461   -0.000111625   -0.000062460
   12          1          -0.000114777    0.000055596   -0.000018452
   13          1          -0.000002738   -0.000041414    0.000193075
 -------------------------------------------------------------------
 Cartesian Forces:  Max     0.021257522 RMS     0.005832649

 GradGradGradGradGradGradGradGradGradGradGradGradGradGradGradGradGradGrad
 Berny optimization.
 Internal  Forces:  Max     0.020678714 RMS     0.003014992
 Search for a saddle point.
 Step number   3 out of a maximum of  68
 All quantities printed in internal units (Hartrees-Bohrs-Radians)
 Swaping is turned off.
 Update second derivatives using D2CorX and points  1  2  3
     Eigenvalues ---   -0.08810   0.00100   0.00185   0.00246   0.00315
     Eigenvalues ---    0.02932   0.04211   0.04731   0.04856   0.04954
     Eigenvalues ---    0.05017   0.05257   0.09101   0.12905   0.13518
     Eigenvalues ---    0.14556   0.16119   0.16958   0.17332   0.18225
     Eigenvalues ---    0.19072   0.20520   0.26276   0.30477   0.34002
     Eigenvalues ---    0.34452   0.34493   0.35304   0.35576   0.39710
     Eigenvalues ---    0.45406   0.45824   0.803431000.000001000.00000
     Eigenvalues --- 1000.000001000.000001000.000001000.000001000.00000
     Eigenvalues --- 1000.000001000.000001000.000001000.000001000.00000
     Eigenvalues --- 1000.000001000.000001000.000001000.000001000.00000
     Eigenvalues --- 1000.000001000.000001000.000001000.000001000.00000
     Eigenvalues --- 1000.000001000.000001000.00000
 Eigenvectors required to have negative eigenvalues:
                          R1        R2        R3        R4        R5
         1             -0.00476   0.00763   0.00668  -0.00031   0.08277
                          R6        R7        R8        R9        R10
         1             -0.10103  -0.00957  -0.64472   0.66176  -0.00047
                          R11       R12       R13       R14       A1
         1             -0.00052   0.00040  -0.00066   0.00012  -0.01531
                          A2        A3        A4        A5        A6
         1             -0.00079   0.00509   0.01525   0.00132  -0.00616
                          A7        A8        A9        A10       A11
         1              0.01967  -0.02823   0.32261   0.01048  -0.01218
                          A12       A13       A14       A15       A16
         1              0.00618   0.01107   0.00732  -0.00118  -0.00352
                          A17       A18       A19       A20       D1
         1              0.00196   0.00199   0.00001   0.00084  -0.02257
                          D2        D3        D4        D5        D6
         1              0.06456  -0.04943  -0.02015   0.06698  -0.04701
                          D7        D8        D9        D10       D11
         1             -0.02408   0.06305  -0.05094   0.01371  -0.00998
                          D12       D13       D14       D15       D16
         1              0.00334  -0.02035   0.01158  -0.01212  -0.00402
                          D17       D18       D19       D20       D21
         1             -0.00450  -0.00446   0.01064   0.01016   0.01020
                          D22       D23       D24
         1             -0.00546  -0.00594  -0.00590
 RFO step:  Lambda0=1.271884595D-06 Lambda=-1.59692477D-03.
 Linear search not attempted -- option 19 set.
 Iteration  1 RMS(Cart)=  0.00405958 RMS(Int)=  0.03483500
 Iteration  2 RMS(Cart)=  0.00004347 RMS(Int)=  0.03479357
 Iteration  3 RMS(Cart)=  0.00004330 RMS(Int)=  0.03475231
 Iteration  4 RMS(Cart)=  0.00004312 RMS(Int)=  0.03471123
 Iteration  5 RMS(Cart)=  0.00004294 RMS(Int)=  0.03467031
 Iteration  6 RMS(Cart)=  0.00004277 RMS(Int)=  0.03462955
 Iteration  7 RMS(Cart)=  0.00004259 RMS(Int)=  0.03458896
 Iteration  8 RMS(Cart)=  0.00004242 RMS(Int)=  0.03454854
 Iteration  9 RMS(Cart)=  0.00004225 RMS(Int)=  0.03450828
 Iteration 10 RMS(Cart)=  0.00004208 RMS(Int)=  0.03446818
 Iteration 11 RMS(Cart)=  0.00004192 RMS(Int)=  0.03442823
 Iteration 12 RMS(Cart)=  0.00004175 RMS(Int)=  0.03438845
 Iteration 13 RMS(Cart)=  0.00004159 RMS(Int)=  0.03434882
 Iteration 14 RMS(Cart)=  0.00004143 RMS(Int)=  0.03430935
 Iteration 15 RMS(Cart)=  0.00004126 RMS(Int)=  0.03427003
 Iteration 16 RMS(Cart)=  0.00004110 RMS(Int)=  0.03423086
 Iteration 17 RMS(Cart)=  0.00004095 RMS(Int)=  0.03419185
 Iteration 18 RMS(Cart)=  0.00004079 RMS(Int)=  0.03415298
 Iteration 19 RMS(Cart)=  0.00004063 RMS(Int)=  0.03411427
 Iteration 20 RMS(Cart)=  0.00004048 RMS(Int)=  0.03407570
 Iteration 21 RMS(Cart)=  0.00004033 RMS(Int)=  0.03403727
 Iteration 22 RMS(Cart)=  0.00004017 RMS(Int)=  0.03399899
 Iteration 23 RMS(Cart)=  0.00004002 RMS(Int)=  0.03396086
 Iteration 24 RMS(Cart)=  0.00003987 RMS(Int)=  0.03392287
 Iteration 25 RMS(Cart)=  0.00003973 RMS(Int)=  0.03388502
 Iteration 26 RMS(Cart)=  0.00003958 RMS(Int)=  0.03384730
 Iteration 27 RMS(Cart)=  0.00003943 RMS(Int)=  0.03380973
 Iteration 28 RMS(Cart)=  0.00003929 RMS(Int)=  0.03377229
 Iteration 29 RMS(Cart)=  0.00003915 RMS(Int)=  0.03373499
 Iteration 30 RMS(Cart)=  0.00003901 RMS(Int)=  0.03369783
 Iteration 31 RMS(Cart)=  0.00003887 RMS(Int)=  0.03366080
 Iteration 32 RMS(Cart)=  0.00003873 RMS(Int)=  0.03362390
 Iteration 33 RMS(Cart)=  0.00003859 RMS(Int)=  0.03358713
 Iteration 34 RMS(Cart)=  0.00003845 RMS(Int)=  0.03355050
 Iteration 35 RMS(Cart)=  0.00003832 RMS(Int)=  0.03351399
 Iteration 36 RMS(Cart)=  0.00003818 RMS(Int)=  0.03347761
 Iteration 37 RMS(Cart)=  0.00003805 RMS(Int)=  0.03344135
 Iteration 38 RMS(Cart)=  0.00003792 RMS(Int)=  0.03340523
 Iteration 39 RMS(Cart)=  0.00003779 RMS(Int)=  0.03336922
 Iteration 40 RMS(Cart)=  0.00003766 RMS(Int)=  0.03333334
 Iteration 41 RMS(Cart)=  0.00003753 RMS(Int)=  0.03329759
 Iteration 42 RMS(Cart)=  0.00003740 RMS(Int)=  0.03326195
 Iteration 43 RMS(Cart)=  0.00003728 RMS(Int)=  0.03322643
 Iteration 44 RMS(Cart)=  0.00003715 RMS(Int)=  0.03319103
 Iteration 45 RMS(Cart)=  0.00003703 RMS(Int)=  0.03315575
 Iteration 46 RMS(Cart)=  0.00003691 RMS(Int)=  0.03312059
 Iteration 47 RMS(Cart)=  0.00003679 RMS(Int)=  0.03308554
 Iteration 48 RMS(Cart)=  0.00003667 RMS(Int)=  0.03305061
 Iteration 49 RMS(Cart)=  0.00003655 RMS(Int)=  0.03301579
 Iteration 50 RMS(Cart)=  0.00003643 RMS(Int)=  0.03298108
 Iteration 51 RMS(Cart)=  0.00003631 RMS(Int)=  0.03294649
 Iteration 52 RMS(Cart)=  0.00003620 RMS(Int)=  0.03291200
 Iteration 53 RMS(Cart)=  0.00003608 RMS(Int)=  0.03287762
 Iteration 54 RMS(Cart)=  0.00003597 RMS(Int)=  0.03284335
 Iteration 55 RMS(Cart)=  0.00003586 RMS(Int)=  0.03280919
 Iteration 56 RMS(Cart)=  0.00003575 RMS(Int)=  0.03277514
 Iteration 57 RMS(Cart)=  0.00003564 RMS(Int)=  0.03274119
 Iteration 58 RMS(Cart)=  0.00003553 RMS(Int)=  0.03270734
 Iteration 59 RMS(Cart)=  0.00003542 RMS(Int)=  0.03267360
 Iteration 60 RMS(Cart)=  0.00003531 RMS(Int)=  0.03263996
 Iteration 61 RMS(Cart)=  0.00003521 RMS(Int)=  0.03260641
 Iteration 62 RMS(Cart)=  0.00003510 RMS(Int)=  0.03257297
 Iteration 63 RMS(Cart)=  0.00003500 RMS(Int)=  0.03253963
 Iteration 64 RMS(Cart)=  0.00003490 RMS(Int)=  0.03250639
 Iteration 65 RMS(Cart)=  0.00003479 RMS(Int)=  0.03247324
 Iteration 66 RMS(Cart)=  0.00003469 RMS(Int)=  0.03244019
 Iteration 67 RMS(Cart)=  0.00003460 RMS(Int)=  0.03240723
 Iteration 68 RMS(Cart)=  0.00003450 RMS(Int)=  0.03237437
 Iteration 69 RMS(Cart)=  0.00003440 RMS(Int)=  0.03234160
 Iteration 70 RMS(Cart)=  0.00003430 RMS(Int)=  0.03230892
 Iteration 71 RMS(Cart)=  0.00003421 RMS(Int)=  0.03227633
 Iteration 72 RMS(Cart)=  0.00003411 RMS(Int)=  0.03224384
 Iteration 73 RMS(Cart)=  0.00003402 RMS(Int)=  0.03221143
 Iteration 74 RMS(Cart)=  0.00003393 RMS(Int)=  0.03217911
 Iteration 75 RMS(Cart)=  0.00003384 RMS(Int)=  0.03214687
 Iteration 76 RMS(Cart)=  0.00003375 RMS(Int)=  0.03211472
 Iteration 77 RMS(Cart)=  0.00003366 RMS(Int)=  0.03208266
 Iteration 78 RMS(Cart)=  0.00003357 RMS(Int)=  0.03205068
 Iteration 79 RMS(Cart)=  0.00003348 RMS(Int)=  0.03201878
 Iteration 80 RMS(Cart)=  0.00003340 RMS(Int)=  0.03198697
 Iteration 81 RMS(Cart)=  0.00003331 RMS(Int)=  0.03195523
 Iteration 82 RMS(Cart)=  0.00003323 RMS(Int)=  0.03192358
 Iteration 83 RMS(Cart)=  0.00003315 RMS(Int)=  0.03189200
 Iteration 84 RMS(Cart)=  0.00003307 RMS(Int)=  0.03186051
 Iteration 85 RMS(Cart)=  0.00003299 RMS(Int)=  0.03182908
 Iteration 86 RMS(Cart)=  0.00003291 RMS(Int)=  0.03179774
 Iteration 87 RMS(Cart)=  0.00003283 RMS(Int)=  0.03176647
 Iteration 88 RMS(Cart)=  0.00003275 RMS(Int)=  0.03173527
 Iteration 89 RMS(Cart)=  0.00003267 RMS(Int)=  0.03170415
 Iteration 90 RMS(Cart)=  0.00003260 RMS(Int)=  0.03167310
 Iteration 91 RMS(Cart)=  0.00003252 RMS(Int)=  0.03164211
 Iteration 92 RMS(Cart)=  0.00003245 RMS(Int)=  0.03161120
 Iteration 93 RMS(Cart)=  0.00003238 RMS(Int)=  0.03158036
 Iteration 94 RMS(Cart)=  0.00003231 RMS(Int)=  0.03154959
 Iteration 95 RMS(Cart)=  0.00003224 RMS(Int)=  0.03151888
 Iteration 96 RMS(Cart)=  0.00003217 RMS(Int)=  0.03148823
 Iteration 97 RMS(Cart)=  0.00003210 RMS(Int)=  0.03145766
 Iteration 98 RMS(Cart)=  0.00003204 RMS(Int)=  0.03142714
 Iteration 99 RMS(Cart)=  0.00003197 RMS(Int)=  0.03139669
 Iteration100 RMS(Cart)=  0.00003191 RMS(Int)=  0.03136630
 New curvilinear step not converged.
 Iteration  1 RMS(Cart)=  0.03516813 RMS(Int)=  0.00551024
 Iteration  2 RMS(Cart)=  0.00203521 RMS(Int)=  0.00032087
 Iteration  3 RMS(Cart)=  0.00005963 RMS(Int)=  0.00031269
 Iteration  4 RMS(Cart)=  0.00000003 RMS(Int)=  0.00031269
 Variable       Old X    -DE/DX   Delta X   Delta X   Delta X     New X
                                 (Linear)    (Quad)   (Total)
    R1        2.07080   0.00004   0.00000   0.00258   0.00232   2.07313
    R2        2.84273   0.00231   0.00000   0.00707   0.00636   2.84910
    R3        2.75802   0.00103   0.00000  -0.01027  -0.00924   2.74878
    R4        2.91797   0.00051   0.00000   0.00223   0.00201   2.91998
    R5        2.42589   0.02068   0.00000   0.03455   0.03114   2.45703
    R6        2.47292  -0.00130   0.00000   0.00160   0.00139   2.47432
    R7        3.03659   0.00242   0.00000  -0.01142  -0.01031   3.02628
    R8        2.54966   0.00300   0.00000  -0.01947  -0.01767   2.53199
    R9        2.59387  -0.00131   0.00000  -0.02426  -0.02166   2.57221
   R10        1.91999   0.00052   0.00000  -0.00472  -0.00424   1.91575
   R11        1.92206   0.00058   0.00000  -0.00487  -0.00439   1.91767
   R12        2.06378   0.00014   0.00000   0.00034   0.00031   2.06409
   R13        2.06596   0.00011   0.00000  -0.00023  -0.00021   2.06575
   R14        2.07107   0.00020   0.00000   0.00074   0.00066   2.07174
    A1        1.85636   0.00003   0.00000  -0.00881  -0.00793   1.84843
    A2        1.89218  -0.00003   0.00000  -0.00061  -0.00054   1.89164
    A3        1.88784  -0.00007   0.00000  -0.00463  -0.00416   1.88368
    A4        1.99356   0.00006   0.00000   0.00171   0.00150   1.99506
    A5        1.90253   0.00002   0.00000   0.00579   0.00519   1.90771
    A6        1.92745  -0.00001   0.00000   0.00553   0.00495   1.93239
    A7        2.21224   0.00043   0.00000  -0.00759  -0.00739   2.20485
    A8        2.16317   0.00226   0.00000   0.02476   0.02246   2.18563
    A9        3.11966   0.00149   0.00000   0.02234   0.01946   3.13913
   A10        1.90743  -0.00266   0.00000  -0.01615  -0.01476   1.89267
   A11        1.77903   0.00658   0.00000   0.02498   0.02247   1.80150
   A12        1.97587   0.00114   0.00000   0.02420   0.02082   1.99669
   A13        1.96305   0.00113   0.00000   0.02529   0.02179   1.98484
   A14        1.90714   0.00046   0.00000   0.03693   0.03175   1.93889
   A15        1.89445  -0.00016   0.00000  -0.00066  -0.00060   1.89385
   A16        1.93788  -0.00005   0.00000  -0.00143  -0.00129   1.93660
   A17        1.92840   0.00005   0.00000   0.00037   0.00033   1.92873
   A18        1.91455   0.00012   0.00000   0.00281   0.00253   1.91708
   A19        1.89341   0.00003   0.00000   0.00013   0.00012   1.89353
   A20        1.89466   0.00001   0.00000  -0.00114  -0.00102   1.89363
    D1        2.41454  -0.00100   0.00000  -0.12366  -0.11129   2.30325
    D2       -0.75846   0.00065   0.00000  -0.07762  -0.06985  -0.82831
    D3       -1.36306  -0.00002   0.00000  -0.00452  -0.00406  -1.36712
    D4        0.32812  -0.00102   0.00000  -0.11789  -0.10610   0.22201
    D5       -2.84488   0.00063   0.00000  -0.07185  -0.06466  -2.90954
    D6        2.83370  -0.00003   0.00000   0.00125   0.00113   2.83483
    D7       -1.83693  -0.00106   0.00000  -0.13086  -0.11778  -1.95471
    D8        1.27326   0.00059   0.00000  -0.08482  -0.07634   1.19692
    D9        0.66866  -0.00007   0.00000  -0.01172  -0.01055   0.65811
   D10       -0.94391   0.00114   0.00000   0.02769   0.02527  -0.91864
   D11       -3.11635  -0.00130   0.00000  -0.06170  -0.05587   3.11096
   D12        1.12224   0.00119   0.00000   0.01723   0.01584   1.13808
   D13       -1.05020  -0.00125   0.00000  -0.07217  -0.06530  -1.11550
   D14       -3.00931   0.00125   0.00000   0.03048   0.02778  -2.98153
   D15        1.10143  -0.00119   0.00000  -0.05891  -0.05336   1.04807
   D16       -1.07818   0.00000   0.00000  -0.00308  -0.00277  -1.08095
   D17        1.02763   0.00002   0.00000  -0.00092  -0.00083   1.02680
   D18        3.13088   0.00003   0.00000  -0.00305  -0.00274   3.12814
   D19       -3.08969   0.00000   0.00000   0.00676   0.00610  -3.08359
   D20       -0.98389   0.00002   0.00000   0.00893   0.00805  -0.97584
   D21        1.11937   0.00003   0.00000   0.00680   0.00613   1.12550
   D22        0.98989  -0.00009   0.00000  -0.00343  -0.00310   0.98679
   D23        3.09569  -0.00007   0.00000  -0.00127  -0.00115   3.09454
   D24       -1.08424  -0.00006   0.00000  -0.00340  -0.00307  -1.08731
         Item               Value     Threshold  Converged?
 Maximum Force            0.020679     0.000450     NO 
 RMS     Force            0.003015     0.000300     NO 
 Maximum Displacement     0.159342     0.001800     NO 
 RMS     Displacement     0.036603     0.001200     NO 
 Predicted change in Energy=-8.465585D-04
 GradGradGradGradGradGradGradGradGradGradGradGradGradGradGradGradGradGrad

                          Input orientation:                          
 ---------------------------------------------------------------------
 Center     Atomic     Atomic              Coordinates (Angstroms)
 Number     Number      Type              X           Y           Z
 ---------------------------------------------------------------------
    1          6             0        0.667172    0.151060   -0.392395
    2          1             0        0.663758    0.495299   -1.434034
    3          6             0       -0.777783   -0.078224   -0.028221
    4          8             0       -1.266849   -1.131122    0.557231
    5          8             0       -1.757705    0.757812   -0.263162
    6          1             0       -2.313091   -0.317876    0.359078
    7          7             0        1.502543   -1.036485   -0.304455
    8          1             0        1.263471   -1.766638   -0.965855
    9          1             0        1.585496   -1.408557    0.636011
   10          6             0        1.240178    1.288494    0.482540
   11          1             0        2.267709    1.483978    0.167864
   12          1             0        0.642078    2.198014    0.382407
   13          1             0        1.250062    0.993190    1.538289
 ---------------------------------------------------------------------
                    Distance matrix (angstroms):
                    1          2          3          4          5
     1  C    0.000000
     2  H    1.097052   0.000000
     3  C    1.507676   2.093628   0.000000
     4  O    2.507233   3.215217   1.300206   0.000000
     5  O    2.502974   2.702469   1.309352   2.117087   0.000000
     6  H    3.109113   3.569052   1.601439   1.339872   1.361154
     7  N    1.454593   2.079873   2.488866   2.901894   3.721616
     8  H    2.088538   2.386462   2.810091   3.020958   3.999266
     9  H    2.081668   2.959620   2.792146   2.866889   4.083952
    10  C    1.545188   2.152830   2.490173   3.485011   3.134485
    11  H    2.156915   2.473100   3.428402   4.414007   4.113035
    12  H    2.188828   2.489812   2.714015   3.841576   2.872264
    13  H    2.185517   3.070236   2.777415   3.436570   3.513871
                    6          7          8          9         10
     6  H    0.000000
     7  N    3.939002   0.000000
     8  H    4.079970   1.013769   0.000000
     9  H    4.057741   1.014788   1.672692   0.000000
    10  C    3.901460   2.468547   3.381157   2.723395   0.000000
    11  H    4.926152   2.676061   3.586128   3.008544   1.092271
    12  H    3.881143   3.416747   4.233485   3.736536   1.093149
    13  H    3.975612   2.753004   3.726602   2.587471   1.096315
                   11         12         13
    11  H    0.000000
    12  H    1.788449   0.000000
    13  H    1.776104   1.776882   0.000000
 Stoichiometry    C3H7NO2
 Framework group  C1[X(C3H7NO2)]
 Deg. of freedom    33
 Full point group                 C1
 Largest Abelian subgroup         C1      NOp   1
 Largest concise Abelian subgroup C1      NOp   1
                         Standard orientation:                         
 ---------------------------------------------------------------------
 Center     Atomic     Atomic              Coordinates (Angstroms)
 Number     Number      Type              X           Y           Z
 ---------------------------------------------------------------------
    1          6             0        0.721791    0.085870   -0.401984
    2          1             0        0.776140    0.375214   -1.458795
    3          6             0       -0.746772   -0.017933   -0.076965
    4          8             0       -1.331014   -1.000586    0.542380
    5          8             0       -1.653697    0.874343   -0.386368
    6          1             0       -2.306878   -0.124255    0.268535
    7          7             0        1.462845   -1.153510   -0.227003
    8          1             0        1.190223   -1.897365   -0.859525
    9          1             0        1.488799   -1.481618    0.732927
   10          6             0        1.351177    1.221949    0.435156
   11          1             0        2.399634    1.325196    0.146828
   12          1             0        0.826182    2.166423    0.269855
   13          1             0        1.306505    0.981597    1.503866
 ---------------------------------------------------------------------
 Rotational constants (GHZ):      5.2522806      2.9322660      2.1708241
 Standard basis: 6-31G (6D, 7F)
 There are    68 symmetry adapted basis functions of A   symmetry.
 Integral buffers will be    262144 words long.
 Raffenetti 2 integral format.
 Two-electron integral symmetry is turned on.
    68 basis functions,   160 primitive gaussians,    68 cartesian basis functions
    24 alpha electrons       24 beta electrons
       nuclear repulsion energy       246.9437359957 Hartrees.
 NAtoms=   13 NActive=   13 NUniq=   13 SFac= 7.50D-01 NAtFMM=   80 NAOKFM=F Big=F
 One-electron integrals computed using PRISM.
 NBasis=    68 RedAO= T  NBF=    68
 NBsUse=    68 1.00D-06 NBFU=    68
 Initial guess read from the read-write file:
 Initial guess orbital symmetries:
       Occupied  (A) (A) (A) (A) (A) (A) (A) (A) (A) (A) (A) (A)
                 (A) (A) (A) (A) (A) (A) (A) (A) (A) (A) (A) (A)
       Virtual   (A) (A) (A) (A) (A) (A) (A) (A) (A) (A) (A) (A)
                 (A) (A) (A) (A) (A) (A) (A) (A) (A) (A) (A) (A)
                 (A) (A) (A) (A) (A) (A) (A) (A) (A) (A) (A) (A)
                 (A) (A) (A) (A) (A) (A) (A) (A)
 Harris functional with IExCor=  402 diagonalized for initial guess.
 ExpMin= 1.61D-01 ExpMax= 5.48D+03 ExpMxC= 8.25D+02 IAcc=1 IRadAn=         1 AccDes= 1.00D-06
 HarFok:  IExCor= 402 AccDes= 1.00D-06 IRadAn=         1 IDoV=1
 ScaDFX=  1.000000  1.000000  1.000000  1.000000
 Requested convergence on RMS density matrix=1.00D-08 within 128 cycles.
 Requested convergence on MAX density matrix=1.00D-06.
 Requested convergence on             energy=1.00D-06.
 No special actions if energy rises.
 Keep R1 integrals in memory in canonical form, NReq=     4577263.
 Integral accuracy reduced to 1.0D-05 until final iterations.
 Initial convergence to 1.0D-05 achieved.  Increase integral accuracy.
 SCF Done:  E(RB+HF-LYP) =  -323.572552262     A.U. after   13 cycles
             Convg  =    0.7579D-08             -V/T =  2.0055
             S**2   =   0.0000
 ***** Axes restored to original set *****
 -------------------------------------------------------------------
 Center     Atomic                   Forces (Hartrees/Bohr)
 Number     Number              X              Y              Z
 -------------------------------------------------------------------
    1          6           0.001038604    0.000191239    0.000296901
    2          1           0.000166285   -0.000067426   -0.000052406
    3          6           0.001628850    0.007198286   -0.006543971
    4          8          -0.002088383   -0.006312900    0.004628755
    5          8           0.001449722    0.000635568    0.001233293
    6          1          -0.001754597   -0.001134885    0.000138702
    7          7          -0.001205258   -0.000105352    0.000385780
    8          1           0.000408935   -0.000276524   -0.000376644
    9          1           0.000665351   -0.000127960    0.000343610
   10          6          -0.000297900   -0.000172064   -0.000063578
   11          1          -0.000040467    0.000065037    0.000002486
   12          1          -0.000008671    0.000100834    0.000002637
   13          1           0.000037530    0.000006148    0.000004434
 -------------------------------------------------------------------
[...]
   A17        1.92903   0.00000   0.00000   0.00000   0.00000   1.92904
   A18        1.91692   0.00000   0.00000   0.00001   0.00001   1.91692
   A19        1.89277   0.00000   0.00000   0.00000   0.00000   1.89277
   A20        1.89091   0.00000   0.00000   0.00001   0.00001   1.89093
    D1        2.09294   0.00000   0.00000   0.00030   0.00030   2.09324
    D2       -1.04136   0.00000   0.00000   0.00065   0.00065  -1.04071
    D3        0.53368   0.00000   0.00000  -0.08275  -0.08275   0.45093
    D4        0.01781   0.00000   0.00000   0.00031   0.00031   0.01812
    D5       -3.11649   0.00000   0.00000   0.00066   0.00066  -3.11583
    D6       -1.54145   0.00000   0.00000  -0.08275  -0.08275  -1.62419
    D7       -2.16831   0.00000   0.00000   0.00028   0.00028  -2.16803
    D8        0.98058   0.00000   0.00000   0.00063   0.00063   0.98121
    D9        2.55562   0.00000   0.00000  -0.08277  -0.08277   2.47284
   D10       -0.95972   0.00000   0.00000   0.00008   0.00008  -0.95963
   D11        3.04103   0.00000   0.00000  -0.00009  -0.00009   3.04094
   D12        1.08961   0.00000   0.00000   0.00003   0.00003   1.08964
   D13       -1.19283   0.00000   0.00000  -0.00015  -0.00015  -1.19298
   D14       -3.02056   0.00000   0.00000   0.00006   0.00006  -3.02049
   D15        0.98019   0.00000   0.00000  -0.00011  -0.00011   0.98008
   D16       -1.06350   0.00000   0.00000  -0.00004  -0.00004  -1.06353
   D17        1.04623   0.00000   0.00000  -0.00004  -0.00004   1.04619
   D18       -3.13972   0.00000   0.00000  -0.00003  -0.00003  -3.13975
   D19       -3.06114   0.00000   0.00000   0.00006   0.00006  -3.06109
   D20       -0.95142   0.00000   0.00000   0.00005   0.00005  -0.95137
   D21        1.14582   0.00000   0.00000   0.00006   0.00006   1.14588
   D22        1.00183   0.00000   0.00000  -0.00002  -0.00002   1.00180
   D23        3.11155   0.00000   0.00000  -0.00003  -0.00003   3.11152
   D24       -1.07440   0.00000   0.00000  -0.00001  -0.00001  -1.07441
         Item               Value     Threshold  Converged?
 Maximum Force            0.000009     0.000450     YES
 RMS     Force            0.000002     0.000300     YES
 Maximum Displacement     0.001092     0.001800     YES
 RMS     Displacement     0.000326     0.001200     YES
 Predicted change in Energy=-3.857773D-08
 Optimization completed.
    -- Stationary point found.
                           ----------------------------
                           !   Optimized Parameters   !
                           ! (Angstroms and Degrees)  !
 --------------------------                            --------------------------
 ! Name  Definition              Value          Derivative Info.                !
 --------------------------------------------------------------------------------
 ! R1    R(1,2)                  1.0989         -DE/DX =    0.0                 !
 ! R2    R(1,3)                  1.5101         -DE/DX =    0.0                 !
 ! R3    R(1,7)                  1.4525         -DE/DX =    0.0                 !
 ! R4    R(1,10)                 1.5432         -DE/DX =    0.0                 !
 ! R5    R(3,4)                  1.3073         -DE/DX =    0.0                 !
 ! R6    R(3,5)                  1.3084         -DE/DX =    0.0                 !
 ! R7    R(3,6)                  1.6084         -DE/DX =    0.0                 !
 ! R8    R(4,6)                  1.3517         -DE/DX =    0.0                 !
 ! R9    R(5,6)                  1.3578         -DE/DX =    0.0                 !
 ! R10   R(7,8)                  1.0134         -DE/DX =    0.0                 !
 ! R11   R(7,9)                  1.0143         -DE/DX =    0.0                 !
 ! R12   R(10,11)                1.0922         -DE/DX =    0.0                 !
 ! R13   R(10,12)                1.0928         -DE/DX =    0.0                 !
 ! R14   R(10,13)                1.0965         -DE/DX =    0.0                 !
 ! A1    A(2,1,3)              105.6236         -DE/DX =    0.0                 !
 ! A2    A(2,1,7)              108.2234         -DE/DX =    0.0                 !
 ! A3    A(2,1,10)             107.7999         -DE/DX =    0.0                 !
 ! A4    A(3,1,7)              114.3766         -DE/DX =    0.0                 !
 ! A5    A(3,1,10)             109.53           -DE/DX =    0.0                 !
 ! A6    A(7,1,10)             110.9493         -DE/DX =    0.0                 !
 ! A7    A(1,3,4)              125.9472         -DE/DX =    0.0                 !
 ! A8    A(1,3,5)              125.6874         -DE/DX =    0.0                 !
 ! A9    A(1,3,6)              179.7346         -DE/DX =    0.0                 !
 ! A10   A(4,3,5)              108.3644         -DE/DX =    0.0                 !
 ! A11   A(4,6,5)              103.0364         -DE/DX =    0.0                 !
 ! A12   A(1,7,8)              114.8999         -DE/DX =    0.0                 !
 ! A13   A(1,7,9)              114.2841         -DE/DX =    0.0                 !
 ! A14   A(8,7,9)              111.5186         -DE/DX =    0.0                 !
 ! A15   A(1,10,11)            108.7777         -DE/DX =    0.0                 !
 ! A16   A(1,10,12)            110.8816         -DE/DX =    0.0                 !
 ! A17   A(1,10,13)            110.5255         -DE/DX =    0.0                 !
 ! A18   A(11,10,12)           109.8312         -DE/DX =    0.0                 !
 ! A19   A(11,10,13)           108.4479         -DE/DX =    0.0                 !
 ! A20   A(12,10,13)           108.3413         -DE/DX =    0.0                 !
 ! D1    D(2,1,3,4)            119.9164         -DE/DX =    0.0                 !
 ! D2    D(2,1,3,5)            -59.6656         -DE/DX =    0.0                 !
 ! D3    D(2,1,3,6)             30.5775         -DE/DX =    0.0                 !
 ! D4    D(7,1,3,4)              1.0205         -DE/DX =    0.0                 !
 ! D5    D(7,1,3,5)           -178.5615         -DE/DX =    0.0                 !
 ! D6    D(7,1,3,6)            -88.3183         -DE/DX =    0.0                 !
 ! D7    D(10,1,3,4)          -124.2351         -DE/DX =    0.0                 !
 ! D8    D(10,1,3,5)            56.1829         -DE/DX =    0.0                 !
 ! D9    D(10,1,3,6)           146.426          -DE/DX =    0.0                 !
 ! D10   D(2,1,7,8)            -54.9877         -DE/DX =    0.0                 !
 ! D11   D(2,1,7,9)            174.2381         -DE/DX =    0.0                 !
 ! D12   D(3,1,7,8)             62.43           -DE/DX =    0.0                 !
 ! D13   D(3,1,7,9)            -68.3442         -DE/DX =    0.0                 !
 ! D14   D(10,1,7,8)          -173.0651         -DE/DX =    0.0                 !
 ! D15   D(10,1,7,9)            56.1607         -DE/DX =    0.0                 !
 ! D16   D(2,1,10,11)          -60.9338         -DE/DX =    0.0                 !
 ! D17   D(2,1,10,12)           59.9446         -DE/DX =    0.0                 !
 ! D18   D(2,1,10,13)         -179.8926         -DE/DX =    0.0                 !
 ! D19   D(3,1,10,11)         -175.3906         -DE/DX =    0.0                 !
 ! D20   D(3,1,10,12)          -54.5122         -DE/DX =    0.0                 !
 ! D21   D(3,1,10,13)           65.6506         -DE/DX =    0.0                 !
 ! D22   D(7,1,10,11)           57.4004         -DE/DX =    0.0                 !
 ! D23   D(7,1,10,12)          178.2788         -DE/DX =    0.0                 !
 ! D24   D(7,1,10,13)          -61.5584         -DE/DX =    0.0                 !
 --------------------------------------------------------------------------------
 GradGradGradGradGradGradGradGradGradGradGradGradGradGradGradGradGradGrad


 Test job not archived.
 1|1|UNPC-UNK|Freq|RB3LYP|6-31G|C3H7N1O2|PCUSER|01-Apr-2016|0||#N Geom=
 AllCheck Guess=Read SCRF=Check Test GenChk RB3LYP/6-31G Freq||Ala-R-op
 t-freq-ts1-6-31g||0,1|C,0.6682168534,0.1431620133,-0.3894749332|H,0.66
 73611203,0.4704946441,-1.4385334166|C,-0.7820514403,-0.0781088865,-0.0
 312885975|O,-1.3109601299,-1.2056148062,0.3663657624|O,-1.725547962,0.
 8273438875,-0.0741127697|H,-2.3281150087,-0.3156611348,0.3431381528|N,
 1.4994215503,-1.0433947692,-0.2845514664|H,1.2414885692,-1.8013317939,
 -0.9058202639|H,1.6396829159,-1.3718574099,0.6648379147|C,1.2403741734
 ,1.2948263661,0.4635774653|H,2.2627301812,1.4991683157,0.138013329|H,0
 .6311464869,2.1961761267,0.3599973746|H,1.2632912004,1.0137428371,1.52
 31483885||Version=IA32W-G03RevE.01|State=1-A|HF=-323.5727615|RMSD=1.05
 0e-009|RMSF=2.376e-005|ZeroPoint=0.1028892|Thermal=0.1097365|Dipole=0.
 4607028,-0.0645368,0.0054838|DipoleDeriv=0.4175933,-0.1789357,-0.03404
 62,-0.3049137,0.4340399,0.000346,-0.0154737,-0.033288,0.1942061,0.0097
 99,0.0359131,-0.0262485,0.0361628,0.0451056,0.0311073,-0.0253373,0.042
 674,-0.0664321,0.848383,0.0607271,-0.0801388,-0.0141393,0.906845,-0.18
 59367,-0.1271667,-0.2447962,0.2558369,-0.6058604,-0.0924117,0.0460348,
 -0.0238838,-0.9093269,0.1305001,0.066135,0.1701482,-0.3953197,-0.74597
 55,0.2215374,-0.0122524,0.1255995,-0.8226991,0.0826377,0.0135613,0.078
 6754,-0.405169,0.2571353,-0.0548661,0.0264593,-0.0499866,0.5473151,-0.
 0476728,0.024604,-0.0484138,0.3151423,-0.8797447,0.1012859,0.151624,0.
 065632,-0.4872294,0.0131964,0.1510219,-0.014083,-0.2361139,0.2971998,-
 0.098812,-0.1516028,0.0128531,0.0596355,-0.0672216,-0.1200107,-0.00123
 72,0.1905576,0.3626407,-0.0103086,0.060639,0.071016,0.1444897,0.020151
 2,-0.0270379,0.0400182,0.0356964,0.0181524,0.0039667,-0.0031325,0.0826
 293,0.013814,-0.04144,0.0761755,-0.0102778,0.1088956,-0.0959128,-0.065
 5541,0.0369554,-0.0568077,0.0749725,-0.0071746,0.0362136,-0.0077267,0.
 0556321,0.041867,0.098787,-0.0169884,0.0648504,-0.0384309,-0.0122333,-
 0.0218709,0.0054514,0.0695733,0.0747228,-0.0213291,0.002697,-0.009012,
 0.031469,0.0837403,-0.0308138,0.0228553,-0.1225056|Polar=48.3440712,-0
 .5366635,47.1208139,-1.152991,-1.3683052,33.8969655|PG=C01 [X(C3H7N1O2
 )]|NImag=1||0.43899349,-0.02442363,0.50623226,0.01649477,-0.04415057,0
 .57562815,-0.04740295,-0.00180241,0.01116192,0.06198690,0.00136562,-0.
 06357322,0.06844948,-0.00212457,0.08265811,0.00478344,0.07345728,-0.27
 833711,-0.00536880,-0.07863985,0.30504422,-0.16370362,-0.01266619,0.02
 174673,-0.00563194,-0.00566276,0.00340068,0.74262396,-0.02372102,-0.07
 958120,0.00385478,-0.01102126,-0.00170494,0.00499073,0.00596196,0.6006
 0313,0.02068354,0.00130751,-0.10023944,0.03787817,0.01097977,-0.011232
 42,-0.10967896,-0.09990743,0.25596489,-0.00637188,-0.02948231,0.011995
 81,-0.00435405,-0.00094884,0.00072402,-0.16536063,-0.05586729,0.033882
 39,0.10167194,-0.00054312,-0.00604846,0.00557589,-0.00046241,0.0006478
 1,-0.00201051,-0.10517381,-0.34691429,0.09237839,0.09581300,0.50673295
 ,0.00482866,0.01153281,0.01034909,-0.00133618,-0.00061488,-0.00018200,
 0.04597015,0.08250794,-0.09981617,-0.03545094,-0.13714641,0.09136523,-
 0.01253306,0.02279094,-0.00190667,-0.00004235,0.00087516,-0.00034927,-
 0.25655743,0.11587259,0.00720651,0.08016958,0.00881113,-0.00868078,0.2
 3493858,0.00050133,0.00756123,-0.00002562,0.00060292,-0.00032734,-0.00
 041373,0.16037288,-0.27781825,0.02172544,0.08092309,-0.14365126,0.0332
 1860,-0.22956817,0.40251622,0.00515929,-0.00482535,0.00895939,-0.00267
 276,-0.00076813,0.00138615,-0.00365728,0.02984408,-0.07717144,-0.02736
 757,0.04766751,0.04173057,0.02250230,-0.04407977,0.05641561,0.00419984
 ,0.00238360,0.00029099,-0.00020141,-0.00046026,0.00032073,-0.10076164,
 -0.04195231,0.03624567,-0.00425961,0.00192124,-0.00762165,-0.03587475,
 -0.00954995,0.00190638,0.13666521,0.00116123,-0.00559042,0.00405898,-0
 .00151839,-0.00056610,0.00100274,-0.04160185,0.12774244,-0.01835933,-0
 .08459386,-0.01828014,0.01150763,0.07708435,0.00652268,-0.02725437,0.0
 4637571,-0.10513114,0.00092836,0.00302573,0.00904840,-0.00108615,-0.00
 025001,-0.00005193,0.03610342,-0.01805644,0.02212364,0.01466151,-0.005
 85884,-0.04112591,-0.02041767,-0.00984657,-0.03224138,-0.03068994,0.02
 921542,0.04298774,-0.09834659,0.04760430,-0.01725511,-0.00528893,0.009
 76114,-0.00259875,-0.03389398,0.03300344,0.00032857,-0.00096829,0.0026
 0634,-0.00077386,-0.00943990,0.00124578,0.00156895,0.00109475,0.000891
 72,-0.00045065,0.20233801,0.09051235,-0.18491181,0.00058140,0.01123846
 ,-0.01441010,0.00119616,0.01573876,-0.01016560,-0.00218481,-0.00537563
 ,0.00415905,-0.00005369,0.00194887,0.00454994,-0.00055774,0.00130820,-
 0.00345372,0.00075217,-0.07585731,0.60670789,-0.03011945,0.01403167,-0
 .10605296,-0.02305764,0.03010380,-0.00035326,0.00565758,-0.00383350,0.
 00444326,0.00138158,-0.00226640,-0.00060045,0.00140691,-0.00123857,0.0
 0113811,-0.00060879,0.00080634,-0.00031329,0.16393289,0.06534998,0.694
 62630,-0.00318939,0.02409595,0.01708105,0.00062874,-0.00082047,-0.0001
 0296,0.00142586,0.00445799,0.00125134,0.00117426,-0.00194165,-0.000655
 23,-0.00000458,-0.00189359,0.00001570,-0.00057322,0.00127081,-0.000337
 81,-0.04555939,-0.07916830,-0.10069500,0.04991493,-0.01512167,-0.02110
 784,-0.01872456,-0.00027320,0.00015287,0.00033392,-0.00041171,0.000219
 13,-0.00000020,-0.00018887,0.00059727,-0.00003446,-0.00035350,0.000440
 70,0.00015319,0.00014796,-0.00019746,-0.00007184,-0.04912088,-0.268517
 49,-0.18541088,0.05938954,0.28336395,0.00068467,0.00498876,0.00485831,
 0.00041975,0.00012072,0.00032629,-0.00032800,-0.00141788,-0.00009262,-
 0.00135303,0.00113344,0.00019808,-0.00039788,0.00131828,-0.00020965,0.
 00033440,-0.00074381,0.00022052,-0.06825583,-0.16269251,-0.20100122,0.
 08158476,0.18762326,0.21472148,-0.01013622,0.01334718,-0.02207672,-0.0
 0040831,0.00116714,0.00097840,0.00035138,0.00330159,-0.00415379,0.0020
 4095,-0.00175867,0.00106814,0.00013656,-0.00217300,0.00118601,-0.00065
 943,0.00160463,-0.00013640,-0.01755569,0.01952271,-0.03140854,-0.00328
 583,0.00136498,-0.01176086,0.02901200,0.00196657,-0.01086995,0.0335802
 5,0.00419904,-0.00492446,-0.00000476,-0.00092839,0.00046733,-0.0000582
 7,0.00048711,0.00015229,-0.00003736,0.00000550,-0.00024115,-0.00016665
 ,0.00003285,0.00013243,0.00006084,0.03636394,-0.10023199,0.11031459,-0
 .00660525,0.00998666,-0.03229933,-0.03499782,0.10438257,0.00742146,-0.
 00275455,-0.00185969,-0.00065034,0.00008288,0.00187914,0.00037514,-0.0
 0067960,0.00084763,0.00024633,-0.00036164,-0.00011861,0.00036545,-0.00
 034746,-0.00004651,-0.00005728,0.00002045,-0.00005381,-0.07624192,0.09
 917519,-0.39295184,0.00273388,0.01515662,-0.02055737,0.06534515,-0.111
 39107,0.41106240,-0.09185175,-0.02966429,-0.02823932,0.00036738,-0.001
 92670,-0.00083477,-0.02085132,-0.02855825,-0.01983328,-0.00326740,0.00
 062987,0.00228884,0.00025082,-0.00024479,0.00063502,0.00052963,-0.0004
 7475,0.00143771,0.00579365,0.01970377,0.01348109,-0.00120790,0.0051268
 7,-0.00068332,0.00055148,-0.00037457,0.00019346,0.58391778,-0.01594381
 ,-0.11846477,-0.03414315,0.00208298,0.00346274,0.00239847,-0.02008446,
 -0.00788287,-0.00133493,0.00118274,0.00132155,-0.00176740,0.00185672,-
 0.00254497,-0.00034370,-0.00018431,0.00025502,0.00024733,-0.00499685,-
 0.03561413,-0.02428296,0.00078390,-0.00450882,0.00124960,-0.00097075,0
 .00161833,0.00016850,-0.04480857,0.52017951,-0.01923506,-0.03871376,-0
 .10816404,-0.01407078,-0.02795909,-0.01998104,-0.00168487,0.00554012,0
 .00779289,0.00309904,0.00154282,-0.00336436,0.00109062,-0.00086164,-0.
 00003679,-0.00001275,0.00015342,-0.00058756,0.00066614,-0.00051368,0.0
 0176581,-0.00089803,0.00205216,0.00064049,0.00045909,0.00198940,0.0019
 8833,-0.02961677,-0.05130154,0.53855686,-0.01400812,-0.00183697,0.0041
 0267,0.00026576,0.00048303,-0.00008539,0.00043600,-0.00091201,-0.00234
 281,-0.00038792,-0.00042754,0.00032535,-0.00022758,-0.00047909,0.00020
 069,0.00009796,0.00020710,0.00004102,0.00194533,0.00143408,0.00077605,
 0.00023895,0.00010746,-0.00009362,-0.00027050,-0.00016428,-0.00005277,
 -0.28712334,-0.04698988,0.07758090,0.31243453,-0.02783178,-0.00802797,
 0.00481648,0.00083644,0.00099219,0.00073108,0.00111805,-0.00381368,-0.
 00381285,-0.00122778,0.00015272,0.00080775,-0.00007352,0.00082906,0.00
 024371,-0.00000316,-0.00032360,0.00046376,0.00122225,0.00235103,0.0007
 4625,0.00020349,0.00038085,-0.00004490,-0.00057041,-0.00053604,0.00021
 521,-0.04359697,-0.05710905,0.01666237,0.05256397,0.06023822,-0.021374
 75,-0.00717612,0.00351335,-0.00034905,0.00081381,0.00118561,-0.0001081
 2,-0.00355680,-0.00264965,-0.00115778,-0.00024490,0.00098431,-0.000444
 06,0.00041850,0.00025333,0.00002129,-0.00021705,0.00014042,0.00028635,
 0.00167865,0.00026214,-0.00016937,0.00022597,-0.00012820,0.00034276,0.
 00005859,-0.00007238,0.08042727,0.01734706,-0.07543449,-0.08448929,-0.
 01465194,0.08069637,0.00628333,-0.01291083,0.00135369,0.00050122,0.000
 47319,0.00052612,0.00061711,-0.00113540,0.00044272,-0.00021828,0.00058
 878,-0.00031062,-0.00040033,0.00011128,-0.00001424,-0.00011803,-0.0004
 5770,0.00010301,-0.00005307,-0.00184423,-0.00176989,0.00071122,-0.0007
 4839,-0.00012531,-0.00037634,-0.00015573,0.00006346,-0.13646529,0.1273
 5694,-0.01524235,-0.01499715,0.02628444,-0.00445955,0.14463834,0.01476
 182,-0.01922537,0.00424369,0.00023960,0.00104983,-0.00005135,0.0016318
 0,-0.00245835,0.00007701,-0.00092010,0.00130093,-0.00022440,0.00062080
 ,0.00213207,0.00016963,-0.00001938,-0.00115052,0.00040198,-0.00201680,
 -0.00325828,-0.00446186,0.00019939,-0.00115067,0.00057732,-0.00003141,
 0.00053344,-0.00004613,0.12232806,-0.23174147,0.02253912,-0.00508957,0
 .00672389,-0.00052339,-0.13662013,0.25393124,0.01146050,-0.01570215,0.
 00125540,0.00076466,0.00035713,0.00053654,0.00006250,0.00023358,0.0005
 7324,-0.00017379,0.00019881,0.00008721,0.00028317,0.00008987,-0.000586
 85,-0.00000133,-0.00024999,0.00013619,-0.00118094,-0.00350394,-0.00269
 219,0.00003204,-0.00124699,0.00063980,-0.00010074,-0.00057301,0.000015
 99,-0.01620772,0.02420820,-0.05275098,0.00586136,-0.00924106,0.0007324
 4,0.01825413,-0.02269487,0.05494643,-0.00193309,0.00256467,-0.01474981
 ,-0.00042007,-0.00218167,-0.00139343,0.00130626,0.00056996,-0.00191007
 ,0.00013131,-0.00006316,0.00034811,-0.00041557,0.00015131,0.00053751,-
 0.00013931,0.00005101,-0.00015640,-0.00006590,0.00083827,0.00102320,-0
 .00027365,0.00008139,-0.00002573,0.00059994,0.00017103,0.00025799,-0.0
 5064374,0.00071535,-0.00213518,0.00159609,-0.00892502,0.03147430,-0.00
 012274,0.00491593,-0.01905384,0.05038048,-0.00268389,0.00360752,-0.028
 11705,-0.00199722,-0.00345740,-0.00299020,0.00170571,0.00130717,-0.000
 81030,0.00019875,-0.00017043,0.00030388,0.00012912,0.00003107,-0.00008
 240,-0.00000017,0.00004053,-0.00008353,-0.00070708,0.00279522,0.000141
 54,0.00002819,0.00034085,0.00018705,0.00019380,-0.00046945,0.00076160,
 0.00186033,-0.06897107,0.06887031,0.00110372,-0.00185762,0.00582763,-0
 .00094223,-0.00668674,0.02812443,0.00111096,0.07349034,-0.00171542,0.0
 0497876,-0.01895885,-0.00163279,-0.00267562,-0.00022019,0.00214103,0.0
 0048042,-0.00054383,-0.00048755,-0.00060816,0.00049300,-0.00065863,0.0
 0004267,0.00040948,-0.00012773,0.00005958,-0.00028302,-0.00002586,0.00
 077282,0.00172960,0.00015963,-0.00005618,0.00038409,0.00025750,-0.0014
 7321,-0.00013328,-0.00304820,0.06755452,-0.29042513,-0.00182416,0.0030
 6413,-0.00948326,0.00117883,-0.00000676,-0.00289322,0.00578334,-0.0721
 3296,0.31992461||0.00001099,-0.00005936,0.00001749,-0.00000365,0.00000
 005,-0.00000059,-0.00001689,0.00010884,-0.00003659,0.00000428,-0.00000
 416,0.00000546,-0.00000808,0.00000474,0.00000660,0.00001248,-0.0000608
 3,0.00002072,-0.00000081,0.00000088,-0.00000059,0.00000176,0.00000079,
 -0.00000179,0.00000472,0.00000216,-0.00000173,-0.00000140,0.00000178,-
 0.00000213,-0.00000203,0.00000291,-0.00000394,-0.00000278,0.00000037,-
 0.00000110,0.00000142,0.00000182,-0.00000180|||@


 COLLEGE PROFESSOR: SOMEONE WHO TALKS IN OTHER PEOPLE'S SLEEP.
 Job cpu time:  0 days  0 hours  2 minutes 19.0 seconds.
 File lengths (MBytes):  RWF=     16 Int=      0 D2E=      0 Chk=      5 Scr=      1
 Normal termination of Gaussian 03 at Fri Apr 01 10:57:04 2016.
