 Entering Link 1 = c:\G03W04\l1.exe PID=      3340.
  
 Copyright (c) 1988,1990,1992,1993,1995,1998,2003,2004,2007, Gaussian, Inc.
                  All Rights Reserved.
  
 This is the Gaussian(R) 03 program.  It is based on the
 the Gaussian(R) 98 system (copyright 1998, Gaussian, Inc.),
 the Gaussian(R) 94 system (copyright 1995, Gaussian, Inc.),
 the Gaussian 92(TM) system (copyright 1992, Gaussian, Inc.),
 the Gaussian 90(TM) system (copyright 1990, Gaussian, Inc.),
 the Gaussian 88(TM) system (copyright 1988, Gaussian, Inc.),
 the Gaussian 86(TM) system (copyright 1986, Carnegie Mellon
 University), and the Gaussian 82(TM) system (copyright 1983,
 Carnegie Mellon University). Gaussian is a federally registered
 trademark of Gaussian, Inc.
  
 This software contains proprietary and confidential information,
 including trade secrets, belonging to Gaussian, Inc.
  
 This software is provided under written license and may be
 used, copied, transmitted, or stored only in accord with that
 written license.
  
 The following legend is applicable only to US Government
 contracts under FAR:
  
                    RESTRICTED RIGHTS LEGEND
  
 Use, reproduction and disclosure by the US Government is
 subject to restrictions as set forth in subparagraphs (a)
 and (c) of the Commercial Computer Software - Restricted
 Rights clause in FAR 52.227-19.
  
 Gaussian, Inc.
 340 Quinnipiac St., Bldg. 40, Wallingford CT 06492
  
  
 ---------------------------------------------------------------
 Warning -- This program may not be used in any manner that
 competes with the business of Gaussian, Inc. or will provide
 assistance to any competitor of Gaussian, Inc.  The licensee
 of this program is prohibited from giving any competitor of
 Gaussian, Inc. access to this program.  By using this program,
 the user acknowledges that Gaussian, Inc. is engaged in the
 business of creating and licensing software in the field of
 computational chemistry and represents and warrants to the
 licensee that it is not a competitor of Gaussian, Inc. and that
 it will not use this program in any manner prohibited above.
 ---------------------------------------------------------------
  

 Cite this work as:
 Gaussian 03, Revision E.01,
 M. J. Frisch, G. W. Trucks, H. B. Schlegel, G. E. Scuseria, 
 M. A. Robb, J. R. Cheeseman, J. A. Montgomery, Jr., T. Vreven, 
 K. N. Kudin, J. C. Burant, J. M. Millam, S. S. Iyengar, J. Tomasi, 
 V. Barone, B. Mennucci, M. Cossi, G. Scalmani, N. Rega, 
 G. A. Petersson, H. Nakatsuji, M. Hada, M. Ehara, K. Toyota, 
 R. Fukuda, J. Hasegawa, M. Ishida, T. Nakajima, Y. Honda, O. Kitao, 
 H. Nakai, M. Klene, X. Li, J. E. Knox, H. P. Hratchian, J. B. Cross, 
 V. Bakken, C. Adamo, J. Jaramillo, R. Gomperts, R. E. Stratmann, 
 O. Yazyev, A. J. Austin, R. Cammi, C. Pomelli, J. W. Ochterski, 
 P. Y. Ayala, K. Morokuma, G. A. Voth, P. Salvador, J. J. Dannenberg, 
 V. G. Zakrzewski, S. Dapprich, A. D. Daniels, M. C. Strain, 
 O. Farkas, D. K. Malick, A. D. Rabuck, K. Raghavachari, 
 J. B. Foresman, J. V. Ortiz, Q. Cui, A. G. Baboul, S. Clifford, 
 J. Cioslowski, B. B. Stefanov, G. Liu, A. Liashenko, P. Piskorz, 
 I. Komaromi, R. L. Martin, D. J. Fox, T. Keith, M. A. Al-Laham, 
 C. Y. Peng, A. Nanayakkara, M. Challacombe, P. M. W. Gill, 
 B. Johnson, W. Chen, M. W. Wong, C. Gonzalez, and J. A. Pople, 
 Gaussian, Inc., Wallingford CT, 2004.
 
 ******************************************
 Gaussian 03:  IA32W-G03RevE.01 11-Sep-2007
                29-Mar-2016 
 ******************************************
 %chk=E:\YangJ\Amiano\Ala\opt-rs\r\Ala-R-opt-freq-6-311gdp.chk
 ------------------------------
 # opt freq b3lyp/6-311++g(d,p)
 ------------------------------
 1/14=-1,18=20,26=3,38=1/1,3;
 2/9=110,17=6,18=5,40=1/2;
 3/5=4,6=6,7=1111,11=2,16=1,25=1,30=1,74=-5/1,2,3;
 4//1;
 5/5=2,38=5/2;
 6/7=2,8=2,9=2,10=2,28=1/1;
 7//1,2,3,16;
 1/14=-1,18=20/3(3);
 2/9=110/2;
 6/7=2,8=2,9=2,10=2,19=2,28=1/1;
 99//99;
 2/9=110/2;
 3/5=4,6=6,7=1111,11=2,16=1,25=1,30=1,74=-5/1,2,3;
 4/5=5,16=3/1;
 5/5=2,38=5/2;
 7//1,2,3,16;
 1/14=-1,18=20/3(-5);
 2/9=110/2;
 6/7=2,8=2,9=2,10=2,19=2,28=1/1;
 99/9=1/99;
 ----------------------------
 Ala-R-opt-freq-6-311++g(d,p)
 ----------------------------
 Symbolic Z-matrix:
 Charge =  0 Multiplicity = 1
 C                     0.66545   0.13696  -0.39831 
 H                     0.64283   0.49218  -1.43313 
 C                    -0.78114  -0.17245  -0.00205 
 O                    -1.14527  -1.13175   0.63091 
 O                    -1.63921   0.78382  -0.43679 
 H                    -2.52538   0.54072  -0.1279 
 N                     1.5479   -1.01754  -0.32927 
 H                     1.24068  -1.7472   -0.96438 
 H                     1.52553  -1.42019   0.60338 
 C                     1.2032    1.27029   0.49052 
 H                     2.21803   1.5179    0.17646 
 H                     0.57731   2.16125   0.41941 
 H                     1.23645   0.9528    1.53716 
 

 GradGradGradGradGradGradGradGradGradGradGradGradGradGradGradGradGradGrad
 Berny optimization.
 Initialization pass.
                           ----------------------------
                           !    Initial Parameters    !
                           ! (Angstroms and Degrees)  !
 --------------------------                            --------------------------
 ! Name  Definition              Value          Derivative Info.                !
 --------------------------------------------------------------------------------
 ! R1    R(1,2)                  1.0943         estimate D2E/DX2                !
 ! R2    R(1,3)                  1.5315         estimate D2E/DX2                !
 ! R3    R(1,7)                  1.4548         estimate D2E/DX2                !
 ! R4    R(1,10)                 1.5374         estimate D2E/DX2                !
 ! R5    R(3,4)                  1.2056         estimate D2E/DX2                !
 ! R6    R(3,5)                  1.3564         estimate D2E/DX2                !
 ! R7    R(5,6)                  0.9694         estimate D2E/DX2                !
 ! R8    R(7,8)                  1.015          estimate D2E/DX2                !
 ! R9    R(7,9)                  1.0161         estimate D2E/DX2                !
 ! R10   R(10,11)                1.0908         estimate D2E/DX2                !
 ! R11   R(10,12)                1.0912         estimate D2E/DX2                !
 ! R12   R(10,13)                1.0942         estimate D2E/DX2                !
 ! A1    A(2,1,3)              106.9022         estimate D2E/DX2                !
 ! A2    A(2,1,7)              108.3622         estimate D2E/DX2                !
 ! A3    A(2,1,10)             108.3393         estimate D2E/DX2                !
 ! A4    A(3,1,7)              113.6004         estimate D2E/DX2                !
 ! A5    A(3,1,10)             109.2527         estimate D2E/DX2                !
 ! A6    A(7,1,10)             110.2061         estimate D2E/DX2                !
 ! A7    A(1,3,4)              125.5845         estimate D2E/DX2                !
 ! A8    A(1,3,5)              111.8504         estimate D2E/DX2                !
 ! A9    A(4,3,5)              122.5605         estimate D2E/DX2                !
 ! A10   A(3,5,6)              107.4194         estimate D2E/DX2                !
 ! A11   A(1,7,8)              110.9287         estimate D2E/DX2                !
 ! A12   A(1,7,9)              110.1631         estimate D2E/DX2                !
 ! A13   A(8,7,9)              106.4272         estimate D2E/DX2                !
 ! A14   A(1,10,11)            109.0446         estimate D2E/DX2                !
 ! A15   A(1,10,12)            111.3223         estimate D2E/DX2                !
 ! A16   A(1,10,13)            110.4711         estimate D2E/DX2                !
 ! A17   A(11,10,12)           109.2407         estimate D2E/DX2                !
 ! A18   A(11,10,13)           108.2393         estimate D2E/DX2                !
 ! A19   A(12,10,13)           108.4619         estimate D2E/DX2                !
 ! D1    D(2,1,3,4)            138.1174         estimate D2E/DX2                !
 ! D2    D(2,1,3,5)            -42.6453         estimate D2E/DX2                !
 ! D3    D(7,1,3,4)             18.6416         estimate D2E/DX2                !
 ! D4    D(7,1,3,5)           -162.1211         estimate D2E/DX2                !
 ! D5    D(10,1,3,4)          -104.8523         estimate D2E/DX2                !
 ! D6    D(10,1,3,5)            74.385          estimate D2E/DX2                !
 ! D7    D(2,1,7,8)            -57.4355         estimate D2E/DX2                !
 ! D8    D(2,1,7,9)           -175.0144         estimate D2E/DX2                !
 ! D9    D(3,1,7,8)             61.2051         estimate D2E/DX2                !
 ! D10   D(3,1,7,9)            -56.3738         estimate D2E/DX2                !
 ! D11   D(10,1,7,8)          -175.8228         estimate D2E/DX2                !
 ! D12   D(10,1,7,9)            66.5983         estimate D2E/DX2                !
 ! D13   D(2,1,10,11)          -61.4086         estimate D2E/DX2                !
 ! D14   D(2,1,10,12)           59.1871         estimate D2E/DX2                !
 ! D15   D(2,1,10,13)          179.756          estimate D2E/DX2                !
 ! D16   D(3,1,10,11)         -177.5263         estimate D2E/DX2                !
 ! D17   D(3,1,10,12)          -56.9306         estimate D2E/DX2                !
 ! D18   D(3,1,10,13)           63.6383         estimate D2E/DX2                !
 ! D19   D(7,1,10,11)           56.9927         estimate D2E/DX2                !
 ! D20   D(7,1,10,12)          177.5884         estimate D2E/DX2                !
 ! D21   D(7,1,10,13)          -61.8427         estimate D2E/DX2                !
 ! D22   D(1,3,5,6)           -178.1628         estimate D2E/DX2                !
 ! D23   D(4,3,5,6)              1.1012         estimate D2E/DX2                !
 --------------------------------------------------------------------------------
 Trust Radius=3.00D-01 FncErr=1.00D-07 GrdErr=1.00D-06
 Number of steps in this run=  64 maximum allowed number of steps= 100.
 GradGradGradGradGradGradGradGradGradGradGradGradGradGradGradGradGradGrad

                          Input orientation:                          
 ---------------------------------------------------------------------
 Center     Atomic     Atomic              Coordinates (Angstroms)
 Number     Number      Type              X           Y           Z
 ---------------------------------------------------------------------
    1          6             0        0.665450    0.136964   -0.398314
    2          1             0        0.642833    0.492184   -1.433125
    3          6             0       -0.781139   -0.172453   -0.002051
    4          8             0       -1.145273   -1.131754    0.630905
    5          8             0       -1.639205    0.783818   -0.436789
    6          1             0       -2.525382    0.540718   -0.127895
    7          7             0        1.547904   -1.017535   -0.329267
    8          1             0        1.240675   -1.747203   -0.964378
    9          1             0        1.525534   -1.420193    0.603377
   10          6             0        1.203198    1.270285    0.490520
   11          1             0        2.218028    1.517903    0.176463
   12          1             0        0.577309    2.161249    0.419414
   13          1             0        1.236449    0.952799    1.537158
 ---------------------------------------------------------------------
                    Distance matrix (angstroms):
                    1          2          3          4          5
     1  C    0.000000
     2  H    1.094316   0.000000
     3  C    1.531464   2.125420   0.000000
     4  O    2.438781   3.177219   1.205606   0.000000
     5  O    2.394021   2.507077   1.356366   2.247967   0.000000
     6  H    3.227623   3.426889   1.888606   2.297312   0.969445
     7  N    1.454772   2.077717   2.499135   2.861499   3.662526
     8  H    2.049731   2.364740   2.737452   2.935380   3.870158
     9  H    2.041536   2.929793   2.691494   2.686478   3.994394
    10  C    1.537405   2.149386   2.502341   3.362263   3.029159
    11  H    2.155890   2.474694   3.447343   4.305693   3.974067
    12  H    2.184989   2.494388   2.732980   3.722350   2.746513
    13  H    2.176621   3.063842   2.775971   3.292302   3.492049
                    6          7          8          9         10
     6  H    0.000000
     7  N    4.365817   0.000000
     8  H    4.485250   1.014973   0.000000
     9  H    4.559589   1.016100   1.626633   0.000000
    10  C    3.849287   2.454586   3.350129   2.712067   0.000000
    11  H    4.852573   2.670819   3.594114   3.048641   1.090792
    12  H    3.542931   3.406941   4.198920   3.709407   1.091151
    13  H    4.134439   2.731806   3.680722   2.566439   1.094237
                   11         12         13
    11  H    0.000000
    12  H    1.779010   0.000000
    13  H    1.770404   1.773180   0.000000
 Stoichiometry    C3H7NO2
 Framework group  C1[X(C3H7NO2)]
 Deg. of freedom    33
 Full point group                 C1
 Largest Abelian subgroup         C1      NOp   1
 Largest concise Abelian subgroup C1      NOp   1
                         Standard orientation:                         
 ---------------------------------------------------------------------
 Center     Atomic     Atomic              Coordinates (Angstroms)
 Number     Number      Type              X           Y           Z
 ---------------------------------------------------------------------
    1          6             0        0.665450    0.136964   -0.398314
    2          1             0        0.642833    0.492184   -1.433125
    3          6             0       -0.781139   -0.172453   -0.002051
    4          8             0       -1.145273   -1.131754    0.630905
    5          8             0       -1.639205    0.783818   -0.436789
    6          1             0       -2.525382    0.540718   -0.127895
    7          7             0        1.547904   -1.017535   -0.329267
    8          1             0        1.240675   -1.747203   -0.964378
    9          1             0        1.525534   -1.420193    0.603377
   10          6             0        1.203198    1.270285    0.490520
   11          1             0        2.218028    1.517903    0.176463
   12          1             0        0.577309    2.161249    0.419414
   13          1             0        1.236449    0.952799    1.537158
 ---------------------------------------------------------------------
 Rotational constants (GHZ):      5.0556502      3.0368897      2.2636473
 Standard basis: 6-311++G(d,p) (5D, 7F)
 There are   181 symmetry adapted basis functions of A   symmetry.
 Integral buffers will be    262144 words long.
 Raffenetti 2 integral format.
 Two-electron integral symmetry is turned on.
   181 basis functions,   279 primitive gaussians,   187 cartesian basis functions
    24 alpha electrons       24 beta electrons
       nuclear repulsion energy       248.5223782077 Hartrees.
 NAtoms=   13 NActive=   13 NUniq=   13 SFac= 7.50D-01 NAtFMM=   80 NAOKFM=F Big=F
 One-electron integrals computed using PRISM.
 NBasis=   181 RedAO= T  NBF=   181
 NBsUse=   181 1.00D-06 NBFU=   181
 Harris functional with IExCor=  402 diagonalized for initial guess.
 ExpMin= 3.60D-02 ExpMax= 8.59D+03 ExpMxC= 1.30D+03 IAcc=3 IRadAn=         5 AccDes= 0.00D+00
 HarFok:  IExCor= 402 AccDes= 0.00D+00 IRadAn=         5 IDoV=1
 ScaDFX=  1.000000  1.000000  1.000000  1.000000
 Initial guess orbital symmetries:
       Occupied  (A) (A) (A) (A) (A) (A) (A) (A) (A) (A) (A) (A)
                 (A) (A) (A) (A) (A) (A) (A) (A) (A) (A) (A) (A)
       Virtual   (A) (A) (A) (A) (A) (A) (A) (A) (A) (A) (A) (A)
                 (A) (A) (A) (A) (A) (A) (A) (A) (A) (A) (A) (A)
                 (A) (A) (A) (A) (A) (A) (A) (A) (A) (A) (A) (A)
                 (A) (A) (A) (A) (A) (A) (A) (A) (A) (A) (A) (A)
                 (A) (A) (A) (A) (A) (A) (A) (A) (A) (A) (A) (A)
                 (A) (A) (A) (A) (A) (A) (A) (A) (A) (A) (A) (A)
                 (A) (A) (A) (A) (A) (A) (A) (A) (A) (A) (A) (A)
                 (A) (A) (A) (A) (A) (A) (A) (A) (A) (A) (A) (A)
                 (A) (A) (A) (A) (A) (A) (A) (A) (A) (A) (A) (A)
                 (A) (A) (A) (A) (A) (A) (A) (A) (A) (A) (A) (A)
                 (A) (A) (A) (A) (A) (A) (A) (A) (A) (A) (A) (A)
                 (A) (A) (A) (A) (A) (A) (A) (A) (A) (A) (A) (A)
                 (A) (A) (A) (A) (A) (A) (A) (A) (A) (A) (A) (A)
                 (A)
 The electronic state of the initial guess is 1-A.
 Requested convergence on RMS density matrix=1.00D-08 within 128 cycles.
 Requested convergence on MAX density matrix=1.00D-06.
 Requested convergence on             energy=1.00D-06.
 No special actions if energy rises.
 SCF Done:  E(RB+HF-LYP) =  -323.856079572     A.U. after   13 cycles
             Convg  =    0.4675D-08             -V/T =  2.0038
             S**2   =   0.0000

 **********************************************************************

            Population analysis using the SCF density.

 **********************************************************************

 Orbital symmetries:
       Occupied  (A) (A) (A) (A) (A) (A) (A) (A) (A) (A) (A) (A)
                 (A) (A) (A) (A) (A) (A) (A) (A) (A) (A) (A) (A)
       Virtual   (A) (A) (A) (A) (A) (A) (A) (A) (A) (A) (A) (A)
                 (A) (A) (A) (A) (A) (A) (A) (A) (A) (A) (A) (A)
                 (A) (A) (A) (A) (A) (A) (A) (A) (A) (A) (A) (A)
                 (A) (A) (A) (A) (A) (A) (A) (A) (A) (A) (A) (A)
                 (A) (A) (A) (A) (A) (A) (A) (A) (A) (A) (A) (A)
                 (A) (A) (A) (A) (A) (A) (A) (A) (A) (A) (A) (A)
                 (A) (A) (A) (A) (A) (A) (A) (A) (A) (A) (A) (A)
                 (A) (A) (A) (A) (A) (A) (A) (A) (A) (A) (A) (A)
                 (A) (A) (A) (A) (A) (A) (A) (A) (A) (A) (A) (A)
                 (A) (A) (A) (A) (A) (A) (A) (A) (A) (A) (A) (A)
                 (A) (A) (A) (A) (A) (A) (A) (A) (A) (A) (A) (A)
                 (A) (A) (A) (A) (A) (A) (A) (A) (A) (A) (A) (A)
                 (A) (A) (A) (A) (A) (A) (A) (A) (A) (A) (A) (A)
                 (A)
 The electronic state is 1-A.
 Alpha  occ. eigenvalues --  -19.18441 -19.12918 -14.30488 -10.31397 -10.22757
 Alpha  occ. eigenvalues --  -10.17601  -1.12533  -1.03701  -0.90537  -0.76426
 Alpha  occ. eigenvalues --   -0.67970  -0.60088  -0.52874  -0.50556  -0.49868
 Alpha  occ. eigenvalues --   -0.46480  -0.44596  -0.42751  -0.39379  -0.38849
 Alpha  occ. eigenvalues --   -0.36950  -0.34163  -0.29831  -0.26140
 Alpha virt. eigenvalues --   -0.01791  -0.01427   0.00114   0.01132   0.01886
 Alpha virt. eigenvalues --    0.04345   0.04552   0.05271   0.06682   0.07215
 Alpha virt. eigenvalues --    0.08471   0.09812   0.10154   0.10584   0.11183
 Alpha virt. eigenvalues --    0.11835   0.12920   0.13440   0.14372   0.15200
 Alpha virt. eigenvalues --    0.16072   0.16483   0.17992   0.19020   0.20106
 Alpha virt. eigenvalues --    0.20617   0.21921   0.22766   0.23108   0.24011
 Alpha virt. eigenvalues --    0.24595   0.25346   0.27164   0.28510   0.28693
 Alpha virt. eigenvalues --    0.29507   0.30969   0.31844   0.33237   0.34424
 Alpha virt. eigenvalues --    0.35251   0.37250   0.40357   0.44831   0.46129
 Alpha virt. eigenvalues --    0.48810   0.51337   0.53824   0.56724   0.57072
 Alpha virt. eigenvalues --    0.58476   0.61338   0.62649   0.64173   0.65830
 Alpha virt. eigenvalues --    0.67539   0.70139   0.71437   0.72199   0.73822
 Alpha virt. eigenvalues --    0.81364   0.84861   0.85129   0.88693   0.95632
 Alpha virt. eigenvalues --    0.95781   1.03750   1.06564   1.09363   1.12537
 Alpha virt. eigenvalues --    1.15142   1.15191   1.18086   1.20642   1.23919
 Alpha virt. eigenvalues --    1.26671   1.28351   1.29144   1.42515   1.43142
 Alpha virt. eigenvalues --    1.45772   1.50026   1.52315   1.54165   1.57567
 Alpha virt. eigenvalues --    1.59242   1.59895   1.62681   1.64559   1.66753
 Alpha virt. eigenvalues --    1.67876   1.70114   1.75228   1.79616   1.82577
 Alpha virt. eigenvalues --    1.87553   1.92117   1.92179   1.94731   1.98405
 Alpha virt. eigenvalues --    2.03803   2.07454   2.12711   2.17577   2.20404
 Alpha virt. eigenvalues --    2.30194   2.35581   2.45826   2.48334   2.51070
 Alpha virt. eigenvalues --    2.52354   2.54369   2.58234   2.60134   2.65146
 Alpha virt. eigenvalues --    2.67650   2.69339   2.72330   2.76248   2.80232
 Alpha virt. eigenvalues --    2.80930   2.86593   2.88646   2.92019   2.95382
 Alpha virt. eigenvalues --    3.00715   3.04753   3.09299   3.13033   3.17784
 Alpha virt. eigenvalues --    3.23480   3.26248   3.36552   3.56348   3.59654
 Alpha virt. eigenvalues --    3.66821   3.76443   3.80059   3.82142   4.03615
 Alpha virt. eigenvalues --    4.07195   4.11142   4.24850   4.72378   4.85499
 Alpha virt. eigenvalues --    4.95263   5.05391   5.17126   5.37821   5.59222
 Alpha virt. eigenvalues --    5.82881  23.78631  23.80395  23.95429  35.59926
 Alpha virt. eigenvalues --   49.85907  49.98929
          Condensed to atoms (all electrons):
              1          2          3          4          5          6
     1  C    7.156129   0.473906  -0.620441  -0.012064  -0.265496  -0.026899
     2  H    0.473906   0.554217  -0.074076  -0.002333   0.004143   0.001621
     3  C   -0.620441  -0.074076   5.819037   0.454289   0.261944   0.029452
     4  O   -0.012064  -0.002333   0.454289   8.058296  -0.150500  -0.001954
     5  O   -0.265496   0.004143   0.261944  -0.150500   8.075775   0.244580
     6  H   -0.026899   0.001621   0.029452  -0.001954   0.244580   0.461844
     7  N   -0.106617  -0.056362   0.059576  -0.039606   0.038864   0.001152
     8  H   -0.064457  -0.015649   0.014398  -0.002112   0.000033  -0.000391
     9  H   -0.005853   0.009309  -0.000779   0.003955  -0.001876  -0.000174
    10  C   -0.186472  -0.090844   0.070655  -0.036645  -0.045620   0.005546
    11  H   -0.020086  -0.008080  -0.005192  -0.000350  -0.002797  -0.000498
    12  H   -0.043194  -0.013867  -0.013735   0.004725   0.009511  -0.001617
    13  H    0.038308   0.009750  -0.025657  -0.003149  -0.000017  -0.000074
              7          8          9         10         11         12
     1  C   -0.106617  -0.064457  -0.005853  -0.186472  -0.020086  -0.043194
     2  H   -0.056362  -0.015649   0.009309  -0.090844  -0.008080  -0.013867
     3  C    0.059576   0.014398  -0.000779   0.070655  -0.005192  -0.013735
     4  O   -0.039606  -0.002112   0.003955  -0.036645  -0.000350   0.004725
     5  O    0.038864   0.000033  -0.001876  -0.045620  -0.002797   0.009511
     6  H    0.001152  -0.000391  -0.000174   0.005546  -0.000498  -0.001617
     7  N    6.678449   0.397836   0.378415  -0.000937  -0.009650   0.012620
     8  H    0.397836   0.461823  -0.048428   0.014524  -0.000070  -0.000070
     9  H    0.378415  -0.048428   0.441382  -0.024428   0.000926   0.000228
    10  C   -0.000937   0.014524  -0.024428   5.532078   0.395591   0.413082
    11  H   -0.009650  -0.000070   0.000926   0.395591   0.523539  -0.019742
    12  H    0.012620  -0.000070   0.000228   0.413082  -0.019742   0.548971
    13  H   -0.021522   0.000973   0.001683   0.352583  -0.034723  -0.037494
             13
     1  C    0.038308
     2  H    0.009750
     3  C   -0.025657
     4  O   -0.003149
     5  O   -0.000017
     6  H   -0.000074
     7  N   -0.021522
     8  H    0.000973
     9  H    0.001683
    10  C    0.352583
    11  H   -0.034723
    12  H   -0.037494
    13  H    0.565301
 Mulliken atomic charges:
              1
     1  C   -0.316764
     2  H    0.208265
     3  C    0.030528
     4  O   -0.272551
     5  O   -0.168544
     6  H    0.287412
     7  N   -0.332215
     8  H    0.241590
     9  H    0.245640
    10  C   -0.399114
    11  H    0.181133
    12  H    0.140582
    13  H    0.154038
 Sum of Mulliken charges=   0.00000
 Atomic charges with hydrogens summed into heavy atoms:
              1
     1  C   -0.108499
     2  H    0.000000
     3  C    0.030528
     4  O   -0.272551
     5  O    0.118868
     6  H    0.000000
     7  N    0.155015
     8  H    0.000000
     9  H    0.000000
    10  C    0.076639
    11  H    0.000000
    12  H    0.000000
    13  H    0.000000
 Sum of Mulliken charges=   0.00000
 Electronic spatial extent (au):  <R**2>=   585.8656
 Charge=     0.0000 electrons
 Dipole moment (field-independent basis, Debye):
    X=    -0.7006    Y=     1.0085    Z=    -0.4428  Tot=     1.3054
 Quadrupole moment (field-independent basis, Debye-Ang):
   XX=   -37.0831   YY=   -37.9195   ZZ=   -36.3643
   XY=    -1.6408   XZ=     1.9332   YZ=     2.5772
 Traceless Quadrupole moment (field-independent basis, Debye-Ang):
   XX=     0.0392   YY=    -0.7972   ZZ=     0.7580
   XY=    -1.6408   XZ=     1.9332   YZ=     2.5772
 Octapole moment (field-independent basis, Debye-Ang**2):
  XXX=   -40.1557  YYY=    -5.2115  ZZZ=    -1.5670  XYY=     5.3836
  XXY=     7.7898  XXZ=     3.3170  XZZ=     0.8013  YZZ=    -2.3663
  YYZ=    -2.8808  XYZ=    -4.9247
 Hexadecapole moment (field-independent basis, Debye-Ang**3):
 XXXX=  -376.4031 YYYY=  -239.4448 ZZZZ=   -94.8786 XXXY=    -4.3989
 XXXZ=    11.7063 YYYX=   -14.8340 YYYZ=     3.9388 ZZZX=     0.0551
 ZZZY=    -0.6114 XXYY=  -111.1647 XXZZ=   -87.0810 YYZZ=   -55.9207
 XXYZ=    -0.7166 YYXZ=     0.7271 ZZXY=    -4.0850
 N-N= 2.485223782077D+02 E-N=-1.255628685959D+03  KE= 3.226391907374D+02
 ***** Axes restored to original set *****
 -------------------------------------------------------------------
 Center     Atomic                   Forces (Hartrees/Bohr)
 Number     Number              X              Y              Z
 -------------------------------------------------------------------
    1          6           0.000014393    0.000022013   -0.000002868
    2          1          -0.000007160   -0.000008683    0.000000486
    3          6          -0.000009919   -0.000017841    0.000010671
    4          8           0.000001016   -0.000003187    0.000006742
    5          8          -0.000003301    0.000017785   -0.000006858
    6          1          -0.000000225    0.000002552    0.000004856
    7          7           0.000003174    0.000005529   -0.000008901
    8          1          -0.000006032   -0.000017343   -0.000005925
    9          1           0.000001285   -0.000007805    0.000008714
   10          6          -0.000010507    0.000019987    0.000002772
   11          1           0.000004798   -0.000004345   -0.000002344
   12          1           0.000004868   -0.000002563   -0.000003062
   13          1           0.000007612   -0.000006100   -0.000004282
 -------------------------------------------------------------------
 Cartesian Forces:  Max     0.000022013 RMS     0.000009012

 GradGradGradGradGradGradGradGradGradGradGradGradGradGradGradGradGradGrad
 Berny optimization.
 Internal  Forces:  Max     0.000016773 RMS     0.000005886
 Search for a local minimum.
 Step number   1 out of a maximum of  64
 All quantities printed in internal units (Hartrees-Bohrs-Radians)
 Second derivative matrix not updated -- first step.
     Eigenvalues ---    0.00271   0.00350   0.00805   0.00967   0.02269
     Eigenvalues ---    0.04358   0.04379   0.05383   0.05474   0.05706
     Eigenvalues ---    0.06216   0.16000   0.16000   0.16000   0.16000
     Eigenvalues ---    0.16000   0.16000   0.17141   0.18940   0.24999
     Eigenvalues ---    0.25000   0.28750   0.29289   0.34319   0.34328
     Eigenvalues ---    0.34680   0.34721   0.37627   0.44966   0.45150
     Eigenvalues ---    0.53491   0.53689   1.020561000.000001000.00000
     Eigenvalues --- 1000.000001000.000001000.000001000.000001000.00000
     Eigenvalues --- 1000.000001000.000001000.000001000.000001000.00000
     Eigenvalues --- 1000.000001000.000001000.000001000.000001000.00000
     Eigenvalues --- 1000.000001000.000001000.000001000.00000
 RFO step:  Lambda= 0.00000000D+00.
 Linear search not attempted -- first point.
 Iteration  1 RMS(Cart)=  0.00008305 RMS(Int)=  0.00000000
 Iteration  2 RMS(Cart)=  0.00000000 RMS(Int)=  0.00000000
 Variable       Old X    -DE/DX   Delta X   Delta X   Delta X     New X
                                 (Linear)    (Quad)   (Total)
    R1        2.06796   0.00000   0.00000  -0.00001  -0.00001   2.06795
    R2        2.89405   0.00001   0.00000   0.00004   0.00004   2.89409
    R3        2.74912   0.00001   0.00000   0.00004   0.00004   2.74916
    R4        2.90528   0.00001   0.00000   0.00003   0.00003   2.90530
    R5        2.27826   0.00001   0.00000   0.00001   0.00001   2.27827
    R6        2.56316   0.00002   0.00000   0.00003   0.00003   2.56319
    R7        1.83198   0.00000   0.00000   0.00000   0.00000   1.83199
    R8        1.91802   0.00002   0.00000   0.00004   0.00004   1.91806
    R9        1.92015   0.00001   0.00000   0.00003   0.00003   1.92018
   R10        2.06130   0.00000   0.00000   0.00001   0.00001   2.06130
   R11        2.06198   0.00000   0.00000  -0.00001  -0.00001   2.06197
   R12        2.06781   0.00000   0.00000   0.00000   0.00000   2.06781
    A1        1.86580   0.00000   0.00000  -0.00007  -0.00007   1.86573
    A2        1.89128   0.00000   0.00000  -0.00003  -0.00003   1.89125
    A3        1.89088   0.00000   0.00000   0.00006   0.00006   1.89094
    A4        1.98270   0.00000   0.00000  -0.00001  -0.00001   1.98269
    A5        1.90682   0.00000   0.00000   0.00000   0.00000   1.90682
    A6        1.92346   0.00000   0.00000   0.00004   0.00004   1.92350
    A7        2.19186   0.00000   0.00000   0.00002   0.00002   2.19188
    A8        1.95216  -0.00001   0.00000  -0.00006  -0.00006   1.95210
    A9        2.13908   0.00001   0.00000   0.00004   0.00004   2.13913
   A10        1.87482   0.00000   0.00000   0.00000   0.00000   1.87482
   A11        1.93607   0.00001   0.00000   0.00005   0.00005   1.93612
   A12        1.92271   0.00000   0.00000   0.00003   0.00003   1.92274
   A13        1.85751  -0.00001   0.00000  -0.00003  -0.00003   1.85748
   A14        1.90319   0.00000   0.00000  -0.00001  -0.00001   1.90318
   A15        1.94294   0.00000   0.00000   0.00003   0.00003   1.94297
   A16        1.92808  -0.00001   0.00000  -0.00006  -0.00006   1.92803
   A17        1.90661   0.00000   0.00000   0.00003   0.00003   1.90664
   A18        1.88913   0.00000   0.00000  -0.00004  -0.00004   1.88909
   A19        1.89302   0.00000   0.00000   0.00005   0.00005   1.89307
    D1        2.41060   0.00000   0.00000   0.00002   0.00002   2.41062
    D2       -0.74430   0.00000   0.00000   0.00004   0.00004  -0.74426
    D3        0.32536   0.00000   0.00000   0.00011   0.00011   0.32546
    D4       -2.82955   0.00000   0.00000   0.00013   0.00013  -2.82942
    D5       -1.83002   0.00000   0.00000   0.00005   0.00005  -1.82996
    D6        1.29826   0.00000   0.00000   0.00008   0.00008   1.29834
    D7       -1.00244   0.00000   0.00000  -0.00002  -0.00002  -1.00246
    D8       -3.05458   0.00000   0.00000  -0.00003  -0.00003  -3.05461
    D9        1.06823   0.00000   0.00000  -0.00013  -0.00013   1.06810
   D10       -0.98391   0.00000   0.00000  -0.00014  -0.00014  -0.98405
   D11       -3.06869   0.00000   0.00000  -0.00010  -0.00010  -3.06878
   D12        1.16236   0.00000   0.00000  -0.00011  -0.00011   1.16225
   D13       -1.07178   0.00000   0.00000   0.00000   0.00000  -1.07178
   D14        1.03301   0.00000   0.00000   0.00005   0.00005   1.03306
   D15        3.13733   0.00000   0.00000   0.00009   0.00009   3.13743
   D16       -3.09842   0.00000   0.00000   0.00005   0.00005  -3.09837
   D17       -0.99363   0.00000   0.00000   0.00009   0.00009  -0.99353
   D18        1.11070   0.00000   0.00000   0.00014   0.00014   1.11084
   D19        0.99471   0.00000   0.00000   0.00003   0.00003   0.99474
   D20        3.09950   0.00000   0.00000   0.00007   0.00007   3.09957
   D21       -1.07936   0.00000   0.00000   0.00012   0.00012  -1.07924
   D22       -3.10953   0.00000   0.00000  -0.00001  -0.00001  -3.10954
   D23        0.01922   0.00000   0.00000   0.00001   0.00001   0.01923
         Item               Value     Threshold  Converged?
 Maximum Force            0.000017     0.000450     YES
 RMS     Force            0.000006     0.000300     YES
 Maximum Displacement     0.000235     0.001800     YES
 RMS     Displacement     0.000083     0.001200     YES
 Predicted change in Energy=-4.541524D-09
 Optimization completed.
    -- Stationary point found.
                           ----------------------------
                           !   Optimized Parameters   !
                           ! (Angstroms and Degrees)  !
 --------------------------                            --------------------------
 ! Name  Definition              Value          Derivative Info.                !
 --------------------------------------------------------------------------------
 ! R1    R(1,2)                  1.0943         -DE/DX =    0.0                 !
 ! R2    R(1,3)                  1.5315         -DE/DX =    0.0                 !
 ! R3    R(1,7)                  1.4548         -DE/DX =    0.0                 !
 ! R4    R(1,10)                 1.5374         -DE/DX =    0.0                 !
 ! R5    R(3,4)                  1.2056         -DE/DX =    0.0                 !
 ! R6    R(3,5)                  1.3564         -DE/DX =    0.0                 !
 ! R7    R(5,6)                  0.9694         -DE/DX =    0.0                 !
 ! R8    R(7,8)                  1.015          -DE/DX =    0.0                 !
 ! R9    R(7,9)                  1.0161         -DE/DX =    0.0                 !
 ! R10   R(10,11)                1.0908         -DE/DX =    0.0                 !
 ! R11   R(10,12)                1.0912         -DE/DX =    0.0                 !
 ! R12   R(10,13)                1.0942         -DE/DX =    0.0                 !
 ! A1    A(2,1,3)              106.9022         -DE/DX =    0.0                 !
 ! A2    A(2,1,7)              108.3622         -DE/DX =    0.0                 !
 ! A3    A(2,1,10)             108.3393         -DE/DX =    0.0                 !
 ! A4    A(3,1,7)              113.6004         -DE/DX =    0.0                 !
 ! A5    A(3,1,10)             109.2527         -DE/DX =    0.0                 !
 ! A6    A(7,1,10)             110.2061         -DE/DX =    0.0                 !
 ! A7    A(1,3,4)              125.5845         -DE/DX =    0.0                 !
 ! A8    A(1,3,5)              111.8504         -DE/DX =    0.0                 !
 ! A9    A(4,3,5)              122.5605         -DE/DX =    0.0                 !
 ! A10   A(3,5,6)              107.4194         -DE/DX =    0.0                 !
 ! A11   A(1,7,8)              110.9287         -DE/DX =    0.0                 !
 ! A12   A(1,7,9)              110.1631         -DE/DX =    0.0                 !
 ! A13   A(8,7,9)              106.4272         -DE/DX =    0.0                 !
 ! A14   A(1,10,11)            109.0446         -DE/DX =    0.0                 !
 ! A15   A(1,10,12)            111.3223         -DE/DX =    0.0                 !
 ! A16   A(1,10,13)            110.4711         -DE/DX =    0.0                 !
 ! A17   A(11,10,12)           109.2407         -DE/DX =    0.0                 !
 ! A18   A(11,10,13)           108.2393         -DE/DX =    0.0                 !
 ! A19   A(12,10,13)           108.4619         -DE/DX =    0.0                 !
 ! D1    D(2,1,3,4)            138.1174         -DE/DX =    0.0                 !
 ! D2    D(2,1,3,5)            -42.6453         -DE/DX =    0.0                 !
 ! D3    D(7,1,3,4)             18.6416         -DE/DX =    0.0                 !
 ! D4    D(7,1,3,5)           -162.1211         -DE/DX =    0.0                 !
 ! D5    D(10,1,3,4)          -104.8523         -DE/DX =    0.0                 !
 ! D6    D(10,1,3,5)            74.385          -DE/DX =    0.0                 !
 ! D7    D(2,1,7,8)            -57.4355         -DE/DX =    0.0                 !
 ! D8    D(2,1,7,9)           -175.0144         -DE/DX =    0.0                 !
 ! D9    D(3,1,7,8)             61.2051         -DE/DX =    0.0                 !
 ! D10   D(3,1,7,9)            -56.3738         -DE/DX =    0.0                 !
 ! D11   D(10,1,7,8)          -175.8228         -DE/DX =    0.0                 !
 ! D12   D(10,1,7,9)            66.5983         -DE/DX =    0.0                 !
 ! D13   D(2,1,10,11)          -61.4086         -DE/DX =    0.0                 !
 ! D14   D(2,1,10,12)           59.1871         -DE/DX =    0.0                 !
 ! D15   D(2,1,10,13)          179.756          -DE/DX =    0.0                 !
 ! D16   D(3,1,10,11)         -177.5263         -DE/DX =    0.0                 !
 ! D17   D(3,1,10,12)          -56.9306         -DE/DX =    0.0                 !
 ! D18   D(3,1,10,13)           63.6383         -DE/DX =    0.0                 !
 ! D19   D(7,1,10,11)           56.9927         -DE/DX =    0.0                 !
 ! D20   D(7,1,10,12)          177.5884         -DE/DX =    0.0                 !
 ! D21   D(7,1,10,13)          -61.8427         -DE/DX =    0.0                 !
 ! D22   D(1,3,5,6)           -178.1628         -DE/DX =    0.0                 !
 ! D23   D(4,3,5,6)              1.1012         -DE/DX =    0.0                 !
 --------------------------------------------------------------------------------
 GradGradGradGradGradGradGradGradGradGradGradGradGradGradGradGradGradGrad

                          Input orientation:                          
 ---------------------------------------------------------------------
 Center     Atomic     Atomic              Coordinates (Angstroms)
 Number     Number      Type              X           Y           Z
 ---------------------------------------------------------------------
    1          6             0        0.665450    0.136964   -0.398314
    2          1             0        0.642833    0.492184   -1.433125
    3          6             0       -0.781139   -0.172453   -0.002051
    4          8             0       -1.145273   -1.131754    0.630905
    5          8             0       -1.639205    0.783818   -0.436789
    6          1             0       -2.525382    0.540718   -0.127895
    7          7             0        1.547904   -1.017535   -0.329267
    8          1             0        1.240675   -1.747203   -0.964378
    9          1             0        1.525534   -1.420193    0.603377
   10          6             0        1.203198    1.270285    0.490520
   11          1             0        2.218028    1.517903    0.176463
   12          1             0        0.577309    2.161249    0.419414
   13          1             0        1.236449    0.952799    1.537158
 ---------------------------------------------------------------------
                    Distance matrix (angstroms):
                    1          2          3          4          5
     1  C    0.000000
     2  H    1.094316   0.000000
     3  C    1.531464   2.125420   0.000000
     4  O    2.438781   3.177219   1.205606   0.000000
     5  O    2.394021   2.507077   1.356366   2.247967   0.000000
     6  H    3.227623   3.426889   1.888606   2.297312   0.969445
     7  N    1.454772   2.077717   2.499135   2.861499   3.662526
     8  H    2.049731   2.364740   2.737452   2.935380   3.870158
     9  H    2.041536   2.929793   2.691494   2.686478   3.994394
    10  C    1.537405   2.149386   2.502341   3.362263   3.029159
    11  H    2.155890   2.474694   3.447343   4.305693   3.974067
    12  H    2.184989   2.494388   2.732980   3.722350   2.746513
    13  H    2.176621   3.063842   2.775971   3.292302   3.492049
                    6          7          8          9         10
     6  H    0.000000
     7  N    4.365817   0.000000
     8  H    4.485250   1.014973   0.000000
     9  H    4.559589   1.016100   1.626633   0.000000
    10  C    3.849287   2.454586   3.350129   2.712067   0.000000
    11  H    4.852573   2.670819   3.594114   3.048641   1.090792
    12  H    3.542931   3.406941   4.198920   3.709407   1.091151
    13  H    4.134439   2.731806   3.680722   2.566439   1.094237
                   11         12         13
    11  H    0.000000
    12  H    1.779010   0.000000
    13  H    1.770404   1.773180   0.000000
 Stoichiometry    C3H7NO2
 Framework group  C1[X(C3H7NO2)]
 Deg. of freedom    33
 Full point group                 C1
 Largest Abelian subgroup         C1      NOp   1
 Largest concise Abelian subgroup C1      NOp   1
                         Standard orientation:                         
 ---------------------------------------------------------------------
 Center     Atomic     Atomic              Coordinates (Angstroms)
 Number     Number      Type              X           Y           Z
 ---------------------------------------------------------------------
    1          6             0        0.665450    0.136964   -0.398314
    2          1             0        0.642833    0.492184   -1.433125
    3          6             0       -0.781139   -0.172453   -0.002051
    4          8             0       -1.145273   -1.131754    0.630905
    5          8             0       -1.639205    0.783818   -0.436789
    6          1             0       -2.525382    0.540718   -0.127895
    7          7             0        1.547904   -1.017535   -0.329267
    8          1             0        1.240675   -1.747203   -0.964378
    9          1             0        1.525534   -1.420193    0.603377
   10          6             0        1.203198    1.270285    0.490520
   11          1             0        2.218028    1.517903    0.176463
   12          1             0        0.577309    2.161249    0.419414
   13          1             0        1.236449    0.952799    1.537158
 ---------------------------------------------------------------------
 Rotational constants (GHZ):      5.0556502      3.0368897      2.2636473

 **********************************************************************

            Population analysis using the SCF density.

 **********************************************************************

 Orbital symmetries:
       Occupied  (A) (A) (A) (A) (A) (A) (A) (A) (A) (A) (A) (A)
                 (A) (A) (A) (A) (A) (A) (A) (A) (A) (A) (A) (A)
       Virtual   (A) (A) (A) (A) (A) (A) (A) (A) (A) (A) (A) (A)
                 (A) (A) (A) (A) (A) (A) (A) (A) (A) (A) (A) (A)
                 (A) (A) (A) (A) (A) (A) (A) (A) (A) (A) (A) (A)
                 (A) (A) (A) (A) (A) (A) (A) (A) (A) (A) (A) (A)
                 (A) (A) (A) (A) (A) (A) (A) (A) (A) (A) (A) (A)
                 (A) (A) (A) (A) (A) (A) (A) (A) (A) (A) (A) (A)
                 (A) (A) (A) (A) (A) (A) (A) (A) (A) (A) (A) (A)
                 (A) (A) (A) (A) (A) (A) (A) (A) (A) (A) (A) (A)
                 (A) (A) (A) (A) (A) (A) (A) (A) (A) (A) (A) (A)
                 (A) (A) (A) (A) (A) (A) (A) (A) (A) (A) (A) (A)
                 (A) (A) (A) (A) (A) (A) (A) (A) (A) (A) (A) (A)
                 (A) (A) (A) (A) (A) (A) (A) (A) (A) (A) (A) (A)
                 (A) (A) (A) (A) (A) (A) (A) (A) (A) (A) (A) (A)
                 (A)
 The electronic state is 1-A.
 Alpha  occ. eigenvalues --  -19.18441 -19.12918 -14.30488 -10.31397 -10.22757
 Alpha  occ. eigenvalues --  -10.17601  -1.12533  -1.03701  -0.90537  -0.76426
 Alpha  occ. eigenvalues --   -0.67970  -0.60088  -0.52874  -0.50556  -0.49868
 Alpha  occ. eigenvalues --   -0.46480  -0.44596  -0.42751  -0.39379  -0.38849
 Alpha  occ. eigenvalues --   -0.36950  -0.34163  -0.29831  -0.26140
 Alpha virt. eigenvalues --   -0.01791  -0.01427   0.00114   0.01132   0.01886
 Alpha virt. eigenvalues --    0.04345   0.04552   0.05271   0.06682   0.07215
 Alpha virt. eigenvalues --    0.08471   0.09812   0.10154   0.10584   0.11183
 Alpha virt. eigenvalues --    0.11835   0.12920   0.13440   0.14372   0.15200
 Alpha virt. eigenvalues --    0.16072   0.16483   0.17992   0.19020   0.20106
 Alpha virt. eigenvalues --    0.20617   0.21921   0.22766   0.23108   0.24011
 Alpha virt. eigenvalues --    0.24595   0.25346   0.27164   0.28510   0.28693
 Alpha virt. eigenvalues --    0.29507   0.30969   0.31844   0.33237   0.34424
 Alpha virt. eigenvalues --    0.35251   0.37250   0.40357   0.44831   0.46129
 Alpha virt. eigenvalues --    0.48810   0.51337   0.53824   0.56724   0.57072
 Alpha virt. eigenvalues --    0.58476   0.61338   0.62649   0.64173   0.65830
 Alpha virt. eigenvalues --    0.67539   0.70139   0.71437   0.72199   0.73822
 Alpha virt. eigenvalues --    0.81364   0.84861   0.85129   0.88693   0.95632
 Alpha virt. eigenvalues --    0.95781   1.03750   1.06564   1.09363   1.12537
 Alpha virt. eigenvalues --    1.15142   1.15191   1.18086   1.20642   1.23919
 Alpha virt. eigenvalues --    1.26671   1.28351   1.29144   1.42515   1.43142
 Alpha virt. eigenvalues --    1.45772   1.50026   1.52315   1.54165   1.57567
 Alpha virt. eigenvalues --    1.59242   1.59895   1.62681   1.64559   1.66753
 Alpha virt. eigenvalues --    1.67876   1.70114   1.75228   1.79616   1.82577
 Alpha virt. eigenvalues --    1.87553   1.92117   1.92179   1.94731   1.98405
 Alpha virt. eigenvalues --    2.03803   2.07454   2.12711   2.17577   2.20404
 Alpha virt. eigenvalues --    2.30194   2.35581   2.45826   2.48334   2.51070
 Alpha virt. eigenvalues --    2.52354   2.54369   2.58234   2.60134   2.65146
 Alpha virt. eigenvalues --    2.67650   2.69339   2.72330   2.76248   2.80232
 Alpha virt. eigenvalues --    2.80930   2.86593   2.88646   2.92019   2.95382
 Alpha virt. eigenvalues --    3.00715   3.04753   3.09299   3.13033   3.17784
 Alpha virt. eigenvalues --    3.23480   3.26248   3.36552   3.56348   3.59654
 Alpha virt. eigenvalues --    3.66821   3.76443   3.80059   3.82142   4.03615
 Alpha virt. eigenvalues --    4.07195   4.11142   4.24850   4.72378   4.85499
 Alpha virt. eigenvalues --    4.95263   5.05391   5.17126   5.37821   5.59222
 Alpha virt. eigenvalues --    5.82881  23.78631  23.80395  23.95429  35.59926
 Alpha virt. eigenvalues --   49.85907  49.98929
          Condensed to atoms (all electrons):
              1          2          3          4          5          6
     1  C    7.156129   0.473906  -0.620441  -0.012064  -0.265496  -0.026899
     2  H    0.473906   0.554217  -0.074076  -0.002333   0.004143   0.001621
     3  C   -0.620441  -0.074076   5.819037   0.454289   0.261944   0.029452
     4  O   -0.012064  -0.002333   0.454289   8.058296  -0.150500  -0.001954
     5  O   -0.265496   0.004143   0.261944  -0.150500   8.075775   0.244580
     6  H   -0.026899   0.001621   0.029452  -0.001954   0.244580   0.461844
     7  N   -0.106617  -0.056362   0.059576  -0.039606   0.038864   0.001152
     8  H   -0.064457  -0.015649   0.014398  -0.002112   0.000033  -0.000391
     9  H   -0.005853   0.009309  -0.000779   0.003955  -0.001876  -0.000174
    10  C   -0.186472  -0.090844   0.070655  -0.036645  -0.045620   0.005546
    11  H   -0.020086  -0.008080  -0.005192  -0.000350  -0.002797  -0.000498
    12  H   -0.043194  -0.013867  -0.013735   0.004725   0.009511  -0.001617
    13  H    0.038308   0.009750  -0.025657  -0.003149  -0.000017  -0.000074
              7          8          9         10         11         12
     1  C   -0.106617  -0.064457  -0.005853  -0.186472  -0.020086  -0.043194
     2  H   -0.056362  -0.015649   0.009309  -0.090844  -0.008080  -0.013867
     3  C    0.059576   0.014398  -0.000779   0.070655  -0.005192  -0.013735
     4  O   -0.039606  -0.002112   0.003955  -0.036645  -0.000350   0.004725
     5  O    0.038864   0.000033  -0.001876  -0.045620  -0.002797   0.009511
     6  H    0.001152  -0.000391  -0.000174   0.005546  -0.000498  -0.001617
     7  N    6.678449   0.397836   0.378415  -0.000937  -0.009650   0.012620
     8  H    0.397836   0.461823  -0.048428   0.014524  -0.000070  -0.000070
     9  H    0.378415  -0.048428   0.441382  -0.024428   0.000926   0.000228
    10  C   -0.000937   0.014524  -0.024428   5.532078   0.395591   0.413082
    11  H   -0.009650  -0.000070   0.000926   0.395591   0.523539  -0.019742
    12  H    0.012620  -0.000070   0.000228   0.413082  -0.019742   0.548971
    13  H   -0.021522   0.000973   0.001683   0.352583  -0.034723  -0.037494
             13
     1  C    0.038308
     2  H    0.009750
     3  C   -0.025657
     4  O   -0.003149
     5  O   -0.000017
     6  H   -0.000074
     7  N   -0.021522
     8  H    0.000973
     9  H    0.001683
    10  C    0.352583
    11  H   -0.034723
    12  H   -0.037494
    13  H    0.565301
 Mulliken atomic charges:
              1
     1  C   -0.316764
     2  H    0.208265
     3  C    0.030528
     4  O   -0.272551
     5  O   -0.168544
     6  H    0.287412
     7  N   -0.332215
     8  H    0.241590
     9  H    0.245640
    10  C   -0.399114
    11  H    0.181133
    12  H    0.140582
    13  H    0.154038
 Sum of Mulliken charges=   0.00000
 Atomic charges with hydrogens summed into heavy atoms:
              1
     1  C   -0.108499
     2  H    0.000000
     3  C    0.030528
     4  O   -0.272551
     5  O    0.118868
     6  H    0.000000
     7  N    0.155015
     8  H    0.000000
     9  H    0.000000
    10  C    0.076639
    11  H    0.000000
    12  H    0.000000
    13  H    0.000000
 Sum of Mulliken charges=   0.00000
 Electronic spatial extent (au):  <R**2>=   585.8656
 Charge=     0.0000 electrons
 Dipole moment (field-independent basis, Debye):
    X=    -0.7006    Y=     1.0085    Z=    -0.4428  Tot=     1.3054
 Quadrupole moment (field-independent basis, Debye-Ang):
   XX=   -37.0831   YY=   -37.9195   ZZ=   -36.3643
   XY=    -1.6408   XZ=     1.9332   YZ=     2.5772
 Traceless Quadrupole moment (field-independent basis, Debye-Ang):
   XX=     0.0392   YY=    -0.7972   ZZ=     0.7580
   XY=    -1.6408   XZ=     1.9332   YZ=     2.5772
 Octapole moment (field-independent basis, Debye-Ang**2):
  XXX=   -40.1557  YYY=    -5.2115  ZZZ=    -1.5670  XYY=     5.3836
  XXY=     7.7898  XXZ=     3.3170  XZZ=     0.8013  YZZ=    -2.3663
  YYZ=    -2.8808  XYZ=    -4.9247
 Hexadecapole moment (field-independent basis, Debye-Ang**3):
 XXXX=  -376.4031 YYYY=  -239.4448 ZZZZ=   -94.8786 XXXY=    -4.3989
 XXXZ=    11.7063 YYYX=   -14.8340 YYYZ=     3.9388 ZZZX=     0.0551
 ZZZY=    -0.6114 XXYY=  -111.1647 XXZZ=   -87.0810 YYZZ=   -55.9207
 XXYZ=    -0.7166 YYXZ=     0.7271 ZZXY=    -4.0850
 N-N= 2.485223782077D+02 E-N=-1.255628685959D+03  KE= 3.226391907374D+02
 1|1|UNPC-UNK|FOpt|RB3LYP|6-311++G(d,p)|C3H7N1O2|PCUSER|29-Mar-2016|0||
 # opt freq b3lyp/6-311++g(d,p)||Ala-R-opt-freq-6-311++g(d,p)||0,1|C,0.
 66545,0.136964,-0.398314|H,0.642833,0.492184,-1.433125|C,-0.781139,-0.
 172453,-0.002051|O,-1.145273,-1.131754,0.630905|O,-1.639205,0.783818,-
 0.436789|H,-2.525382,0.540718,-0.127895|N,1.547904,-1.017535,-0.329267
 |H,1.240675,-1.747203,-0.964378|H,1.525534,-1.420193,0.603377|C,1.2031
 98,1.270285,0.49052|H,2.218028,1.517903,0.176463|H,0.577309,2.161249,0
 .419414|H,1.236449,0.952799,1.537158||Version=IA32W-G03RevE.01|State=1
 -A|HF=-323.8560796|RMSD=4.675e-009|RMSF=9.012e-006|Thermal=0.|Dipole=-
 0.2756302,0.3967901,-0.1742027|PG=C01 [X(C3H7N1O2)]||@


 Luck is a matter of preparation meeting opportunity.
                                    -- Oprah Winfrey
 Job cpu time:  0 days  0 hours  2 minutes 45.0 seconds.
 File lengths (MBytes):  RWF=     26 Int=      0 D2E=      0 Chk=      6 Scr=      1
 Normal termination of Gaussian 03 at Tue Mar 29 15:19:41 2016.
 Link1:  Proceeding to internal job step number  2.
 ----------------------------------------------------------------------
 #N Geom=AllCheck Guess=Read SCRF=Check GenChk RB3LYP/6-311++G(d,p) Fre
 q
 ----------------------------------------------------------------------
 1/10=4,29=7,30=1,38=1,40=1,46=1/1,3;
 2/40=1/2;
 3/5=4,6=6,7=1111,11=2,16=1,25=1,30=1,70=2,71=2,74=-5/1,2,3;
 4/5=1,7=1/1;
 5/5=2,38=6/2;
 8/6=4,10=90,11=11/1;
 11/6=1,8=1,9=11,15=111,16=1/1,2,10;
 10/6=1/2;
 6/7=2,8=2,9=2,10=2,18=1,28=1/1;
 7/8=1,10=1,25=1/1,2,3,16;
 1/10=4,30=1,46=1/3;
 99//99;
 ----------------------------
 Ala-R-opt-freq-6-311++g(d,p)
 ----------------------------
 Redundant internal coordinates taken from checkpoint file:
 E:\YangJ\Amiano\Ala\opt-rs\r\Ala-R-opt-freq-6-311gdp.chk
 Charge =  0 Multiplicity = 1
 C,0,0.66545,0.136964,-0.398314
 H,0,0.642833,0.492184,-1.433125
 C,0,-0.781139,-0.172453,-0.002051
 O,0,-1.145273,-1.131754,0.630905
 O,0,-1.639205,0.783818,-0.436789
 H,0,-2.525382,0.540718,-0.127895
 N,0,1.547904,-1.017535,-0.329267
 H,0,1.240675,-1.747203,-0.964378
 H,0,1.525534,-1.420193,0.603377
 C,0,1.203198,1.270285,0.49052
 H,0,2.218028,1.517903,0.176463
 H,0,0.577309,2.161249,0.419414
 H,0,1.236449,0.952799,1.537158
 Recover connectivity data from disk.

 GradGradGradGradGradGradGradGradGradGradGradGradGradGradGradGradGradGrad
 Berny optimization.
 Initialization pass.
                           ----------------------------
                           !    Initial Parameters    !
                           ! (Angstroms and Degrees)  !
 --------------------------                            --------------------------
 ! Name  Definition              Value          Derivative Info.                !
 --------------------------------------------------------------------------------
 ! R1    R(1,2)                  1.0943         calculate D2E/DX2 analytically  !
 ! R2    R(1,3)                  1.5315         calculate D2E/DX2 analytically  !
 ! R3    R(1,7)                  1.4548         calculate D2E/DX2 analytically  !
 ! R4    R(1,10)                 1.5374         calculate D2E/DX2 analytically  !
 ! R5    R(3,4)                  1.2056         calculate D2E/DX2 analytically  !
 ! R6    R(3,5)                  1.3564         calculate D2E/DX2 analytically  !
 ! R7    R(5,6)                  0.9694         calculate D2E/DX2 analytically  !
 ! R8    R(7,8)                  1.015          calculate D2E/DX2 analytically  !
 ! R9    R(7,9)                  1.0161         calculate D2E/DX2 analytically  !
 ! R10   R(10,11)                1.0908         calculate D2E/DX2 analytically  !
 ! R11   R(10,12)                1.0912         calculate D2E/DX2 analytically  !
 ! R12   R(10,13)                1.0942         calculate D2E/DX2 analytically  !
 ! A1    A(2,1,3)              106.9022         calculate D2E/DX2 analytically  !
 ! A2    A(2,1,7)              108.3622         calculate D2E/DX2 analytically  !
 ! A3    A(2,1,10)             108.3393         calculate D2E/DX2 analytically  !
 ! A4    A(3,1,7)              113.6004         calculate D2E/DX2 analytically  !
 ! A5    A(3,1,10)             109.2527         calculate D2E/DX2 analytically  !
 ! A6    A(7,1,10)             110.2061         calculate D2E/DX2 analytically  !
 ! A7    A(1,3,4)              125.5845         calculate D2E/DX2 analytically  !
 ! A8    A(1,3,5)              111.8504         calculate D2E/DX2 analytically  !
 ! A9    A(4,3,5)              122.5605         calculate D2E/DX2 analytically  !
 ! A10   A(3,5,6)              107.4194         calculate D2E/DX2 analytically  !
 ! A11   A(1,7,8)              110.9287         calculate D2E/DX2 analytically  !
 ! A12   A(1,7,9)              110.1631         calculate D2E/DX2 analytically  !
 ! A13   A(8,7,9)              106.4272         calculate D2E/DX2 analytically  !
 ! A14   A(1,10,11)            109.0446         calculate D2E/DX2 analytically  !
 ! A15   A(1,10,12)            111.3223         calculate D2E/DX2 analytically  !
 ! A16   A(1,10,13)            110.4711         calculate D2E/DX2 analytically  !
 ! A17   A(11,10,12)           109.2407         calculate D2E/DX2 analytically  !
 ! A18   A(11,10,13)           108.2393         calculate D2E/DX2 analytically  !
 ! A19   A(12,10,13)           108.4619         calculate D2E/DX2 analytically  !
 ! D1    D(2,1,3,4)            138.1174         calculate D2E/DX2 analytically  !
 ! D2    D(2,1,3,5)            -42.6453         calculate D2E/DX2 analytically  !
 ! D3    D(7,1,3,4)             18.6416         calculate D2E/DX2 analytically  !
 ! D4    D(7,1,3,5)           -162.1211         calculate D2E/DX2 analytically  !
 ! D5    D(10,1,3,4)          -104.8523         calculate D2E/DX2 analytically  !
 ! D6    D(10,1,3,5)            74.385          calculate D2E/DX2 analytically  !
 ! D7    D(2,1,7,8)            -57.4355         calculate D2E/DX2 analytically  !
 ! D8    D(2,1,7,9)           -175.0144         calculate D2E/DX2 analytically  !
 ! D9    D(3,1,7,8)             61.2051         calculate D2E/DX2 analytically  !
 ! D10   D(3,1,7,9)            -56.3738         calculate D2E/DX2 analytically  !
 ! D11   D(10,1,7,8)          -175.8228         calculate D2E/DX2 analytically  !
 ! D12   D(10,1,7,9)            66.5983         calculate D2E/DX2 analytically  !
 ! D13   D(2,1,10,11)          -61.4086         calculate D2E/DX2 analytically  !
 ! D14   D(2,1,10,12)           59.1871         calculate D2E/DX2 analytically  !
 ! D15   D(2,1,10,13)          179.756          calculate D2E/DX2 analytically  !
 ! D16   D(3,1,10,11)         -177.5263         calculate D2E/DX2 analytically  !
 ! D17   D(3,1,10,12)          -56.9306         calculate D2E/DX2 analytically  !
 ! D18   D(3,1,10,13)           63.6383         calculate D2E/DX2 analytically  !
 ! D19   D(7,1,10,11)           56.9927         calculate D2E/DX2 analytically  !
 ! D20   D(7,1,10,12)          177.5884         calculate D2E/DX2 analytically  !
 ! D21   D(7,1,10,13)          -61.8427         calculate D2E/DX2 analytically  !
 ! D22   D(1,3,5,6)           -178.1628         calculate D2E/DX2 analytically  !
 ! D23   D(4,3,5,6)              1.1012         calculate D2E/DX2 analytically  !
 --------------------------------------------------------------------------------
 Trust Radius=3.00D-01 FncErr=1.00D-07 GrdErr=1.00D-07
 Number of steps in this run=   2 maximum allowed number of steps=   2.
 GradGradGradGradGradGradGradGradGradGradGradGradGradGradGradGradGradGrad

                          Input orientation:                          
 ---------------------------------------------------------------------
 Center     Atomic     Atomic              Coordinates (Angstroms)
 Number     Number      Type              X           Y           Z
 ---------------------------------------------------------------------
    1          6             0        0.665450    0.136964   -0.398314
    2          1             0        0.642833    0.492184   -1.433125
    3          6             0       -0.781139   -0.172453   -0.002051
    4          8             0       -1.145273   -1.131754    0.630905
    5          8             0       -1.639205    0.783818   -0.436789
    6          1             0       -2.525382    0.540718   -0.127895
    7          7             0        1.547904   -1.017535   -0.329267
    8          1             0        1.240675   -1.747203   -0.964378
    9          1             0        1.525534   -1.420193    0.603377
   10          6             0        1.203198    1.270285    0.490520
   11          1             0        2.218028    1.517903    0.176463
   12          1             0        0.577309    2.161249    0.419414
   13          1             0        1.236449    0.952799    1.537158
 ---------------------------------------------------------------------
                    Distance matrix (angstroms):
                    1          2          3          4          5
     1  C    0.000000
     2  H    1.094316   0.000000
     3  C    1.531464   2.125420   0.000000
     4  O    2.438781   3.177219   1.205606   0.000000
     5  O    2.394021   2.507077   1.356366   2.247967   0.000000
     6  H    3.227623   3.426889   1.888606   2.297312   0.969445
     7  N    1.454772   2.077717   2.499135   2.861499   3.662526
     8  H    2.049731   2.364740   2.737452   2.935380   3.870158
     9  H    2.041536   2.929793   2.691494   2.686478   3.994394
    10  C    1.537405   2.149386   2.502341   3.362263   3.029159
    11  H    2.155890   2.474694   3.447343   4.305693   3.974067
    12  H    2.184989   2.494388   2.732980   3.722350   2.746513
    13  H    2.176621   3.063842   2.775971   3.292302   3.492049
                    6          7          8          9         10
     6  H    0.000000
     7  N    4.365817   0.000000
     8  H    4.485250   1.014973   0.000000
     9  H    4.559589   1.016100   1.626633   0.000000
    10  C    3.849287   2.454586   3.350129   2.712067   0.000000
    11  H    4.852573   2.670819   3.594114   3.048641   1.090792
    12  H    3.542931   3.406941   4.198920   3.709407   1.091151
    13  H    4.134439   2.731806   3.680722   2.566439   1.094237
                   11         12         13
    11  H    0.000000
    12  H    1.779010   0.000000
    13  H    1.770404   1.773180   0.000000
 Stoichiometry    C3H7NO2
 Framework group  C1[X(C3H7NO2)]
 Deg. of freedom    33
 Full point group                 C1
 Largest Abelian subgroup         C1      NOp   1
 Largest concise Abelian subgroup C1      NOp   1
                         Standard orientation:                         
 ---------------------------------------------------------------------
 Center     Atomic     Atomic              Coordinates (Angstroms)
 Number     Number      Type              X           Y           Z
 ---------------------------------------------------------------------
    1          6             0        0.665450    0.136964   -0.398314
    2          1             0        0.642833    0.492184   -1.433125
    3          6             0       -0.781139   -0.172453   -0.002051
    4          8             0       -1.145273   -1.131754    0.630905
    5          8             0       -1.639205    0.783818   -0.436789
    6          1             0       -2.525382    0.540718   -0.127895
    7          7             0        1.547904   -1.017535   -0.329267
    8          1             0        1.240675   -1.747203   -0.964378
    9          1             0        1.525534   -1.420193    0.603377
   10          6             0        1.203198    1.270285    0.490520
   11          1             0        2.218028    1.517903    0.176463
   12          1             0        0.577309    2.161249    0.419414
   13          1             0        1.236449    0.952799    1.537158
 ---------------------------------------------------------------------
 Rotational constants (GHZ):      5.0556502      3.0368897      2.2636473
 Standard basis: 6-311++G(d,p) (5D, 7F)
 There are   181 symmetry adapted basis functions of A   symmetry.
 Integral buffers will be    262144 words long.
 Raffenetti 2 integral format.
 Two-electron integral symmetry is turned on.
   181 basis functions,   279 primitive gaussians,   187 cartesian basis functions
    24 alpha electrons       24 beta electrons
       nuclear repulsion energy       248.5223782077 Hartrees.
 NAtoms=   13 NActive=   13 NUniq=   13 SFac= 7.50D-01 NAtFMM=   80 NAOKFM=F Big=F
 One-electron integrals computed using PRISM.
 NBasis=   181 RedAO= T  NBF=   181
 NBsUse=   181 1.00D-06 NBFU=   181
 Initial guess read from the checkpoint file:
 E:\YangJ\Amiano\Ala\opt-rs\r\Ala-R-opt-freq-6-311gdp.chk
 Initial guess orbital symmetries:
       Occupied  (A) (A) (A) (A) (A) (A) (A) (A) (A) (A) (A) (A)
                 (A) (A) (A) (A) (A) (A) (A) (A) (A) (A) (A) (A)
       Virtual   (A) (A) (A) (A) (A) (A) (A) (A) (A) (A) (A) (A)
                 (A) (A) (A) (A) (A) (A) (A) (A) (A) (A) (A) (A)
                 (A) (A) (A) (A) (A) (A) (A) (A) (A) (A) (A) (A)
                 (A) (A) (A) (A) (A) (A) (A) (A) (A) (A) (A) (A)
                 (A) (A) (A) (A) (A) (A) (A) (A) (A) (A) (A) (A)
                 (A) (A) (A) (A) (A) (A) (A) (A) (A) (A) (A) (A)
                 (A) (A) (A) (A) (A) (A) (A) (A) (A) (A) (A) (A)
                 (A) (A) (A) (A) (A) (A) (A) (A) (A) (A) (A) (A)
                 (A) (A) (A) (A) (A) (A) (A) (A) (A) (A) (A) (A)
                 (A) (A) (A) (A) (A) (A) (A) (A) (A) (A) (A) (A)
                 (A) (A) (A) (A) (A) (A) (A) (A) (A) (A) (A) (A)
                 (A) (A) (A) (A) (A) (A) (A) (A) (A) (A) (A) (A)
                 (A) (A) (A) (A) (A) (A) (A) (A) (A) (A) (A) (A)
                 (A)
 Requested convergence on RMS density matrix=1.00D-08 within 128 cycles.
 Requested convergence on MAX density matrix=1.00D-06.
 Requested convergence on             energy=1.00D-06.
 No special actions if energy rises.
 SCF Done:  E(RB+HF-LYP) =  -323.856079572     A.U. after    1 cycles
             Convg  =    0.2621D-08             -V/T =  2.0038
             S**2   =   0.0000
 Range of M.O.s used for correlation:     1   181
 NBasis=   181 NAE=    24 NBE=    24 NFC=     0 NFV=     0
 NROrb=    181 NOA=    24 NOB=    24 NVA=   157 NVB=   157

 **** Warning!!: The largest alpha MO coefficient is  0.50467830D+02

 Symmetrizing basis deriv contribution to polar:
 IMax=3 JMax=2 DiffMx= 0.00D+00
 G2DrvN: will do   14 centers at a time, making    1 passes doing MaxLOS=2.
 FoFDir/FoFCou used for L=0 through L=2.
 DoAtom=TTTTTTTTTTTTT
          Differentiating once with respect to electric field.
                with respect to dipole field.
          Differentiating once with respect to nuclear coordinates.
 Integrals replicated using symmetry in FoFDir.
 MinBra= 0 MaxBra= 2 Meth= 1.
 IRaf=       0 NMat=  42 IRICut=      42 DoRegI=T DoRafI=T ISym2E= 2 JSym2E=2.
          There are  42 degrees of freedom in the 1st order CPHF.
    39 vectors were produced by pass  0.
 AX will form  39 AO Fock derivatives at one time.
    39 vectors were produced by pass  1.
    39 vectors were produced by pass  2.
    39 vectors were produced by pass  3.
    39 vectors were produced by pass  4.
    27 vectors were produced by pass  5.
     6 vectors were produced by pass  6.
     3 vectors were produced by pass  7.
 Inv2:  IOpt= 1 Iter= 1 AM= 2.23D-15 Conv= 1.00D-12.
 Inverted reduced A of dimension  231 with in-core refinement.
 Isotropic polarizability for W=    0.000000       53.14 Bohr**3.
 End of Minotr Frequency-dependent properties file   721 does not exist.

 **********************************************************************

            Population analysis using the SCF density.

 **********************************************************************

 Orbital symmetries:
       Occupied  (A) (A) (A) (A) (A) (A) (A) (A) (A) (A) (A) (A)
                 (A) (A) (A) (A) (A) (A) (A) (A) (A) (A) (A) (A)
       Virtual   (A) (A) (A) (A) (A) (A) (A) (A) (A) (A) (A) (A)
                 (A) (A) (A) (A) (A) (A) (A) (A) (A) (A) (A) (A)
                 (A) (A) (A) (A) (A) (A) (A) (A) (A) (A) (A) (A)
                 (A) (A) (A) (A) (A) (A) (A) (A) (A) (A) (A) (A)
                 (A) (A) (A) (A) (A) (A) (A) (A) (A) (A) (A) (A)
                 (A) (A) (A) (A) (A) (A) (A) (A) (A) (A) (A) (A)
                 (A) (A) (A) (A) (A) (A) (A) (A) (A) (A) (A) (A)
                 (A) (A) (A) (A) (A) (A) (A) (A) (A) (A) (A) (A)
                 (A) (A) (A) (A) (A) (A) (A) (A) (A) (A) (A) (A)
                 (A) (A) (A) (A) (A) (A) (A) (A) (A) (A) (A) (A)
                 (A) (A) (A) (A) (A) (A) (A) (A) (A) (A) (A) (A)
                 (A) (A) (A) (A) (A) (A) (A) (A) (A) (A) (A) (A)
                 (A) (A) (A) (A) (A) (A) (A) (A) (A) (A) (A) (A)
                 (A)
 The electronic state is 1-A.
 Alpha  occ. eigenvalues --  -19.18441 -19.12918 -14.30488 -10.31397 -10.22757
 Alpha  occ. eigenvalues --  -10.17601  -1.12533  -1.03701  -0.90537  -0.76426
 Alpha  occ. eigenvalues --   -0.67970  -0.60088  -0.52874  -0.50556  -0.49868
 Alpha  occ. eigenvalues --   -0.46480  -0.44596  -0.42751  -0.39379  -0.38849
 Alpha  occ. eigenvalues --   -0.36950  -0.34163  -0.29831  -0.26140
 Alpha virt. eigenvalues --   -0.01791  -0.01427   0.00114   0.01132   0.01886
 Alpha virt. eigenvalues --    0.04345   0.04552   0.05271   0.06682   0.07215
 Alpha virt. eigenvalues --    0.08471   0.09812   0.10154   0.10584   0.11183
 Alpha virt. eigenvalues --    0.11835   0.12920   0.13440   0.14372   0.15200
 Alpha virt. eigenvalues --    0.16072   0.16483   0.17992   0.19020   0.20106
 Alpha virt. eigenvalues --    0.20617   0.21921   0.22766   0.23108   0.24011
 Alpha virt. eigenvalues --    0.24595   0.25346   0.27164   0.28510   0.28693
 Alpha virt. eigenvalues --    0.29507   0.30969   0.31844   0.33237   0.34424
 Alpha virt. eigenvalues --    0.35251   0.37250   0.40357   0.44831   0.46129
 Alpha virt. eigenvalues --    0.48810   0.51337   0.53824   0.56724   0.57072
 Alpha virt. eigenvalues --    0.58476   0.61338   0.62649   0.64173   0.65830
 Alpha virt. eigenvalues --    0.67539   0.70139   0.71437   0.72199   0.73822
 Alpha virt. eigenvalues --    0.81364   0.84861   0.85129   0.88693   0.95632
 Alpha virt. eigenvalues --    0.95781   1.03750   1.06564   1.09363   1.12537
 Alpha virt. eigenvalues --    1.15142   1.15191   1.18086   1.20642   1.23919
 Alpha virt. eigenvalues --    1.26671   1.28351   1.29144   1.42515   1.43142
 Alpha virt. eigenvalues --    1.45772   1.50026   1.52315   1.54165   1.57567
 Alpha virt. eigenvalues --    1.59242   1.59895   1.62681   1.64559   1.66753
 Alpha virt. eigenvalues --    1.67876   1.70114   1.75228   1.79616   1.82577
 Alpha virt. eigenvalues --    1.87553   1.92117   1.92179   1.94731   1.98405
 Alpha virt. eigenvalues --    2.03803   2.07454   2.12711   2.17577   2.20404
 Alpha virt. eigenvalues --    2.30194   2.35581   2.45826   2.48334   2.51070
 Alpha virt. eigenvalues --    2.52354   2.54369   2.58234   2.60134   2.65146
 Alpha virt. eigenvalues --    2.67650   2.69339   2.72330   2.76248   2.80232
 Alpha virt. eigenvalues --    2.80930   2.86593   2.88646   2.92019   2.95382
 Alpha virt. eigenvalues --    3.00715   3.04753   3.09299   3.13033   3.17784
 Alpha virt. eigenvalues --    3.23480   3.26248   3.36552   3.56348   3.59654
 Alpha virt. eigenvalues --    3.66821   3.76443   3.80059   3.82142   4.03615
 Alpha virt. eigenvalues --    4.07195   4.11142   4.24850   4.72378   4.85499
 Alpha virt. eigenvalues --    4.95263   5.05391   5.17126   5.37821   5.59222
 Alpha virt. eigenvalues --    5.82881  23.78631  23.80395  23.95429  35.59926
 Alpha virt. eigenvalues --   49.85907  49.98929
          Condensed to atoms (all electrons):
              1          2          3          4          5          6
     1  C    7.156128   0.473906  -0.620441  -0.012064  -0.265496  -0.026899
     2  H    0.473906   0.554217  -0.074076  -0.002333   0.004143   0.001621
     3  C   -0.620441  -0.074076   5.819037   0.454289   0.261945   0.029452
     4  O   -0.012064  -0.002333   0.454289   8.058296  -0.150500  -0.001954
     5  O   -0.265496   0.004143   0.261945  -0.150500   8.075775   0.244580
     6  H   -0.026899   0.001621   0.029452  -0.001954   0.244580   0.461844
     7  N   -0.106617  -0.056362   0.059576  -0.039606   0.038864   0.001152
     8  H   -0.064457  -0.015649   0.014398  -0.002112   0.000033  -0.000391
     9  H   -0.005853   0.009309  -0.000779   0.003955  -0.001876  -0.000174
    10  C   -0.186472  -0.090844   0.070655  -0.036645  -0.045620   0.005546
    11  H   -0.020086  -0.008080  -0.005192  -0.000350  -0.002797  -0.000498
    12  H   -0.043193  -0.013867  -0.013735   0.004725   0.009511  -0.001617
    13  H    0.038308   0.009750  -0.025657  -0.003149  -0.000017  -0.000074
              7          8          9         10         11         12
     1  C   -0.106617  -0.064457  -0.005853  -0.186472  -0.020086  -0.043193
     2  H   -0.056362  -0.015649   0.009309  -0.090844  -0.008080  -0.013867
     3  C    0.059576   0.014398  -0.000779   0.070655  -0.005192  -0.013735
     4  O   -0.039606  -0.002112   0.003955  -0.036645  -0.000350   0.004725
     5  O    0.038864   0.000033  -0.001876  -0.045620  -0.002797   0.009511
     6  H    0.001152  -0.000391  -0.000174   0.005546  -0.000498  -0.001617
     7  N    6.678448   0.397836   0.378415  -0.000937  -0.009650   0.012620
     8  H    0.397836   0.461823  -0.048428   0.014524  -0.000070  -0.000070
     9  H    0.378415  -0.048428   0.441382  -0.024428   0.000926   0.000228
    10  C   -0.000937   0.014524  -0.024428   5.532078   0.395591   0.413082
    11  H   -0.009650  -0.000070   0.000926   0.395591   0.523539  -0.019742
    12  H    0.012620  -0.000070   0.000228   0.413082  -0.019742   0.548971
    13  H   -0.021522   0.000973   0.001683   0.352583  -0.034723  -0.037494
             13
     1  C    0.038308
     2  H    0.009750
     3  C   -0.025657
     4  O   -0.003149
     5  O   -0.000017
     6  H   -0.000074
     7  N   -0.021522
     8  H    0.000973
     9  H    0.001683
    10  C    0.352583
    11  H   -0.034723
    12  H   -0.037494
    13  H    0.565301
 Mulliken atomic charges:
              1
     1  C   -0.316764
     2  H    0.208265
     3  C    0.030528
     4  O   -0.272551
     5  O   -0.168544
     6  H    0.287412
     7  N   -0.332215
     8  H    0.241590
     9  H    0.245640
    10  C   -0.399114
    11  H    0.181133
    12  H    0.140582
    13  H    0.154038
 Sum of Mulliken charges=   0.00000
 Atomic charges with hydrogens summed into heavy atoms:
              1
     1  C   -0.108499
     2  H    0.000000
     3  C    0.030528
     4  O   -0.272551
     5  O    0.118868
     6  H    0.000000
     7  N    0.155015
     8  H    0.000000
     9  H    0.000000
    10  C    0.076639
    11  H    0.000000
    12  H    0.000000
    13  H    0.000000
 Sum of Mulliken charges=   0.00000
 APT atomic charges:
              1
     1  C    0.279600
     2  H   -0.019310
     3  C    1.046462
     4  O   -0.742839
     5  O   -0.719381
     6  H    0.277157
     7  N   -0.469406
     8  H    0.144657
     9  H    0.160664
    10  C    0.040377
    11  H    0.003070
    12  H    0.007294
    13  H   -0.008345
 Sum of APT charges=   0.00000
 APT Atomic charges with hydrogens summed into heavy atoms:
              1
     1  C    0.260290
     2  H    0.000000
     3  C    1.046462
     4  O   -0.742839
     5  O   -0.442224
     6  H    0.000000
     7  N   -0.164085
     8  H    0.000000
     9  H    0.000000
    10  C    0.042395
    11  H    0.000000
    12  H    0.000000
    13  H    0.000000
 Sum of APT charges=   0.00000
 Electronic spatial extent (au):  <R**2>=   585.8656
 Charge=     0.0000 electrons
 Dipole moment (field-independent basis, Debye):
    X=    -0.7006    Y=     1.0085    Z=    -0.4428  Tot=     1.3054
 Quadrupole moment (field-independent basis, Debye-Ang):
   XX=   -37.0831   YY=   -37.9195   ZZ=   -36.3643
   XY=    -1.6408   XZ=     1.9332   YZ=     2.5772
 Traceless Quadrupole moment (field-independent basis, Debye-Ang):
   XX=     0.0392   YY=    -0.7972   ZZ=     0.7580
   XY=    -1.6408   XZ=     1.9332   YZ=     2.5772
 Octapole moment (field-independent basis, Debye-Ang**2):
  XXX=   -40.1557  YYY=    -5.2115  ZZZ=    -1.5670  XYY=     5.3836
  XXY=     7.7898  XXZ=     3.3170  XZZ=     0.8013  YZZ=    -2.3663
  YYZ=    -2.8808  XYZ=    -4.9247
 Hexadecapole moment (field-independent basis, Debye-Ang**3):
 XXXX=  -376.4031 YYYY=  -239.4448 ZZZZ=   -94.8786 XXXY=    -4.3989
 XXXZ=    11.7063 YYYX=   -14.8340 YYYZ=     3.9388 ZZZX=     0.0551
 ZZZY=    -0.6114 XXYY=  -111.1647 XXZZ=   -87.0810 YYZZ=   -55.9207
 XXYZ=    -0.7166 YYXZ=     0.7271 ZZXY=    -4.0850
 N-N= 2.485223782077D+02 E-N=-1.255628685740D+03  KE= 3.226391908851D+02
  Exact polarizability:  58.438  -0.538  55.486  -0.478  -2.585  45.488
 Approx polarizability:  71.981  -0.623  77.863  -1.040  -8.884  66.415
 Full mass-weighted force constant matrix:
 Low frequencies ---   -8.8969   -0.0011   -0.0011    0.0010    7.7304   13.6222
 Low frequencies ---   47.2963  215.0263  228.6351
 Diagonal vibrational polarizability:
       19.3312034      16.0339871      51.7880433
 Harmonic frequencies (cm**-1), IR intensities (KM/Mole), Raman scattering
 activities (A**4/AMU), depolarization ratios for plane and unpolarized
 incident light, reduced masses (AMU), force constants (mDyne/A),
 and normal coordinates:
                     1                      2                      3
                     A                      A                      A
 Frequencies --    47.2858               215.0244               228.6328
 Red. masses --     4.7169                 1.1623                 1.0875
 Frc consts  --     0.0062                 0.0317                 0.0335
 IR Inten    --     2.1674                40.7540                 3.2339
 Atom AN      X      Y      Z        X      Y      Z        X      Y      Z
   1   6     0.00   0.05   0.00     0.01  -0.01  -0.02     0.00   0.00  -0.03
   2   1     0.00   0.22   0.07     0.06  -0.04  -0.03     0.03   0.02  -0.02
   3   6     0.01   0.03   0.01     0.02   0.00  -0.02     0.01   0.01  -0.02
   4   8     0.06   0.17   0.25     0.04   0.01   0.01     0.04   0.01   0.01
   5   8    -0.05  -0.14  -0.25     0.01   0.01   0.03    -0.01   0.00   0.02
   6   1    -0.04  -0.11  -0.18     0.02   0.02   0.08     0.00   0.00   0.06
   7   7    -0.03   0.02  -0.18    -0.02  -0.03   0.05    -0.01   0.00  -0.03
   8   1     0.02   0.17  -0.38     0.36   0.23  -0.44    -0.12  -0.07   0.10
   9   1    -0.12  -0.19  -0.28    -0.60  -0.42  -0.13     0.11   0.10   0.02
  10   6     0.02  -0.11   0.20    -0.05   0.03  -0.02    -0.03  -0.02   0.02
  11   1     0.02  -0.06   0.23    -0.02  -0.01   0.06     0.17  -0.38   0.40
  12   1     0.03  -0.09   0.38    -0.03   0.03  -0.12     0.26   0.16  -0.40
  13   1     0.04  -0.31   0.14    -0.14   0.08   0.00    -0.57   0.16   0.09
                     4                      5                      6
                     A                      A                      A
 Frequencies --   239.2094               300.6840               377.4506
 Red. masses --     3.4086                 2.7366                 3.0809
 Frc consts  --     0.1149                 0.1458                 0.2586
 IR Inten    --     1.7790                 8.2559                14.0625
 Atom AN      X      Y      Z        X      Y      Z        X      Y      Z
   1   6     0.00  -0.12  -0.07     0.02   0.00  -0.13     0.01   0.03   0.11
   2   1    -0.03  -0.09  -0.06     0.16   0.00  -0.13    -0.06   0.06   0.12
   3   6     0.01  -0.06  -0.01     0.04   0.06  -0.12     0.08  -0.01   0.08
   4   8    -0.10   0.06   0.10     0.22   0.06  -0.02     0.06  -0.06  -0.01
   5   8     0.16   0.10   0.03    -0.06   0.03   0.04     0.17  -0.01  -0.05
   6   1     0.14   0.32   0.13     0.01   0.01   0.21     0.09   0.03  -0.25
   7   7     0.16   0.02  -0.09    -0.09  -0.07   0.09    -0.19  -0.12  -0.10
   8   1     0.26  -0.06  -0.05    -0.27  -0.23   0.35    -0.61  -0.05   0.01
   9   1     0.34   0.05  -0.07    -0.09   0.21   0.21    -0.02  -0.12  -0.10
  10   6    -0.26  -0.05   0.01    -0.11  -0.08   0.04    -0.09   0.16   0.03
  11   1    -0.29   0.19   0.10    -0.18   0.23   0.04    -0.14   0.34   0.00
  12   1    -0.46  -0.19   0.01    -0.31  -0.20   0.31    -0.26   0.03  -0.13
  13   1    -0.27  -0.11  -0.01     0.03  -0.34  -0.05    -0.06   0.34   0.08
                     7                      8                      9
                     A                      A                      A
 Frequencies --   495.8907               594.9632               635.9114
 Red. masses --     3.4602                 1.2634                 3.1910
 Frc consts  --     0.5013                 0.2635                 0.7603
 IR Inten    --    17.6199               102.6697                11.7784
 Atom AN      X      Y      Z        X      Y      Z        X      Y      Z
   1   6    -0.18   0.07  -0.08    -0.02  -0.02   0.00    -0.10  -0.11   0.18
   2   1    -0.27   0.05  -0.08    -0.07  -0.07  -0.02    -0.09  -0.08   0.18
[...]
    A8        1.95216  -0.00001   0.00000  -0.00008  -0.00008   1.95207
    A9        2.13908   0.00001   0.00000   0.00004   0.00004   2.13912
   A10        1.87482   0.00000   0.00000   0.00001   0.00001   1.87483
   A11        1.93607   0.00001   0.00000   0.00004   0.00004   1.93611
   A12        1.92271   0.00000   0.00000   0.00003   0.00003   1.92274
   A13        1.85751  -0.00001   0.00000  -0.00004  -0.00004   1.85747
   A14        1.90319   0.00000   0.00000   0.00000   0.00000   1.90318
   A15        1.94294   0.00000   0.00000   0.00002   0.00002   1.94296
   A16        1.92808  -0.00001   0.00000  -0.00007  -0.00007   1.92801
   A17        1.90661   0.00000   0.00000   0.00003   0.00003   1.90664
   A18        1.88913   0.00000   0.00000  -0.00005  -0.00005   1.88908
   A19        1.89302   0.00000   0.00000   0.00007   0.00007   1.89308
    D1        2.41060   0.00000   0.00000  -0.00017  -0.00017   2.41043
    D2       -0.74430   0.00000   0.00000  -0.00013  -0.00013  -0.74443
    D3        0.32536   0.00000   0.00000  -0.00007  -0.00007   0.32529
    D4       -2.82955   0.00000   0.00000  -0.00003  -0.00003  -2.82957
    D5       -1.83002   0.00000   0.00000  -0.00011  -0.00011  -1.83013
    D6        1.29826   0.00000   0.00000  -0.00007  -0.00007   1.29819
    D7       -1.00244   0.00000   0.00000  -0.00037  -0.00037  -1.00281
    D8       -3.05458   0.00000   0.00000  -0.00037  -0.00037  -3.05494
    D9        1.06823   0.00000   0.00000  -0.00051  -0.00051   1.06772
   D10       -0.98391   0.00000   0.00000  -0.00050  -0.00050  -0.98441
   D11       -3.06869   0.00000   0.00000  -0.00047  -0.00047  -3.06916
   D12        1.16236   0.00000   0.00000  -0.00046  -0.00046   1.16190
   D13       -1.07178   0.00000   0.00000  -0.00002  -0.00002  -1.07180
   D14        1.03301   0.00000   0.00000   0.00003   0.00003   1.03304
   D15        3.13733   0.00000   0.00000   0.00008   0.00008   3.13742
   D16       -3.09842   0.00000   0.00000   0.00003   0.00003  -3.09839
   D17       -0.99363   0.00000   0.00000   0.00009   0.00009  -0.99354
   D18        1.11070   0.00000   0.00000   0.00014   0.00014   1.11083
   D19        0.99471   0.00000   0.00000   0.00001   0.00001   0.99472
   D20        3.09950   0.00000   0.00000   0.00006   0.00006   3.09956
   D21       -1.07936   0.00000   0.00000   0.00011   0.00011  -1.07925
   D22       -3.10953   0.00000   0.00000  -0.00004  -0.00004  -3.10956
   D23        0.01922   0.00000   0.00000   0.00001   0.00001   0.01923
         Item               Value     Threshold  Converged?
 Maximum Force            0.000017     0.000450     YES
 RMS     Force            0.000006     0.000300     YES
 Maximum Displacement     0.000759     0.001800     YES
 RMS     Displacement     0.000175     0.001200     YES
 Predicted change in Energy=-6.016518D-09
 Optimization completed.
    -- Stationary point found.
                           ----------------------------
                           !   Optimized Parameters   !
                           ! (Angstroms and Degrees)  !
 --------------------------                            --------------------------
 ! Name  Definition              Value          Derivative Info.                !
 --------------------------------------------------------------------------------
 ! R1    R(1,2)                  1.0943         -DE/DX =    0.0                 !
 ! R2    R(1,3)                  1.5315         -DE/DX =    0.0                 !
 ! R3    R(1,7)                  1.4548         -DE/DX =    0.0                 !
 ! R4    R(1,10)                 1.5374         -DE/DX =    0.0                 !
 ! R5    R(3,4)                  1.2056         -DE/DX =    0.0                 !
 ! R6    R(3,5)                  1.3564         -DE/DX =    0.0                 !
 ! R7    R(5,6)                  0.9694         -DE/DX =    0.0                 !
 ! R8    R(7,8)                  1.015          -DE/DX =    0.0                 !
 ! R9    R(7,9)                  1.0161         -DE/DX =    0.0                 !
 ! R10   R(10,11)                1.0908         -DE/DX =    0.0                 !
 ! R11   R(10,12)                1.0912         -DE/DX =    0.0                 !
 ! R12   R(10,13)                1.0942         -DE/DX =    0.0                 !
 ! A1    A(2,1,3)              106.9022         -DE/DX =    0.0                 !
 ! A2    A(2,1,7)              108.3622         -DE/DX =    0.0                 !
 ! A3    A(2,1,10)             108.3393         -DE/DX =    0.0                 !
 ! A4    A(3,1,7)              113.6004         -DE/DX =    0.0                 !
 ! A5    A(3,1,10)             109.2527         -DE/DX =    0.0                 !
 ! A6    A(7,1,10)             110.2061         -DE/DX =    0.0                 !
 ! A7    A(1,3,4)              125.5845         -DE/DX =    0.0                 !
 ! A8    A(1,3,5)              111.8504         -DE/DX =    0.0                 !
 ! A9    A(4,3,5)              122.5605         -DE/DX =    0.0                 !
 ! A10   A(3,5,6)              107.4194         -DE/DX =    0.0                 !
 ! A11   A(1,7,8)              110.9287         -DE/DX =    0.0                 !
 ! A12   A(1,7,9)              110.1631         -DE/DX =    0.0                 !
 ! A13   A(8,7,9)              106.4272         -DE/DX =    0.0                 !
 ! A14   A(1,10,11)            109.0446         -DE/DX =    0.0                 !
 ! A15   A(1,10,12)            111.3223         -DE/DX =    0.0                 !
 ! A16   A(1,10,13)            110.4711         -DE/DX =    0.0                 !
 ! A17   A(11,10,12)           109.2407         -DE/DX =    0.0                 !
 ! A18   A(11,10,13)           108.2393         -DE/DX =    0.0                 !
 ! A19   A(12,10,13)           108.4619         -DE/DX =    0.0                 !
 ! D1    D(2,1,3,4)            138.1174         -DE/DX =    0.0                 !
 ! D2    D(2,1,3,5)            -42.6453         -DE/DX =    0.0                 !
 ! D3    D(7,1,3,4)             18.6416         -DE/DX =    0.0                 !
 ! D4    D(7,1,3,5)           -162.1211         -DE/DX =    0.0                 !
 ! D5    D(10,1,3,4)          -104.8523         -DE/DX =    0.0                 !
 ! D6    D(10,1,3,5)            74.385          -DE/DX =    0.0                 !
 ! D7    D(2,1,7,8)            -57.4355         -DE/DX =    0.0                 !
 ! D8    D(2,1,7,9)           -175.0144         -DE/DX =    0.0                 !
 ! D9    D(3,1,7,8)             61.2051         -DE/DX =    0.0                 !
 ! D10   D(3,1,7,9)            -56.3738         -DE/DX =    0.0                 !
 ! D11   D(10,1,7,8)          -175.8228         -DE/DX =    0.0                 !
 ! D12   D(10,1,7,9)            66.5983         -DE/DX =    0.0                 !
 ! D13   D(2,1,10,11)          -61.4086         -DE/DX =    0.0                 !
 ! D14   D(2,1,10,12)           59.1871         -DE/DX =    0.0                 !
 ! D15   D(2,1,10,13)          179.756          -DE/DX =    0.0                 !
 ! D16   D(3,1,10,11)         -177.5263         -DE/DX =    0.0                 !
 ! D17   D(3,1,10,12)          -56.9306         -DE/DX =    0.0                 !
 ! D18   D(3,1,10,13)           63.6383         -DE/DX =    0.0                 !
 ! D19   D(7,1,10,11)           56.9927         -DE/DX =    0.0                 !
 ! D20   D(7,1,10,12)          177.5884         -DE/DX =    0.0                 !
 ! D21   D(7,1,10,13)          -61.8427         -DE/DX =    0.0                 !
 ! D22   D(1,3,5,6)           -178.1628         -DE/DX =    0.0                 !
 ! D23   D(4,3,5,6)              1.1012         -DE/DX =    0.0                 !
 --------------------------------------------------------------------------------
 GradGradGradGradGradGradGradGradGradGradGradGradGradGradGradGradGradGrad

 1|1|UNPC-UNK|Freq|RB3LYP|6-311++G(d,p)|C3H7N1O2|PCUSER|29-Mar-2016|0||
 #N Geom=AllCheck Guess=Read SCRF=Check GenChk RB3LYP/6-311++G(d,p) Fre
 q||Ala-R-opt-freq-6-311++g(d,p)||0,1|C,0.66545,0.136964,-0.398314|H,0.
 642833,0.492184,-1.433125|C,-0.781139,-0.172453,-0.002051|O,-1.145273,
 -1.131754,0.630905|O,-1.639205,0.783818,-0.436789|H,-2.525382,0.540718
 ,-0.127895|N,1.547904,-1.017535,-0.329267|H,1.240675,-1.747203,-0.9643
 78|H,1.525534,-1.420193,0.603377|C,1.203198,1.270285,0.49052|H,2.21802
 8,1.517903,0.176463|H,0.577309,2.161249,0.419414|H,1.236449,0.952799,1
 .537158||Version=IA32W-G03RevE.01|State=1-A|HF=-323.8560796|RMSD=2.621
 e-009|RMSF=9.007e-006|ZeroPoint=0.1075921|Thermal=0.1145495|Dipole=-0.
 2756304,0.3967901,-0.1742026|DipoleDeriv=0.243673,-0.1784676,-0.028033
 2,-0.3478243,0.4075882,0.089392,0.0012604,0.0099256,0.1875384,0.011929
 4,0.0176652,-0.0158539,0.0240697,0.0188997,0.0216159,-0.0206954,0.0426
 062,-0.0887591,1.2861234,-0.125993,0.0675566,-0.2008162,1.295144,-0.63
 90219,-0.001594,-0.6936019,0.558118,-0.7416247,-0.239944,0.1578841,-0.
 0222587,-0.9334374,0.3207045,0.0800957,0.404683,-0.5534535,-0.9124509,
 0.5373797,-0.2745735,0.3826334,-0.7957224,0.2135726,-0.1702063,0.18185
 99,-0.4499685,0.2673222,-0.0281444,0.0380435,-0.0688827,0.2657183,0.05
 2675,0.059547,0.0561095,0.2984295,-0.6704912,0.1467362,0.076322,0.1441
 231,-0.4881656,-0.036571,0.0636557,-0.0178826,-0.2495604,0.2148827,-0.
 0883907,-0.1268576,-0.0037521,0.0581329,-0.0483935,-0.0917029,-0.01641
 11,0.1609547,0.2903677,-0.0225111,0.085977,0.0420734,0.1325808,0.01153
 05,0.0188465,0.0381945,0.0590444,0.0141455,-0.0238113,-0.0004328,0.041
 4117,0.0264239,-0.0459664,0.0710086,-0.0289056,0.080561,-0.092687,-0.0
 754054,0.0299794,-0.0536453,0.0535036,-0.005972,0.0378668,-0.0043208,0
 .0483932,0.0221891,0.1048082,-0.0100978,0.0690761,-0.0621635,-0.018121
 1,-0.0208203,0.0050718,0.0618559,0.0666208,-0.0239219,0.0000863,-0.006
 2081,0.0214977,0.0845554,-0.0272618,0.0226714,-0.1131536|Polar=58.4379
 206,-0.5384223,55.4858379,-0.4776104,-2.5848588,45.4876549|PG=C01 [X(C
 3H7N1O2)]|NImag=0||0.43565990,-0.02974366,0.49216094,0.01488857,-0.060
 51824,0.57942475,-0.04939386,0.00169300,0.00449261,0.05863851,0.002289
 60,-0.06922744,0.07537366,-0.00461106,0.08631099,0.00086736,0.07914558
 ,-0.27761335,0.00188718,-0.08497375,0.30052427,-0.14248340,-0.01270738
 ,0.02015465,0.00278205,-0.00291393,-0.00107415,0.59796050,-0.01679225,
 -0.07429033,-0.00316477,-0.00944135,-0.00363570,0.00520055,0.09993173,
 0.71891014,0.01456849,-0.00540833,-0.09642788,0.03294161,0.01039737,-0
 .01070748,-0.11807111,-0.30346276,0.43111640,-0.00499046,-0.03023245,0
 .02501901,-0.00699238,-0.00194880,0.00204261,-0.18560502,-0.15297330,0
 .10926014,0.16239782,-0.00726250,-0.01469748,0.02191956,-0.00393554,0.
 00010210,-0.00055253,-0.16767477,-0.47942069,0.26797683,0.16261025,0.5
 6056491,0.01093441,0.02397405,0.00881854,-0.00078377,-0.00030346,0.000
 53434,0.11751277,0.26514829,-0.25389615,-0.11931305,-0.34268037,0.2539
 2429,-0.02531521,0.02667012,-0.01065552,-0.00137072,0.00133418,-0.0003
 7846,-0.18974484,0.06955803,-0.02115671,0.03048823,0.02284788,-0.01437
 804,0.60240667,0.00306390,0.00502272,0.00402734,0.00018484,0.00009675,
 -0.00079335,0.04870963,-0.15440685,0.04793941,0.03281684,-0.07268491,0
 .05565995,0.00615678,0.29312806,0.00390022,-0.00018398,0.00977087,-0.0
 0194883,-0.00077697,0.00148102,-0.00729496,0.04349093,-0.08738452,-0.0
 2024156,0.05705950,-0.00240322,-0.10313048,-0.15666944,0.15175317,0.00
 212365,0.00553778,-0.00249149,0.00062134,-0.00030439,0.00034970,-0.044
 16297,-0.00141922,0.00928260,0.00657180,-0.00673605,0.00199379,-0.4033
 0044,-0.08985012,0.12485493,0.43951114,0.00199830,-0.00183233,0.003692
 15,-0.00014673,-0.00037675,0.00005048,0.03741469,0.01412151,-0.0123174
 0,-0.00621661,-0.00239398,-0.00117171,-0.12766475,-0.07325958,0.058143
 29,0.09300438,0.06357332,-0.00003649,0.00369452,0.00234476,-0.00033482
 ,-0.00040026,0.00037243,-0.01473992,-0.00531811,0.01004598,0.00136740,
 -0.00128662,-0.00566687,0.14826326,0.05107923,-0.07409115,-0.13398645,
 -0.04806733,0.06660261,-0.11004808,0.04646125,-0.00696241,-0.00379117,
 0.00596434,-0.00189780,-0.02920515,0.03008370,0.00302772,-0.00038563,0
 .00318447,-0.00316052,-0.01108055,0.00074816,0.00124542,-0.00139378,0.
 00116713,-0.00101691,0.22471505,0.09284769,-0.16570922,-0.00112831,0.0
 1088929,-0.01383867,0.00173689,0.01072176,-0.00796785,0.00033882,-0.00
 358194,0.00488441,0.00002893,0.00062246,0.00201685,-0.00109896,0.00029
 792,-0.00032363,0.00011848,-0.02831405,0.57381478,-0.01900348,0.010642
 83,-0.10353271,-0.02288156,0.02793924,0.00120979,0.00453971,-0.0038614
 2,0.00140248,0.00037574,-0.00304261,0.00068077,0.00204172,-0.00071743,
 0.00106596,0.00002164,-0.00025793,0.00058457,0.09038730,0.03564258,0.6
 6180562,0.00012822,0.02100278,0.01868054,0.00069666,-0.00062520,-0.000
 29716,0.00103816,0.00416739,0.00048463,0.00001745,-0.00167596,-0.00011
 736,0.00045091,-0.00078729,0.00010824,-0.00001362,0.00005084,-0.000091
 42,-0.06167428,-0.09530907,-0.11111898,0.06326471,-0.01357943,-0.02098
 148,-0.01886134,-0.00053830,0.00035844,0.00053976,-0.00026191,0.000187
 38,0.00026374,-0.00011486,0.00065757,-0.00042037,-0.00039703,0.0001550
 1,0.00003371,-0.00002595,0.00000716,-0.00003957,-0.06490703,-0.2441281
 7,-0.17252686,0.07182217,0.25763724,0.00196086,0.00294605,0.00308299,0
 .00035113,0.00035973,0.00039633,-0.00031646,-0.00168383,0.00095914,-0.
 00029034,0.00157349,0.00002446,-0.00084536,0.00071406,-0.00053581,-0.0
 0000009,-0.00000846,0.00002306,-0.07558426,-0.15352757,-0.19636334,0.0
 8880559,0.17766790,0.21445974,-0.00631530,0.01391617,-0.02482968,-0.00
 184914,0.00291596,0.00042569,0.00010542,0.00423518,-0.00509765,0.00121
 039,-0.00195176,0.00168432,0.00118720,-0.00178332,0.00117746,-0.000300
 51,0.00011936,0.00017654,-0.01558647,-0.00826361,0.04048186,-0.0028292
 5,0.00320508,-0.01340570,0.02380194,-0.00246504,-0.01334715,0.03212782
 ,0.00392329,-0.00457513,-0.00034523,-0.00024688,0.00008359,0.00051552,
 -0.00013723,0.00045047,-0.00073936,0.00004261,-0.00000480,-0.00000882,
 -0.00003496,0.00004444,-0.00006777,0.01150279,-0.11604316,0.13315985,-
 0.00095930,0.01159532,-0.02935440,-0.01124523,0.12097586,0.00134820,0.
 00163115,-0.00161193,-0.00004053,-0.00002356,0.00200333,0.00113220,0.0
 0012049,-0.00011113,0.00061944,-0.00136438,-0.00011134,0.00039341,-0.0
 0017761,0.00014595,0.00007066,0.,0.00005660,-0.00630230,0.12167754,-0.
 36748610,0.00398133,0.01275852,-0.02377657,-0.00155890,-0.13503898,0.3
 8936876,-0.09091683,-0.03281406,-0.03054074,0.00012289,-0.00087520,-0.
 00075217,-0.01316006,-0.02712359,-0.02096214,-0.00234338,0.00107941,0.
 00458991,-0.00200176,0.00123637,0.00097921,0.00044465,0.00036592,0.000
 62199,0.00706240,0.02001796,0.01471969,-0.00201238,0.00525316,-0.00026
 741,0.00044127,-0.00030315,0.00022713,0.56560112,-0.01711791,-0.117951
 03,-0.03772940,0.00283599,0.00629893,0.00282714,-0.01891320,-0.0084933
 6,-0.00175256,0.00139622,0.00226012,-0.00089454,0.00168229,-0.00282660
 ,-0.00062680,-0.00013443,0.00001225,0.00008565,-0.00399896,-0.03348680
 ,-0.02377081,0.00151465,-0.00501430,0.00073057,-0.00083923,0.00099745,
 -0.00001336,-0.03932226,0.51132655,-0.01856979,-0.04082300,-0.11003399
 ,-0.01256969,-0.02581924,-0.01927012,-0.00565231,0.00522481,0.00920217
 ,0.00329466,0.00190094,-0.00499099,0.00115800,-0.00132677,0.00003784,-
 0.00004710,-0.00022300,-0.00025120,0.00099921,-0.00218806,0.00101029,-
 0.00056173,0.00171746,0.00078077,0.00065088,0.00166535,0.00192599,-0.0
 2688041,-0.04982936,0.52217164,-0.01278854,-0.00292314,0.00265579,0.00
 027701,0.00039053,-0.00019105,0.00117040,-0.00075887,-0.00279056,-0.00
 040526,-0.00041968,0.00068746,-0.00051909,-0.00014359,0.00014617,0.000
 15608,0.00004024,0.00006187,0.00166556,0.00116869,0.00082980,0.0002651
 9,0.00013227,-0.00014036,-0.00014765,0.00000333,-0.00005070,-0.2779753
 4,-0.05561105,0.07432969,0.30062635,-0.02549852,-0.00852515,0.00502972
 ,0.00085000,0.00104480,0.00044818,0.00234638,-0.00414030,-0.00423975,-
 0.00128307,-0.00016916,0.00144573,-0.00064266,0.00120189,0.00038492,-0
 .00005821,0.00010562,0.00016879,0.00053748,0.00198198,0.00107113,0.000
 26991,0.00043474,-0.00005623,-0.00040463,-0.00025634,0.00003501,-0.053
 02758,-0.05830529,0.01883965,0.06175664,0.06175359,-0.02153642,-0.0067
 9503,0.00388010,-0.00016959,0.00087909,0.00111937,0.00145577,-0.003082
 01,-0.00369787,-0.00133776,-0.00063915,0.00202210,-0.00084033,0.000538
 27,0.00025659,0.00005016,-0.00000089,-0.00000329,0.00026497,0.00151532
 ,0.00041898,-0.00015744,0.00026131,-0.00008695,0.00028655,-0.00004686,
 -0.00006658,0.07613607,0.01947896,-0.07040169,-0.07994828,-0.01725234,
 0.07497299,0.00661853,-0.01038877,0.00236980,0.00045686,0.00049594,0.0
 0039926,0.00041521,-0.00080051,0.00066656,0.00001357,0.00015587,-0.000
 29483,-0.00082775,-0.00028741,-0.00019730,-0.00016489,-0.00001165,-0.0
 0011518,-0.00025855,-0.00169457,-0.00142438,0.00083666,-0.00069737,-0.
 00026834,-0.00025833,-0.00002782,-0.00007521,-0.13737999,0.12674596,-0
 .01112771,-0.01478005,0.02432395,-0.00329491,0.14573880,0.01376264,-0.
 01658588,0.00450694,0.00016827,0.00090651,-0.00012492,0.00224392,-0.00
 254435,0.00059643,-0.00059822,0.00064161,-0.00031059,-0.00024200,0.001
 58572,0.00015611,-0.00029903,0.00024117,0.00004639,-0.00204925,-0.0036
 2131,-0.00459213,0.00053616,-0.00124388,0.00040178,0.00003755,0.000482
 38,-0.00004313,0.12293866,-0.22325803,0.01503025,-0.00439201,0.0078209
 5,-0.00106815,-0.13667099,0.24273465,0.01287807,-0.01335358,0.00145059
 ,0.00064682,0.00050990,0.00049086,0.00027378,-0.00009446,0.00067960,-0
 .00004196,0.00016596,-0.00006479,-0.00002654,-0.00013596,-0.00033002,-
 0.00008182,0.00021410,0.00008085,-0.00120981,-0.00386103,-0.00266665,0
 .00018620,-0.00139419,0.00059330,-0.00013693,-0.00059328,-0.00010591,-
 0.01237051,0.01693249,-0.04910293,0.00493454,-0.00864450,-0.00011007,0
 .01335101,-0.01512474,0.04973722,-0.00227862,0.00352838,-0.01278113,-0
 .00019806,-0.00211197,-0.00138099,0.00088970,0.00133305,-0.00215359,0.
 00002286,-0.00022162,0.00064491,-0.00037266,-0.00006480,0.00040148,-0.
 00009244,-0.00012113,-0.00016986,-0.00001935,0.00059747,0.00103094,-0.
 00016842,0.00010920,0.00000075,0.00054041,-0.00005241,0.00025526,-0.04
 788260,0.00176193,-0.00502369,0.00245534,-0.00916970,0.02909121,-0.000
 41006,0.00456431,-0.01840284,0.04751389,-0.00150283,0.00596381,-0.0252
 7512,-0.00187170,-0.00346483,-0.00315881,0.00134995,0.00159681,-0.0008
 4732,0.00026319,-0.00019498,0.00026343,0.00003208,-0.00002427,0.000096
 50,0.00002228,0.00008080,-0.00001340,-0.00038005,0.00242079,0.00031357
 ,-0.00000708,0.00033496,0.00023690,0.00005848,-0.00040295,0.00043832,0
 .00257436,-0.07155988,0.07583098,0.00075664,-0.00294733,0.00621149,-0.
 00114262,-0.00715953,0.02537930,-0.00015271,0.07535661,-0.00219999,0.0
 0504799,-0.01955275,-0.00159056,-0.00316175,-0.00054078,0.00208002,0.0
 0148229,-0.00118075,-0.00075433,-0.00103061,0.00112887,-0.00044496,-0.
 00013771,0.00023332,-0.00001653,-0.00005330,-0.00009835,0.00020938,0.0
 0074537,0.00187035,0.00009755,-0.00000008,0.00044289,0.00014558,-0.001
 27385,-0.00023107,-0.00550061,0.07456203,-0.28107778,-0.00052436,0.002
 76969,-0.00830366,0.00001124,0.00052576,-0.00065205,0.00848756,-0.0794
 7583,0.30796176||-0.00001436,-0.00002200,0.00000286,0.00000716,0.00000
 868,-0.00000048,0.00000990,0.00001783,-0.00001066,-0.00000102,0.000003
 18,-0.00000674,0.00000330,-0.00001777,0.00000685,0.00000022,-0.0000025
 5,-0.00000486,-0.00000318,-0.00000552,0.00000890,0.00000603,0.00001734
 ,0.00000592,-0.00000128,0.00000780,-0.00000871,0.00001052,-0.00001999,
 -0.00000278,-0.00000481,0.00000434,0.00000235,-0.00000487,0.00000257,0
 .00000306,-0.00000761,0.00000610,0.00000429|||@


 Children are likely to live up to what you believe of them.
 -- Lady Bird Johnson
 Job cpu time:  0 days  0 hours 16 minutes 25.0 seconds.
 File lengths (MBytes):  RWF=     45 Int=      0 D2E=      0 Chk=      6 Scr=      1
 Normal termination of Gaussian 03 at Tue Mar 29 15:36:06 2016.
