 Entering Gaussian System, Link 0=g09
 Input=Ala-S-opt-freq-tsa3-6-31g.com
 Output=Ala-S-opt-freq-tsa3-6-31g.log
 Initial command:
 /usr/local/gau/g09/l1.exe "/tmp/Gau-3000.inp" -scrdir="/tmp/"
 Entering Link 1 = /usr/local/gau/g09/l1.exe PID=      3002.
  
 Copyright (c) 1988,1990,1992,1993,1995,1998,2003,2009,2013,
            Gaussian, Inc.  All Rights Reserved.
  
 This is part of the Gaussian(R) 09 program.  It is based on
 the Gaussian(R) 03 system (copyright 2003, Gaussian, Inc.),
 the Gaussian(R) 98 system (copyright 1998, Gaussian, Inc.),
 the Gaussian(R) 94 system (copyright 1995, Gaussian, Inc.),
 the Gaussian 92(TM) system (copyright 1992, Gaussian, Inc.),
 the Gaussian 90(TM) system (copyright 1990, Gaussian, Inc.),
 the Gaussian 88(TM) system (copyright 1988, Gaussian, Inc.),
 the Gaussian 86(TM) system (copyright 1986, Carnegie Mellon
 University), and the Gaussian 82(TM) system (copyright 1983,
 Carnegie Mellon University). Gaussian is a federally registered
 trademark of Gaussian, Inc.
  
 This software contains proprietary and confidential information,
 including trade secrets, belonging to Gaussian, Inc.
  
 This software is provided under written license and may be
 used, copied, transmitted, or stored only in accord with that
 written license.
  
 The following legend is applicable only to US Government
 contracts under FAR:
  
                    RESTRICTED RIGHTS LEGEND
  
 Use, reproduction and disclosure by the US Government is
 subject to restrictions as set forth in subparagraphs (a)
 and (c) of the Commercial Computer Software - Restricted
 Rights clause in FAR 52.227-19.
  
 Gaussian, Inc.
 340 Quinnipiac St., Bldg. 40, Wallingford CT 06492
  
  
 ---------------------------------------------------------------
 Warning -- This program may not be used in any manner that
 competes with the business of Gaussian, Inc. or will provide
 assistance to any competitor of Gaussian, Inc.  The licensee
 of this program is prohibited from giving any competitor of
 Gaussian, Inc. access to this program.  By using this program,
 the user acknowledges that Gaussian, Inc. is engaged in the
 business of creating and licensing software in the field of
 computational chemistry and represents and warrants to the
 licensee that it is not a competitor of Gaussian, Inc. and that
 it will not use this program in any manner prohibited above.
 ---------------------------------------------------------------
  

 Cite this work as:
 Gaussian 09, Revision D.01,
 M. J. Frisch, G. W. Trucks, H. B. Schlegel, G. E. Scuseria, 
 M. A. Robb, J. R. Cheeseman, G. Scalmani, V. Barone, B. Mennucci, 
 G. A. Petersson, H. Nakatsuji, M. Caricato, X. Li, H. P. Hratchian, 
 A. F. Izmaylov, J. Bloino, G. Zheng, J. L. Sonnenberg, M. Hada, 
 M. Ehara, K. Toyota, R. Fukuda, J. Hasegawa, M. Ishida, T. Nakajima, 
 Y. Honda, O. Kitao, H. Nakai, T. Vreven, J. A. Montgomery, Jr., 
 J. E. Peralta, F. Ogliaro, M. Bearpark, J. J. Heyd, E. Brothers, 
 K. N. Kudin, V. N. Staroverov, T. Keith, R. Kobayashi, J. Normand, 
 K. Raghavachari, A. Rendell, J. C. Burant, S. S. Iyengar, J. Tomasi, 
 M. Cossi, N. Rega, J. M. Millam, M. Klene, J. E. Knox, J. B. Cross, 
 V. Bakken, C. Adamo, J. Jaramillo, R. Gomperts, R. E. Stratmann, 
 O. Yazyev, A. J. Austin, R. Cammi, C. Pomelli, J. W. Ochterski, 
 R. L. Martin, K. Morokuma, V. G. Zakrzewski, G. A. Voth, 
 P. Salvador, J. J. Dannenberg, S. Dapprich, A. D. Daniels, 
 O. Farkas, J. B. Foresman, J. V. Ortiz, J. Cioslowski, 
 and D. J. Fox, Gaussian, Inc., Wallingford CT, 2013.
 
 ******************************************
 Gaussian 09:  ES64L-G09RevD.01 24-Apr-2013
                14-Apr-2016 
 ******************************************
 %chk=Ala-S-opt-freq-tsa3-6-31g.chk
 ------------------------------------------------
 #p opt=(calcfc,ts) freq rb3lyp/6-31g iop(1/11=1)
 ------------------------------------------------
 1/5=1,10=4,11=1,14=-1,18=20,26=3,38=1/1,3;
 2/9=110,12=2,17=6,18=5,40=1/2;
 3/5=1,6=6,11=2,16=1,25=1,30=1,71=2,74=-5,116=1,140=1/1,2,3;
 4//1;
 5/5=2,38=5/2;
 8/6=4,10=90,11=11/1;
 11/6=1,8=1,9=11,15=111,16=1/1,2,10;
 10/6=1,13=1/2;
 6/7=2,8=2,9=2,10=2,28=1/1;
 7/10=1,18=20,25=1/1,2,3,16;
 1/5=1,10=4,11=1,14=-1,18=20,26=3/3(2);
 2/9=110/2;
 99//99;
 2/9=110/2;
 3/5=1,6=6,11=2,16=1,25=1,30=1,71=1,74=-5,116=1/1,2,3;
 4/5=5,16=3,69=1/1;
 5/5=2,38=5/2;
 7//1,2,3,16;
 1/5=1,11=1,14=-1,18=20,26=3/3(-5);
 2/9=110/2;
 6/7=2,8=2,9=2,10=2,19=2,28=1/1;
 99/9=1/99;
 Leave Link    1 at Thu Apr 14 10:20:19 2016, MaxMem=           0 cpu:         0.0
 (Enter /usr/local/gau/g09/l101.exe)
 -------------------------
 Ala-S-opt-freq-tsa3-6-31g
 -------------------------
 Symbolic Z-matrix:
 Charge =  0 Multiplicity = 1
 N                     1.23782   1.40393   0.02051 
 H                     2.23505   1.47986  -0.06195 
 C                     0.61987   0.15551  -0.00472 
 H                     0.07592  -1.17185   0.68266 
 C                     1.5279   -1.04257  -0.0124 
 C                    -0.72117   0.04901  -0.0112 
 H                     2.17342  -1.04548   0.87626 
 H                     0.94663  -1.96508  -0.01538 
 H                     2.18313  -1.03552  -0.89493 
 O                    -1.53045   1.20022  -0.1025 
 H                     0.67547   2.23172  -0.07621 
 O                    -1.41142  -1.16652   0.09291 
 H                    -2.14348   1.24837   0.66244 
 
 Add virtual bond connecting atoms H8         and H4         Dist= 2.59D+00.
 NAtoms=     13 NQM=       13 NQMF=       0 NMMI=      0 NMMIF=      0
                NMic=       0 NMicF=      0.
                    Isotopes and Nuclear Properties:
 (Nuclear quadrupole moments (NQMom) in fm**2, nuclear magnetic moments (NMagM)
  in nuclear magnetons)

  Atom         1           2           3           4           5           6           7           8           9          10
 IAtWgt=          14           1          12           1          12          12           1           1           1          16
 AtmWgt=  14.0030740   1.0078250  12.0000000   1.0078250  12.0000000  12.0000000   1.0078250   1.0078250   1.0078250  15.9949146
 NucSpn=           2           1           0           1           0           0           1           1           1           0
 AtZEff=   0.0000000   0.0000000   0.0000000   0.0000000   0.0000000   0.0000000   0.0000000   0.0000000   0.0000000   0.0000000
 NQMom=    2.0440000   0.0000000   0.0000000   0.0000000   0.0000000   0.0000000   0.0000000   0.0000000   0.0000000   0.0000000
 NMagM=    0.4037610   2.7928460   0.0000000   2.7928460   0.0000000   0.0000000   2.7928460   2.7928460   2.7928460   0.0000000
 AtZNuc=   7.0000000   1.0000000   6.0000000   1.0000000   6.0000000   6.0000000   1.0000000   1.0000000   1.0000000   8.0000000

  Atom        11          12          13
 IAtWgt=           1          16           1
 AtmWgt=   1.0078250  15.9949146   1.0078250
 NucSpn=           1           0           1
 AtZEff=   0.0000000   0.0000000   0.0000000
 NQMom=    0.0000000   0.0000000   0.0000000
 NMagM=    2.7928460   0.0000000   2.7928460
 AtZNuc=   1.0000000   8.0000000   1.0000000
 Leave Link  101 at Thu Apr 14 10:20:19 2016, MaxMem=    33554432 cpu:         0.1
 (Enter /usr/local/gau/g09/l103.exe)

 GradGradGradGradGradGradGradGradGradGradGradGradGradGradGradGradGradGrad
 Berny optimization.
 Initialization pass.
                           ----------------------------
                           !    Initial Parameters    !
                           ! (Angstroms and Degrees)  !
 --------------------------                            --------------------------
 ! Name  Definition              Value          Derivative Info.                !
 --------------------------------------------------------------------------------
 ! R1    R(1,2)                  1.0035         calculate D2E/DX2 analytically  !
 ! R2    R(1,3)                  1.3932         calculate D2E/DX2 analytically  !
 ! R3    R(1,11)                 1.0054         calculate D2E/DX2 analytically  !
 ! R4    R(3,5)                  1.5033         calculate D2E/DX2 analytically  !
 ! R5    R(3,6)                  1.3453         calculate D2E/DX2 analytically  !
 ! R6    R(4,8)                  1.3692         calculate D2E/DX2 analytically  !
 ! R7    R(5,7)                  1.0984         calculate D2E/DX2 analytically  !
 ! R8    R(5,8)                  1.0904         calculate D2E/DX2 analytically  !
 ! R9    R(5,9)                  1.0992         calculate D2E/DX2 analytically  !
 ! R10   R(6,10)                 1.4102         calculate D2E/DX2 analytically  !
 ! R11   R(6,12)                 1.4017         calculate D2E/DX2 analytically  !
 ! R12   R(10,13)                0.9815         calculate D2E/DX2 analytically  !
 ! A1    A(2,1,3)              120.4689         calculate D2E/DX2 analytically  !
 ! A2    A(2,1,11)             119.0538         calculate D2E/DX2 analytically  !
 ! A3    A(3,1,11)             119.2059         calculate D2E/DX2 analytically  !
 ! A4    A(1,3,5)              116.508          calculate D2E/DX2 analytically  !
 ! A5    A(1,3,6)              120.8748         calculate D2E/DX2 analytically  !
 ! A6    A(5,3,6)              122.6153         calculate D2E/DX2 analytically  !
 ! A7    A(3,5,7)              110.6686         calculate D2E/DX2 analytically  !
 ! A8    A(3,5,8)              110.6273         calculate D2E/DX2 analytically  !
 ! A9    A(3,5,9)              111.0413         calculate D2E/DX2 analytically  !
 ! A10   A(7,5,8)              108.2564         calculate D2E/DX2 analytically  !
 ! A11   A(7,5,9)              107.4144         calculate D2E/DX2 analytically  !
 ! A12   A(8,5,9)              108.7238         calculate D2E/DX2 analytically  !
 ! A13   A(3,6,10)             120.5154         calculate D2E/DX2 analytically  !
 ! A14   A(3,6,12)             123.9986         calculate D2E/DX2 analytically  !
 ! A15   A(10,6,12)            115.4764         calculate D2E/DX2 analytically  !
 ! A16   A(4,8,5)               81.2257         calculate D2E/DX2 analytically  !
 ! A17   A(6,10,13)            110.368          calculate D2E/DX2 analytically  !
 ! D1    D(2,1,3,5)              6.2762         calculate D2E/DX2 analytically  !
 ! D2    D(2,1,3,6)           -174.2135         calculate D2E/DX2 analytically  !
 ! D3    D(11,1,3,5)           173.2777         calculate D2E/DX2 analytically  !
 ! D4    D(11,1,3,6)            -7.2119         calculate D2E/DX2 analytically  !
 ! D5    D(1,3,5,7)             59.0596         calculate D2E/DX2 analytically  !
 ! D6    D(1,3,5,8)            179.0434         calculate D2E/DX2 analytically  !
 ! D7    D(1,3,5,9)            -60.1392         calculate D2E/DX2 analytically  !
 ! D8    D(6,3,5,7)           -120.4415         calculate D2E/DX2 analytically  !
 ! D9    D(6,3,5,8)             -0.4577         calculate D2E/DX2 analytically  !
 ! D10   D(6,3,5,9)            120.3597         calculate D2E/DX2 analytically  !
 ! D11   D(1,3,6,10)             5.1914         calculate D2E/DX2 analytically  !
 ! D12   D(1,3,6,12)          -173.6291         calculate D2E/DX2 analytically  !
 ! D13   D(5,3,6,10)          -175.3288         calculate D2E/DX2 analytically  !
 ! D14   D(5,3,6,12)             5.8507         calculate D2E/DX2 analytically  !
 ! D15   D(3,5,8,4)            -30.7733         calculate D2E/DX2 analytically  !
 ! D16   D(7,5,8,4)             90.6462         calculate D2E/DX2 analytically  !
 ! D17   D(9,5,8,4)           -152.9585         calculate D2E/DX2 analytically  !
 ! D18   D(3,6,10,13)         -122.8659         calculate D2E/DX2 analytically  !
 ! D19   D(12,6,10,13)          56.051          calculate D2E/DX2 analytically  !
 --------------------------------------------------------------------------------
 Trust Radius=3.00D-01 FncErr=1.00D-07 GrdErr=1.00D-06
 Number of steps in this run=     58 maximum allowed number of steps=    100.
 Search for a saddle point of order  1.
 GradGradGradGradGradGradGradGradGradGradGradGradGradGradGradGradGradGrad

 Leave Link  103 at Thu Apr 14 10:20:19 2016, MaxMem=    33554432 cpu:         0.0
 (Enter /usr/local/gau/g09/l202.exe)
                          Input orientation:                          
 ---------------------------------------------------------------------
 Center     Atomic      Atomic             Coordinates (Angstroms)
 Number     Number       Type             X           Y           Z
 ---------------------------------------------------------------------
      1          7           0        1.237816    1.403931    0.020513
      2          1           0        2.235046    1.479857   -0.061951
      3          6           0        0.619875    0.155511   -0.004721
      4          1           0        0.075920   -1.171845    0.682658
      5          6           0        1.527901   -1.042573   -0.012401
      6          6           0       -0.721167    0.049013   -0.011198
      7          1           0        2.173418   -1.045485    0.876255
      8          1           0        0.946634   -1.965081   -0.015381
      9          1           0        2.183126   -1.035523   -0.894930
     10          8           0       -1.530448    1.200220   -0.102500
     11          1           0        0.675468    2.231715   -0.076209
     12          8           0       -1.411415   -1.166518    0.092908
     13          1           0       -2.143476    1.248369    0.662439
 ---------------------------------------------------------------------
                    Distance matrix (angstroms):
                    1          2          3          4          5
     1  N    0.000000
     2  H    1.003510   0.000000
     3  C    1.393212   2.089484   0.000000
     4  H    2.902251   3.499685   1.590676   0.000000
     5  C    2.463862   2.620145   1.503321   1.614951   0.000000
     6  C    2.382105   3.284674   1.345280   1.614707   2.499974
     7  H    2.758131   2.694695   2.152210   2.110200   1.098367
     8  H    3.381762   3.678284   2.145646   1.369169   1.090367
     9  H    2.771747   2.650224   2.157496   2.635846   1.099194
    10  O    2.778474   3.776081   2.392669   2.970452   3.793644
    11  H    1.005394   1.731409   2.078178   3.538299   3.384032
    12  O    3.692001   4.508210   2.425579   1.600000   2.943812
    13  H    3.445200   4.444073   3.045579   3.283834   4.379821
                    6          7          8          9         10
     6  C    0.000000
     7  H    3.219335   0.000000
     8  H    2.614986   1.773604   0.000000
     9  H    3.223681   1.771240   1.779493   0.000000
    10  O    1.410159   4.440695   4.020281   4.406487   0.000000
    11  H    2.592104   3.727074   4.205987   3.690282   2.435311
    12  O    1.401712   3.671418   2.491952   3.730108   2.377772
    13  H    1.978688   4.893164   4.509377   5.134301   0.981455
                   11         12         13
    11  H    0.000000
    12  O    3.991449   0.000000
    13  H    3.075551   2.586882   0.000000
 Stoichiometry    C3H7NO2
 Framework group  C1[X(C3H7NO2)]
 Deg. of freedom    33
 Full point group                 C1      NOp   1
 Largest Abelian subgroup         C1      NOp   1
 Largest concise Abelian subgroup C1      NOp   1
                         Standard orientation:                         
 ---------------------------------------------------------------------
 Center     Atomic      Atomic             Coordinates (Angstroms)
 Number     Number       Type             X           Y           Z
 ---------------------------------------------------------------------
      1          7           0        1.097692    1.425222    0.064357
      2          1           0        2.082490    1.607626    0.001628
      3          6           0        0.614380    0.120905   -0.014422
      4          1           0        0.203355   -1.279834    0.617432
      5          6           0        1.642983   -0.974921   -0.047822
      6          6           0       -0.707909   -0.124524   -0.047503
      7          1           0        2.273274   -0.942540    0.851119
      8          1           0        1.161686   -1.952294   -0.092513
      9          1           0        2.305639   -0.867797   -0.918247
     10          8           0       -1.632080    0.938573   -0.112937
     11          1           0        0.453039    2.192811   -0.013406
     12          8           0       -1.268305   -1.408353    0.002858
     13          1           0       -2.256982    0.894948    0.642607
 ---------------------------------------------------------------------
 Rotational constants (GHZ):      4.8726084      3.3143506      2.0147296
 Leave Link  202 at Thu Apr 14 10:20:19 2016, MaxMem=    33554432 cpu:         0.0
 (Enter /usr/local/gau/g09/l301.exe)
 Standard basis: 6-31G (6D, 7F)
 Ernie: Thresh=  0.10000D-02 Tol=  0.10000D-05 Strict=F.
 There are    68 symmetry adapted cartesian basis functions of A   symmetry.
 There are    68 symmetry adapted basis functions of A   symmetry.
    68 basis functions,   160 primitive gaussians,    68 cartesian basis functions
    24 alpha electrons       24 beta electrons
       nuclear repulsion energy       246.6370399558 Hartrees.
 IExCor=  402 DFT=T Ex+Corr=B3LYP ExCW=0 ScaHFX=  0.200000
 ScaDFX=  0.800000  0.720000  1.000000  0.810000 ScalE2=  1.000000  1.000000
 IRadAn=      0 IRanWt=     -1 IRanGd=            0 ICorTp=0 IEmpDi=  4
 NAtoms=   13 NActive=   13 NUniq=   13 SFac= 1.00D+00 NAtFMM=   60 NAOKFM=F Big=F
 Integral buffers will be    131072 words long.
 Raffenetti 2 integral format.
 Two-electron integral symmetry is turned on.
 Leave Link  301 at Thu Apr 14 10:20:19 2016, MaxMem=    33554432 cpu:         0.0
 (Enter /usr/local/gau/g09/l302.exe)
 NPDir=0 NMtPBC=     1 NCelOv=     1 NCel=       1 NClECP=     1 NCelD=      1
         NCelK=      1 NCelE2=     1 NClLst=     1 CellRange=     0.0.
 One-electron integrals computed using PRISM.
 NBasis=    68 RedAO= T EigKep=  2.79D-03  NBF=    68
 NBsUse=    68 1.00D-06 EigRej= -1.00D+00 NBFU=    68
 Precomputing XC quadrature grid using
 IXCGrd= 4 IRadAn=           0 IRanWt=          -1 IRanGd=           0 AccXCQ= 0.00D+00.
 Generated NRdTot=       0 NPtTot=           0 NUsed=           0 NTot=          32
 NSgBfM=    68    68    68    68    68 MxSgAt=    13 MxSgA2=    13.
 Leave Link  302 at Thu Apr 14 10:20:20 2016, MaxMem=    33554432 cpu:         0.2
 (Enter /usr/local/gau/g09/l303.exe)
 DipDrv:  MaxL=1.
 Leave Link  303 at Thu Apr 14 10:20:20 2016, MaxMem=    33554432 cpu:         0.0
 (Enter /usr/local/gau/g09/l401.exe)
 ExpMin= 1.61D-01 ExpMax= 5.48D+03 ExpMxC= 8.25D+02 IAcc=1 IRadAn=         1 AccDes= 0.00D+00
 Harris functional with IExCor=  402 and IRadAn=       1 diagonalized for initial guess.
 HarFok:  IExCor=  402 AccDes= 0.00D+00 IRadAn=         1 IDoV= 1 UseB2=F ITyADJ=14
 ICtDFT=  3500011 ScaDFX=  1.000000  1.000000  1.000000  1.000000
 FoFCou: FMM=F IPFlag=           0 FMFlag=      100000 FMFlg1=           0
         NFxFlg=           0 DoJE=T BraDBF=F KetDBF=T FulRan=T
         wScrn=  0.000000 ICntrl=     500 IOpCl=  0 I1Cent=   200000004 NGrid=           0
         NMat0=    1 NMatS0=      1 NMatT0=    0 NMatD0=    1 NMtDS0=    0 NMtDT0=    0
 Petite list used in FoFCou.
 Harris En= -323.515726212639    
 JPrj=0 DoOrth=F DoCkMO=F.
 Leave Link  401 at Thu Apr 14 10:20:20 2016, MaxMem=    33554432 cpu:         0.4
 (Enter /usr/local/gau/g09/l502.exe)
 Closed shell SCF:
 Using DIIS extrapolation, IDIIS=  1040.
 Integral symmetry usage will be decided dynamically.
 Keep R1 ints in memory in canonical form, NReq=3676491.
 IVT=       33364 IEndB=       33364 NGot=    33554432 MDV=    30768038
 LenX=    30768038 LenY=    30762973
 Requested convergence on RMS density matrix=1.00D-08 within 128 cycles.
 Requested convergence on MAX density matrix=1.00D-06.
 Requested convergence on             energy=1.00D-06.
 No special actions if energy rises.
 FoFCou: FMM=F IPFlag=           0 FMFlag=           0 FMFlg1=           0
         NFxFlg=           0 DoJE=F BraDBF=F KetDBF=F FulRan=T
         wScrn=  0.000000 ICntrl=     600 IOpCl=  0 I1Cent=           0 NGrid=           0
         NMat0=    1 NMatS0=   2346 NMatT0=    0 NMatD0=    1 NMtDS0=    0 NMtDT0=    0
 Symmetry not used in FoFCou.
 Integral accuracy reduced to 1.0D-05 until final iterations.

 Cycle   1  Pass 0  IDiag  1:
 E= -323.238909640327    
 DIIS: error= 3.54D-02 at cycle   1 NSaved=   1.
 NSaved= 1 IEnMin= 1 EnMin= -323.238909640327     IErMin= 1 ErrMin= 3.54D-02
 ErrMax= 3.54D-02  0.00D+00 EMaxC= 1.00D-01 BMatC= 2.31D-01 BMatP= 2.31D-01
 IDIUse=3 WtCom= 6.46D-01 WtEn= 3.54D-01
 Coeff-Com:  0.100D+01
 Coeff-En:   0.100D+01
 Coeff:      0.100D+01
 Gap=     0.059 Goal=   None    Shift=    0.000
 GapD=    0.059 DampG=0.500 DampE=0.500 DampFc=0.2500 IDamp=-1.
 Damping current iteration by 2.50D-01
 RMSDP=2.30D-02 MaxDP=4.14D-01              OVMax= 3.71D-01

 Cycle   2  Pass 0  IDiag  1:
 E= -323.307934173305     Delta-E=       -0.069024532978 Rises=F Damp=T
 DIIS: error= 1.59D-02 at cycle   2 NSaved=   2.
 NSaved= 2 IEnMin= 2 EnMin= -323.307934173305     IErMin= 2 ErrMin= 1.59D-02
 ErrMax= 1.59D-02  0.00D+00 EMaxC= 1.00D-01 BMatC= 3.67D-02 BMatP= 2.31D-01
 IDIUse=3 WtCom= 8.41D-01 WtEn= 1.59D-01
 Coeff-Com: -0.369D+00 0.137D+01
 Coeff-En:   0.000D+00 0.100D+01
 Coeff:     -0.310D+00 0.131D+01
 Gap=     0.112 Goal=   None    Shift=    0.000
 RMSDP=6.77D-03 MaxDP=8.08D-02 DE=-6.90D-02 OVMax= 2.97D-01

 Cycle   3  Pass 0  IDiag  1:
 E= -323.368258606176     Delta-E=       -0.060324432871 Rises=F Damp=F
 DIIS: error= 3.23D-02 at cycle   3 NSaved=   3.
 NSaved= 3 IEnMin= 3 EnMin= -323.368258606176     IErMin= 2 ErrMin= 1.59D-02
 ErrMax= 3.23D-02  0.00D+00 EMaxC= 1.00D-01 BMatC= 8.80D-02 BMatP= 3.67D-02
 IDIUse=2 WtCom= 0.00D+00 WtEn= 1.00D+00
 Coeff-En:   0.000D+00 0.235D+00 0.765D+00
 Coeff:      0.000D+00 0.235D+00 0.765D+00
 Gap=     0.153 Goal=   None    Shift=    0.000
 RMSDP=1.67D-02 MaxDP=1.78D-01 DE=-6.03D-02 OVMax= 3.78D-01

 Cycle   4  Pass 0  IDiag  1:
 E= -322.958043304747     Delta-E=        0.410215301429 Rises=F Damp=F
 DIIS: error= 9.93D-02 at cycle   4 NSaved=   4.
 NSaved= 4 IEnMin= 3 EnMin= -323.368258606176     IErMin= 2 ErrMin= 1.59D-02
 ErrMax= 9.93D-02  0.00D+00 EMaxC= 1.00D-01 BMatC= 5.51D-01 BMatP= 3.67D-02
 IDIUse=2 WtCom= 0.00D+00 WtEn= 1.00D+00
 Coeff-En:   0.000D+00 0.000D+00 0.781D+00 0.219D+00
 Coeff:      0.000D+00 0.000D+00 0.781D+00 0.219D+00
 Gap=     0.146 Goal=   None    Shift=    0.000
 RMSDP=9.90D-03 MaxDP=1.35D-01 DE= 4.10D-01 OVMax= 2.11D-01

 Cycle   5  Pass 0  IDiag  1:
 E= -323.419615434722     Delta-E=       -0.461572129975 Rises=F Damp=F
 DIIS: error= 2.45D-02 at cycle   5 NSaved=   5.
 NSaved= 5 IEnMin= 5 EnMin= -323.419615434722     IErMin= 2 ErrMin= 1.59D-02
 ErrMax= 2.45D-02  0.00D+00 EMaxC= 1.00D-01 BMatC= 3.57D-02 BMatP= 3.67D-02
 IDIUse=3 WtCom= 7.55D-01 WtEn= 2.45D-01
 Coeff-Com: -0.168D+00 0.272D+00 0.327D+00-0.665D-01 0.636D+00
 Coeff-En:   0.000D+00 0.000D+00 0.334D+00 0.000D+00 0.666D+00
 Coeff:     -0.127D+00 0.205D+00 0.329D+00-0.502D-01 0.643D+00
 Gap=     0.137 Goal=   None    Shift=    0.000
 RMSDP=3.20D-03 MaxDP=3.87D-02 DE=-4.62D-01 OVMax= 8.56D-02

 Cycle   6  Pass 0  IDiag  1:
 E= -323.452663233101     Delta-E=       -0.033047798379 Rises=F Damp=F
 DIIS: error= 2.73D-03 at cycle   6 NSaved=   6.
 NSaved= 6 IEnMin= 6 EnMin= -323.452663233101     IErMin= 6 ErrMin= 2.73D-03
 ErrMax= 2.73D-03  0.00D+00 EMaxC= 1.00D-01 BMatC= 3.18D-04 BMatP= 3.57D-02
 IDIUse=3 WtCom= 9.73D-01 WtEn= 2.73D-02
 Coeff-Com: -0.501D-01 0.608D-01 0.127D+00-0.302D-01 0.323D+00 0.569D+00
 Coeff-En:   0.000D+00 0.000D+00 0.000D+00 0.000D+00 0.000D+00 0.100D+01
 Coeff:     -0.487D-01 0.592D-01 0.123D+00-0.294D-01 0.314D+00 0.581D+00
 Gap=     0.138 Goal=   None    Shift=    0.000
 RMSDP=4.09D-04 MaxDP=5.40D-03 DE=-3.30D-02 OVMax= 1.19D-02

 Cycle   7  Pass 0  IDiag  1:
 E= -323.452948656815     Delta-E=       -0.000285423714 Rises=F Damp=F
 DIIS: error= 1.13D-03 at cycle   7 NSaved=   7.
 NSaved= 7 IEnMin= 7 EnMin= -323.452948656815     IErMin= 7 ErrMin= 1.13D-03
 ErrMax= 1.13D-03  0.00D+00 EMaxC= 1.00D-01 BMatC= 4.00D-05 BMatP= 3.18D-04
 IDIUse=3 WtCom= 9.89D-01 WtEn= 1.13D-02
 Coeff-Com:  0.625D-02-0.124D-01 0.151D-02-0.322D-02 0.306D-01 0.343D+00
 Coeff-Com:  0.634D+00
 Coeff-En:   0.000D+00 0.000D+00 0.000D+00 0.000D+00 0.000D+00 0.126D+00
 Coeff-En:   0.874D+00
 Coeff:      0.618D-02-0.122D-01 0.149D-02-0.319D-02 0.302D-01 0.341D+00
 Coeff:      0.637D+00
 Gap=     0.138 Goal=   None    Shift=    0.000
 RMSDP=1.26D-04 MaxDP=1.61D-03 DE=-2.85D-04 OVMax= 3.49D-03

 Cycle   8  Pass 0  IDiag  1:
 E= -323.452992532091     Delta-E=       -0.000043875276 Rises=F Damp=F
 DIIS: error= 1.06D-04 at cycle   8 NSaved=   8.
 NSaved= 8 IEnMin= 8 EnMin= -323.452992532091     IErMin= 8 ErrMin= 1.06D-04
 ErrMax= 1.06D-04  0.00D+00 EMaxC= 1.00D-01 BMatC= 7.98D-07 BMatP= 4.00D-05
 IDIUse=3 WtCom= 9.99D-01 WtEn= 1.06D-03
 Coeff-Com:  0.325D-02-0.470D-02-0.124D-02-0.824D-03 0.413D-02 0.122D+00
 Coeff-Com:  0.269D+00 0.609D+00
 Coeff-En:   0.000D+00 0.000D+00 0.000D+00 0.000D+00 0.000D+00 0.000D+00
 Coeff-En:   0.000D+00 0.100D+01
 Coeff:      0.325D-02-0.469D-02-0.124D-02-0.823D-03 0.413D-02 0.122D+00
 Coeff:      0.268D+00 0.609D+00
 Gap=     0.138 Goal=   None    Shift=    0.000
 RMSDP=2.45D-05 MaxDP=2.19D-04 DE=-4.39D-05 OVMax= 4.19D-04

 Cycle   9  Pass 0  IDiag  1:
 E= -323.452993396469     Delta-E=       -0.000000864378 Rises=F Damp=F
 DIIS: error= 2.54D-05 at cycle   9 NSaved=   9.
 NSaved= 9 IEnMin= 9 EnMin= -323.452993396469     IErMin= 9 ErrMin= 2.54D-05
 ErrMax= 2.54D-05  0.00D+00 EMaxC= 1.00D-01 BMatC= 5.96D-08 BMatP= 7.98D-07
 IDIUse=1 WtCom= 1.00D+00 WtEn= 0.00D+00
 Coeff-Com:  0.159D-02-0.241D-02-0.787D-03-0.942D-04-0.314D-03 0.334D-01
 Coeff-Com:  0.808D-01 0.280D+00 0.608D+00
 Coeff:      0.159D-02-0.241D-02-0.787D-03-0.942D-04-0.314D-03 0.334D-01
 Coeff:      0.808D-01 0.280D+00 0.608D+00
 Gap=     0.138 Goal=   None    Shift=    0.000
 RMSDP=3.98D-06 MaxDP=6.60D-05 DE=-8.64D-07 OVMax= 8.05D-05

 Initial convergence to 1.0D-05 achieved.  Increase integral accuracy.
 Cycle  10  Pass 1  IDiag  1:
 E= -323.452957137166     Delta-E=        0.000036259303 Rises=F Damp=F
 DIIS: error= 9.47D-06 at cycle   1 NSaved=   1.
 NSaved= 1 IEnMin= 1 EnMin= -323.452957137166     IErMin= 1 ErrMin= 9.47D-06
 ErrMax= 9.47D-06  0.00D+00 EMaxC= 1.00D-01 BMatC= 1.58D-08 BMatP= 1.58D-08
 IDIUse=1 WtCom= 1.00D+00 WtEn= 0.00D+00
 Coeff-Com:  0.100D+01
 Coeff:      0.100D+01
 Gap=     0.138 Goal=   None    Shift=    0.000
 RMSDP=3.98D-06 MaxDP=6.60D-05 DE= 3.63D-05 OVMax= 6.24D-05

 Cycle  11  Pass 1  IDiag  1:
 E= -323.452957147954     Delta-E=       -0.000000010788 Rises=F Damp=F
 DIIS: error= 1.16D-05 at cycle   2 NSaved=   2.
 NSaved= 2 IEnMin= 2 EnMin= -323.452957147954     IErMin= 1 ErrMin= 9.47D-06
 ErrMax= 1.16D-05  0.00D+00 EMaxC= 1.00D-01 BMatC= 1.60D-08 BMatP= 1.58D-08
 IDIUse=1 WtCom= 1.00D+00 WtEn= 0.00D+00
 Coeff-Com:  0.502D+00 0.498D+00
 Coeff:      0.502D+00 0.498D+00
 Gap=     0.138 Goal=   None    Shift=    0.000
 RMSDP=3.56D-06 MaxDP=4.94D-05 DE=-1.08D-08 OVMax= 7.19D-05

 Cycle  12  Pass 1  IDiag  1:
 E= -323.452957153792     Delta-E=       -0.000000005838 Rises=F Damp=F
 DIIS: error= 1.08D-05 at cycle   3 NSaved=   3.
 NSaved= 3 IEnMin= 3 EnMin= -323.452957153792     IErMin= 1 ErrMin= 9.47D-06
 ErrMax= 1.08D-05  0.00D+00 EMaxC= 1.00D-01 BMatC= 9.64D-09 BMatP= 1.58D-08
 IDIUse=1 WtCom= 1.00D+00 WtEn= 0.00D+00
 Coeff-Com:  0.913D-01 0.416D+00 0.492D+00
 Coeff:      0.913D-01 0.416D+00 0.492D+00
 Gap=     0.138 Goal=   None    Shift=    0.000
 RMSDP=1.97D-06 MaxDP=2.30D-05 DE=-5.84D-09 OVMax= 4.41D-05

 Cycle  13  Pass 1  IDiag  1:
 E= -323.452957160921     Delta-E=       -0.000000007129 Rises=F Damp=F
 DIIS: error= 3.49D-06 at cycle   4 NSaved=   4.
 NSaved= 4 IEnMin= 4 EnMin= -323.452957160921     IErMin= 4 ErrMin= 3.49D-06
 ErrMax= 3.49D-06  0.00D+00 EMaxC= 1.00D-01 BMatC= 1.09D-09 BMatP= 9.64D-09
 IDIUse=1 WtCom= 1.00D+00 WtEn= 0.00D+00
 Coeff-Com: -0.163D-01 0.213D+00 0.338D+00 0.465D+00
 Coeff:     -0.163D-01 0.213D+00 0.338D+00 0.465D+00
 Gap=     0.138 Goal=   None    Shift=    0.000
 RMSDP=5.66D-07 MaxDP=7.78D-06 DE=-7.13D-09 OVMax= 1.29D-05

 Cycle  14  Pass 1  IDiag  1:
 E= -323.452957161967     Delta-E=       -0.000000001046 Rises=F Damp=F
 DIIS: error= 5.98D-07 at cycle   5 NSaved=   5.
 NSaved= 5 IEnMin= 5 EnMin= -323.452957161967     IErMin= 5 ErrMin= 5.98D-07
 ErrMax= 5.98D-07  0.00D+00 EMaxC= 1.00D-01 BMatC= 2.03D-11 BMatP= 1.09D-09
 IDIUse=1 WtCom= 1.00D+00 WtEn= 0.00D+00
 Coeff-Com: -0.110D-01 0.826D-01 0.128D+00 0.215D+00 0.585D+00
 Coeff:     -0.110D-01 0.826D-01 0.128D+00 0.215D+00 0.585D+00
 Gap=     0.138 Goal=   None    Shift=    0.000
 RMSDP=1.44D-07 MaxDP=2.27D-06 DE=-1.05D-09 OVMax= 3.65D-06

 Cycle  15  Pass 1  IDiag  1:
 E= -323.452957161997     Delta-E=       -0.000000000030 Rises=F Damp=F
 DIIS: error= 1.25D-07 at cycle   6 NSaved=   6.
 NSaved= 6 IEnMin= 6 EnMin= -323.452957161997     IErMin= 6 ErrMin= 1.25D-07
 ErrMax= 1.25D-07  0.00D+00 EMaxC= 1.00D-01 BMatC= 2.04D-12 BMatP= 2.03D-11
 IDIUse=1 WtCom= 1.00D+00 WtEn= 0.00D+00
 Coeff-Com: -0.413D-02 0.247D-01 0.337D-01 0.665D-01 0.299D+00 0.581D+00
 Coeff:     -0.413D-02 0.247D-01 0.337D-01 0.665D-01 0.299D+00 0.581D+00
 Gap=     0.138 Goal=   None    Shift=    0.000
 RMSDP=3.17D-08 MaxDP=3.50D-07 DE=-3.00D-11 OVMax= 3.94D-07

 Cycle  16  Pass 1  IDiag  1:
 E= -323.452957161997     Delta-E=        0.000000000001 Rises=F Damp=F
 DIIS: error= 7.04D-08 at cycle   7 NSaved=   7.
 NSaved= 7 IEnMin= 6 EnMin= -323.452957161997     IErMin= 7 ErrMin= 7.04D-08
 ErrMax= 7.04D-08  0.00D+00 EMaxC= 1.00D-01 BMatC= 2.29D-13 BMatP= 2.04D-12
 IDIUse=1 WtCom= 1.00D+00 WtEn= 0.00D+00
 Coeff-Com: -0.621D-04-0.159D-02-0.689D-02-0.576D-02 0.621D-01 0.254D+00
 Coeff-Com:  0.698D+00
 Coeff:     -0.621D-04-0.159D-02-0.689D-02-0.576D-02 0.621D-01 0.254D+00
 Coeff:      0.698D+00
 Gap=     0.138 Goal=   None    Shift=    0.000
 RMSDP=1.57D-08 MaxDP=1.37D-07 DE= 5.68D-13 OVMax= 4.64D-07

 Cycle  17  Pass 1  IDiag  1:
 E= -323.452957161999     Delta-E=       -0.000000000002 Rises=F Damp=F
 DIIS: error= 1.50D-08 at cycle   8 NSaved=   8.
 NSaved= 8 IEnMin= 8 EnMin= -323.452957161999     IErMin= 8 ErrMin= 1.50D-08
 ErrMax= 1.50D-08  0.00D+00 EMaxC= 1.00D-01 BMatC= 3.91D-14 BMatP= 2.29D-13
 IDIUse=1 WtCom= 1.00D+00 WtEn= 0.00D+00
 Coeff-Com:  0.385D-03-0.305D-02-0.673D-02-0.957D-02 0.630D-02 0.486D-01
 Coeff-Com:  0.356D+00 0.608D+00
 Coeff:      0.385D-03-0.305D-02-0.673D-02-0.957D-02 0.630D-02 0.486D-01
 Coeff:      0.356D+00 0.608D+00
 Gap=     0.138 Goal=   None    Shift=    0.000
 RMSDP=6.01D-09 MaxDP=8.15D-08 DE=-2.16D-12 OVMax= 1.62D-07

 SCF Done:  E(RB3LYP) =  -323.452957162     A.U. after   17 cycles
            NFock= 17  Conv=0.60D-08     -V/T= 2.0054
 KE= 3.217091404706D+02 PE=-1.250858097204D+03 EE= 3.590589596154D+02
 Leave Link  502 at Thu Apr 14 10:20:39 2016, MaxMem=    33554432 cpu:        13.5
 (Enter /usr/local/gau/g09/l801.exe)
 DoSCS=F DFT=T ScalE2(SS,OS)=  1.000000  1.000000
 Range of M.O.s used for correlation:     1    68
 NBasis=    68 NAE=    24 NBE=    24 NFC=     0 NFV=     0
 NROrb=     68 NOA=    24 NOB=    24 NVA=    44 NVB=    44
 Leave Link  801 at Thu Apr 14 10:20:39 2016, MaxMem=    33554432 cpu:         0.0
 (Enter /usr/local/gau/g09/l1101.exe)
 Using compressed storage, NAtomX=    13.
 Will process     14 centers per pass.
 Leave Link 1101 at Thu Apr 14 10:20:39 2016, MaxMem=    33554432 cpu:         0.1
 (Enter /usr/local/gau/g09/l1102.exe)
 Symmetrizing basis deriv contribution to polar:
 IMax=3 JMax=2 DiffMx= 0.00D+00
 Leave Link 1102 at Thu Apr 14 10:20:39 2016, MaxMem=    33554432 cpu:         0.0
 (Enter /usr/local/gau/g09/l1110.exe)
 Forming Gx(P) for the SCF density, NAtomX=    13.
 Integral derivatives from FoFJK, PRISM(SPDF).
 Do as many integral derivatives as possible in FoFJK.
 G2DrvN: MDV=      33554224.
 G2DrvN: will do    14 centers at a time, making    1 passes.
 Calling FoFCou, ICntrl=  3107 FMM=F I1Cent=   0 AccDes= 0.00D+00.
 FoFJK:  IHMeth= 1 ICntrl=    3107 DoSepK=F KAlg= 0 I1Cent=   0 FoldK=F
 IRaf=         0 NMat=   1 IRICut=       1 DoRegI=T DoRafI=F ISym2E= 0.
 FoFCou: FMM=F IPFlag=           0 FMFlag=      100000 FMFlg1=           0
         NFxFlg=           0 DoJE=F BraDBF=F KetDBF=F FulRan=T
         wScrn=  0.000000 ICntrl=    3107 IOpCl=  0 I1Cent=           0 NGrid=           0
         NMat0=    1 NMatS0=      1 NMatT0=    0 NMatD0=    1 NMtDS0=    0 NMtDT0=    0
 Symmetry not used in FoFCou.
 End of G2Drv F.D. properties file   721 does not exist.
 End of G2Drv F.D. properties file   722 does not exist.
 End of G2Drv F.D. properties file   788 does not exist.
 Leave Link 1110 at Thu Apr 14 10:21:05 2016, MaxMem=    33554432 cpu:        24.4
 (Enter /usr/local/gau/g09/l1002.exe)
 Minotr:  Closed shell wavefunction.
          IDoAtm=1111111111111
          Direct CPHF calculation.
          Differentiating once with respect to nuclear coordinates.
          Requested convergence is 1.0D-08 RMS, and 1.0D-07 maximum.
          Secondary convergence is 1.0D-12 RMS, and 1.0D-12 maximum.
          NewPWx=T KeepS1=F KeepF1=F KeepIn=T MapXYZ=F SortEE=F KeepMc=T.
          MDV=      33554230 using IRadAn=       2.
 Generate precomputed XC quadrature information.
 Keep R1 ints in memory in canonical form, NReq=3645297.
 FoFCou: FMM=F IPFlag=           0 FMFlag=           0 FMFlg1=           0
         NFxFlg=           0 DoJE=F BraDBF=F KetDBF=F FulRan=T
         wScrn=  0.000000 ICntrl=     600 IOpCl=  0 I1Cent=           0 NGrid=           0
         NMat0=    1 NMatS0=   2346 NMatT0=    0 NMatD0=    1 NMtDS0=    0 NMtDT0=    0
 Symmetry not used in FoFCou.
          Solving linear equations simultaneously, MaxMat=       0.
          There are    42 degrees of freedom in the 1st order CPHF.  IDoFFX=6 NUNeed=     0.
     36 vectors produced by pass  0 Test12= 2.51D-15 2.38D-09 XBig12= 1.76D-01 2.20D-01.
 AX will form    36 AO Fock derivatives at one time.
     36 vectors produced by pass  1 Test12= 2.51D-15 2.38D-09 XBig12= 4.80D-02 5.78D-02.
     36 vectors produced by pass  2 Test12= 2.51D-15 2.38D-09 XBig12= 3.40D-04 3.11D-03.
     36 vectors produced by pass  3 Test12= 2.51D-15 2.38D-09 XBig12= 5.60D-07 1.02D-04.
     36 vectors produced by pass  4 Test12= 2.51D-15 2.38D-09 XBig12= 4.64D-10 2.54D-06.
     19 vectors produced by pass  5 Test12= 2.51D-15 2.38D-09 XBig12= 2.23D-13 6.70D-08.
 InvSVY:  IOpt=1 It=  1 EMax= 2.11D-15
 Solved reduced A of dimension   199 with    36 vectors.
 End of Minotr F.D. properties file   721 does not exist.
 End of Minotr F.D. properties file   722 does not exist.
 End of Minotr F.D. properties file   788 does not exist.
 Leave Link 1002 at Thu Apr 14 10:21:22 2016, MaxMem=    33554432 cpu:        16.7
 (Enter /usr/local/gau/g09/l601.exe)
 Copying SCF densities to generalized density rwf, IOpCl= 0 IROHF=0.

 **********************************************************************

            Population analysis using the SCF density.

 **********************************************************************

 Orbital symmetries:
       Occupied  (A) (A) (A) (A) (A) (A) (A) (A) (A) (A) (A) (A)
                 (A) (A) (A) (A) (A) (A) (A) (A) (A) (A) (A) (A)
       Virtual   (A) (A) (A) (A) (A) (A) (A) (A) (A) (A) (A) (A)
                 (A) (A) (A) (A) (A) (A) (A) (A) (A) (A) (A) (A)
                 (A) (A) (A) (A) (A) (A) (A) (A) (A) (A) (A) (A)
                 (A) (A) (A) (A) (A) (A) (A) (A)
 The electronic state is 1-A.
 Alpha  occ. eigenvalues --  -19.17036 -19.11617 -14.33134 -10.28882 -10.23511
 Alpha  occ. eigenvalues --  -10.22135  -1.06125  -0.95905  -0.91485  -0.79999
 Alpha  occ. eigenvalues --   -0.70966  -0.57996  -0.56171  -0.52339  -0.47001
 Alpha  occ. eigenvalues --   -0.45726  -0.43281  -0.42542  -0.39144  -0.34968
 Alpha  occ. eigenvalues --   -0.31057  -0.29251  -0.26759  -0.16925
 Alpha virt. eigenvalues --   -0.03123   0.05474   0.06429   0.08792   0.12477
 Alpha virt. eigenvalues --    0.12899   0.15156   0.16514   0.19775   0.22698
 Alpha virt. eigenvalues --    0.24242   0.38221   0.43049   0.51559   0.55035
 Alpha virt. eigenvalues --    0.58135   0.60771   0.62091   0.63558   0.67031
 Alpha virt. eigenvalues --    0.72741   0.75920   0.76750   0.77804   0.83302
 Alpha virt. eigenvalues --    0.85552   0.88155   0.89955   0.91606   0.92120
 Alpha virt. eigenvalues --    0.95304   0.97541   1.03147   1.06767   1.07538
 Alpha virt. eigenvalues --    1.11854   1.14437   1.21942   1.25991   1.33934
 Alpha virt. eigenvalues --    1.46260   1.57145   1.74641   1.98601
          Condensed to atoms (all electrons):
               1          2          3          4          5          6
     1  N    7.020420   0.327331   0.178274   0.004438  -0.063335  -0.021699
     2  H    0.327331   0.413579  -0.023863  -0.000122  -0.005760   0.004549
     3  C    0.178274  -0.023863   5.564888  -0.032000   0.359044   0.196527
     4  H    0.004438  -0.000122  -0.032000   0.694978  -0.076139   0.032750
     5  C   -0.063335  -0.005760   0.359044  -0.076139   5.392783  -0.115414
     6  C   -0.021699   0.004549   0.196527   0.032750  -0.115414   5.020334
     7  H   -0.001021   0.000582  -0.048432  -0.016868   0.360354   0.006893
     8  H    0.004004  -0.000008  -0.059366   0.003712   0.366935  -0.003332
     9  H    0.005907   0.001758  -0.042180   0.011871   0.327114  -0.001963
    10  O    0.000048   0.000261  -0.129864   0.009081   0.002337   0.237313
    11  H    0.329996  -0.024641  -0.030131  -0.000247   0.004502  -0.006661
    12  O    0.002946  -0.000045  -0.142886   0.096269  -0.023279   0.302152
    13  H    0.000265  -0.000008   0.002790  -0.002540   0.000028  -0.034419
               7          8          9         10         11         12
     1  N   -0.001021   0.004004   0.005907   0.000048   0.329996   0.002946
     2  H    0.000582  -0.000008   0.001758   0.000261  -0.024641  -0.000045
     3  C   -0.048432  -0.059366  -0.042180  -0.129864  -0.030131  -0.142886
     4  H   -0.016868   0.003712   0.011871   0.009081  -0.000247   0.096269
     5  C    0.360354   0.366935   0.327114   0.002337   0.004502  -0.023279
     6  C    0.006893  -0.003332  -0.001963   0.237313  -0.006661   0.302152
     7  H    0.584141  -0.023975  -0.046183  -0.000004  -0.000115   0.001407
     8  H   -0.023975   0.511595  -0.016879   0.000190  -0.000166   0.007263
     9  H   -0.046183  -0.016879   0.577683   0.000004  -0.000033   0.000362
    10  O   -0.000004   0.000190   0.000004   8.300461   0.014288  -0.080232
    11  H   -0.000115  -0.000166  -0.000033   0.014288   0.384482   0.000193
    12  O    0.001407   0.007263   0.000362  -0.080232   0.000193   8.382941
    13  H    0.000028   0.000032  -0.000017   0.244014  -0.000738   0.001733
              13
     1  N    0.000265
     2  H   -0.000008
     3  C    0.002790
     4  H   -0.002540
     5  C    0.000028
     6  C   -0.034419
     7  H    0.000028
     8  H    0.000032
     9  H   -0.000017
    10  O    0.244014
    11  H   -0.000738
    12  O    0.001733
    13  H    0.401756
 Mulliken charges:
               1
     1  N   -0.787573
     2  H    0.306389
     3  C    0.207199
     4  H    0.274816
     5  C   -0.529169
     6  C    0.382970
     7  H    0.183193
     8  H    0.209995
     9  H    0.182555
    10  O   -0.597897
    11  H    0.329273
    12  O   -0.548825
    13  H    0.387076
 Sum of Mulliken charges =   0.00000
 Mulliken charges with hydrogens summed into heavy atoms:
               1
     1  N   -0.151912
     3  C    0.482015
     5  C    0.046574
     6  C    0.382970
    10  O   -0.210822
    12  O   -0.548825
 APT charges:
               1
     1  N   -1.295799
     2  H    0.705295
     3  C    0.187149
     4  H    0.280182
     5  C   -1.245643
     6  C    0.007678
     7  H    0.440886
     8  H    0.378026
     9  H    0.441904
    10  O   -0.728843
    11  H    0.546803
    12  O   -0.390513
    13  H    0.672876
 Sum of APT charges =   0.00000
 APT charges with hydrogens summed into heavy atoms:
               1
     1  N   -0.043702
     3  C    0.467331
     5  C    0.015174
     6  C    0.007678
    10  O   -0.055967
    12  O   -0.390513
 Electronic spatial extent (au):  <R**2>=            601.8687
 Charge=              0.0000 electrons
 Dipole moment (field-independent basis, Debye):
    X=              3.6613    Y=              1.8100    Z=              1.6502  Tot=              4.4050
 Quadrupole moment (field-independent basis, Debye-Ang):
   XX=            -32.1720   YY=            -36.5820   ZZ=            -37.4780
   XY=             -4.6381   XZ=             -3.9097   YZ=              0.4400
 Traceless Quadrupole moment (field-independent basis, Debye-Ang):
   XX=              3.2387   YY=             -1.1713   ZZ=             -2.0673
   XY=             -4.6381   XZ=             -3.9097   YZ=              0.4400
 Octapole moment (field-independent basis, Debye-Ang**2):
  XXX=             -1.4641  YYY=             16.1915  ZZZ=              0.3392  XYY=             10.8468
  XXY=             12.6120  XXZ=              7.6107  XZZ=             -4.3924  YZZ=             -0.0841
  YYZ=              1.3479  XYZ=             -4.6057
 Hexadecapole moment (field-independent basis, Debye-Ang**3):
 XXXX=           -351.1037 YYYY=           -262.1231 ZZZZ=            -44.9640 XXXY=             -3.7753
 XXXZ=            -20.3145 YYYX=             -2.6240 YYYZ=             -0.4327 ZZZX=             -2.9829
 ZZZY=              0.3986 XXYY=           -114.1185 XXZZ=            -70.8793 YYZZ=            -58.1211
 XXYZ=              7.3701 YYXZ=             -4.5097 ZZXY=             -4.4869
 N-N= 2.466370399558D+02 E-N=-1.250858098974D+03  KE= 3.217091404706D+02
  Exact polarizability:   0.000   0.000   0.000   0.000   0.000   0.000
 Approx polarizability: 118.461  11.512  91.423   2.437  -4.502  36.864
 No NMR shielding tensors so no spin-rotation constants.
 Leave Link  601 at Thu Apr 14 10:21:22 2016, MaxMem=    33554432 cpu:         0.1
 (Enter /usr/local/gau/g09/l701.exe)
 Compute integral second derivatives.
 ... and contract with generalized density number  0.
 Leave Link  701 at Thu Apr 14 10:21:22 2016, MaxMem=    33554432 cpu:         0.1
 (Enter /usr/local/gau/g09/l702.exe)
 L702 exits ... SP integral derivatives will be done elsewhere.
 Leave Link  702 at Thu Apr 14 10:21:22 2016, MaxMem=    33554432 cpu:         0.0
 (Enter /usr/local/gau/g09/l703.exe)
 Compute integral second derivatives, UseDBF=F ICtDFT=           0.
 Integral derivatives from FoFJK, PRISM(SPDF).
 Calling FoFJK, ICntrl=    100147 FMM=F ISym2X=0 I1Cent= 0 IOpClX= 0 NMat=1 NMatS=1 NMatT=0.
 FoFJK:  IHMeth= 1 ICntrl=  100147 DoSepK=F KAlg= 0 I1Cent=   0 FoldK=F
 IRaf=         0 NMat=   1 IRICut=       1 DoRegI=T DoRafI=F ISym2E= 0.
 FoFCou: FMM=F IPFlag=           0 FMFlag=      100000 FMFlg1=         800
         NFxFlg=           0 DoJE=F BraDBF=F KetDBF=F FulRan=T
         wScrn=  0.000000 ICntrl=  100147 IOpCl=  0 I1Cent=           0 NGrid=           0
         NMat0=    1 NMatS0=      1 NMatT0=    0 NMatD0=    1 NMtDS0=    0 NMtDT0=    0
 Symmetry not used in FoFCou.
 Leave Link  703 at Thu Apr 14 10:21:51 2016, MaxMem=    33554432 cpu:        28.6
 (Enter /usr/local/gau/g09/l716.exe)
 Dipole        = 1.44044704D+00 7.12089603D-01 6.49253642D-01
 Polarizability= 0.00000000D+00 0.00000000D+00 0.00000000D+00
                 0.00000000D+00 0.00000000D+00 0.00000000D+00
 ***** Axes restored to original set *****
 -------------------------------------------------------------------
 Center     Atomic                   Forces (Hartrees/Bohr)
 Number     Number              X              Y              Z
 -------------------------------------------------------------------
      1        7           0.006150796    0.000456910    0.003241043
      2        1           0.000069045    0.000906414   -0.000811293
      3        6           0.025958492    0.024069576   -0.002089388
      4        1          -0.054283181   -0.005713803    0.007524267
      5        6           0.019434759    0.004445960   -0.005507149
      6        6          -0.068083112   -0.019647757   -0.005087661
      7        1          -0.000263112   -0.001236629   -0.000952610
      8        1           0.005809718   -0.013888329   -0.007766311
      9        1           0.000283912   -0.002882177   -0.003512348
     10        8           0.018594904   -0.001597583    0.002568937
     11        1          -0.000828268   -0.000709864    0.000630616
     12        8           0.050146693    0.021225647    0.017526225
     13        1          -0.002990646   -0.005428364   -0.005764331
 -------------------------------------------------------------------
 Cartesian Forces:  Max     0.068083112 RMS     0.018830733
 Force constants in Cartesian coordinates: 
                1             2             3             4             5 
      1  0.869987D+00
      2 -0.408215D-01  0.754124D+00
      3 -0.115332D-01 -0.440319D-01  0.211456D-01
      4 -0.472643D+00 -0.255757D-01  0.317227D-01  0.489874D+00
      5 -0.230758D-01 -0.747241D-01  0.711432D-02  0.310279D-01  0.717554D-01
      6  0.429830D-01  0.640189D-02  0.760572D-03 -0.362768D-01 -0.575554D-02
      7 -0.167831D+00 -0.836785D-01  0.326594D-03 -0.108769D-01 -0.368266D-01
      8 -0.942747D-01 -0.293888D+00  0.598725D-02  0.418480D-02 -0.219484D-02
      9 -0.905127D-02 -0.118032D-01 -0.285371D-01  0.171332D-02  0.315973D-02
     10 -0.593094D-02  0.104234D-02 -0.329854D-02 -0.328593D-03 -0.913226D-03
     11  0.383237D-02  0.397594D-02 -0.752631D-02 -0.283910D-03  0.150170D-02
     12  0.976415D-02  0.903307D-02  0.524076D-02 -0.699489D-03  0.573550D-03
     13  0.124594D-01 -0.169925D-01 -0.147065D-02  0.159195D-02 -0.710119D-03
     14  0.265293D-01 -0.373225D-01  0.394277D-02  0.104047D-02  0.205680D-02
     15 -0.356764D-02 -0.137221D-02  0.115067D-02 -0.138983D-03 -0.373086D-03
     16 -0.256503D-01 -0.725518D-02  0.534789D-02  0.882081D-03  0.123525D-04
     17 -0.568500D-01 -0.201291D-01  0.130886D-02  0.399753D-03 -0.748627D-02
     18  0.753051D-03  0.462763D-02  0.473067D-02  0.239081D-04 -0.248226D-03
     19  0.151064D-02 -0.769004D-03  0.141806D-02  0.356471D-03  0.326729D-03
     20 -0.865765D-03  0.253163D-02 -0.174113D-02 -0.482581D-03 -0.602756D-03
     21  0.550791D-03  0.630842D-03  0.211268D-03 -0.138817D-03  0.717381D-03
     22 -0.373823D-02  0.303152D-02 -0.170383D-02 -0.133868D-03  0.478309D-03
     23  0.759137D-02 -0.154158D-03  0.976904D-03  0.214799D-03  0.584817D-03
     24 -0.112218D-03 -0.120617D-02  0.189905D-02 -0.629060D-04 -0.286216D-03
     25  0.421983D-02  0.120479D-02 -0.137938D-02  0.264335D-03  0.719429D-03
     26  0.119053D-03  0.419957D-02  0.139844D-02 -0.888154D-03 -0.447411D-03
     27 -0.139831D-02 -0.161888D-02 -0.138277D-02  0.219448D-03 -0.898989D-03
     28  0.282095D-03 -0.147538D-02 -0.817137D-03  0.516638D-04  0.128439D-02
     29 -0.645794D-03  0.850122D-02  0.230732D-02 -0.965353D-03  0.105771D-02
     30  0.822912D-03 -0.125530D-02 -0.108637D-02  0.216760D-03  0.325234D-03
     31 -0.199760D+00  0.184554D+00 -0.188109D-01 -0.104116D-01  0.294840D-01
     32  0.183253D+00 -0.339661D+00  0.340974D-01 -0.903587D-02  0.827591D-02
     33 -0.250164D-01  0.462616D-01 -0.958347D-02  0.301779D-02 -0.401488D-02
     34 -0.127793D-01 -0.138764D-01  0.654208D-03  0.145212D-02 -0.176626D-02
     35 -0.377178D-02 -0.683765D-02 -0.271807D-02  0.440319D-03  0.145174D-03
     36 -0.355995D-02 -0.575617D-02  0.592822D-02  0.479001D-03 -0.183576D-03
     37 -0.126439D-03  0.611690D-03 -0.455794D-03 -0.791666D-04 -0.411035D-04
     38 -0.101920D-02 -0.616118D-03 -0.111585D-02 -0.763994D-04  0.778653D-04
     39 -0.634897D-03  0.887718D-04 -0.477085D-03 -0.758768D-04 -0.129690D-03
                6             7             8             9            10 
      6  0.344939D-02
      7 -0.370913D-02  0.874340D+00
      8  0.142885D-02  0.667113D-01  0.626937D+00
      9 -0.502817D-02  0.314075D-02  0.143336D-01  0.988684D-01
     10  0.168264D-02 -0.902023D-02  0.302238D-03 -0.127251D-01 -0.432597D-01
     11 -0.162254D-02 -0.292692D-01 -0.185427D-02  0.665172D-02 -0.478864D-01
     12  0.163699D-03 -0.269678D-01  0.231129D-01 -0.240924D-01 -0.252935D-01
     13 -0.126205D-02 -0.140583D+00  0.774743D-01 -0.812215D-02 -0.142743D-01
     14 -0.174616D-02  0.428175D-01 -0.171003D+00 -0.266942D-02 -0.380242D-02
     15  0.328299D-02  0.149928D-01 -0.276135D-01 -0.489063D-01  0.296248D-02
     16 -0.985926D-03 -0.505868D+00 -0.834380D-01  0.272755D-01  0.683819D-01
     17  0.832674D-03  0.172062D-01 -0.974407D-01  0.432364D-02  0.987575D-01
     18 -0.246713D-02 -0.476195D-02 -0.157540D-01 -0.117208D-01 -0.703207D-02
     19 -0.348410D-03 -0.179589D-01  0.580018D-03 -0.121061D-01 -0.212398D-02
     20  0.763324D-03  0.258442D-01 -0.107270D-02  0.224566D-01  0.106315D-02
     21 -0.712545D-03  0.702023D-03  0.491691D-03  0.567107D-02  0.206499D-02
     22  0.639494D-03  0.165387D-01  0.191892D-01  0.253737D-03  0.809917D-03
     23 -0.326662D-03 -0.209645D-01 -0.234009D-01 -0.126872D-02  0.147380D-01
     24 -0.100648D-02 -0.222735D-02  0.124933D-02 -0.444967D-02  0.738944D-02
     25  0.107987D-03 -0.288380D-01  0.784583D-02  0.152528D-01 -0.471870D-02
     26 -0.390794D-03  0.226025D-01 -0.265438D-02 -0.228833D-01  0.312071D-02
     27 -0.462584D-03  0.334320D-02 -0.136948D-03  0.847762D-02  0.672087D-02
     28 -0.305326D-03 -0.300393D-01  0.479182D-01 -0.582445D-02 -0.881401D-02
     29 -0.804014D-03  0.475384D-02 -0.213250D-01  0.261100D-02 -0.882968D-02
     30 -0.550202D-04 -0.739689D-02  0.221077D-03  0.178263D-02 -0.161507D-02
     31 -0.458942D-02  0.130389D-01 -0.150012D-01  0.163031D-02  0.126694D-02
     32 -0.252357D-03  0.178066D-01 -0.234576D-01  0.356898D-02  0.544543D-03
     33 -0.635585D-03  0.877186D-03 -0.562973D-02 -0.178808D-02 -0.257833D-02
     34  0.184662D-02  0.500898D-02 -0.323239D-01 -0.444240D-02  0.170121D-01
     35  0.122210D-02 -0.256712D-01  0.152298D-01 -0.181251D-01 -0.617285D-01
     36  0.268850D-02  0.225111D-01  0.179817D-02  0.895408D-02  0.283207D-01
     37  0.217350D-03  0.208865D-02  0.831864D-03  0.300513D-02  0.999564D-03
     38  0.249225D-03 -0.133197D-02 -0.387608D-02 -0.355634D-03  0.359172D-02
     39  0.223652D-04 -0.830603D-03  0.511239D-03  0.768772D-03  0.340153D-02
               11            12            13            14            15 
     11 -0.968474D-02
     12 -0.517935D-01  0.326469D-01
     13 -0.104513D-01  0.557204D-02  0.535096D+00
     14  0.297546D-01  0.500525D-02  0.562372D-01  0.514603D+00
     15  0.217848D-01  0.465562D-02  0.145533D-01  0.361401D-02  0.510638D+00
     16  0.621733D-01  0.170004D-01 -0.236650D-01  0.788946D-02 -0.192345D-01
     17  0.323358D-01  0.421201D-01  0.278334D-01  0.599697D-02 -0.911624D-02
     18  0.185073D-01 -0.223721D-01  0.187219D-02 -0.944544D-03 -0.173877D-02
     19  0.101891D-02 -0.516172D-02 -0.129404D+00 -0.380265D-02 -0.116236D+00
     20 -0.303121D-02 -0.132941D-02 -0.413951D-02 -0.501189D-01 -0.242807D-03
     21  0.243547D-03  0.181360D-02 -0.119727D+00 -0.294959D-02 -0.220011D+00
     22 -0.785588D-03  0.424472D-02 -0.115677D+00 -0.112517D+00 -0.444340D-02
     23 -0.104358D-01 -0.118244D-01 -0.124011D+00 -0.244762D+00  0.110252D-02
     24 -0.332237D-02  0.103268D-02 -0.102492D-01 -0.100806D-01 -0.391919D-01
     25 -0.119362D-02 -0.538855D-02 -0.126944D+00 -0.771970D-02  0.119368D+00
     26 -0.295425D-02 -0.176624D-02 -0.680782D-02 -0.444053D-01  0.532807D-02
     27 -0.120842D-02 -0.431021D-04  0.113817D+00  0.480388D-02 -0.212048D+00
     28 -0.949093D-02 -0.555847D-02 -0.168834D-02 -0.387301D-02  0.436181D-02
     29 -0.542645D-02  0.126211D-02  0.623948D-03  0.272380D-02 -0.499139D-02
     30 -0.952989D-02  0.429888D-02  0.400473D-03 -0.205920D-02  0.106947D-01
     31  0.979263D-03 -0.220834D-03 -0.199162D-02 -0.398572D-02  0.325170D-03
     32 -0.136476D-04 -0.197995D-02 -0.392748D-02 -0.279423D-02  0.634155D-03
     33 -0.551331D-03 -0.106269D-02  0.548141D-03  0.169156D-02  0.495531D-03
     34  0.287809D-01  0.309423D-01  0.535393D-02  0.111750D-02 -0.973154D-02
     35 -0.353839D-01 -0.151019D-01  0.499645D-02 -0.467475D-02  0.100297D-01
     36  0.259430D-01 -0.512350D-02  0.482543D-02  0.150263D-02 -0.813927D-02
     37  0.257614D-02  0.176660D-02 -0.274569D-03  0.688070D-04 -0.321163D-02
     38  0.121631D-02  0.268847D-02 -0.126011D-03 -0.550330D-04  0.121599D-02
     39  0.242403D-02  0.284171D-02 -0.757431D-03 -0.110556D-03 -0.883101D-03
               16            17            18            19            20 
     16  0.791866D+00
     17 -0.415256D-01  0.420101D+00
     18 -0.236026D-01 -0.610936D-02  0.131636D+00
     19 -0.590104D-03  0.736379D-03 -0.213245D-02  0.152382D+00
     20 -0.314824D-02 -0.517562D-02  0.252654D-02 -0.170427D-02  0.531278D-01
     21  0.527497D-03 -0.973709D-03 -0.474142D-03  0.129968D+00  0.177563D-02
     22 -0.180637D-03 -0.358279D-02  0.201216D-02 -0.103772D-01 -0.177403D-01
     23 -0.273073D-02 -0.399129D-02 -0.183745D-02  0.122047D-02  0.103312D-02
     24  0.660305D-03  0.289069D-02 -0.107604D-02 -0.116438D-01 -0.236755D-01
     25  0.121795D-01  0.566630D-02  0.327306D-02  0.107649D-01  0.251370D-03
     26 -0.196512D-02 -0.320268D-02 -0.306021D-02  0.416695D-03  0.115418D-02
     27 -0.618460D-02 -0.131468D-02 -0.625121D-03  0.160175D-01  0.167802D-02
     28 -0.132549D+00  0.842240D-01  0.724558D-03 -0.649364D-03  0.103605D-02
     29  0.606554D-01 -0.158151D+00  0.230200D-01  0.603086D-03 -0.803543D-04
     30  0.263099D-01 -0.473534D-02 -0.675096D-01  0.103873D-02 -0.217878D-02
     31  0.311115D-02 -0.631247D-02  0.748259D-03 -0.118661D-03  0.117353D-03
     32  0.240792D-02 -0.219604D-02  0.139612D-03 -0.543895D-04  0.208684D-03
     33  0.856091D-03  0.157963D-02  0.335424D-02  0.106833D-03 -0.148526D-03
     34 -0.159770D+00 -0.131024D+00  0.108751D-01 -0.352927D-02 -0.792827D-03
     35 -0.263670D-01 -0.151942D+00  0.722344D-02  0.139658D-02  0.243849D-02
     36 -0.178224D-01 -0.373470D-01 -0.340510D-01 -0.595319D-03  0.249321D-03
     37 -0.281472D-01  0.447132D-02  0.172468D-01 -0.262689D-03  0.561419D-03
     38  0.332915D-01 -0.871864D-02 -0.280908D-01  0.314290D-04 -0.412376D-03
     39 -0.101476D-01  0.654067D-02  0.231417D-02 -0.325126D-03 -0.133302D-03
               21            22            23            24            25 
     21  0.238034D+00
     22  0.209069D-02  0.127352D+00
     23  0.767350D-03  0.125899D+00  0.275132D+00
     24  0.711265D-04  0.143663D-03  0.121190D-01  0.402789D-01
     25 -0.164042D-01 -0.845927D-02  0.880857D-04  0.151034D-01  0.142302D+00
     26 -0.115986D-02 -0.160999D-01  0.145714D-03  0.236700D-01 -0.215633D-02
     27 -0.242913D-01 -0.148898D-02 -0.993515D-03  0.703885D-03 -0.130654D+00
     28  0.117973D-03  0.103465D-02  0.296801D-04 -0.261865D-03 -0.244635D-02
     29  0.484356D-03  0.407327D-03  0.186752D-02 -0.267945D-03  0.203816D-02
     30 -0.363924D-03  0.779939D-03  0.302786D-03  0.510560D-04 -0.173796D-02
     31  0.105670D-03  0.107537D-02 -0.953372D-03 -0.291388D-03 -0.156985D-03
     32  0.999942D-04  0.824753D-03 -0.109935D-02  0.209404D-03 -0.401281D-03
     33  0.104994D-03 -0.109675D-02  0.204051D-05  0.136650D-02 -0.165500D-03
     34  0.127534D-04 -0.808977D-02 -0.124932D-02  0.162011D-02  0.100533D-02
     35  0.527938D-04  0.988673D-03  0.538029D-02 -0.140788D-02 -0.624914D-02
     36 -0.814004D-05 -0.148535D-02  0.114514D-02  0.184652D-03  0.226079D-02
     37  0.129581D-03 -0.154701D-03  0.126928D-03 -0.682111D-04  0.827188D-03
     38 -0.180430D-03 -0.937545D-04 -0.299848D-03  0.108349D-03 -0.938832D-04
     39 -0.456196D-04  0.539128D-04 -0.164944D-03  0.136259D-03  0.363312D-03
               26            27            28            29            30 
     26  0.470397D-01
     27 -0.364925D-02  0.231029D+00
     28  0.145526D-02  0.536923D-03  0.333892D+00
     29 -0.566418D-03 -0.213356D-03 -0.117139D+00  0.248249D+00
     30  0.265877D-02 -0.267403D-03 -0.230491D+00 -0.113085D-01  0.323787D+00
     31  0.404428D-03 -0.160828D-03 -0.612854D-03  0.388710D-02  0.956391D-04
     32  0.471212D-04  0.441425D-04  0.158403D-02  0.160887D-02  0.416048D-04
     33 -0.198119D-03  0.239838D-03 -0.541208D-03 -0.186457D-02 -0.262893D-02
     34  0.335747D-03 -0.636300D-03  0.204378D-01  0.259630D-01  0.919467D-02
     35  0.136521D-02  0.365995D-02 -0.101903D-01 -0.486725D-01  0.124985D-01
     36 -0.186598D-03 -0.106529D-02  0.533601D-02  0.111300D-01  0.102444D-01
     37 -0.537025D-03 -0.131796D-03 -0.178899D+00  0.286481D-01  0.202382D+00
     38  0.278906D-03 -0.151952D-03  0.463715D-02 -0.297858D-01  0.150191D-01
     39  0.239106D-03 -0.264732D-03  0.232722D+00 -0.213650D-01 -0.278948D+00
               31            32            33            34            35 
     31  0.196742D+00
     32 -0.193884D+00  0.357993D+00
     33  0.218488D-01 -0.369349D-01  0.105591D-01
     34 -0.224933D-02  0.859917D-03  0.872556D-03  0.135724D+00
     35  0.275578D-03  0.330602D-03 -0.116338D-02  0.127219D+00  0.218682D+00
     36 -0.698897D-03  0.369122D-03 -0.687969D-03 -0.374989D-01  0.136605D-02
     37  0.661842D-04  0.225104D-04  0.127084D-02  0.423249D-03 -0.133842D-02
     38  0.434845D-03  0.757948D-03  0.970572D-03 -0.324312D-02  0.393963D-02
     39  0.184350D-04 -0.371748D-04  0.266563D-03 -0.370921D-02  0.246379D-02
               36            37            38            39 
     36  0.242073D-01
     37 -0.207218D-02  0.203539D+00
     38 -0.301381D-04 -0.360023D-01  0.374932D-01
     39 -0.313199D-02 -0.220079D+00  0.967307D-02  0.277400D+00
 FormGI is forming the generalized inverse of G from B-inverse, IUseBI=4.
 Leave Link  716 at Thu Apr 14 10:21:51 2016, MaxMem=    33554432 cpu:         0.0
 (Enter /usr/local/gau/g09/l103.exe)

 GradGradGradGradGradGradGradGradGradGradGradGradGradGradGradGradGradGrad
 Berny optimization.
 Red2BG is reusing G-inverse.
 Internal  Forces:  Max     0.102353704 RMS     0.023725649
 Search for a saddle point.
 Step number   1 out of a maximum of   58
 All quantities printed in internal units (Hartrees-Bohrs-Radians)
 Swapping is turned off.
 Second derivative matrix not updated -- analytic derivatives used.
 ITU=  0
     Eigenvalues ---   -1.25319  -0.00924  -0.00089   0.00121   0.00241
     Eigenvalues ---    0.00751   0.01029   0.02497   0.03100   0.05033
     Eigenvalues ---    0.05519   0.07136   0.09258   0.11271   0.11639
     Eigenvalues ---    0.13262   0.13781   0.17470   0.21906   0.23261
     Eigenvalues ---    0.26182   0.29743   0.32081   0.32681   0.33901
     Eigenvalues ---    0.36441   0.39165   0.45473   0.46858   0.49067
     Eigenvalues ---    0.49805   0.59564   0.88044
 Eigenvectors required to have negative eigenvalues:
                          A16       A14       A8        A6        R5
   1                    0.61597  -0.32805   0.24105  -0.24104  -0.23392
                          A13       R8        D9        A12       D16
   1                    0.20521   0.19126   0.18024  -0.17490   0.16447
 Eigenvalue     2 is  -9.24D-03 should be greater than     0.000000 Eigenvector:
                          R6        D2        D1        A16       D15
   1                    0.81298  -0.28891  -0.22272   0.17760   0.17676
                          D6        D13       A12       D9        D17
   1                   -0.16659  -0.10412   0.09927  -0.09831   0.09720
 Eigenvalue     3 is  -8.93D-04 should be greater than     0.000000 Eigenvector:
                          D1        D2        R6        D6        D5
   1                   -0.64992  -0.55257  -0.23599   0.20261   0.18054
                          D7        D12       D4        D15       D9
   1                    0.15165  -0.14733   0.13427  -0.12996   0.10309
 RFO step:  Lambda0=1.436842000D-02 Lambda=-4.88569880D-02.
 Linear search not attempted -- option 19 set.
 Maximum step size (   0.300) exceeded in Quadratic search.
    -- Step size scaled by   0.274
 Iteration  1 RMS(Cart)=  0.04303443 RMS(Int)=  0.01186553
 Iteration  2 RMS(Cart)=  0.01102360 RMS(Int)=  0.00015125
 Iteration  3 RMS(Cart)=  0.00003515 RMS(Int)=  0.00015065
 Iteration  4 RMS(Cart)=  0.00000000 RMS(Int)=  0.00015065
 ITry= 1 IFail=0 DXMaxC= 2.01D-01 DCOld= 1.00D+10 DXMaxT= 3.00D-01 DXLimC= 3.00D+00 Rises=F
 Variable       Old X    -DE/DX   Delta X   Delta X   Delta X     New X
                                 (Linear)    (Quad)   (Total)
    R1        1.89636   0.00020   0.00000   0.00093   0.00093   1.89729
    R2        2.63279   0.00303   0.00000  -0.00634  -0.00634   2.62645
    R3        1.89992  -0.00018   0.00000   0.00083   0.00083   1.90075
    R4        2.84087  -0.00211   0.00000  -0.01056  -0.01056   2.83031
    R5        2.54221   0.00271   0.00000   0.03158   0.03158   2.57379
    R6        2.58735   0.03505   0.00000   0.28273   0.28273   2.87008
    R7        2.07561  -0.00092   0.00000  -0.00046  -0.00046   2.07515
    R8        2.06050   0.04242   0.00000  -0.01327  -0.01327   2.04723
    R9        2.07718   0.00297   0.00000  -0.00128  -0.00128   2.07589
   R10        2.66481  -0.01449   0.00000  -0.01303  -0.01303   2.65179
   R11        2.64885  -0.04180   0.00000  -0.02663  -0.02663   2.62222
   R12        1.85468  -0.00289   0.00000  -0.00168  -0.00168   1.85300
    A1        2.10258   0.00171   0.00000  -0.00573  -0.00590   2.09668
    A2        2.07788   0.00012   0.00000  -0.00133  -0.00150   2.07638
    A3        2.08053  -0.00186   0.00000   0.00032   0.00014   2.08068
    A4        2.03345   0.02262   0.00000   0.00235   0.00232   2.03577
    A5        2.10966   0.03063   0.00000  -0.01979  -0.01981   2.08985
    A6        2.14004  -0.05327   0.00000   0.01735   0.01732   2.15736
    A7        1.93153  -0.00943   0.00000  -0.01115  -0.01152   1.92001
    A8        1.93081   0.01858   0.00000  -0.03452  -0.03471   1.89610
    A9        1.93804   0.00336   0.00000   0.01754   0.01776   1.95579
   A10        1.88943   0.00288   0.00000  -0.00337  -0.00398   1.88546
   A11        1.87473   0.00148   0.00000  -0.00042  -0.00041   1.87432
   A12        1.89759  -0.01759   0.00000   0.03324   0.03339   1.93098
   A13        2.10339   0.01822   0.00000  -0.02552  -0.02552   2.07787
   A14        2.16418  -0.05441   0.00000   0.02034   0.02034   2.18452
   A15        2.01544   0.03603   0.00000   0.00507   0.00507   2.02051
   A16        1.41766   0.10235   0.00000   0.05555   0.05555   1.47321
   A17        1.92628  -0.00264   0.00000   0.00393   0.00393   1.93021
    D1        0.10954   0.00239   0.00000   0.02996   0.02985   0.13939
    D2       -3.04060  -0.00096   0.00000   0.01714   0.01721  -3.02339
    D3        3.02427   0.00224   0.00000  -0.00414  -0.00420   3.02006
    D4       -0.12587  -0.00111   0.00000  -0.01695  -0.01685  -0.14272
    D5        1.03078   0.00350   0.00000  -0.02743  -0.02773   1.00306
    D6        3.12490   0.01308   0.00000  -0.06146  -0.06128   3.06362
    D7       -1.04963   0.00562   0.00000  -0.03099  -0.03108  -1.08070
    D8       -2.10210   0.00646   0.00000  -0.01417  -0.01434  -2.11644
    D9       -0.00799   0.01604   0.00000  -0.04820  -0.04789  -0.05588
   D10        2.10067   0.00858   0.00000  -0.01774  -0.01769   2.08299
   D11        0.09061   0.00781   0.00000   0.01473   0.01470   0.10530
   D12       -3.03040   0.01718   0.00000   0.02089   0.02088  -3.00952
   D13       -3.06006   0.00466   0.00000   0.00102   0.00103  -3.05904
   D14        0.10211   0.01403   0.00000   0.00718   0.00721   0.10933
   D15       -0.53710   0.01420   0.00000   0.03636   0.03611  -0.50099
   D16        1.58207   0.01587   0.00000  -0.00084  -0.00074   1.58134
   D17       -2.66963   0.00975   0.00000   0.01467   0.01483  -2.65480
   D18       -2.14441  -0.00199   0.00000  -0.05616  -0.05618  -2.20060
   D19        0.97827  -0.01162   0.00000  -0.06160  -0.06158   0.91670
         Item               Value     Threshold  Converged?
 Maximum Force            0.102354     0.000450     NO 
 RMS     Force            0.023726     0.000300     NO 
 Maximum Displacement     0.201283     0.001800     NO 
 RMS     Displacement     0.052194     0.001200     NO 
 Predicted change in Energy=-1.268404D-02
 Lowest energy point so far.  Saving SCF results.
 GradGradGradGradGradGradGradGradGradGradGradGradGradGradGradGradGradGrad

 Leave Link  103 at Thu Apr 14 10:21:51 2016, MaxMem=    33554432 cpu:         0.0
 (Enter /usr/local/gau/g09/l202.exe)
                          Input orientation:                          
 ---------------------------------------------------------------------
 Center     Atomic      Atomic             Coordinates (Angstroms)
 Number     Number       Type             X           Y           Z
 ---------------------------------------------------------------------
      1          7           0        1.231440    1.387870    0.039683
      2          1           0        2.226388    1.478524   -0.059731
      3          6           0        0.636273    0.133084   -0.015039
      4          1           0       -0.030594   -1.089724    0.756520
      5          6           0        1.558214   -1.047016   -0.039458
      6          6           0       -0.721729    0.029001   -0.018384
      7          1           0        2.210785   -1.032335    0.843611
      8          1           0        0.963553   -1.951785   -0.001913
      9          1           0        2.206125   -1.046084   -0.926557
     10          8           0       -1.494571    1.197742   -0.095264
     11          1           0        0.656285    2.208296   -0.048649
     12          8           0       -1.432431   -1.158777    0.079485
     13          1           0       -2.141042    1.232797    0.641182
 ---------------------------------------------------------------------
                    Distance matrix (angstroms):
                    1          2          3          4          5
     1  N    0.000000
     2  H    1.004004   0.000000
     3  C    1.389858   2.083428   0.000000
     4  H    2.871421   3.515130   1.592255   0.000000
     5  C    2.457990   2.612513   1.497734   1.777559   0.000000
     6  C    2.380076   3.285456   1.361989   1.526331   2.521189
     7  H    2.731814   2.668461   2.138824   2.243804   1.098123
     8  H    3.350639   3.655833   2.110441   1.518782   1.083345
     9  H    2.794237   2.669353   2.164656   2.799566   1.098515
    10  O    2.735963   3.731708   2.383365   2.846272   3.789663
    11  H    1.005835   1.731448   2.075581   3.463674   3.377960
    12  O    3.685540   4.512394   2.440774   1.558298   2.995096
    13  H    3.429209   4.430136   3.058345   3.140286   4.398330
                    6          7          8          9         10
     6  C    0.000000
     7  H    3.235599   0.000000
     8  H    2.600761   1.765187   0.000000
     9  H    3.248525   1.770228   1.794226   0.000000
    10  O    1.403265   4.425426   3.996324   4.406921   0.000000
    11  H    2.578598   3.703281   4.171675   3.709948   2.376884
    12  O    1.387621   3.724634   2.525120   3.776760   2.363806
    13  H    1.974488   4.910213   4.493734   5.152569   0.980564
                   11         12         13
    11  H    0.000000
    12  O    3.964384   0.000000
    13  H    3.041793   2.556806   0.000000
 Stoichiometry    C3H7NO2
 Framework group  C1[X(C3H7NO2)]
 Deg. of freedom    33
 Full point group                 C1      NOp   1
 RotChk:  IX=0 Diff= 1.78D-02
 Largest Abelian subgroup         C1      NOp   1
 Largest concise Abelian subgroup C1      NOp   1
                         Standard orientation:                         
 ---------------------------------------------------------------------
 Center     Atomic      Atomic             Coordinates (Angstroms)
 Number     Number       Type             X           Y           Z
 ---------------------------------------------------------------------
      1          7           0        1.094143    1.407560    0.074528
      2          1           0        2.076761    1.598266   -0.003690
      3          6           0        0.627038    0.102047   -0.021139
      4          1           0        0.071642   -1.199671    0.708479
      5          6           0        1.661489   -0.980505   -0.055765
      6          6           0       -0.713758   -0.135172   -0.052885
      7          1           0        2.294580   -0.924018    0.839712
      8          1           0        1.158717   -1.940107   -0.050942
      9          1           0        2.320840   -0.893264   -0.930054
     10          8           0       -1.597049    0.953335   -0.116931
     11          1           0        0.442195    2.169321   -0.005401
     12          8           0       -1.304993   -1.389275    0.003342
     13          1           0       -2.256014    0.905857    0.607650
 ---------------------------------------------------------------------
 Rotational constants (GHZ):      4.9292947      3.2967044      2.0197869
 Leave Link  202 at Thu Apr 14 10:21:51 2016, MaxMem=    33554432 cpu:         0.0
 (Enter /usr/local/gau/g09/l301.exe)
 Standard basis: 6-31G (6D, 7F)
 Ernie: Thresh=  0.10000D-02 Tol=  0.10000D-05 Strict=F.
 There are    68 symmetry adapted cartesian basis functions of A   symmetry.
 There are    68 symmetry adapted basis functions of A   symmetry.
    68 basis functions,   160 primitive gaussians,    68 cartesian basis functions
    24 alpha electrons       24 beta electrons
       nuclear repulsion energy       247.0285074180 Hartrees.
 IExCor=  402 DFT=T Ex+Corr=B3LYP ExCW=0 ScaHFX=  0.200000
 ScaDFX=  0.800000  0.720000  1.000000  0.810000 ScalE2=  1.000000  1.000000
 IRadAn=      0 IRanWt=     -1 IRanGd=            0 ICorTp=0 IEmpDi=  4
 NAtoms=   13 NActive=   13 NUniq=   13 SFac= 1.00D+00 NAtFMM=   60 NAOKFM=F Big=F
 Integral buffers will be    131072 words long.
 Raffenetti 2 integral format.
 Two-electron integral symmetry is turned on.
 Leave Link  301 at Thu Apr 14 10:21:51 2016, MaxMem=    33554432 cpu:         0.0
 (Enter /usr/local/gau/g09/l302.exe)
 NPDir=0 NMtPBC=     1 NCelOv=     1 NCel=       1 NClECP=     1 NCelD=      1
         NCelK=      1 NCelE2=     1 NClLst=     1 CellRange=     0.0.
 One-electron integrals computed using PRISM.
 NBasis=    68 RedAO= T EigKep=  2.83D-03  NBF=    68
 NBsUse=    68 1.00D-06 EigRej= -1.00D+00 NBFU=    68
 Precomputing XC quadrature grid using
 IXCGrd= 4 IRadAn=           0 IRanWt=          -1 IRanGd=           0 AccXCQ= 0.00D+00.
 Generated NRdTot=       0 NPtTot=           0 NUsed=           0 NTot=          32
 NSgBfM=    68    68    68    68    68 MxSgAt=    13 MxSgA2=    13.
 Leave Link  302 at Thu Apr 14 10:21:51 2016, MaxMem=    33554432 cpu:         0.2
 (Enter /usr/local/gau/g09/l303.exe)
 DipDrv:  MaxL=1.
 Leave Link  303 at Thu Apr 14 10:21:51 2016, MaxMem=    33554432 cpu:         0.0
 (Enter /usr/local/gau/g09/l401.exe)
 Initial guess from the checkpoint file:  "Ala-S-opt-freq-tsa3-6-31g.chk"
 B after Tr=     0.000000    0.000000    0.000000
         Rot=    0.999988    0.001387    0.001388    0.004517 Ang=   0.56 deg.
 Guess basis will be translated and rotated to current coordinates.
 JPrj=2 DoOrth=T DoCkMO=T.
 Generating alternative initial guess.
 ExpMin= 1.61D-01 ExpMax= 5.48D+03 ExpMxC= 8.25D+02 IAcc=1 IRadAn=         1 AccDes= 0.00D+00
 Harris functional with IExCor=  402 and IRadAn=       1 diagonalized for initial guess.
 HarFok:  IExCor=  402 AccDes= 0.00D+00 IRadAn=         1 IDoV= 1 UseB2=F ITyADJ=14
 ICtDFT=  3500011 ScaDFX=  1.000000  1.000000  1.000000  1.000000
 FoFCou: FMM=F IPFlag=           0 FMFlag=      100000 FMFlg1=           0
         NFxFlg=           0 DoJE=T BraDBF=F KetDBF=T FulRan=T
         wScrn=  0.000000 ICntrl=     500 IOpCl=  0 I1Cent=   200000004 NGrid=           0
         NMat0=    1 NMatS0=      1 NMatT0=    0 NMatD0=    1 NMtDS0=    0 NMtDT0=    0
 Petite list used in FoFCou.
 Harris En= -323.526200879056    
 Leave Link  401 at Thu Apr 14 10:21:52 2016, MaxMem=    33554432 cpu:         0.5
 (Enter /usr/local/gau/g09/l502.exe)
 Closed shell SCF:
 Using DIIS extrapolation, IDIIS=  1040.
 Integral symmetry usage will be decided dynamically.
 Keep R1 ints in memory in canonical form, NReq=3676491.
 IVT=       33364 IEndB=       33364 NGot=    33554432 MDV=    30768038
 LenX=    30768038 LenY=    30762973
 Requested convergence on RMS density matrix=1.00D-08 within 128 cycles.
 Requested convergence on MAX density matrix=1.00D-06.
 Requested convergence on             energy=1.00D-06.
 No special actions if energy rises.
 FoFCou: FMM=F IPFlag=           0 FMFlag=           0 FMFlg1=           0
         NFxFlg=           0 DoJE=F BraDBF=F KetDBF=F FulRan=T
         wScrn=  0.000000 ICntrl=     600 IOpCl=  0 I1Cent=           0 NGrid=           0
         NMat0=    1 NMatS0=   2346 NMatT0=    0 NMatD0=    1 NMtDS0=    0 NMtDT0=    0
 Symmetry not used in FoFCou.
 Integral accuracy reduced to 1.0D-05 until final iterations.

 Cycle   1  Pass 0  IDiag  1:
 E= -323.459046269690    
 DIIS: error= 4.73D-03 at cycle   1 NSaved=   1.
 NSaved= 1 IEnMin= 1 EnMin= -323.459046269690     IErMin= 1 ErrMin= 4.73D-03
 ErrMax= 4.73D-03  0.00D+00 EMaxC= 1.00D-01 BMatC= 2.59D-03 BMatP= 2.59D-03
 IDIUse=3 WtCom= 9.53D-01 WtEn= 4.73D-02
 Coeff-Com:  0.100D+01
 Coeff-En:   0.100D+01
 Coeff:      0.100D+01
 Gap=     0.559 Goal=   None    Shift=    0.000
 GapD=    0.559 DampG=2.000 DampE=1.000 DampFc=2.0000 IDamp=-1.
 RMSDP=2.23D-03 MaxDP=2.02D-02              OVMax= 3.89D-02

 Cycle   2  Pass 0  IDiag  1:
 E= -323.464357768742     Delta-E=       -0.005311499052 Rises=F Damp=F
 DIIS: error= 4.97D-03 at cycle   2 NSaved=   2.
 NSaved= 2 IEnMin= 2 EnMin= -323.464357768742     IErMin= 1 ErrMin= 4.73D-03
 ErrMax= 4.97D-03  0.00D+00 EMaxC= 1.00D-01 BMatC= 9.75D-04 BMatP= 2.59D-03
 IDIUse=3 WtCom= 9.50D-01 WtEn= 4.97D-02
 Coeff-Com:  0.287D+00 0.713D+00
 Coeff-En:   0.000D+00 0.100D+01
 Coeff:      0.273D+00 0.727D+00
 Gap=     0.144 Goal=   None    Shift=    0.000
 RMSDP=1.42D-03 MaxDP=1.68D-02 DE=-5.31D-03 OVMax= 3.65D-02

 Cycle   3  Pass 0  IDiag  1:
 E= -323.462513456965     Delta-E=        0.001844311777 Rises=F Damp=F
 DIIS: error= 8.39D-03 at cycle   3 NSaved=   3.
 NSaved= 3 IEnMin= 2 EnMin= -323.464357768742     IErMin= 1 ErrMin= 4.73D-03
 ErrMax= 8.39D-03  0.00D+00 EMaxC= 1.00D-01 BMatC= 3.03D-03 BMatP= 9.75D-04
 IDIUse=3 WtCom= 9.84D-02 WtEn= 9.02D-01
 Coeff-Com: -0.345D-01 0.659D+00 0.375D+00
 Coeff-En:   0.000D+00 0.687D+00 0.313D+00
 Coeff:     -0.340D-02 0.684D+00 0.319D+00
 Gap=     0.145 Goal=   None    Shift=    0.000
 RMSDP=8.23D-04 MaxDP=9.68D-03 DE= 1.84D-03 OVMax= 2.02D-02

 Cycle   4  Pass 0  IDiag  1:
 E= -323.465223008433     Delta-E=       -0.002709551468 Rises=F Damp=F
 DIIS: error= 1.54D-03 at cycle   4 NSaved=   4.
 NSaved= 4 IEnMin= 4 EnMin= -323.465223008433     IErMin= 4 ErrMin= 1.54D-03
 ErrMax= 1.54D-03  0.00D+00 EMaxC= 1.00D-01 BMatC= 7.97D-05 BMatP= 9.75D-04
 IDIUse=3 WtCom= 9.85D-01 WtEn= 1.54D-02
 Coeff-Com: -0.325D-01 0.378D+00 0.148D+00 0.506D+00
 Coeff-En:   0.000D+00 0.737D-01 0.000D+00 0.926D+00
 Coeff:     -0.320D-01 0.374D+00 0.146D+00 0.513D+00
 Gap=     0.145 Goal=   None    Shift=    0.000
 RMSDP=1.85D-04 MaxDP=2.38D-03 DE=-2.71D-03 OVMax= 5.45D-03

 Cycle   5  Pass 0  IDiag  1:
 E= -323.465305321586     Delta-E=       -0.000082313153 Rises=F Damp=F
 DIIS: error= 3.15D-04 at cycle   5 NSaved=   5.
 NSaved= 5 IEnMin= 5 EnMin= -323.465305321586     IErMin= 5 ErrMin= 3.15D-04
 ErrMax= 3.15D-04  0.00D+00 EMaxC= 1.00D-01 BMatC= 2.39D-06 BMatP= 7.97D-05
 IDIUse=3 WtCom= 9.97D-01 WtEn= 3.15D-03
 Coeff-Com: -0.456D-02 0.248D-01 0.107D-01 0.160D+00 0.809D+00
 Coeff-En:   0.000D+00 0.000D+00 0.000D+00 0.000D+00 0.100D+01
 Coeff:     -0.455D-02 0.247D-01 0.107D-01 0.160D+00 0.809D+00
 Gap=     0.145 Goal=   None    Shift=    0.000
 RMSDP=4.87D-05 MaxDP=5.23D-04 DE=-8.23D-05 OVMax= 1.46D-03

 Cycle   6  Pass 0  IDiag  1:
 E= -323.465308331457     Delta-E=       -0.000003009871 Rises=F Damp=F
 DIIS: error= 6.04D-05 at cycle   6 NSaved=   6.
 NSaved= 6 IEnMin= 6 EnMin= -323.465308331457     IErMin= 6 ErrMin= 6.04D-05
 ErrMax= 6.04D-05  0.00D+00 EMaxC= 1.00D-01 BMatC= 2.51D-07 BMatP= 2.39D-06
 IDIUse=1 WtCom= 1.00D+00 WtEn= 0.00D+00
 Coeff-Com: -0.101D-03-0.115D-01-0.810D-03 0.321D-01 0.413D+00 0.567D+00
 Coeff:     -0.101D-03-0.115D-01-0.810D-03 0.321D-01 0.413D+00 0.567D+00
 Gap=     0.145 Goal=   None    Shift=    0.000
 RMSDP=1.09D-05 MaxDP=1.07D-04 DE=-3.01D-06 OVMax= 1.95D-04

 Cycle   7  Pass 0  IDiag  1:
 E= -323.465308567990     Delta-E=       -0.000000236533 Rises=F Damp=F
 DIIS: error= 2.30D-05 at cycle   7 NSaved=   7.
 NSaved= 7 IEnMin= 7 EnMin= -323.465308567990     IErMin= 7 ErrMin= 2.30D-05
 ErrMax= 2.30D-05  0.00D+00 EMaxC= 1.00D-01 BMatC= 4.13D-08 BMatP= 2.51D-07
 IDIUse=1 WtCom= 1.00D+00 WtEn= 0.00D+00
 Coeff-Com:  0.986D-03-0.141D-01-0.206D-02-0.215D-01 0.101D+00 0.311D+00
 Coeff-Com:  0.625D+00
 Coeff:      0.986D-03-0.141D-01-0.206D-02-0.215D-01 0.101D+00 0.311D+00
 Coeff:      0.625D+00
 Gap=     0.145 Goal=   None    Shift=    0.000
 RMSDP=4.71D-06 MaxDP=5.30D-05 DE=-2.37D-07 OVMax= 1.03D-04

 Initial convergence to 1.0D-05 achieved.  Increase integral accuracy.
 Cycle   8  Pass 1  IDiag  1:
 E= -323.465307519662     Delta-E=        0.000001048329 Rises=F Damp=F
 DIIS: error= 7.53D-06 at cycle   1 NSaved=   1.
 NSaved= 1 IEnMin= 1 EnMin= -323.465307519662     IErMin= 1 ErrMin= 7.53D-06
 ErrMax= 7.53D-06  0.00D+00 EMaxC= 1.00D-01 BMatC= 1.21D-08 BMatP= 1.21D-08
 IDIUse=1 WtCom= 1.00D+00 WtEn= 0.00D+00
 Coeff-Com:  0.100D+01
 Coeff:      0.100D+01
 Gap=     0.145 Goal=   None    Shift=    0.000
 RMSDP=4.71D-06 MaxDP=5.30D-05 DE= 1.05D-06 OVMax= 5.90D-05

 Cycle   9  Pass 1  IDiag  1:
 E= -323.465307536178     Delta-E=       -0.000000016517 Rises=F Damp=F
 DIIS: error= 8.61D-06 at cycle   2 NSaved=   2.
 NSaved= 2 IEnMin= 2 EnMin= -323.465307536178     IErMin= 1 ErrMin= 7.53D-06
 ErrMax= 8.61D-06  0.00D+00 EMaxC= 1.00D-01 BMatC= 5.25D-09 BMatP= 1.21D-08
 IDIUse=1 WtCom= 1.00D+00 WtEn= 0.00D+00
 Coeff-Com:  0.350D+00 0.650D+00
 Coeff:      0.350D+00 0.650D+00
 Gap=     0.145 Goal=   None    Shift=    0.000
 RMSDP=2.10D-06 MaxDP=2.30D-05 DE=-1.65D-08 OVMax= 3.47D-05

 Cycle  10  Pass 1  IDiag  1:
 E= -323.465307537502     Delta-E=       -0.000000001324 Rises=F Damp=F
 DIIS: error= 9.31D-06 at cycle   3 NSaved=   3.
 NSaved= 3 IEnMin= 3 EnMin= -323.465307537502     IErMin= 1 ErrMin= 7.53D-06
 ErrMax= 9.31D-06  0.00D+00 EMaxC= 1.00D-01 BMatC= 4.16D-09 BMatP= 5.25D-09
 IDIUse=1 WtCom= 1.00D+00 WtEn= 0.00D+00
 Coeff-Com: -0.472D-02 0.471D+00 0.534D+00
 Coeff:     -0.472D-02 0.471D+00 0.534D+00
 Gap=     0.145 Goal=   None    Shift=    0.000
 RMSDP=1.18D-06 MaxDP=1.19D-05 DE=-1.32D-09 OVMax= 2.24D-05

 Cycle  11  Pass 1  IDiag  1:
 E= -323.465307540374     Delta-E=       -0.000000002872 Rises=F Damp=F
 DIIS: error= 3.47D-06 at cycle   4 NSaved=   4.
 NSaved= 4 IEnMin= 4 EnMin= -323.465307540374     IErMin= 4 ErrMin= 3.47D-06
 ErrMax= 3.47D-06  0.00D+00 EMaxC= 1.00D-01 BMatC= 5.51D-10 BMatP= 4.16D-09
 IDIUse=1 WtCom= 1.00D+00 WtEn= 0.00D+00
 Coeff-Com: -0.203D-01 0.297D+00 0.380D+00 0.343D+00
 Coeff:     -0.203D-01 0.297D+00 0.380D+00 0.343D+00
 Gap=     0.145 Goal=   None    Shift=    0.000
 RMSDP=5.04D-07 MaxDP=5.80D-06 DE=-2.87D-09 OVMax= 1.34D-05

 Cycle  12  Pass 1  IDiag  1:
 E= -323.465307540881     Delta-E=       -0.000000000507 Rises=F Damp=F
 DIIS: error= 8.95D-07 at cycle   5 NSaved=   5.
 NSaved= 5 IEnMin= 5 EnMin= -323.465307540881     IErMin= 5 ErrMin= 8.95D-07
 ErrMax= 8.95D-07  0.00D+00 EMaxC= 1.00D-01 BMatC= 3.33D-11 BMatP= 5.51D-10
 IDIUse=1 WtCom= 1.00D+00 WtEn= 0.00D+00
[...]
    R6        3.76019   0.00753   0.00000   0.23947   0.23947   3.99966
    R7        2.07521   0.00087   0.00000   0.00100   0.00100   2.07621
    R8        2.06173   0.01284   0.00000   0.00122   0.00122   2.06295
    R9        2.07492  -0.00001   0.00000   0.00219   0.00219   2.07711
   R10        2.63628  -0.00264   0.00000  -0.01791  -0.01791   2.61837
   R11        2.63852  -0.00780   0.00000   0.01062   0.01062   2.64913
   R12        1.84065   0.00357   0.00000   0.00498   0.00498   1.84563
    A1        2.00092   0.00159   0.00000  -0.00450  -0.00533   1.99559
    A2        1.96242   0.00066   0.00000  -0.01819  -0.01943   1.94299
    A3        2.04026   0.00077   0.00000  -0.03523  -0.03606   2.00420
    A4        2.03053  -0.01410   0.00000   0.02754   0.02605   2.05658
    A5        2.21692  -0.04289   0.00000  -0.10054  -0.10148   2.11544
    A6        2.03571   0.05701   0.00000   0.07368   0.07205   2.10776
    A7        1.95410   0.00046   0.00000   0.02181   0.02105   1.97515
    A8        1.85420   0.05924   0.00000   0.03066   0.03014   1.88434
    A9        1.96142  -0.02632   0.00000  -0.02963  -0.02952   1.93190
   A10        1.92319  -0.02317   0.00000   0.01556   0.01462   1.93780
   A11        1.90424   0.00211   0.00000  -0.03069  -0.03065   1.87359
   A12        1.86401  -0.01244   0.00000  -0.00639  -0.00612   1.85789
   A13        2.17564  -0.00366   0.00000   0.03460   0.03451   2.21015
   A14        2.15523   0.01323   0.00000  -0.00466  -0.00475   2.15048
   A15        1.95230  -0.00957   0.00000  -0.02980  -0.02989   1.92241
   A16        1.90203   0.04425   0.00000  -0.02764  -0.02764   1.87438
   A17        1.95612  -0.00687   0.00000  -0.03659  -0.03659   1.91952
    D1       -0.14176   0.00023   0.00000  -0.29090  -0.28790  -0.42965
    D2        2.99144   0.00448   0.00000  -0.18944  -0.19161   2.79983
    D3       -2.49302  -0.00357   0.00000  -0.21601  -0.21384  -2.70686
    D4        0.64018   0.00068   0.00000  -0.11455  -0.11755   0.52262
    D5        1.20461  -0.01041   0.00000   0.06045   0.06275   1.26736
    D6       -2.97833  -0.00066   0.00000   0.11152   0.11454  -2.86379
    D7       -0.94581   0.00624   0.00000   0.10665   0.10914  -0.83667
    D8       -1.92948  -0.01375   0.00000  -0.02932  -0.03223  -1.96171
    D9        0.17076  -0.00400   0.00000   0.02174   0.01955   0.19032
   D10        2.20328   0.00290   0.00000   0.01687   0.01416   2.21744
   D11        0.13469  -0.00249   0.00000  -0.01310  -0.01181   0.12288
   D12       -3.01346  -0.00317   0.00000   0.01371   0.01506  -2.99840
   D13       -3.01532   0.00147   0.00000   0.08842   0.08707  -2.92825
   D14        0.11971   0.00080   0.00000   0.11523   0.11394   0.23365
   D15       -0.74259  -0.02756   0.00000   0.02412   0.02386  -0.71873
   D16        1.37756  -0.00403   0.00000   0.07795   0.07827   1.45583
   D17       -2.83952  -0.02128   0.00000   0.04598   0.04592  -2.79360
   D18        0.50055   0.00179   0.00000   0.34778   0.34770   0.84826
   D19       -2.63514   0.00232   0.00000   0.32363   0.32371  -2.31144
         Item               Value     Threshold  Converged?
 Maximum Force            0.059243     0.000450     NO 
 RMS     Force            0.017853     0.000300     NO 
 Maximum Displacement     0.322751     0.001800     NO 
 RMS     Displacement     0.130246     0.001200     NO 
 Predicted change in Energy=-9.845911D-03
 Optimization stopped.
    -- Number of steps exceeded,  NStep=  58
    -- Flag reset to prevent archiving.
                           ----------------------------
                           ! Non-Optimized Parameters !
                           ! (Angstroms and Degrees)  !
 --------------------------                            --------------------------
 ! Name  Definition              Value          Derivative Info.                !
 --------------------------------------------------------------------------------
 ! R1    R(1,2)                  1.01           -DE/DX =    0.001               !
 ! R2    R(1,3)                  1.4251         -DE/DX =   -0.001               !
 ! R3    R(1,11)                 1.0148         -DE/DX =    0.0015              !
 ! R4    R(3,5)                  1.5122         -DE/DX =    0.0254              !
 ! R5    R(3,6)                  1.3523         -DE/DX =    0.0147              !
 ! R6    R(4,8)                  2.1165         -DE/DX =    0.0075              !
 ! R7    R(5,7)                  1.0987         -DE/DX =    0.0009              !
 ! R8    R(5,8)                  1.0917         -DE/DX =    0.0128              !
 ! R9    R(5,9)                  1.0992         -DE/DX =    0.0                 !
 ! R10   R(6,10)                 1.3856         -DE/DX =   -0.0026              !
 ! R11   R(6,12)                 1.4019         -DE/DX =   -0.0078              !
 ! R12   R(10,13)                0.9767         -DE/DX =    0.0036              !
 ! A1    A(2,1,3)              114.3389         -DE/DX =    0.0016              !
 ! A2    A(2,1,11)             111.3248         -DE/DX =    0.0007              !
 ! A3    A(3,1,11)             114.8324         -DE/DX =    0.0008              !
 ! A4    A(1,3,5)              117.8334         -DE/DX =   -0.0141              !
 ! A5    A(1,3,6)              121.2061         -DE/DX =   -0.0429              !
 ! A6    A(5,3,6)              120.7657         -DE/DX =    0.057               !
 ! A7    A(3,5,7)              113.168          -DE/DX =    0.0005              !
 ! A8    A(3,5,8)              107.9647         -DE/DX =    0.0592              !
 ! A9    A(3,5,9)              110.6895         -DE/DX =   -0.0263              !
 ! A10   A(7,5,8)              111.0278         -DE/DX =   -0.0232              !
 ! A11   A(7,5,9)              107.349          -DE/DX =    0.0021              !
 ! A12   A(8,5,9)              106.4494         -DE/DX =   -0.0124              !
 ! A13   A(3,6,10)             126.632          -DE/DX =   -0.0037              !
 ! A14   A(3,6,12)             123.2133         -DE/DX =    0.0132              !
 ! A15   A(10,6,12)            110.1462         -DE/DX =   -0.0096              !
 ! A16   A(4,8,5)              107.3943         -DE/DX =    0.0443              !
 ! A17   A(6,10,13)            109.9805         -DE/DX =   -0.0069              !
 ! D1    D(2,1,3,5)            -24.6173         -DE/DX =    0.0002              !
 ! D2    D(2,1,3,6)            160.4186         -DE/DX =    0.0045              !
 ! D3    D(11,1,3,5)          -155.0917         -DE/DX =   -0.0036              !
 ! D4    D(11,1,3,6)            29.9441         -DE/DX =    0.0007              !
 ! D5    D(1,3,5,7)             72.6147         -DE/DX =   -0.0104              !
 ! D6    D(1,3,5,8)           -164.0832         -DE/DX =   -0.0007              !
 ! D7    D(1,3,5,9)            -47.9376         -DE/DX =    0.0062              !
 ! D8    D(6,3,5,7)           -112.3979         -DE/DX =   -0.0138              !
 ! D9    D(6,3,5,8)             10.9043         -DE/DX =   -0.004               !
 ! D10   D(6,3,5,9)            127.0498         -DE/DX =    0.0029              !
 ! D11   D(1,3,6,10)             7.0405         -DE/DX =   -0.0025              !
 ! D12   D(1,3,6,12)          -171.7958         -DE/DX =   -0.0032              !
 ! D13   D(5,3,6,10)          -167.7765         -DE/DX =    0.0015              !
 ! D14   D(5,3,6,12)            13.3872         -DE/DX =    0.0008              !
 ! D15   D(3,5,8,4)            -41.1804         -DE/DX =   -0.0276              !
 ! D16   D(7,5,8,4)             83.4127         -DE/DX =   -0.004               !
 ! D17   D(9,5,8,4)           -160.0615         -DE/DX =   -0.0213              !
 ! D18   D(3,6,10,13)           48.6015         -DE/DX =    0.0018              !
 ! D19   D(12,6,10,13)        -132.4356         -DE/DX =    0.0023              !
 --------------------------------------------------------------------------------
 GradGradGradGradGradGradGradGradGradGradGradGradGradGradGradGradGradGrad

 Largest change from initial coordinates is atom   13       1.886 Angstoms.
 Leave Link  103 at Thu Apr 14 10:36:28 2016, MaxMem=    33554432 cpu:         0.0
 (Enter /usr/local/gau/g09/l202.exe)
                          Input orientation:                          
 ---------------------------------------------------------------------
 Center     Atomic      Atomic             Coordinates (Angstroms)
 Number     Number       Type             X           Y           Z
 ---------------------------------------------------------------------
      1          7           0        1.192618    1.484419   -0.275932
      2          1           0        2.197447    1.464510   -0.358027
      3          6           0        0.594065    0.222034   -0.032394
      4          1           0       -0.537428   -1.558613    1.319226
      5          6           0        1.499061   -0.971942   -0.119587
      6          6           0       -0.682098   -0.015982    0.273801
      7          1           0        2.227201   -0.996254    0.702093
      8          1           0        0.851889   -1.849173   -0.075301
      9          1           0        2.035259   -1.021133   -1.076497
     10          8           0       -1.693992    0.944239    0.258345
     11          1           0        0.866349    2.261080    0.283682
     12          8           0       -1.163989   -1.273111    0.643805
     13          1           0       -1.517684    1.651517   -0.387729
 ---------------------------------------------------------------------
                    Distance matrix (angstroms):
                    1          2          3          4          5
     1  N    0.000000
     2  H    1.008374   0.000000
     3  C    1.418165   2.054414   0.000000
     4  H    3.846769   4.408174   2.505566   0.000000
     5  C    2.480334   2.545760   1.500733   2.561572   0.000000
     6  C    2.463325   3.298916   1.333791   1.869105   2.413725
     7  H    2.860180   2.679570   2.165833   2.887954   1.098152
     8  H    3.356960   3.587611   2.087633   1.989807   1.091021
     9  H    2.762017   2.592475   2.170865   3.556275   1.098000
    10  O    2.984923   3.974154   2.416881   2.954214   3.743016
    11  H    1.011347   1.678731   2.081286   4.199167   3.318943
    12  O    3.742123   4.449437   2.404882   0.964512   2.786629
    13  H    2.717749   3.719954   2.574717   3.765572   4.006893
                    6          7          8          9         10
     6  C    0.000000
     7  H    3.099741   0.000000
     8  H    2.415694   1.795354   0.000000
     9  H    3.196508   1.789090   1.757386   0.000000
    10  O    1.395060   4.397520   3.794204   4.421742   0.000000
    11  H    2.753688   3.554886   4.125925   3.740235   2.879246
    12  O    1.396243   3.402972   2.216466   3.641169   2.312169
    13  H    1.978984   4.714082   4.238787   4.498985   0.974032
                   11         12         13
    11  H    0.000000
    12  O    4.091756   0.000000
    13  H    2.550681   3.121315   0.000000
 Stoichiometry    C3H7NO2
 Framework group  C1[X(C3H7NO2)]
 Deg. of freedom    33
 Full point group                 C1      NOp   1
 RotChk:  IX=3 Diff= 2.54D-15
 Largest Abelian subgroup         C1      NOp   1
 Largest concise Abelian subgroup C1      NOp   1
                         Standard orientation:                         
 ---------------------------------------------------------------------
 Center     Atomic      Atomic             Coordinates (Angstroms)
 Number     Number       Type             X           Y           Z
 ---------------------------------------------------------------------
      1          7           0        1.422720    1.254735    0.055211
      2          1           0        2.410941    1.087480    0.165952
      3          6           0        0.629466    0.081735   -0.022310
      4          1           0       -0.982562   -1.656101    0.789572
      5          6           0        1.371799   -1.218874   -0.120080
      6          6           0       -0.702356    0.010574   -0.008698
      7          1           0        1.898778   -1.462067    0.812169
      8          1           0        0.623232   -1.981654   -0.339486
      9          1           0        2.088868   -1.229508   -0.951528
     10          8           0       -1.556265    1.112190   -0.067638
     11          1           0        1.086802    1.995339    0.656448
     12          8           0       -1.408901   -1.191769    0.059563
     13          1           0       -1.157226    1.859389   -0.548470
 ---------------------------------------------------------------------
 Rotational constants (GHZ):      4.8204284      3.3021338      2.0133147
 Leave Link  202 at Thu Apr 14 10:36:28 2016, MaxMem=    33554432 cpu:         0.0
 (Enter /usr/local/gau/g09/l601.exe)
 Copying SCF densities to generalized density rwf, IOpCl= 0 IROHF=0.

 **********************************************************************

            Population analysis using the SCF density.

 **********************************************************************

 Orbital symmetries:
       Occupied  (A) (A) (A) (A) (A) (A) (A) (A) (A) (A) (A) (A)
                 (A) (A) (A) (A) (A) (A) (A) (A) (A) (A) (A) (A)
       Virtual   (A) (A) (A) (A) (A) (A) (A) (A) (A) (A) (A) (A)
                 (A) (A) (A) (A) (A) (A) (A) (A) (A) (A) (A) (A)
                 (A) (A) (A) (A) (A) (A) (A) (A) (A) (A) (A) (A)
                 (A) (A) (A) (A) (A) (A) (A) (A)
 The electronic state is 1-A.
 Alpha  occ. eigenvalues --  -19.16523 -19.15978 -14.33384 -10.27174 -10.21205
 Alpha  occ. eigenvalues --  -10.18279  -1.08049  -1.02460  -0.90980  -0.76601
 Alpha  occ. eigenvalues --   -0.68567  -0.60550  -0.53746  -0.52462  -0.49390
 Alpha  occ. eigenvalues --   -0.44448  -0.41969  -0.40368  -0.39048  -0.35511
 Alpha  occ. eigenvalues --   -0.33903  -0.31365  -0.30091  -0.17684
 Alpha virt. eigenvalues --    0.04548   0.05504   0.09065   0.09914   0.13423
 Alpha virt. eigenvalues --    0.13982   0.17001   0.18605   0.20170   0.24339
 Alpha virt. eigenvalues --    0.25768   0.38992   0.46790   0.55411   0.57198
 Alpha virt. eigenvalues --    0.60336   0.61106   0.63726   0.66472   0.68995
 Alpha virt. eigenvalues --    0.71466   0.74246   0.77377   0.81961   0.84114
 Alpha virt. eigenvalues --    0.86099   0.88695   0.91318   0.92399   0.93416
 Alpha virt. eigenvalues --    0.94266   0.97838   0.99563   1.04322   1.09884
 Alpha virt. eigenvalues --    1.12429   1.18566   1.19558   1.24460   1.33088
 Alpha virt. eigenvalues --    1.37084   1.54920   1.73566   2.04185
          Condensed to atoms (all electrons):
               1          2          3          4          5          6
     1  N    6.980296   0.329936   0.245070   0.000219  -0.083157  -0.056264
     2  H    0.329936   0.431153  -0.028345   0.000005  -0.008108   0.005181
     3  C    0.245070  -0.028345   5.251032  -0.013344   0.318514   0.339801
     4  H    0.000219   0.000005  -0.013344   0.427552   0.002736  -0.037611
     5  C   -0.083157  -0.008108   0.318514   0.002736   5.237200  -0.027725
     6  C   -0.056264   0.005181   0.339801  -0.037611  -0.027725   4.956235
     7  H    0.004430   0.002104  -0.035224   0.001314   0.350913  -0.005741
     8  H    0.005197   0.000005  -0.042184  -0.002051   0.358911  -0.011040
     9  H   -0.002242   0.001211  -0.042582  -0.000305   0.364103   0.002116
    10  O   -0.004355   0.000028  -0.113888   0.003244   0.003909   0.261014
    11  H    0.322308  -0.033905  -0.035467  -0.000017   0.006059  -0.010802
    12  O    0.002353  -0.000044  -0.099248   0.248128  -0.023755   0.258771
    13  H    0.005287  -0.000072  -0.009006  -0.000178   0.000533  -0.035850
               7          8          9         10         11         12
     1  N    0.004430   0.005197  -0.002242  -0.004355   0.322308   0.002353
     2  H    0.002104   0.000005   0.001211   0.000028  -0.033905  -0.000044
     3  C   -0.035224  -0.042184  -0.042582  -0.113888  -0.035467  -0.099248
     4  H    0.001314  -0.002051  -0.000305   0.003244  -0.000017   0.248128
     5  C    0.350913   0.358911   0.364103   0.003909   0.006059  -0.023755
     6  C   -0.005741  -0.011040   0.002116   0.261014  -0.010802   0.258771
     7  H    0.613616  -0.029322  -0.040704  -0.000073   0.000193   0.000678
     8  H   -0.029322   0.563860  -0.019969   0.000274  -0.000205   0.020576
     9  H   -0.040704  -0.019969   0.582416   0.000012  -0.000210   0.000937
    10  O   -0.000073   0.000274   0.000012   8.266020   0.005601  -0.069214
    11  H    0.000193  -0.000205  -0.000210   0.005601   0.457927   0.000057
    12  O    0.000678   0.020576   0.000937  -0.069214   0.000057   8.222832
    13  H   -0.000027  -0.000075   0.000029   0.243528  -0.001051   0.003528
              13
     1  N    0.005287
     2  H   -0.000072
     3  C   -0.009006
     4  H   -0.000178
     5  C    0.000533
     6  C   -0.035850
     7  H   -0.000027
     8  H   -0.000075
     9  H    0.000029
    10  O    0.243528
    11  H   -0.001051
    12  O    0.003528
    13  H    0.418967
 Mulliken charges:
               1
     1  N   -0.749077
     2  H    0.300853
     3  C    0.264872
     4  H    0.370306
     5  C   -0.500131
     6  C    0.361917
     7  H    0.137845
     8  H    0.156023
     9  H    0.155189
    10  O   -0.596099
    11  H    0.289512
    12  O   -0.565598
    13  H    0.374387
 Sum of Mulliken charges =   0.00000
 Mulliken charges with hydrogens summed into heavy atoms:
               1
     1  N   -0.158712
     3  C    0.264872
     5  C   -0.051073
     6  C    0.361917
    10  O   -0.221712
    12  O   -0.195292
 Electronic spatial extent (au):  <R**2>=            604.5229
 Charge=              0.0000 electrons
 Dipole moment (field-independent basis, Debye):
    X=              3.6333    Y=              0.5753    Z=              1.6266  Tot=              4.0221
 Quadrupole moment (field-independent basis, Debye-Ang):
   XX=            -40.1619   YY=            -30.6035   ZZ=            -35.6849
   XY=             -0.2953   XZ=              1.3970   YZ=             -1.6134
 Traceless Quadrupole moment (field-independent basis, Debye-Ang):
   XX=             -4.6785   YY=              4.8799   ZZ=             -0.2015
   XY=             -0.2953   XZ=              1.3970   YZ=             -1.6134
 Octapole moment (field-independent basis, Debye-Ang**2):
  XXX=             20.4786  YYY=             11.2217  ZZZ=              2.0394  XYY=             -3.5715
  XXY=              4.2371  XXZ=              2.6607  XZZ=             -4.4178  YZZ=             -0.4403
  YYZ=              5.9559  XYZ=              8.7414
 Hexadecapole moment (field-independent basis, Debye-Ang**3):
 XXXX=           -397.1212 YYYY=           -252.2394 ZZZZ=            -45.0241 XXXY=             15.6947
 XXXZ=              5.0541 YYYX=              1.2215 YYYZ=             -5.3799 ZZZX=              0.7416
 ZZZY=             -2.7623 XXYY=           -117.0334 XXZZ=            -72.4712 YYZZ=            -50.1128
 XXYZ=             -0.2429 YYXZ=              7.0346 ZZXY=              0.7377
 N-N= 2.467558992128D+02 E-N=-1.251396116063D+03  KE= 3.219327828432D+02
 No NMR shielding tensors so no spin-rotation constants.
 Leave Link  601 at Thu Apr 14 10:36:29 2016, MaxMem=    33554432 cpu:         0.1
 (Enter /usr/local/gau/g09/l9999.exe)


       THE DEATH-KNELL OF THE ATOM

 SO THE ATOMS IN TURN, WE NOW CLEARLY DISCERN,
 FLY TO BITS WITH THE UTMOST FACILITY;
 THEY WEND ON THEIR WAY, AND, IN SPLITTING, DISPLAY
 AN ABSOLUTE LACK OF STABILITY.

          SIR WM. RAMSAY, 1905
 Error termination request processed by link 9999.
 Error termination via Lnk1e in /usr/local/gau/g09/l9999.exe at Thu Apr 14 10:36:29 2016.
 Job cpu time:       0 days  0 hours 15 minutes 58.5 seconds.
 File lengths (MBytes):  RWF=     12 Int=      0 D2E=      0 Chk=      2 Scr=      1
