 Entering Gaussian System, Link 0=g09
 Input=Ala-S-opt-freq-pb1-6-31g.com
 Output=Ala-S-opt-freq-pb1-6-31g.log
 Initial command:
 /usr/local/gau/g09/l1.exe "/tmp/Gau-8698.inp" -scrdir="/tmp/"
 Entering Link 1 = /usr/local/gau/g09/l1.exe PID=      8700.
  
 Copyright (c) 1988,1990,1992,1993,1995,1998,2003,2009,2013,
            Gaussian, Inc.  All Rights Reserved.
  
 This is part of the Gaussian(R) 09 program.  It is based on
 the Gaussian(R) 03 system (copyright 2003, Gaussian, Inc.),
 the Gaussian(R) 98 system (copyright 1998, Gaussian, Inc.),
 the Gaussian(R) 94 system (copyright 1995, Gaussian, Inc.),
 the Gaussian 92(TM) system (copyright 1992, Gaussian, Inc.),
 the Gaussian 90(TM) system (copyright 1990, Gaussian, Inc.),
 the Gaussian 88(TM) system (copyright 1988, Gaussian, Inc.),
 the Gaussian 86(TM) system (copyright 1986, Carnegie Mellon
 University), and the Gaussian 82(TM) system (copyright 1983,
 Carnegie Mellon University). Gaussian is a federally registered
 trademark of Gaussian, Inc.
  
 This software contains proprietary and confidential information,
 including trade secrets, belonging to Gaussian, Inc.
  
 This software is provided under written license and may be
 used, copied, transmitted, or stored only in accord with that
 written license.
  
 The following legend is applicable only to US Government
 contracts under FAR:
  
                    RESTRICTED RIGHTS LEGEND
  
 Use, reproduction and disclosure by the US Government is
 subject to restrictions as set forth in subparagraphs (a)
 and (c) of the Commercial Computer Software - Restricted
 Rights clause in FAR 52.227-19.
  
 Gaussian, Inc.
 340 Quinnipiac St., Bldg. 40, Wallingford CT 06492
  
  
 ---------------------------------------------------------------
 Warning -- This program may not be used in any manner that
 competes with the business of Gaussian, Inc. or will provide
 assistance to any competitor of Gaussian, Inc.  The licensee
 of this program is prohibited from giving any competitor of
 Gaussian, Inc. access to this program.  By using this program,
 the user acknowledges that Gaussian, Inc. is engaged in the
 business of creating and licensing software in the field of
 computational chemistry and represents and warrants to the
 licensee that it is not a competitor of Gaussian, Inc. and that
 it will not use this program in any manner prohibited above.
 ---------------------------------------------------------------
  

 Cite this work as:
 Gaussian 09, Revision D.01,
 M. J. Frisch, G. W. Trucks, H. B. Schlegel, G. E. Scuseria, 
 M. A. Robb, J. R. Cheeseman, G. Scalmani, V. Barone, B. Mennucci, 
 G. A. Petersson, H. Nakatsuji, M. Caricato, X. Li, H. P. Hratchian, 
 A. F. Izmaylov, J. Bloino, G. Zheng, J. L. Sonnenberg, M. Hada, 
 M. Ehara, K. Toyota, R. Fukuda, J. Hasegawa, M. Ishida, T. Nakajima, 
 Y. Honda, O. Kitao, H. Nakai, T. Vreven, J. A. Montgomery, Jr., 
 J. E. Peralta, F. Ogliaro, M. Bearpark, J. J. Heyd, E. Brothers, 
 K. N. Kudin, V. N. Staroverov, T. Keith, R. Kobayashi, J. Normand, 
 K. Raghavachari, A. Rendell, J. C. Burant, S. S. Iyengar, J. Tomasi, 
 M. Cossi, N. Rega, J. M. Millam, M. Klene, J. E. Knox, J. B. Cross, 
 V. Bakken, C. Adamo, J. Jaramillo, R. Gomperts, R. E. Stratmann, 
 O. Yazyev, A. J. Austin, R. Cammi, C. Pomelli, J. W. Ochterski, 
 R. L. Martin, K. Morokuma, V. G. Zakrzewski, G. A. Voth, 
 P. Salvador, J. J. Dannenberg, S. Dapprich, A. D. Daniels, 
 O. Farkas, J. B. Foresman, J. V. Ortiz, J. Cioslowski, 
 and D. J. Fox, Gaussian, Inc., Wallingford CT, 2013.
 
 ******************************************
 Gaussian 09:  ES64L-G09RevD.01 24-Apr-2013
                12-Apr-2016 
 ******************************************
 %chk=Ala-S-opt-freq-pb1-6-31g.chk
 ------------------------------------
 #p opt=(calcfc,ts) freq rb3lyp/6-31g
 ------------------------------------
 1/5=1,10=4,14=-1,18=20,26=3,38=1/1,3;
 2/9=110,12=2,17=6,18=5,40=1/2;
 3/5=1,6=6,11=2,16=1,25=1,30=1,71=2,74=-5,116=1,140=1/1,2,3;
 4//1;
 5/5=2,38=5/2;
 8/6=4,10=90,11=11/1;
 11/6=1,8=1,9=11,15=111,16=1/1,2,10;
 10/6=1,13=1/2;
 6/7=2,8=2,9=2,10=2,28=1/1;
 7/10=1,18=20,25=1/1,2,3,16;
 1/5=1,10=4,14=-1,18=20,26=3/3(2);
 2/9=110/2;
 99//99;
 2/9=110/2;
 3/5=1,6=6,11=2,16=1,25=1,30=1,71=1,74=-5,116=1/1,2,3;
 4/5=5,16=3,69=1/1;
 5/5=2,38=5/2;
 7//1,2,3,16;
 1/5=1,14=-1,18=20,26=3/3(-5);
 2/9=110/2;
 6/7=2,8=2,9=2,10=2,19=2,28=1/1;
 99/9=1/99;
 Leave Link    1 at Tue Apr 12 22:23:30 2016, MaxMem=           0 cpu:         0.0
 (Enter /usr/local/gau/g09/l101.exe)
 ------------------------
 Ala-S-opt-freq-pb1-6-31g
 ------------------------
 Symbolic Z-matrix:
 Charge =  0 Multiplicity = 1
 N                    -1.29656  -1.14605  -0.52857 
 H                    -1.92903  -1.74646  -0.02191 
 C                    -0.65551  -0.07804   0.21816 
 H                    -0.26543  -0.85918   0.88561 
 C                    -1.42651   1.21746   0.37061 
 C                     0.76579  -0.01845  -0.003 
 H                    -2.34367   1.03933   0.94505 
 H                    -0.8472    1.98427   0.89748 
 H                    -1.72921   1.63805  -0.60364 
 O                     1.39348  -1.06323   0.50107 
 H                    -1.62035  -0.91883  -1.46435 
 O                     1.45782   1.00876  -0.52314 
 H                     2.42514   0.91577  -0.3823 
 
 NAtoms=     13 NQM=       13 NQMF=       0 NMMI=      0 NMMIF=      0
                NMic=       0 NMicF=      0.
                    Isotopes and Nuclear Properties:
 (Nuclear quadrupole moments (NQMom) in fm**2, nuclear magnetic moments (NMagM)
  in nuclear magnetons)

  Atom         1           2           3           4           5           6           7           8           9          10
 IAtWgt=          14           1          12           1          12          12           1           1           1          16
 AtmWgt=  14.0030740   1.0078250  12.0000000   1.0078250  12.0000000  12.0000000   1.0078250   1.0078250   1.0078250  15.9949146
 NucSpn=           2           1           0           1           0           0           1           1           1           0
 AtZEff=   0.0000000   0.0000000   0.0000000   0.0000000   0.0000000   0.0000000   0.0000000   0.0000000   0.0000000   0.0000000
 NQMom=    2.0440000   0.0000000   0.0000000   0.0000000   0.0000000   0.0000000   0.0000000   0.0000000   0.0000000   0.0000000
 NMagM=    0.4037610   2.7928460   0.0000000   2.7928460   0.0000000   0.0000000   2.7928460   2.7928460   2.7928460   0.0000000
 AtZNuc=   7.0000000   1.0000000   6.0000000   1.0000000   6.0000000   6.0000000   1.0000000   1.0000000   1.0000000   8.0000000

  Atom        11          12          13
 IAtWgt=           1          16           1
 AtmWgt=   1.0078250  15.9949146   1.0078250
 NucSpn=           1           0           1
 AtZEff=   0.0000000   0.0000000   0.0000000
 NQMom=    0.0000000   0.0000000   0.0000000
 NMagM=    2.7928460   0.0000000   2.7928460
 AtZNuc=   1.0000000   8.0000000   1.0000000
 Leave Link  101 at Tue Apr 12 22:23:31 2016, MaxMem=    33554432 cpu:         0.1
 (Enter /usr/local/gau/g09/l103.exe)

 GradGradGradGradGradGradGradGradGradGradGradGradGradGradGradGradGradGrad
 Berny optimization.
 Initialization pass.
                           ----------------------------
                           !    Initial Parameters    !
                           ! (Angstroms and Degrees)  !
 --------------------------                            --------------------------
 ! Name  Definition              Value          Derivative Info.                !
 --------------------------------------------------------------------------------
 ! R1    R(1,2)                  1.0086         calculate D2E/DX2 analytically  !
 ! R2    R(1,3)                  1.4523         calculate D2E/DX2 analytically  !
 ! R3    R(1,11)                 1.0159         calculate D2E/DX2 analytically  !
 ! R4    R(3,4)                  1.099          calculate D2E/DX2 analytically  !
 ! R5    R(3,5)                  1.5153         calculate D2E/DX2 analytically  !
 ! R6    R(3,6)                  1.4396         calculate D2E/DX2 analytically  !
 ! R7    R(5,7)                  1.0968         calculate D2E/DX2 analytically  !
 ! R8    R(5,8)                  1.096          calculate D2E/DX2 analytically  !
 ! R9    R(5,9)                  1.1035         calculate D2E/DX2 analytically  !
 ! R10   R(6,10)                 1.319          calculate D2E/DX2 analytically  !
 ! R11   R(6,12)                 1.3434         calculate D2E/DX2 analytically  !
 ! R12   R(12,13)                0.9819         calculate D2E/DX2 analytically  !
 ! A1    A(2,1,3)              117.148          calculate D2E/DX2 analytically  !
 ! A2    A(2,1,11)             113.3282         calculate D2E/DX2 analytically  !
 ! A3    A(3,1,11)             116.7307         calculate D2E/DX2 analytically  !
 ! A4    A(1,3,4)               86.9184         calculate D2E/DX2 analytically  !
 ! A5    A(1,3,5)              117.1208         calculate D2E/DX2 analytically  !
 ! A6    A(1,3,6)              112.7823         calculate D2E/DX2 analytically  !
 ! A7    A(4,3,5)              136.6504         calculate D2E/DX2 analytically  !
 ! A8    A(4,3,6)               76.8383         calculate D2E/DX2 analytically  !
 ! A9    A(5,3,6)              118.8434         calculate D2E/DX2 analytically  !
 ! A10   A(3,5,7)              109.8367         calculate D2E/DX2 analytically  !
 ! A11   A(3,5,8)              112.1851         calculate D2E/DX2 analytically  !
 ! A12   A(3,5,9)              112.1248         calculate D2E/DX2 analytically  !
 ! A13   A(7,5,8)              107.6895         calculate D2E/DX2 analytically  !
 ! A14   A(7,5,9)              107.1531         calculate D2E/DX2 analytically  !
 ! A15   A(8,5,9)              107.6223         calculate D2E/DX2 analytically  !
 ! A16   A(3,6,10)             112.2311         calculate D2E/DX2 analytically  !
 ! A17   A(3,6,12)             126.8493         calculate D2E/DX2 analytically  !
 ! A18   A(10,6,12)            120.5658         calculate D2E/DX2 analytically  !
 ! A19   A(6,12,13)            112.3042         calculate D2E/DX2 analytically  !
 ! D1    D(2,1,3,4)             57.2172         calculate D2E/DX2 analytically  !
 ! D2    D(2,1,3,5)            -85.0264         calculate D2E/DX2 analytically  !
 ! D3    D(2,1,3,6)            131.5568         calculate D2E/DX2 analytically  !
 ! D4    D(11,1,3,4)          -163.6243         calculate D2E/DX2 analytically  !
 ! D5    D(11,1,3,5)            54.1322         calculate D2E/DX2 analytically  !
 ! D6    D(11,1,3,6)           -89.2847         calculate D2E/DX2 analytically  !
 ! D7    D(1,3,5,7)             63.4711         calculate D2E/DX2 analytically  !
 ! D8    D(1,3,5,8)           -176.7958         calculate D2E/DX2 analytically  !
 ! D9    D(1,3,5,9)            -55.5491         calculate D2E/DX2 analytically  !
 ! D10   D(4,3,5,7)            -53.5673         calculate D2E/DX2 analytically  !
 ! D11   D(4,3,5,8)             66.1659         calculate D2E/DX2 analytically  !
 ! D12   D(4,3,5,9)           -172.5874         calculate D2E/DX2 analytically  !
 ! D13   D(6,3,5,7)           -155.3812         calculate D2E/DX2 analytically  !
 ! D14   D(6,3,5,8)            -35.6481         calculate D2E/DX2 analytically  !
 ! D15   D(6,3,5,9)             85.5986         calculate D2E/DX2 analytically  !
 ! D16   D(1,3,6,10)           -67.8            calculate D2E/DX2 analytically  !
 ! D17   D(1,3,6,12)           119.0632         calculate D2E/DX2 analytically  !
 ! D18   D(4,3,6,10)            13.1038         calculate D2E/DX2 analytically  !
 ! D19   D(4,3,6,12)          -160.033          calculate D2E/DX2 analytically  !
 ! D20   D(5,3,6,10)           149.471          calculate D2E/DX2 analytically  !
 ! D21   D(5,3,6,12)           -23.6657         calculate D2E/DX2 analytically  !
 ! D22   D(3,6,12,13)          166.2118         calculate D2E/DX2 analytically  !
 ! D23   D(10,6,12,13)          -6.4072         calculate D2E/DX2 analytically  !
 --------------------------------------------------------------------------------
 Trust Radius=3.00D-01 FncErr=1.00D-07 GrdErr=1.00D-06
 Number of steps in this run=     64 maximum allowed number of steps=    100.
 Search for a saddle point of order  1.
 GradGradGradGradGradGradGradGradGradGradGradGradGradGradGradGradGradGrad

 Leave Link  103 at Tue Apr 12 22:23:31 2016, MaxMem=    33554432 cpu:         0.0
 (Enter /usr/local/gau/g09/l202.exe)
                          Input orientation:                          
 ---------------------------------------------------------------------
 Center     Atomic      Atomic             Coordinates (Angstroms)
 Number     Number       Type             X           Y           Z
 ---------------------------------------------------------------------
      1          7           0       -1.296560   -1.146049   -0.528572
      2          1           0       -1.929033   -1.746463   -0.021911
      3          6           0       -0.655507   -0.078037    0.218159
      4          1           0       -0.265431   -0.859178    0.885610
      5          6           0       -1.426509    1.217456    0.370611
      6          6           0        0.765791   -0.018454   -0.002996
      7          1           0       -2.343672    1.039326    0.945052
      8          1           0       -0.847203    1.984273    0.897484
      9          1           0       -1.729211    1.638054   -0.603635
     10          8           0        1.393477   -1.063234    0.501066
     11          1           0       -1.620350   -0.918825   -1.464350
     12          8           0        1.457819    1.008762   -0.523142
     13          1           0        2.425138    0.915769   -0.382296
 ---------------------------------------------------------------------
                    Distance matrix (angstroms):
                    1          2          3          4          5
     1  N    0.000000
     2  H    1.008575   0.000000
     3  C    1.452310   2.112616   0.000000
     4  H    1.773537   2.092472   1.099014   0.000000
     5  C    2.532108   3.031735   1.515252   2.434283   0.000000
     6  C    2.408525   3.201320   1.439635   1.599955   2.544255
     7  H    2.836173   2.977845   2.150994   2.815482   1.096768
     8  H    3.469074   3.991746   2.179760   2.902381   1.095992
     9  H    2.818519   3.439955   2.184755   3.255253   1.103488
    10  O    2.881547   3.432110   2.291066   1.715077   3.629172
    11  H    1.015948   1.691420   2.113926   2.713241   2.822827
    12  O    3.497119   4.394686   2.489338   2.905749   3.026829
    13  H    4.257173   5.116264   3.292198   3.463696   3.936124
                    6          7          8          9         10
     6  C    0.000000
     7  H    3.418546   0.000000
     8  H    2.724615   1.770482   0.000000
     9  H    3.054476   1.770443   1.775152   0.000000
    10  O    1.318952   4.310935   3.803300   4.274167   0.000000
    11  H    2.939369   3.187910   3.821517   2.700058   3.600954
    12  O    1.343364   4.075274   2.878007   3.249561   2.312209
    13  H    1.941668   4.951633   3.672568   4.222476   2.400230
                   11         12         13
    11  H    0.000000
    12  O    3.751878   0.000000
    13  H    4.571931   0.981932   0.000000
 Stoichiometry    C3H7NO2
 Framework group  C1[X(C3H7NO2)]
 Deg. of freedom    33
 Full point group                 C1      NOp   1
 Largest Abelian subgroup         C1      NOp   1
 Largest concise Abelian subgroup C1      NOp   1
                         Standard orientation:                         
 ---------------------------------------------------------------------
 Center     Atomic      Atomic             Coordinates (Angstroms)
 Number     Number       Type             X           Y           Z
 ---------------------------------------------------------------------
      1          7           0        1.298682   -1.141618    0.521158
      2          1           0        1.942142   -1.727751    0.011616
      3          6           0        0.648056   -0.073637   -0.217293
      4          1           0        0.272454   -0.852124   -0.896051
      5          6           0        1.402700    1.233596   -0.350111
      6          6           0       -0.775226   -0.035384   -0.004335
      7          1           0        2.325624    1.074224   -0.920823
      8          1           0        0.816477    1.998712   -0.871782
      9          1           0        1.693859    1.646908    0.630748
     10          8           0       -1.385906   -1.082489   -0.524215
     11          1           0        1.613729   -0.920929    1.461473
     12          8           0       -1.483985    0.976543    0.523199
     13          1           0       -2.449109    0.872409    0.375272
 ---------------------------------------------------------------------
 Rotational constants (GHZ):      4.8800532      3.0400174      2.1930418
 Leave Link  202 at Tue Apr 12 22:23:31 2016, MaxMem=    33554432 cpu:         0.0
 (Enter /usr/local/gau/g09/l301.exe)
 Standard basis: 6-31G (6D, 7F)
 Ernie: Thresh=  0.10000D-02 Tol=  0.10000D-05 Strict=F.
 There are    68 symmetry adapted cartesian basis functions of A   symmetry.
 There are    68 symmetry adapted basis functions of A   symmetry.
    68 basis functions,   160 primitive gaussians,    68 cartesian basis functions
    24 alpha electrons       24 beta electrons
       nuclear repulsion energy       247.1430517139 Hartrees.
 IExCor=  402 DFT=T Ex+Corr=B3LYP ExCW=0 ScaHFX=  0.200000
 ScaDFX=  0.800000  0.720000  1.000000  0.810000 ScalE2=  1.000000  1.000000
 IRadAn=      0 IRanWt=     -1 IRanGd=            0 ICorTp=0 IEmpDi=  4
 NAtoms=   13 NActive=   13 NUniq=   13 SFac= 1.00D+00 NAtFMM=   60 NAOKFM=F Big=F
 Integral buffers will be    131072 words long.
 Raffenetti 2 integral format.
 Two-electron integral symmetry is turned on.
 Leave Link  301 at Tue Apr 12 22:23:31 2016, MaxMem=    33554432 cpu:         0.1
 (Enter /usr/local/gau/g09/l302.exe)
 NPDir=0 NMtPBC=     1 NCelOv=     1 NCel=       1 NClECP=     1 NCelD=      1
         NCelK=      1 NCelE2=     1 NClLst=     1 CellRange=     0.0.
 One-electron integrals computed using PRISM.
 NBasis=    68 RedAO= T EigKep=  3.87D-03  NBF=    68
 NBsUse=    68 1.00D-06 EigRej= -1.00D+00 NBFU=    68
 Precomputing XC quadrature grid using
 IXCGrd= 4 IRadAn=           0 IRanWt=          -1 IRanGd=           0 AccXCQ= 0.00D+00.
 Generated NRdTot=       0 NPtTot=           0 NUsed=           0 NTot=          32
 NSgBfM=    68    68    68    68    68 MxSgAt=    13 MxSgA2=    13.
 Leave Link  302 at Tue Apr 12 22:23:31 2016, MaxMem=    33554432 cpu:         0.2
 (Enter /usr/local/gau/g09/l303.exe)
 DipDrv:  MaxL=1.
 Leave Link  303 at Tue Apr 12 22:23:31 2016, MaxMem=    33554432 cpu:         0.0
 (Enter /usr/local/gau/g09/l401.exe)
 ExpMin= 1.61D-01 ExpMax= 5.48D+03 ExpMxC= 8.25D+02 IAcc=1 IRadAn=         1 AccDes= 0.00D+00
 Harris functional with IExCor=  402 and IRadAn=       1 diagonalized for initial guess.
 HarFok:  IExCor=  402 AccDes= 0.00D+00 IRadAn=         1 IDoV= 1 UseB2=F ITyADJ=14
 ICtDFT=  3500011 ScaDFX=  1.000000  1.000000  1.000000  1.000000
 FoFCou: FMM=F IPFlag=           0 FMFlag=      100000 FMFlg1=           0
         NFxFlg=           0 DoJE=T BraDBF=F KetDBF=T FulRan=T
         wScrn=  0.000000 ICntrl=     500 IOpCl=  0 I1Cent=   200000004 NGrid=           0
         NMat0=    1 NMatS0=      1 NMatT0=    0 NMatD0=    1 NMtDS0=    0 NMtDT0=    0
 Petite list used in FoFCou.
 Harris En= -323.605077904755    
 JPrj=0 DoOrth=F DoCkMO=F.
 Leave Link  401 at Tue Apr 12 22:23:33 2016, MaxMem=    33554432 cpu:         0.6
 (Enter /usr/local/gau/g09/l502.exe)
 Closed shell SCF:
 Using DIIS extrapolation, IDIIS=  1040.
 Integral symmetry usage will be decided dynamically.
 Keep R1 ints in memory in canonical form, NReq=3676491.
 IVT=       33364 IEndB=       33364 NGot=    33554432 MDV=    30768038
 LenX=    30768038 LenY=    30762973
 Requested convergence on RMS density matrix=1.00D-08 within 128 cycles.
 Requested convergence on MAX density matrix=1.00D-06.
 Requested convergence on             energy=1.00D-06.
 No special actions if energy rises.
 FoFCou: FMM=F IPFlag=           0 FMFlag=           0 FMFlg1=           0
         NFxFlg=           0 DoJE=F BraDBF=F KetDBF=F FulRan=T
         wScrn=  0.000000 ICntrl=     600 IOpCl=  0 I1Cent=           0 NGrid=           0
         NMat0=    1 NMatS0=   2346 NMatT0=    0 NMatD0=    1 NMtDS0=    0 NMtDT0=    0
 Symmetry not used in FoFCou.
 Integral accuracy reduced to 1.0D-05 until final iterations.

 Cycle   1  Pass 0  IDiag  1:
 E= -323.321505324953    
 DIIS: error= 3.98D-02 at cycle   1 NSaved=   1.
 NSaved= 1 IEnMin= 1 EnMin= -323.321505324953     IErMin= 1 ErrMin= 3.98D-02
 ErrMax= 3.98D-02  0.00D+00 EMaxC= 1.00D-01 BMatC= 2.47D-01 BMatP= 2.47D-01
 IDIUse=3 WtCom= 6.02D-01 WtEn= 3.98D-01
 Coeff-Com:  0.100D+01
 Coeff-En:   0.100D+01
 Coeff:      0.100D+01
 Gap=     0.092 Goal=   None    Shift=    0.000
 GapD=    0.092 DampG=0.500 DampE=0.500 DampFc=0.2500 IDamp=-1.
 Damping current iteration by 2.50D-01
 RMSDP=2.19D-02 MaxDP=3.35D-01              OVMax= 3.86D-01

 Cycle   2  Pass 0  IDiag  1:
 E= -323.397979696168     Delta-E=       -0.076474371215 Rises=F Damp=T
 DIIS: error= 1.70D-02 at cycle   2 NSaved=   2.
 NSaved= 2 IEnMin= 2 EnMin= -323.397979696168     IErMin= 2 ErrMin= 1.70D-02
 ErrMax= 1.70D-02  0.00D+00 EMaxC= 1.00D-01 BMatC= 3.90D-02 BMatP= 2.47D-01
 IDIUse=3 WtCom= 8.30D-01 WtEn= 1.70D-01
 Coeff-Com: -0.396D+00 0.140D+01
 Coeff-En:   0.000D+00 0.100D+01
 Coeff:     -0.329D+00 0.133D+01
 Gap=     0.215 Goal=   None    Shift=    0.000
 RMSDP=5.71D-03 MaxDP=5.85D-02 DE=-7.65D-02 OVMax= 2.78D-01

 Cycle   3  Pass 0  IDiag  1:
 E= -323.485609484882     Delta-E=       -0.087629788715 Rises=F Damp=F
 DIIS: error= 3.16D-02 at cycle   3 NSaved=   3.
 NSaved= 3 IEnMin= 3 EnMin= -323.485609484882     IErMin= 2 ErrMin= 1.70D-02
 ErrMax= 3.16D-02  0.00D+00 EMaxC= 1.00D-01 BMatC= 7.08D-02 BMatP= 3.90D-02
 IDIUse=2 WtCom= 0.00D+00 WtEn= 1.00D+00
 Coeff-En:   0.000D+00 0.273D-02 0.997D+00
 Coeff:      0.000D+00 0.273D-02 0.997D+00
 Gap=     0.230 Goal=   None    Shift=    0.000
 RMSDP=1.46D-02 MaxDP=2.15D-01 DE=-8.76D-02 OVMax= 3.71D-01

 Cycle   4  Pass 0  IDiag  1:
 E= -323.104159847516     Delta-E=        0.381449637366 Rises=F Damp=F
 DIIS: error= 9.21D-02 at cycle   4 NSaved=   4.
 NSaved= 4 IEnMin= 3 EnMin= -323.485609484882     IErMin= 2 ErrMin= 1.70D-02
 ErrMax= 9.21D-02  0.00D+00 EMaxC= 1.00D-01 BMatC= 5.31D-01 BMatP= 3.90D-02
 IDIUse=2 WtCom= 0.00D+00 WtEn= 1.00D+00
 Coeff-En:   0.000D+00 0.000D+00 0.821D+00 0.179D+00
 Coeff:      0.000D+00 0.000D+00 0.821D+00 0.179D+00
 Gap=     0.195 Goal=   None    Shift=    0.000
 RMSDP=8.57D-03 MaxDP=1.32D-01 DE= 3.81D-01 OVMax= 2.01D-01

 Cycle   5  Pass 0  IDiag  1:
 E= -323.512017801268     Delta-E=       -0.407857953752 Rises=F Damp=F
 DIIS: error= 2.55D-02 at cycle   5 NSaved=   5.
 NSaved= 5 IEnMin= 5 EnMin= -323.512017801268     IErMin= 2 ErrMin= 1.70D-02
 ErrMax= 2.55D-02  0.00D+00 EMaxC= 1.00D-01 BMatC= 4.25D-02 BMatP= 3.90D-02
 IDIUse=3 WtCom= 7.45D-01 WtEn= 2.55D-01
 Coeff-Com: -0.107D+00 0.222D+00 0.352D+00-0.728D-01 0.606D+00
 Coeff-En:   0.000D+00 0.000D+00 0.398D+00 0.000D+00 0.602D+00
 Coeff:     -0.798D-01 0.166D+00 0.364D+00-0.542D-01 0.605D+00
 Gap=     0.226 Goal=   None    Shift=    0.000
 RMSDP=2.91D-03 MaxDP=3.60D-02 DE=-4.08D-01 OVMax= 7.22D-02

 Cycle   6  Pass 0  IDiag  1:
 E= -323.547071770165     Delta-E=       -0.035053968897 Rises=F Damp=F
 DIIS: error= 1.88D-03 at cycle   6 NSaved=   6.
 NSaved= 6 IEnMin= 6 EnMin= -323.547071770165     IErMin= 6 ErrMin= 1.88D-03
 ErrMax= 1.88D-03  0.00D+00 EMaxC= 1.00D-01 BMatC= 2.16D-04 BMatP= 3.90D-02
 IDIUse=3 WtCom= 9.81D-01 WtEn= 1.88D-02
 Coeff-Com: -0.379D-01 0.571D-01 0.154D+00-0.404D-01 0.338D+00 0.529D+00
 Coeff-En:   0.000D+00 0.000D+00 0.000D+00 0.000D+00 0.000D+00 0.100D+01
 Coeff:     -0.372D-01 0.561D-01 0.151D+00-0.396D-01 0.331D+00 0.538D+00
 Gap=     0.204 Goal=   None    Shift=    0.000
 RMSDP=2.23D-04 MaxDP=3.77D-03 DE=-3.51D-02 OVMax= 5.10D-03

 Cycle   7  Pass 0  IDiag  1:
 E= -323.547235043284     Delta-E=       -0.000163273119 Rises=F Damp=F
 DIIS: error= 4.56D-04 at cycle   7 NSaved=   7.
 NSaved= 7 IEnMin= 7 EnMin= -323.547235043284     IErMin= 7 ErrMin= 4.56D-04
 ErrMax= 4.56D-04  0.00D+00 EMaxC= 1.00D-01 BMatC= 1.47D-05 BMatP= 2.16D-04
 IDIUse=3 WtCom= 9.95D-01 WtEn= 4.56D-03
 Coeff-Com: -0.552D-02 0.588D-02 0.274D-01-0.975D-02 0.714D-01 0.262D+00
 Coeff-Com:  0.649D+00
 Coeff-En:   0.000D+00 0.000D+00 0.000D+00 0.000D+00 0.000D+00 0.373D-01
 Coeff-En:   0.963D+00
 Coeff:     -0.549D-02 0.585D-02 0.272D-01-0.970D-02 0.711D-01 0.261D+00
 Coeff:      0.650D+00
 Gap=     0.205 Goal=   None    Shift=    0.000
 RMSDP=4.92D-05 MaxDP=7.45D-04 DE=-1.63D-04 OVMax= 8.76D-04

 Cycle   8  Pass 0  IDiag  1:
 E= -323.547246192216     Delta-E=       -0.000011148932 Rises=F Damp=F
 DIIS: error= 1.11D-04 at cycle   8 NSaved=   8.
 NSaved= 8 IEnMin= 8 EnMin= -323.547246192216     IErMin= 8 ErrMin= 1.11D-04
 ErrMax= 1.11D-04  0.00D+00 EMaxC= 1.00D-01 BMatC= 7.93D-07 BMatP= 1.47D-05
 IDIUse=3 WtCom= 9.99D-01 WtEn= 1.11D-03
 Coeff-Com:  0.127D-02-0.245D-02-0.999D-03-0.463D-03 0.458D-03 0.820D-01
 Coeff-Com:  0.305D+00 0.616D+00
 Coeff-En:   0.000D+00 0.000D+00 0.000D+00 0.000D+00 0.000D+00 0.000D+00
 Coeff-En:   0.000D+00 0.100D+01
 Coeff:      0.127D-02-0.245D-02-0.998D-03-0.462D-03 0.457D-03 0.819D-01
 Coeff:      0.304D+00 0.616D+00
 Gap=     0.205 Goal=   None    Shift=    0.000
 RMSDP=1.82D-05 MaxDP=2.37D-04 DE=-1.11D-05 OVMax= 2.62D-04

 Cycle   9  Pass 0  IDiag  1:
 E= -323.547246948158     Delta-E=       -0.000000755942 Rises=F Damp=F
 DIIS: error= 4.81D-06 at cycle   9 NSaved=   9.
 NSaved= 9 IEnMin= 9 EnMin= -323.547246948158     IErMin= 9 ErrMin= 4.81D-06
 ErrMax= 4.81D-06  0.00D+00 EMaxC= 1.00D-01 BMatC= 3.97D-09 BMatP= 7.93D-07
 IDIUse=1 WtCom= 1.00D+00 WtEn= 0.00D+00
 Coeff-Com:  0.344D-03-0.637D-03-0.370D-03-0.460D-04-0.310D-03 0.174D-01
 Coeff-Com:  0.606D-01 0.134D+00 0.789D+00
 Coeff:      0.344D-03-0.637D-03-0.370D-03-0.460D-04-0.310D-03 0.174D-01
 Coeff:      0.606D-01 0.134D+00 0.789D+00
 Gap=     0.205 Goal=   None    Shift=    0.000
 RMSDP=1.55D-06 MaxDP=1.57D-05 DE=-7.56D-07 OVMax= 1.96D-05

 Initial convergence to 1.0D-05 achieved.  Increase integral accuracy.
 Cycle  10  Pass 1  IDiag  1:
 E= -323.547255232860     Delta-E=       -0.000008284702 Rises=F Damp=F
 DIIS: error= 5.84D-06 at cycle   1 NSaved=   1.
 NSaved= 1 IEnMin= 1 EnMin= -323.547255232860     IErMin= 1 ErrMin= 5.84D-06
 ErrMax= 5.84D-06  0.00D+00 EMaxC= 1.00D-01 BMatC= 8.58D-09 BMatP= 8.58D-09
 IDIUse=1 WtCom= 1.00D+00 WtEn= 0.00D+00
 Coeff-Com:  0.100D+01
 Coeff:      0.100D+01
 Gap=     0.205 Goal=   None    Shift=    0.000
 RMSDP=1.55D-06 MaxDP=1.57D-05 DE=-8.28D-06 OVMax= 3.83D-05

 Cycle  11  Pass 1  IDiag  1:
 E= -323.547255244675     Delta-E=       -0.000000011815 Rises=F Damp=F
 DIIS: error= 6.55D-06 at cycle   2 NSaved=   2.
 NSaved= 2 IEnMin= 2 EnMin= -323.547255244675     IErMin= 1 ErrMin= 5.84D-06
 ErrMax= 6.55D-06  0.00D+00 EMaxC= 1.00D-01 BMatC= 3.21D-09 BMatP= 8.58D-09
 IDIUse=1 WtCom= 1.00D+00 WtEn= 0.00D+00
 Coeff-Com:  0.322D+00 0.678D+00
 Coeff:      0.322D+00 0.678D+00
 Gap=     0.205 Goal=   None    Shift=    0.000
 RMSDP=1.37D-06 MaxDP=1.86D-05 DE=-1.18D-08 OVMax= 2.22D-05

 Cycle  12  Pass 1  IDiag  1:
 E= -323.547255246282     Delta-E=       -0.000000001607 Rises=F Damp=F
 DIIS: error= 4.57D-06 at cycle   3 NSaved=   3.
 NSaved= 3 IEnMin= 3 EnMin= -323.547255246282     IErMin= 3 ErrMin= 4.57D-06
 ErrMax= 4.57D-06  0.00D+00 EMaxC= 1.00D-01 BMatC= 1.53D-09 BMatP= 3.21D-09
 IDIUse=1 WtCom= 1.00D+00 WtEn= 0.00D+00
 Coeff-Com: -0.134D-01 0.408D+00 0.606D+00
 Coeff:     -0.134D-01 0.408D+00 0.606D+00
 Gap=     0.205 Goal=   None    Shift=    0.000
 RMSDP=6.27D-07 MaxDP=7.55D-06 DE=-1.61D-09 OVMax= 1.12D-05

 Cycle  13  Pass 1  IDiag  1:
 E= -323.547255247482     Delta-E=       -0.000000001200 Rises=F Damp=F
 DIIS: error= 1.74D-06 at cycle   4 NSaved=   4.
 NSaved= 4 IEnMin= 4 EnMin= -323.547255247482     IErMin= 4 ErrMin= 1.74D-06
 ErrMax= 1.74D-06  0.00D+00 EMaxC= 1.00D-01 BMatC= 1.86D-10 BMatP= 1.53D-09
 IDIUse=1 WtCom= 1.00D+00 WtEn= 0.00D+00
 Coeff-Com: -0.196D-01 0.265D+00 0.422D+00 0.333D+00
 Coeff:     -0.196D-01 0.265D+00 0.422D+00 0.333D+00
 Gap=     0.205 Goal=   None    Shift=    0.000
 RMSDP=2.29D-07 MaxDP=3.42D-06 DE=-1.20D-09 OVMax= 5.82D-06

 Cycle  14  Pass 1  IDiag  1:
 E= -323.547255247630     Delta-E=       -0.000000000148 Rises=F Damp=F
 DIIS: error= 2.79D-07 at cycle   5 NSaved=   5.
 NSaved= 5 IEnMin= 5 EnMin= -323.547255247630     IErMin= 5 ErrMin= 2.79D-07
 ErrMax= 2.79D-07  0.00D+00 EMaxC= 1.00D-01 BMatC= 6.80D-12 BMatP= 1.86D-10
 IDIUse=1 WtCom= 1.00D+00 WtEn= 0.00D+00
 Coeff-Com: -0.828D-02 0.932D-01 0.153D+00 0.194D+00 0.568D+00
 Coeff:     -0.828D-02 0.932D-01 0.153D+00 0.194D+00 0.568D+00
 Gap=     0.205 Goal=   None    Shift=    0.000
 RMSDP=5.27D-08 MaxDP=6.04D-07 DE=-1.48D-10 OVMax= 8.51D-07

 Cycle  15  Pass 1  IDiag  1:
 E= -323.547255247633     Delta-E=       -0.000000000003 Rises=F Damp=F
 DIIS: error= 7.55D-08 at cycle   6 NSaved=   6.
 NSaved= 6 IEnMin= 6 EnMin= -323.547255247633     IErMin= 6 ErrMin= 7.55D-08
 ErrMax= 7.55D-08  0.00D+00 EMaxC= 1.00D-01 BMatC= 4.47D-13 BMatP= 6.80D-12
 IDIUse=1 WtCom= 1.00D+00 WtEn= 0.00D+00
 Coeff-Com: -0.220D-02 0.184D-01 0.311D-01 0.632D-01 0.275D+00 0.615D+00
 Coeff:     -0.220D-02 0.184D-01 0.311D-01 0.632D-01 0.275D+00 0.615D+00
 Gap=     0.205 Goal=   None    Shift=    0.000
 RMSDP=1.03D-08 MaxDP=1.34D-07 DE=-2.96D-12 OVMax= 1.44D-07

 Cycle  16  Pass 1  IDiag  1:
 E= -323.547255247635     Delta-E=       -0.000000000002 Rises=F Damp=F
 DIIS: error= 1.38D-08 at cycle   7 NSaved=   7.
 NSaved= 7 IEnMin= 7 EnMin= -323.547255247635     IErMin= 7 ErrMin= 1.38D-08
 ErrMax= 1.38D-08  0.00D+00 EMaxC= 1.00D-01 BMatC= 1.95D-14 BMatP= 4.47D-13
 IDIUse=1 WtCom= 1.00D+00 WtEn= 0.00D+00
 Coeff-Com: -0.276D-03 0.745D-03 0.145D-02 0.106D-01 0.644D-01 0.231D+00
 Coeff-Com:  0.692D+00
 Coeff:     -0.276D-03 0.745D-03 0.145D-02 0.106D-01 0.644D-01 0.231D+00
 Coeff:      0.692D+00
 Gap=     0.205 Goal=   None    Shift=    0.000
 RMSDP=3.03D-09 MaxDP=3.75D-08 DE=-1.59D-12 OVMax= 3.69D-08

 SCF Done:  E(RB3LYP) =  -323.547255248     A.U. after   16 cycles
            NFock= 16  Conv=0.30D-08     -V/T= 2.0050
 KE= 3.219444576753D+02 PE=-1.252002984037D+03 EE= 3.593682193997D+02
 Leave Link  502 at Tue Apr 12 22:24:13 2016, MaxMem=    33554432 cpu:        16.4
 (Enter /usr/local/gau/g09/l801.exe)
 DoSCS=F DFT=T ScalE2(SS,OS)=  1.000000  1.000000
 Range of M.O.s used for correlation:     1    68
 NBasis=    68 NAE=    24 NBE=    24 NFC=     0 NFV=     0
 NROrb=     68 NOA=    24 NOB=    24 NVA=    44 NVB=    44
 Leave Link  801 at Tue Apr 12 22:24:13 2016, MaxMem=    33554432 cpu:         0.0
 (Enter /usr/local/gau/g09/l1101.exe)
 Using compressed storage, NAtomX=    13.
 Will process     14 centers per pass.
 Leave Link 1101 at Tue Apr 12 22:24:14 2016, MaxMem=    33554432 cpu:         0.1
 (Enter /usr/local/gau/g09/l1102.exe)
 Symmetrizing basis deriv contribution to polar:
 IMax=3 JMax=2 DiffMx= 0.00D+00
 Leave Link 1102 at Tue Apr 12 22:24:14 2016, MaxMem=    33554432 cpu:         0.0
 (Enter /usr/local/gau/g09/l1110.exe)
 Forming Gx(P) for the SCF density, NAtomX=    13.
 Integral derivatives from FoFJK, PRISM(SPDF).
 Do as many integral derivatives as possible in FoFJK.
 G2DrvN: MDV=      33554224.
 G2DrvN: will do    14 centers at a time, making    1 passes.
 Calling FoFCou, ICntrl=  3107 FMM=F I1Cent=   0 AccDes= 0.00D+00.
 FoFJK:  IHMeth= 1 ICntrl=    3107 DoSepK=F KAlg= 0 I1Cent=   0 FoldK=F
 IRaf=         0 NMat=   1 IRICut=       1 DoRegI=T DoRafI=F ISym2E= 0.
 FoFCou: FMM=F IPFlag=           0 FMFlag=      100000 FMFlg1=           0
         NFxFlg=           0 DoJE=F BraDBF=F KetDBF=F FulRan=T
         wScrn=  0.000000 ICntrl=    3107 IOpCl=  0 I1Cent=           0 NGrid=           0
         NMat0=    1 NMatS0=      1 NMatT0=    0 NMatD0=    1 NMtDS0=    0 NMtDT0=    0
 Symmetry not used in FoFCou.
 End of G2Drv F.D. properties file   721 does not exist.
 End of G2Drv F.D. properties file   722 does not exist.
 End of G2Drv F.D. properties file   788 does not exist.
 Leave Link 1110 at Tue Apr 12 22:25:15 2016, MaxMem=    33554432 cpu:        30.0
 (Enter /usr/local/gau/g09/l1002.exe)
 Minotr:  Closed shell wavefunction.
          IDoAtm=1111111111111
          Direct CPHF calculation.
          Differentiating once with respect to nuclear coordinates.
          Requested convergence is 1.0D-08 RMS, and 1.0D-07 maximum.
          Secondary convergence is 1.0D-12 RMS, and 1.0D-12 maximum.
          NewPWx=T KeepS1=F KeepF1=F KeepIn=T MapXYZ=F SortEE=F KeepMc=T.
          MDV=      33554230 using IRadAn=       2.
 Generate precomputed XC quadrature information.
 Keep R1 ints in memory in canonical form, NReq=3645290.
 FoFCou: FMM=F IPFlag=           0 FMFlag=           0 FMFlg1=           0
         NFxFlg=           0 DoJE=F BraDBF=F KetDBF=F FulRan=T
         wScrn=  0.000000 ICntrl=     600 IOpCl=  0 I1Cent=           0 NGrid=           0
         NMat0=    1 NMatS0=   2346 NMatT0=    0 NMatD0=    1 NMtDS0=    0 NMtDT0=    0
 Symmetry not used in FoFCou.
          Solving linear equations simultaneously, MaxMat=       0.
          There are    42 degrees of freedom in the 1st order CPHF.  IDoFFX=6 NUNeed=     0.
     36 vectors produced by pass  0 Test12= 2.51D-15 2.38D-09 XBig12= 1.85D-01 1.13D-01.
 AX will form    36 AO Fock derivatives at one time.
     36 vectors produced by pass  1 Test12= 2.51D-15 2.38D-09 XBig12= 4.55D-02 5.21D-02.
     36 vectors produced by pass  2 Test12= 2.51D-15 2.38D-09 XBig12= 2.02D-04 2.20D-03.
     36 vectors produced by pass  3 Test12= 2.51D-15 2.38D-09 XBig12= 3.77D-07 1.08D-04.
     36 vectors produced by pass  4 Test12= 2.51D-15 2.38D-09 XBig12= 2.89D-10 2.80D-06.
     18 vectors produced by pass  5 Test12= 2.51D-15 2.38D-09 XBig12= 1.23D-13 4.68D-08.
 InvSVY:  IOpt=1 It=  1 EMax= 1.89D-15
 Solved reduced A of dimension   198 with    36 vectors.
 End of Minotr F.D. properties file   721 does not exist.
 End of Minotr F.D. properties file   722 does not exist.
 End of Minotr F.D. properties file   788 does not exist.
 Leave Link 1002 at Tue Apr 12 22:25:52 2016, MaxMem=    33554432 cpu:        18.4
 (Enter /usr/local/gau/g09/l601.exe)
 Copying SCF densities to generalized density rwf, IOpCl= 0 IROHF=0.

 **********************************************************************

            Population analysis using the SCF density.

 **********************************************************************

 Orbital symmetries:
       Occupied  (A) (A) (A) (A) (A) (A) (A) (A) (A) (A) (A) (A)
                 (A) (A) (A) (A) (A) (A) (A) (A) (A) (A) (A) (A)
       Virtual   (A) (A) (A) (A) (A) (A) (A) (A) (A) (A) (A) (A)
                 (A) (A) (A) (A) (A) (A) (A) (A) (A) (A) (A) (A)
                 (A) (A) (A) (A) (A) (A) (A) (A) (A) (A) (A) (A)
                 (A) (A) (A) (A) (A) (A) (A) (A)
 The electronic state is 1-A.
 Alpha  occ. eigenvalues --  -19.21148 -19.12634 -14.31412 -10.32873 -10.22071
 Alpha  occ. eigenvalues --  -10.18421  -1.12010  -1.00255  -0.89963  -0.76370
 Alpha  occ. eigenvalues --   -0.69292  -0.63591  -0.51439  -0.50111  -0.47060
 Alpha  occ. eigenvalues --   -0.45998  -0.42226  -0.41361  -0.39992  -0.36726
 Alpha  occ. eigenvalues --   -0.33764  -0.28916  -0.25789  -0.23064
 Alpha virt. eigenvalues --   -0.02595   0.05380   0.08346   0.11901   0.14030
 Alpha virt. eigenvalues --    0.15533   0.16467   0.19723   0.20668   0.22668
 Alpha virt. eigenvalues --    0.29333   0.31643   0.37196   0.52805   0.53670
 Alpha virt. eigenvalues --    0.56522   0.58693   0.61000   0.64229   0.69103
 Alpha virt. eigenvalues --    0.72551   0.75287   0.77164   0.79927   0.81153
 Alpha virt. eigenvalues --    0.83404   0.90452   0.91203   0.93282   0.94197
 Alpha virt. eigenvalues --    0.94649   0.96293   0.98350   0.98683   1.04395
 Alpha virt. eigenvalues --    1.08658   1.13473   1.21106   1.27279   1.33221
 Alpha virt. eigenvalues --    1.49691   1.52754   1.79135   1.91738
          Condensed to atoms (all electrons):
               1          2          3          4          5          6
     1  N    6.905241   0.344231   0.327125  -0.059143  -0.083856  -0.073981
     2  H    0.344231   0.437233  -0.039175  -0.015201   0.001017   0.007181
     3  C    0.327125  -0.039175   5.656289   0.311573   0.262038   0.004784
     4  H   -0.059143  -0.015201   0.311573   0.543235  -0.001106  -0.090495
     5  C   -0.083856   0.001017   0.262038  -0.001106   5.191177  -0.062807
     6  C   -0.073981   0.007181   0.004784  -0.090495  -0.062807   5.092217
     7  H    0.001951   0.001283  -0.029740  -0.004281   0.362747   0.006207
     8  H    0.005381  -0.000112  -0.028074  -0.000787   0.346793   0.002480
     9  H   -0.004077  -0.000250  -0.027949   0.002386   0.373739  -0.008897
    10  O    0.003901   0.000198  -0.216686   0.035441   0.003925   0.496025
    11  H    0.319542  -0.038134  -0.043634   0.009143   0.000874  -0.008091
    12  O   -0.000614  -0.000072  -0.103199   0.012055   0.008426   0.147643
    13  H   -0.000167   0.000007   0.008453  -0.000988  -0.000896  -0.014442
               7          8          9         10         11         12
     1  N    0.001951   0.005381  -0.004077   0.003901   0.319542  -0.000614
     2  H    0.001283  -0.000112  -0.000250   0.000198  -0.038134  -0.000072
     3  C   -0.029740  -0.028074  -0.027949  -0.216686  -0.043634  -0.103199
     4  H   -0.004281  -0.000787   0.002386   0.035441   0.009143   0.012055
     5  C    0.362747   0.346793   0.373739   0.003925   0.000874   0.008426
     6  C    0.006207   0.002480  -0.008897   0.496025  -0.008091   0.147643
     7  H    0.580250  -0.028024  -0.032603  -0.000096  -0.000622   0.000029
     8  H   -0.028024   0.584022  -0.028693   0.000034   0.000004   0.001010
     9  H   -0.032603  -0.028693   0.574673  -0.000090   0.004727   0.000880
    10  O   -0.000096   0.000034  -0.000090   8.244331  -0.000104  -0.099885
    11  H   -0.000622   0.000004   0.004727  -0.000104   0.475777   0.000442
    12  O    0.000029   0.001010   0.000880  -0.099885   0.000442   8.337017
    13  H    0.000010   0.000020  -0.000011   0.003968  -0.000015   0.234149
              13
     1  N   -0.000167
     2  H    0.000007
     3  C    0.008453
     4  H   -0.000988
     5  C   -0.000896
     6  C   -0.014442
     7  H    0.000010
     8  H    0.000020
     9  H   -0.000011
    10  O    0.003968
    11  H   -0.000015
    12  O    0.234149
    13  H    0.368886
 Mulliken charges:
               1
     1  N   -0.685535
     2  H    0.301795
     3  C   -0.081804
     4  H    0.258168
     5  C   -0.402070
     6  C    0.502176
     7  H    0.142888
     8  H    0.145944
     9  H    0.146165
    10  O   -0.470961
    11  H    0.280091
    12  O   -0.537882
    13  H    0.401027
 Sum of Mulliken charges =   0.00000
 Mulliken charges with hydrogens summed into heavy atoms:
               1
     1  N   -0.103650
     3  C    0.176364
     5  C    0.032927
     6  C    0.502176
    10  O   -0.470961
    12  O   -0.136855
 APT charges:
               1
     1  N   -1.313026
     2  H    0.678133
     3  C   -0.182469
     4  H    0.318410
     5  C   -1.237787
     6  C    0.121494
     7  H    0.471270
     8  H    0.357493
     9  H    0.410855
    10  O   -0.236044
    11  H    0.518606
    12  O   -0.664282
    13  H    0.757348
 Sum of APT charges =   0.00000
 APT charges with hydrogens summed into heavy atoms:
               1
     1  N   -0.116288
     3  C    0.135940
     5  C    0.001830
     6  C    0.121494
    10  O   -0.236044
    12  O    0.093066
 Electronic spatial extent (au):  <R**2>=            595.7975
 Charge=              0.0000 electrons
 Dipole moment (field-independent basis, Debye):
    X=              1.5823    Y=              1.9978    Z=              0.4277  Tot=              2.5841
 Quadrupole moment (field-independent basis, Debye-Ang):
   XX=            -28.9036   YY=            -40.1531   ZZ=            -35.9141
   XY=             -6.2789   XZ=             -0.8155   YZ=             -1.2861
 Traceless Quadrupole moment (field-independent basis, Debye-Ang):
   XX=              6.0867   YY=             -5.1629   ZZ=             -0.9238
   XY=             -6.2789   XZ=             -0.8155   YZ=             -1.2861
 Octapole moment (field-independent basis, Debye-Ang**2):
  XXX=            -17.5569  YYY=              0.6130  ZZZ=              4.8748  XYY=              6.1679
  XXY=              5.3270  XXZ=              6.6018  XZZ=              1.5877  YZZ=             -1.0636
  YYZ=             -1.7321  XYZ=              2.9996
 Hexadecapole moment (field-independent basis, Debye-Ang**3):
 XXXX=           -324.4424 YYYY=           -254.7203 ZZZZ=            -81.4050 XXXY=            -49.9220
 XXXZ=             -9.8480 YYYX=            -18.1661 YYYZ=              3.8122 ZZZX=              6.8456
 ZZZY=              0.1401 XXYY=            -97.5027 XXZZ=            -75.2905 YYZZ=            -56.5224
 XXYZ=             -1.7668 YYXZ=             -1.5637 ZZXY=             -4.4681
 N-N= 2.471430517139D+02 E-N=-1.252002985357D+03  KE= 3.219444576753D+02
  Exact polarizability:   0.000   0.000   0.000   0.000   0.000   0.000
 Approx polarizability:  62.326   0.545  72.237   4.274  13.154  48.569
 No NMR shielding tensors so no spin-rotation constants.
 Leave Link  601 at Tue Apr 12 22:25:53 2016, MaxMem=    33554432 cpu:         0.1
 (Enter /usr/local/gau/g09/l701.exe)
 Compute integral second derivatives.
 ... and contract with generalized density number  0.
 Leave Link  701 at Tue Apr 12 22:25:53 2016, MaxMem=    33554432 cpu:         0.1
 (Enter /usr/local/gau/g09/l702.exe)
 L702 exits ... SP integral derivatives will be done elsewhere.
 Leave Link  702 at Tue Apr 12 22:25:53 2016, MaxMem=    33554432 cpu:         0.0
 (Enter /usr/local/gau/g09/l703.exe)
 Compute integral second derivatives, UseDBF=F ICtDFT=           0.
 Integral derivatives from FoFJK, PRISM(SPDF).
 Calling FoFJK, ICntrl=    100147 FMM=F ISym2X=0 I1Cent= 0 IOpClX= 0 NMat=1 NMatS=1 NMatT=0.
 FoFJK:  IHMeth= 1 ICntrl=  100147 DoSepK=F KAlg= 0 I1Cent=   0 FoldK=F
 IRaf=         0 NMat=   1 IRICut=       1 DoRegI=T DoRafI=F ISym2E= 0.
 FoFCou: FMM=F IPFlag=           0 FMFlag=      100000 FMFlg1=         800
         NFxFlg=           0 DoJE=F BraDBF=F KetDBF=F FulRan=T
         wScrn=  0.000000 ICntrl=  100147 IOpCl=  0 I1Cent=           0 NGrid=           0
         NMat0=    1 NMatS0=      1 NMatT0=    0 NMatD0=    1 NMtDS0=    0 NMtDT0=    0
 Symmetry not used in FoFCou.
 Leave Link  703 at Tue Apr 12 22:26:52 2016, MaxMem=    33554432 cpu:        28.8
 (Enter /usr/local/gau/g09/l716.exe)
 Dipole        = 6.22512893D-01 7.85990468D-01 1.68283166D-01
 Polarizability= 0.00000000D+00 0.00000000D+00 0.00000000D+00
                 0.00000000D+00 0.00000000D+00 0.00000000D+00
 ***** Axes restored to original set *****
 -------------------------------------------------------------------
 Center     Atomic                   Forces (Hartrees/Bohr)
 Number     Number              X              Y              Z
 -------------------------------------------------------------------
      1        7          -0.015597763    0.006573652   -0.041238261
      2        1           0.002305233    0.001310040    0.002672456
      3        6          -0.026448660   -0.018438607   -0.008805009
      4        1          -0.044800429    0.012881727    0.064438768
      5        6          -0.003772199    0.001556650    0.013189902
      6        6           0.089382970   -0.062170188    0.010025933
      7        1           0.000087748    0.000734378   -0.000474362
      8        1          -0.000132158    0.000213358   -0.000342214
      9        1           0.004304891   -0.004597274    0.001394456
     10        8           0.003757163    0.055525940   -0.034372366
     11        1          -0.001115335   -0.002633296    0.000167678
     12        8          -0.006148591    0.013550297   -0.005529507
     13        1          -0.001822869   -0.004506679   -0.001127474
 -------------------------------------------------------------------
 Cartesian Forces:  Max     0.089382970 RMS     0.025916853
 Force constants in Cartesian coordinates: 
                1             2             3             4             5 
      1  0.375946D+00
      2  0.276467D+00  0.421864D+00
      3  0.672505D-01 -0.139915D+00  0.690591D+00
      4 -0.182409D+00 -0.194461D+00  0.125985D+00  0.191050D+00
      5 -0.161427D+00 -0.165062D+00  0.120574D+00  0.181145D+00  0.186982D+00
      6  0.116252D+00  0.138012D+00 -0.172319D+00 -0.121331D+00 -0.131737D+00
      7 -0.940323D-01 -0.400227D-01 -0.222309D-01 -0.102538D-01 -0.182135D-01
      8 -0.899980D-01 -0.138385D+00 -0.751294D-01  0.417202D-02 -0.154509D-01
      9 -0.506744D-01 -0.491857D-01 -0.121379D+00  0.848918D-02  0.100953D-01
     10 -0.166566D-01 -0.154124D-02 -0.418142D-01 -0.125458D-02  0.102274D-02
     11 -0.767071D-02 -0.652752D-03 -0.138267D-01 -0.120457D-02  0.286107D-03
     12 -0.177087D-01  0.265777D-03 -0.371624D-01  0.524461D-05  0.826438D-03
     13  0.822798D-02 -0.189839D-01 -0.831695D-02  0.164396D-02 -0.109160D-02
     14  0.681147D-02 -0.329148D-01 -0.983121D-02  0.955009D-03 -0.837331D-03
     15  0.659289D-02 -0.239536D-01 -0.397871D-03  0.265805D-03  0.401690D-03
     16 -0.225302D-01 -0.234097D-01  0.911426D-02 -0.191306D-02  0.149808D-02
     17 -0.178186D-01 -0.188735D-01  0.991094D-02 -0.590152D-02  0.862526D-05
     18 -0.268981D-01 -0.874402D-02  0.240696D-02 -0.178893D-02 -0.222088D-02
     19  0.226897D-02 -0.509536D-03 -0.110541D-02  0.937661D-05  0.553405D-03
     20 -0.126292D-02  0.280230D-02  0.149868D-02 -0.481071D-04 -0.685201D-03
     21 -0.146325D-02  0.510112D-03 -0.130856D-03  0.426678D-03 -0.570872D-03
     22  0.183260D-03  0.366033D-02  0.648741D-03 -0.386200D-03  0.615500D-03
     23  0.345137D-02 -0.643709D-02 -0.161957D-02  0.351231D-03  0.105590D-03
     24  0.327015D-03 -0.173589D-02  0.969734D-03  0.282316D-03 -0.330825D-03
     25  0.488953D-03 -0.182634D-02  0.170831D-02  0.145200D-03 -0.845713D-04
     26 -0.127365D-02  0.386895D-02  0.404591D-03 -0.152910D-04 -0.634257D-04
     27  0.894235D-03  0.680760D-03  0.285757D-02 -0.110797D-03 -0.411325D-04
     28  0.311582D-03  0.265233D-02 -0.522478D-02 -0.216064D-03  0.659641D-03
     29 -0.495464D-02  0.257833D-02  0.545099D-02  0.976801D-03 -0.732081D-03
     30  0.481549D-03  0.220649D-02  0.829274D-03  0.216297D-03  0.298809D-03
     31 -0.711637D-01  0.806645D-03 -0.129262D+00  0.495151D-02 -0.492348D-02
     32 -0.262997D-02 -0.715037D-01  0.102843D+00  0.137270D-01 -0.441882D-02
     33 -0.964147D-01  0.815354D-01 -0.363671D+00 -0.126466D-01  0.273045D-02
     34 -0.671870D-03 -0.172952D-02  0.282896D-02 -0.119813D-02  0.615934D-04
     35 -0.469265D-03  0.290360D-02 -0.202981D-03  0.329164D-03 -0.198846D-03
     36  0.365967D-04 -0.808635D-03 -0.870019D-03 -0.245984D-03 -0.591343D-04
     37  0.363859D-04 -0.110200D-02  0.418609D-03 -0.169092D-03  0.184582D-03
     38  0.774811D-03 -0.187683D-03 -0.157296D-03 -0.249014D-04  0.661739D-04
     39  0.132385D-02  0.113187D-02 -0.172400D-02  0.452801D-03  0.332122D-04
                6             7             8             9            10 
      6  0.179889D+00
      7 -0.193850D-01  0.644379D+00
      8 -0.181303D-01 -0.815162D-01  0.531577D+00
      9  0.573988D-02  0.492744D-01 -0.401849D-01  0.401909D+00
     10 -0.958501D-03 -0.400352D-01  0.399711D-01 -0.373895D-01  0.934416D-01
     11 -0.349302D-02  0.544237D-01 -0.127356D+00  0.126167D+00 -0.107403D-01
     12  0.284576D-02 -0.407074D-01  0.118843D+00 -0.154717D+00  0.431581D-01
     13 -0.886422D-03 -0.119909D+00  0.572455D-01  0.136687D-01 -0.335408D-02
     14 -0.634186D-04  0.562657D-01 -0.161103D+00 -0.114329D-01  0.214255D-02
     15 -0.300615D-03  0.332972D-02  0.579128D-02 -0.907738D-01 -0.362660D-02
     16 -0.149792D-03 -0.300576D+00  0.326167D-01  0.172755D-01  0.425728D-02
     17 -0.414311D-02 -0.256205D-02 -0.639865D-01 -0.570778D-02 -0.538369D-01
     18 -0.202458D-02  0.285637D-01 -0.787027D-02 -0.577159D-01  0.497915D-01
     19  0.378602D-03 -0.180802D-01 -0.324470D-02  0.840183D-02 -0.381880D-05
     20 -0.182355D-04  0.299520D-01  0.218156D-02 -0.182059D-01 -0.149739D-03
     21 -0.294527D-04  0.201318D-02  0.114041D-02  0.140599D-03 -0.348818D-03
     22  0.185452D-03  0.104465D-01  0.125215D-01  0.102000D-01  0.361920D-03
     23 -0.187217D-03 -0.186842D-01 -0.159562D-01 -0.131927D-01 -0.480880D-03
     24 -0.161986D-03 -0.199773D-02 -0.170837D-03 -0.215653D-02 -0.129233D-03
     25  0.975494D-04 -0.700625D-02  0.103651D-01 -0.184139D-01  0.447542D-03
     26 -0.896257D-04  0.106872D-01 -0.173247D-01  0.286011D-01 -0.190713D-03
     27  0.247504D-04  0.992317D-03 -0.362486D-02  0.533837D-02  0.878114D-03
     28 -0.838622D-04 -0.582309D-01  0.453862D-01 -0.443634D-03 -0.304190D-01
     29  0.452687D-03  0.195726D-01  0.848736D-02 -0.161948D-02  0.226477D-01
     30  0.432941D-05  0.394592D-02  0.532840D-02  0.159560D-01 -0.420560D-02
     31  0.273601D-01 -0.916058D-02  0.264428D-02 -0.136464D-01 -0.766591D-03
     32  0.194406D-01 -0.117288D-01  0.336839D-02 -0.308082D-01 -0.358101D-02
     33 -0.144224D-01 -0.963996D-02  0.831046D-02 -0.125414D-01 -0.215770D-02
     34 -0.131698D-02 -0.395376D-02 -0.299171D-01  0.140513D-01 -0.464493D-02
     35  0.000000D+00 -0.375112D-03 -0.334907D-02  0.147182D-02  0.725632D-02
     36  0.465604D-03  0.526753D-02  0.172920D-02  0.457365D-02 -0.272535D-02
     37 -0.162259D-03  0.641299D-02 -0.246435D-03 -0.793151D-03 -0.137352D-02
     38 -0.443575D-04  0.220130D-02 -0.270382D-02  0.400268D-02 -0.251958D-02
     39  0.289010D-03  0.574249D-03  0.396796D-02  0.562666D-02 -0.472171D-03
               11            12            13            14            15 
     11  0.146534D+00
     12 -0.138795D+00  0.198570D+00
     13 -0.458025D-03  0.488973D-03  0.555366D+00
     14 -0.321200D-02 -0.466767D-02  0.426752D-01  0.506368D+00
     15  0.223356D-02  0.148479D-01  0.188288D-02  0.863416D-02  0.553088D+00
     16 -0.348240D-01  0.114779D-01 -0.178701D-01  0.621780D-02  0.870797D-02
     17 -0.323206D-02  0.281297D-01  0.316941D-01  0.303360D-02 -0.575831D-02
     18  0.331349D-01 -0.286363D-01  0.492817D-02  0.350652D-02 -0.554836D-02
     19  0.456098D-04 -0.685279D-03 -0.228165D+00 -0.380748D-01  0.113852D+00
     20  0.554140D-03  0.145099D-02 -0.396505D-01 -0.563481D-01  0.232269D-01
     21 -0.261116D-03  0.655675D-03  0.114080D+00  0.229167D-01 -0.121263D+00
     22  0.813089D-05 -0.593802D-03 -0.126392D+00 -0.967456D-01 -0.686501D-01
     23 -0.823522D-03  0.351279D-03 -0.940710D-01 -0.175268D+00 -0.867321D-01
     24 -0.491727D-04  0.417613D-04 -0.667831D-01 -0.869901D-01 -0.110023D+00
     25 -0.123555D-02  0.186434D-02 -0.657549D-01  0.242577D-01 -0.584754D-01
     26  0.421701D-03 -0.292871D-02  0.232869D-01 -0.823641D-01  0.808546D-01
     27 -0.238594D-02 -0.326192D-03 -0.576286D-01  0.797274D-01 -0.245679D+00
     28  0.702521D-02  0.111921D-03 -0.447832D-02 -0.293775D-02 -0.583706D-02
     29 -0.872016D-02 -0.255283D-02  0.311750D-03  0.843001D-03 -0.138067D-02
     30  0.125585D-02  0.284030D-02 -0.182979D-02 -0.241876D-02  0.478996D-02
     31 -0.333778D-02 -0.234622D-02  0.913011D-04 -0.673521D-04  0.249133D-02
     32 -0.936849D-03 -0.395324D-02 -0.833043D-03  0.316577D-02 -0.155471D-02
     33 -0.485744D-02 -0.248731D-02  0.121088D-02  0.106247D-02  0.100870D-02
     34 -0.118932D-02  0.445401D-02  0.379896D-03 -0.148890D-02 -0.511005D-03
     35 -0.326340D-02  0.171316D-02 -0.398012D-03 -0.130027D-02 -0.192920D-02
     36  0.951680D-03  0.277793D-02 -0.340197D-03 -0.406904D-03 -0.279361D-04
     37 -0.842408D-03  0.480833D-03  0.214282D-03 -0.109933D-04 -0.228539D-04
     38  0.400110D-03  0.131757D-02  0.272569D-03 -0.631117D-04  0.166372D-03
     39 -0.740676D-04  0.749953D-03 -0.474817D-03 -0.363060D-04  0.278245D-03
               16            17            18            19            20 
     16  0.747907D+00
     17  0.541018D-01  0.553987D+00
     18 -0.639210D-01 -0.172964D+00  0.306406D+00
     19  0.876242D-03  0.214166D-02  0.147489D-02  0.251548D+00
     20  0.470493D-03 -0.532407D-02 -0.190812D-02  0.391391D-01  0.624191D-01
     21 -0.443267D-03 -0.979952D-04  0.332546D-03 -0.126281D+00 -0.266703D-01
     22 -0.465862D-04  0.903127D-04  0.147278D-03 -0.146400D-01 -0.196162D-01
     23 -0.115880D-02 -0.100500D-02 -0.240609D-04 -0.240711D-02 -0.387831D-02
     24 -0.932556D-03 -0.203290D-02  0.104001D-02  0.103938D-01  0.137182D-01
     25  0.160920D-02  0.199250D-02 -0.218674D-02  0.711252D-02 -0.101973D-01
     26 -0.149439D-02 -0.154652D-02  0.110974D-02  0.145599D-02 -0.217916D-02
     27  0.400637D-03  0.119501D-02  0.550619D-04 -0.588604D-02  0.587458D-02
     28 -0.181410D+00  0.103372D+00 -0.404966D-01 -0.809202D-03  0.101464D-02
     29  0.896824D-01 -0.247849D+00  0.736360D-01  0.413979D-03 -0.857242D-04
     30 -0.424445D-01  0.654920D-01 -0.124093D+00 -0.596017D-03  0.111801D-02
     31  0.560861D-02  0.214030D-02 -0.496460D-02 -0.316950D-04  0.151258D-03
     32  0.300250D-02  0.267830D-03 -0.488860D-03  0.184664D-03 -0.323135D-03
     33  0.106724D-02  0.972239D-03  0.221520D-03  0.172314D-03 -0.259069D-03
     34 -0.198573D+00 -0.116793D+00  0.564621D-01 -0.166131D-03  0.165031D-03
     35 -0.765560D-01 -0.217022D+00  0.861976D-01  0.264346D-03  0.769751D-03
     36  0.337554D-01  0.825659D-01 -0.934722D-01 -0.664890D-05  0.124398D-03
     37 -0.373395D-01  0.137912D-02 -0.111165D-02  0.810892D-04  0.321322D-04
     38 -0.501468D-01  0.154215D-02 -0.336461D-02  0.373599D-04  0.968612D-04
     39  0.260922D-01  0.243828D-02  0.102854D-02 -0.113403D-03  0.498252D-04
               21            22            23            24            25 
     21  0.128789D+00
     22 -0.150097D-01  0.135549D+00
     23 -0.296761D-02  0.105375D+00  0.193082D+00
     24  0.892532D-02  0.754101D-01  0.972347D-01  0.115934D+00
     25  0.265877D-01 -0.463881D-02  0.673527D-02 -0.170873D-01  0.687939D-01
     26  0.587237D-02 -0.603820D-02  0.861298D-02 -0.220198D-01 -0.290544D-01
     27 -0.170263D-01 -0.285230D-02  0.673253D-02 -0.146400D-01  0.640080D-01
     28  0.827848D-04  0.471962D-03  0.238323D-03  0.408445D-03 -0.182476D-02
     29  0.717142D-04 -0.127097D-03  0.255117D-03  0.492674D-03 -0.532079D-03
     30 -0.165987D-03  0.200876D-03 -0.245810D-04 -0.445059D-03  0.936100D-03
     31  0.305509D-03 -0.238742D-03  0.103056D-03 -0.190088D-03  0.779868D-03
     32 -0.263984D-04  0.160845D-03  0.977697D-04  0.657235D-03  0.403102D-03
     33 -0.422151D-03  0.133364D-03  0.419298D-03  0.523447D-03  0.318936D-03
     34  0.000000D+00 -0.544291D-03  0.409837D-03  0.265333D-03 -0.219789D-03
     35  0.146184D-03  0.135600D-03  0.111881D-02  0.107943D-02 -0.704368D-03
     36  0.220454D-03  0.291080D-04  0.177436D-03  0.672719D-04  0.601427D-03
     37  0.503230D-04 -0.125870D-03  0.137948D-03  0.329790D-04  0.673343D-04
     38 -0.632430D-04 -0.401171D-04  0.962128D-04  0.147315D-03 -0.119104D-03
     39 -0.265132D-04  0.150971D-03 -0.167428D-03 -0.750996D-04  0.410167D-04
               26            27            28            29            30 
     26  0.900556D-01
     27 -0.891642D-01  0.269511D+00
     28  0.245971D-02 -0.441983D-03  0.250145D+00
     29  0.331725D-03  0.174234D-03 -0.142847D+00  0.302906D+00
     30 -0.103954D-02  0.142223D-04  0.495482D-01 -0.115325D+00  0.102412D+00
     31 -0.418176D-03  0.709266D-05 -0.342607D-02  0.235728D-02  0.419364D-03
     32 -0.608938D-03  0.127589D-02  0.287298D-04  0.509143D-03  0.499526D-03
     33 -0.130030D-02 -0.256979D-03 -0.700549D-03 -0.545515D-04  0.445372D-03
     34  0.631827D-03 -0.314228D-03  0.257401D-01  0.796504D-02 -0.415155D-02
     35  0.772500D-03 -0.352249D-03 -0.229933D-01 -0.603268D-01  0.462871D-01
     36 -0.295134D-03  0.189744D-03  0.552076D-02  0.442381D-01  0.149124D-02
     37 -0.368787D-04  0.534892D-04  0.414542D-02  0.453276D-02 -0.252093D-02
     38  0.233773D-04 -0.920132D-04  0.594055D-02  0.180348D-02 -0.367806D-02
     39 -0.502437D-05 -0.627445D-04 -0.244366D-02 -0.358361D-02 -0.407852D-02
               31            32            33            34            35 
     31  0.736495D-01
     32  0.141435D-02  0.707410D-01
     33  0.119132D+00 -0.880481D-01  0.391643D+00
     34 -0.504698D-03 -0.164720D-03 -0.498012D-03  0.616657D+00
     35 -0.883847D-03 -0.339369D-03 -0.479945D-03  0.749581D-01  0.321749D+00
     36  0.100028D-02  0.176771D-03  0.519707D-04  0.622408D-02 -0.148084D+00
     37  0.211316D-03  0.163743D-04  0.230174D-04 -0.432300D+00  0.194363D-01
     38  0.134560D-04 -0.191171D-04 -0.309196D-04  0.670911D-01 -0.415131D-01
     39 -0.305811D-03 -0.134344D-04 -0.928876D-04 -0.774937D-01  0.141527D-01
               36            37            38            39 
     36  0.116700D+00
     37 -0.491170D-01  0.460139D+00
     38  0.196905D-01 -0.234805D-01  0.404585D-01
     39 -0.321678D-01  0.526686D-01 -0.178939D-01  0.302552D-01
 FormGI is forming the generalized inverse of G from B-inverse, IUseBI=4.
 Leave Link  716 at Tue Apr 12 22:26:52 2016, MaxMem=    33554432 cpu:         0.0
 (Enter /usr/local/gau/g09/l103.exe)

 GradGradGradGradGradGradGradGradGradGradGradGradGradGradGradGradGradGrad
 Berny optimization.
 Red2BG is reusing G-inverse.
 Internal  Forces:  Max     0.088945393 RMS     0.022476724
 Search for a saddle point.
 Step number   1 out of a maximum of   64
 All quantities printed in internal units (Hartrees-Bohrs-Radians)
 Swapping is turned off.
 Second derivative matrix not updated -- analytic derivatives used.
 ITU=  0
     Eigenvalues ---    0.00098   0.00177   0.00382   0.00966   0.02052
     Eigenvalues ---    0.02246   0.04239   0.04485   0.04692   0.04887
     Eigenvalues ---    0.05198   0.12665   0.13325   0.13697   0.14453
     Eigenvalues ---    0.14992   0.16010   0.18949   0.19109   0.22760
     Eigenvalues ---    0.27542   0.31239   0.31945   0.32898   0.33942
     Eigenvalues ---    0.34422   0.37628   0.41061   0.45117   0.47305
     Eigenvalues ---    0.47850   0.50142   0.63085
 Eigenvectors required to have negative eigenvalues:
                          D17       D16       D19       D21       D18
   1                    0.39597   0.37235   0.32139   0.31088   0.29777
                          D20       D14       D15       D13       D11
   1                    0.28726   0.23620   0.23215   0.22554   0.18649
 Eigenvalue     1 is   9.82D-04 should be less than     0.000000 Eigenvector:
                          D17       D16       D19       D21       D18
   1                    0.39597   0.37235   0.32139   0.31088   0.29777
                          D20       D14       D15       D13       D11
   1                    0.28726   0.23620   0.23215   0.22554   0.18649
 RFO step:  Lambda0=1.081845851D-02 Lambda=-9.21749782D-02.
 Linear search not attempted -- option 19 set.
 Maximum step size (   0.300) exceeded in Quadratic search.
    -- Step size scaled by   0.622
 Iteration  1 RMS(Cart)=  0.11398485 RMS(Int)=  0.02034968
 Iteration  2 RMS(Cart)=  0.02188871 RMS(Int)=  0.00074110
 Iteration  3 RMS(Cart)=  0.00046300 RMS(Int)=  0.00062687
 Iteration  4 RMS(Cart)=  0.00000044 RMS(Int)=  0.00062687
 ITry= 1 IFail=0 DXMaxC= 4.91D-01 DCOld= 1.00D+10 DXMaxT= 3.00D-01 DXLimC= 3.00D+00 Rises=F
 Variable       Old X    -DE/DX   Delta X   Delta X   Delta X     New X
                                 (Linear)    (Quad)   (Total)
    R1        1.90593  -0.00088   0.00000  -0.00323  -0.00323   1.90270
    R2        2.74447   0.02224   0.00000   0.00939   0.00939   2.75386
    R3        1.91986  -0.00039   0.00000  -0.00549  -0.00549   1.91437
    R4        2.07684   0.01408   0.00000  -0.00620  -0.00620   2.07063
    R5        2.86341  -0.00065   0.00000   0.00004   0.00004   2.86345
    R6        2.72052   0.08895   0.00000   0.08181   0.08181   2.80233
    R7        2.07259  -0.00045   0.00000  -0.00073  -0.00073   2.07186
    R8        2.07113  -0.00008   0.00000  -0.00238  -0.00238   2.06874
    R9        2.08529  -0.00416   0.00000  -0.00804  -0.00804   2.07725
   R10        2.49246  -0.05533   0.00000  -0.11766  -0.11766   2.37480
   R11        2.53859   0.00538   0.00000   0.03078   0.03078   2.56937
   R12        1.85558  -0.00153   0.00000  -0.00017  -0.00017   1.85541
    A1        2.04462  -0.00599   0.00000   0.00057   0.00026   2.04488
    A2        1.97795   0.00045   0.00000   0.01675   0.01636   1.99431
    A3        2.03733   0.00576   0.00000   0.01350   0.01318   2.05052
    A4        1.51701   0.02019   0.00000   0.07956   0.07944   1.59645
    A5        2.04414   0.00196   0.00000   0.00044  -0.00053   2.04361
    A6        1.96842   0.00654   0.00000   0.00420   0.00407   1.97249
    A7        2.38500  -0.03738   0.00000  -0.15647  -0.15716   2.22784
    A8        1.34108   0.04020   0.00000   0.09516   0.09724   1.43832
    A9        2.07421  -0.01879   0.00000  -0.00569  -0.00450   2.06971
   A10        1.91701   0.00246   0.00000   0.01096   0.01095   1.92797
   A11        1.95800   0.00143   0.00000   0.00131   0.00123   1.95923
   A12        1.95695  -0.00754   0.00000  -0.02420  -0.02421   1.93273
   A13        1.87954  -0.00060   0.00000   0.00559   0.00552   1.88506
   A14        1.87017   0.00237   0.00000   0.00281   0.00286   1.87303
   A15        1.87836   0.00214   0.00000   0.00453   0.00445   1.88281
   A16        1.95880   0.06578   0.00000   0.09397   0.09399   2.05279
   A17        2.21394  -0.04451   0.00000  -0.11090  -0.11087   2.10307
   A18        2.10427  -0.02087   0.00000   0.01706   0.01710   2.12137
   A19        1.96008  -0.00676   0.00000  -0.02275  -0.02275   1.93733
    D1        0.99863  -0.02835   0.00000  -0.12774  -0.12840   0.87023
    D2       -1.48399   0.00220   0.00000   0.00835   0.00887  -1.47512
    D3        2.29610   0.02379   0.00000   0.01195   0.01188   2.30798
    D4       -2.85578  -0.02784   0.00000  -0.07892  -0.07943  -2.93521
    D5        0.94479   0.00270   0.00000   0.05718   0.05784   1.00262
    D6       -1.55831   0.02430   0.00000   0.06078   0.06085  -1.49747
    D7        1.10778   0.00276   0.00000   0.10975   0.11022   1.21800
    D8       -3.08567   0.00461   0.00000   0.12505   0.12555  -2.96012
    D9       -0.96951   0.00296   0.00000   0.11438   0.11492  -0.85459
   D10       -0.93493   0.00458   0.00000   0.13769   0.13657  -0.79835
   D11        1.15481   0.00642   0.00000   0.15299   0.15190   1.30671
   D12       -3.01222   0.00478   0.00000   0.14232   0.14127  -2.87095
   D13       -2.71191  -0.01013   0.00000   0.10979   0.11034  -2.60158
   D14       -0.62218  -0.00828   0.00000   0.12509   0.12566  -0.49651
   D15        1.49398  -0.00993   0.00000   0.11442   0.11503   1.60901
   D16       -1.18333  -0.01576   0.00000   0.18947   0.19003  -0.99331
   D17        2.07805  -0.01927   0.00000   0.18483   0.18550   2.26355
   D18        0.22870   0.02360   0.00000   0.32185   0.32029   0.54900
   D19       -2.79310   0.02009   0.00000   0.31722   0.31577  -2.47733
   D20        2.60876  -0.00226   0.00000   0.19060   0.19144   2.80020
   D21       -0.41305  -0.00577   0.00000   0.18597   0.18691  -0.22613
   D22        2.90094   0.00705   0.00000  -0.00584  -0.00568   2.89526
   D23       -0.11183  -0.00181   0.00000  -0.01449  -0.01464  -0.12647
         Item               Value     Threshold  Converged?
 Maximum Force            0.088945     0.000450     NO 
 RMS     Force            0.022477     0.000300     NO 
 Maximum Displacement     0.490619     0.001800     NO 
 RMS     Displacement     0.124205     0.001200     NO 
 Predicted change in Energy=-4.077911D-02
 Optimization stopped.
    -- Wrong number of Negative eigenvalues: Desired=  1 Actual=  0
    -- Flag reset to prevent archiving.
                           ----------------------------
                           ! Non-Optimized Parameters !
                           ! (Angstroms and Degrees)  !
 --------------------------                            --------------------------
 ! Name  Definition              Value          Derivative Info.                !
 --------------------------------------------------------------------------------
 ! R1    R(1,2)                  1.0069         -DE/DX =   -0.0009              !
 ! R2    R(1,3)                  1.4573         -DE/DX =    0.0222              !
 ! R3    R(1,11)                 1.013          -DE/DX =   -0.0004              !
 ! R4    R(3,4)                  1.0957         -DE/DX =    0.0141              !
 ! R5    R(3,5)                  1.5153         -DE/DX =   -0.0006              !
 ! R6    R(3,6)                  1.4829         -DE/DX =    0.0889              !
 ! R7    R(5,7)                  1.0964         -DE/DX =   -0.0004              !
 ! R8    R(5,8)                  1.0947         -DE/DX =   -0.0001              !
 ! R9    R(5,9)                  1.0992         -DE/DX =   -0.0042              !
 ! R10   R(6,10)                 1.2567         -DE/DX =   -0.0553              !
 ! R11   R(6,12)                 1.3597         -DE/DX =    0.0054              !
 ! R12   R(12,13)                0.9818         -DE/DX =   -0.0015              !
 ! A1    A(2,1,3)              117.1627         -DE/DX =   -0.006               !
 ! A2    A(2,1,11)             114.2654         -DE/DX =    0.0004              !
 ! A3    A(3,1,11)             117.4859         -DE/DX =    0.0058              !
 ! A4    A(1,3,4)               91.47           -DE/DX =    0.0202              !
 ! A5    A(1,3,5)              117.0903         -DE/DX =    0.002               !
 ! A6    A(1,3,6)              113.0153         -DE/DX =    0.0065              !
 ! A7    A(4,3,5)              127.6459         -DE/DX =   -0.0374              !
 ! A8    A(4,3,6)               82.4097         -DE/DX =    0.0402              !
 ! A9    A(5,3,6)              118.5855         -DE/DX =   -0.0188              !
 ! A10   A(3,5,7)              110.4644         -DE/DX =    0.0025              !
 ! A11   A(3,5,8)              112.2558         -DE/DX =    0.0014              !
 ! A12   A(3,5,9)              110.7374         -DE/DX =   -0.0075              !
 ! A13   A(7,5,8)              108.006          -DE/DX =   -0.0006              !
 ! A14   A(7,5,9)              107.3169         -DE/DX =    0.0024              !
 ! A15   A(8,5,9)              107.8772         -DE/DX =    0.0021              !
 ! A16   A(3,6,10)             117.6163         -DE/DX =    0.0658              !
 ! A17   A(3,6,12)             120.4968         -DE/DX =   -0.0445              !
 ! A18   A(10,6,12)            121.5457         -DE/DX =   -0.0209              !
 ! A19   A(6,12,13)            111.0006         -DE/DX =   -0.0068              !
 ! D1    D(2,1,3,4)             49.8606         -DE/DX =   -0.0283              !
 ! D2    D(2,1,3,5)            -84.5182         -DE/DX =    0.0022              !
 ! D3    D(2,1,3,6)            132.2374         -DE/DX =    0.0238              !
 ! D4    D(11,1,3,4)          -168.1753         -DE/DX =   -0.0278              !
 ! D5    D(11,1,3,5)            57.4459         -DE/DX =    0.0027              !
 ! D6    D(11,1,3,6)           -85.7985         -DE/DX =    0.0243              !
 ! D7    D(1,3,5,7)             69.7865         -DE/DX =    0.0028              !
 ! D8    D(1,3,5,8)           -169.6022         -DE/DX =    0.0046              !
 ! D9    D(1,3,5,9)            -48.9646         -DE/DX =    0.003               !
 ! D10   D(4,3,5,7)            -45.7422         -DE/DX =    0.0046              !
 ! D11   D(4,3,5,8)             74.8691         -DE/DX =    0.0064              !
 ! D12   D(4,3,5,9)           -164.4933         -DE/DX =    0.0048              !
 ! D13   D(6,3,5,7)           -149.0593         -DE/DX =   -0.0101              !
 ! D14   D(6,3,5,8)            -28.448          -DE/DX =   -0.0083              !
 ! D15   D(6,3,5,9)             92.1896         -DE/DX =   -0.0099              !
 ! D16   D(1,3,6,10)           -56.9123         -DE/DX =   -0.0158              !
 ! D17   D(1,3,6,12)           129.6917         -DE/DX =   -0.0193              !
 ! D18   D(4,3,6,10)            31.4553         -DE/DX =    0.0236              !
 ! D19   D(4,3,6,12)          -141.9406         -DE/DX =    0.0201              !
 ! D20   D(5,3,6,10)           160.4395         -DE/DX =   -0.0023              !
 ! D21   D(5,3,6,12)           -12.9564         -DE/DX =   -0.0058              !
 ! D22   D(3,6,12,13)          165.8862         -DE/DX =    0.0071              !
 ! D23   D(10,6,12,13)          -7.2462         -DE/DX =   -0.0018              !
 --------------------------------------------------------------------------------
 Lowest energy point so far.  Saving SCF results.
 GradGradGradGradGradGradGradGradGradGradGradGradGradGradGradGradGradGrad

 Largest change from initial coordinates is atom   13       0.000 Angstoms.
 Leave Link  103 at Tue Apr 12 22:26:52 2016, MaxMem=    33554432 cpu:         0.0
 (Enter /usr/local/gau/g09/l202.exe)
                          Input orientation:                          
 ---------------------------------------------------------------------
 Center     Atomic      Atomic             Coordinates (Angstroms)
 Number     Number       Type             X           Y           Z
 ---------------------------------------------------------------------
      1          7           0       -1.296560   -1.146049   -0.528572
      2          1           0       -1.929033   -1.746463   -0.021911
      3          6           0       -0.655507   -0.078037    0.218159
      4          1           0       -0.265431   -0.859178    0.885610
      5          6           0       -1.426509    1.217456    0.370611
      6          6           0        0.765791   -0.018454   -0.002996
      7          1           0       -2.343672    1.039326    0.945052
      8          1           0       -0.847203    1.984273    0.897484
      9          1           0       -1.729211    1.638054   -0.603635
     10          8           0        1.393477   -1.063234    0.501066
     11          1           0       -1.620350   -0.918825   -1.464350
     12          8           0        1.457819    1.008762   -0.523142
     13          1           0        2.425138    0.915769   -0.382296
 ---------------------------------------------------------------------
                    Distance matrix (angstroms):
                    1          2          3          4          5
     1  N    0.000000
     2  H    1.008575   0.000000
     3  C    1.452310   2.112616   0.000000
     4  H    1.773537   2.092472   1.099014   0.000000
     5  C    2.532108   3.031735   1.515252   2.434283   0.000000
     6  C    2.408525   3.201320   1.439635   1.599955   2.544255
     7  H    2.836173   2.977845   2.150994   2.815482   1.096768
     8  H    3.469074   3.991746   2.179760   2.902381   1.095992
     9  H    2.818519   3.439955   2.184755   3.255253   1.103488
    10  O    2.881547   3.432110   2.291066   1.715077   3.629172
    11  H    1.015948   1.691420   2.113926   2.713241   2.822827
    12  O    3.497119   4.394686   2.489338   2.905749   3.026829
    13  H    4.257173   5.116264   3.292198   3.463696   3.936124
                    6          7          8          9         10
     6  C    0.000000
     7  H    3.418546   0.000000
     8  H    2.724615   1.770482   0.000000
     9  H    3.054476   1.770443   1.775152   0.000000
    10  O    1.318952   4.310935   3.803300   4.274167   0.000000
    11  H    2.939369   3.187910   3.821517   2.700058   3.600954
    12  O    1.343364   4.075274   2.878007   3.249561   2.312209
    13  H    1.941668   4.951633   3.672568   4.222476   2.400230
                   11         12         13
    11  H    0.000000
    12  O    3.751878   0.000000
    13  H    4.571931   0.981932   0.000000
 Stoichiometry    C3H7NO2
 Framework group  C1[X(C3H7NO2)]
 Deg. of freedom    33
 Full point group                 C1      NOp   1
 RotChk:  IX=0 Diff= 1.12D-15
 Largest Abelian subgroup         C1      NOp   1
 Largest concise Abelian subgroup C1      NOp   1
                         Standard orientation:                         
 ---------------------------------------------------------------------
 Center     Atomic      Atomic             Coordinates (Angstroms)
 Number     Number       Type             X           Y           Z
 ---------------------------------------------------------------------
      1          7           0        1.298682   -1.141618    0.521158
      2          1           0        1.942142   -1.727751    0.011616
      3          6           0        0.648056   -0.073637   -0.217293
      4          1           0        0.272454   -0.852124   -0.896051
      5          6           0        1.402700    1.233596   -0.350111
      6          6           0       -0.775226   -0.035384   -0.004335
      7          1           0        2.325624    1.074224   -0.920823
      8          1           0        0.816477    1.998712   -0.871782
      9          1           0        1.693859    1.646908    0.630748
     10          8           0       -1.385906   -1.082489   -0.524215
     11          1           0        1.613729   -0.920929    1.461473
     12          8           0       -1.483985    0.976543    0.523199
     13          1           0       -2.449109    0.872409    0.375272
 ---------------------------------------------------------------------
 Rotational constants (GHZ):      4.8800532      3.0400174      2.1930418
 Leave Link  202 at Tue Apr 12 22:26:52 2016, MaxMem=    33554432 cpu:         0.0
 (Enter /usr/local/gau/g09/l9999.exe)


 GROWING OLD ISN'T SO BAD -- WHEN YOU CONSIDER THE ALTERNATIVE.

                     -- MAURICE CHEVALIER
 Error termination request processed by link 9999.
 Error termination via Lnk1e in /usr/local/gau/g09/l9999.exe at Tue Apr 12 22:26:52 2016.
 Job cpu time:       0 days  0 hours  1 minutes 35.3 seconds.
 File lengths (MBytes):  RWF=     12 Int=      0 D2E=      0 Chk=      2 Scr=      1
