 Entering Gaussian System, Link 0=g09
 Input=Ala-S-opt-freq-tsa3-6-31g.com
 Output=Ala-S-opt-freq-tsa3-6-31g.log
 Initial command:
 /usr/local/gau/g09/l1.exe "/tmp/Gau-1917.inp" -scrdir="/tmp/"
 Entering Link 1 = /usr/local/gau/g09/l1.exe PID=      1919.
  
 Copyright (c) 1988,1990,1992,1993,1995,1998,2003,2009,2013,
            Gaussian, Inc.  All Rights Reserved.
  
 This is part of the Gaussian(R) 09 program.  It is based on
 the Gaussian(R) 03 system (copyright 2003, Gaussian, Inc.),
 the Gaussian(R) 98 system (copyright 1998, Gaussian, Inc.),
 the Gaussian(R) 94 system (copyright 1995, Gaussian, Inc.),
 the Gaussian 92(TM) system (copyright 1992, Gaussian, Inc.),
 the Gaussian 90(TM) system (copyright 1990, Gaussian, Inc.),
 the Gaussian 88(TM) system (copyright 1988, Gaussian, Inc.),
 the Gaussian 86(TM) system (copyright 1986, Carnegie Mellon
 University), and the Gaussian 82(TM) system (copyright 1983,
 Carnegie Mellon University). Gaussian is a federally registered
 trademark of Gaussian, Inc.
  
 This software contains proprietary and confidential information,
 including trade secrets, belonging to Gaussian, Inc.
  
 This software is provided under written license and may be
 used, copied, transmitted, or stored only in accord with that
 written license.
  
 The following legend is applicable only to US Government
 contracts under FAR:
  
                    RESTRICTED RIGHTS LEGEND
  
 Use, reproduction and disclosure by the US Government is
 subject to restrictions as set forth in subparagraphs (a)
 and (c) of the Commercial Computer Software - Restricted
 Rights clause in FAR 52.227-19.
  
 Gaussian, Inc.
 340 Quinnipiac St., Bldg. 40, Wallingford CT 06492
  
  
 ---------------------------------------------------------------
 Warning -- This program may not be used in any manner that
 competes with the business of Gaussian, Inc. or will provide
 assistance to any competitor of Gaussian, Inc.  The licensee
 of this program is prohibited from giving any competitor of
 Gaussian, Inc. access to this program.  By using this program,
 the user acknowledges that Gaussian, Inc. is engaged in the
 business of creating and licensing software in the field of
 computational chemistry and represents and warrants to the
 licensee that it is not a competitor of Gaussian, Inc. and that
 it will not use this program in any manner prohibited above.
 ---------------------------------------------------------------
  

 Cite this work as:
 Gaussian 09, Revision D.01,
 M. J. Frisch, G. W. Trucks, H. B. Schlegel, G. E. Scuseria, 
 M. A. Robb, J. R. Cheeseman, G. Scalmani, V. Barone, B. Mennucci, 
 G. A. Petersson, H. Nakatsuji, M. Caricato, X. Li, H. P. Hratchian, 
 A. F. Izmaylov, J. Bloino, G. Zheng, J. L. Sonnenberg, M. Hada, 
 M. Ehara, K. Toyota, R. Fukuda, J. Hasegawa, M. Ishida, T. Nakajima, 
 Y. Honda, O. Kitao, H. Nakai, T. Vreven, J. A. Montgomery, Jr., 
 J. E. Peralta, F. Ogliaro, M. Bearpark, J. J. Heyd, E. Brothers, 
 K. N. Kudin, V. N. Staroverov, T. Keith, R. Kobayashi, J. Normand, 
 K. Raghavachari, A. Rendell, J. C. Burant, S. S. Iyengar, J. Tomasi, 
 M. Cossi, N. Rega, J. M. Millam, M. Klene, J. E. Knox, J. B. Cross, 
 V. Bakken, C. Adamo, J. Jaramillo, R. Gomperts, R. E. Stratmann, 
 O. Yazyev, A. J. Austin, R. Cammi, C. Pomelli, J. W. Ochterski, 
 R. L. Martin, K. Morokuma, V. G. Zakrzewski, G. A. Voth, 
 P. Salvador, J. J. Dannenberg, S. Dapprich, A. D. Daniels, 
 O. Farkas, J. B. Foresman, J. V. Ortiz, J. Cioslowski, 
 and D. J. Fox, Gaussian, Inc., Wallingford CT, 2013.
 
 ******************************************
 Gaussian 09:  ES64L-G09RevD.01 24-Apr-2013
                14-Apr-2016 
 ******************************************
 %chk=Ala-S-opt-freq-tsa3-6-31g.chk
 ------------------------------------------------
 #p opt=(calcfc,ts) freq rb3lyp/6-31g iop(1/11=1)
 ------------------------------------------------
 1/5=1,10=4,11=1,14=-1,18=20,26=3,38=1/1,3;
 2/9=110,12=2,17=6,18=5,40=1/2;
 3/5=1,6=6,11=2,16=1,25=1,30=1,71=2,74=-5,116=1,140=1/1,2,3;
 4//1;
 5/5=2,38=5/2;
 8/6=4,10=90,11=11/1;
 11/6=1,8=1,9=11,15=111,16=1/1,2,10;
 10/6=1,13=1/2;
 6/7=2,8=2,9=2,10=2,28=1/1;
 7/10=1,18=20,25=1/1,2,3,16;
 1/5=1,10=4,11=1,14=-1,18=20,26=3/3(2);
 2/9=110/2;
 99//99;
 2/9=110/2;
 3/5=1,6=6,11=2,16=1,25=1,30=1,71=1,74=-5,116=1/1,2,3;
 4/5=5,16=3,69=1/1;
 5/5=2,38=5/2;
 7//1,2,3,16;
 1/5=1,11=1,14=-1,18=20,26=3/3(-5);
 2/9=110/2;
 6/7=2,8=2,9=2,10=2,19=2,28=1/1;
 99/9=1/99;
 Leave Link    1 at Thu Apr 14 08:54:37 2016, MaxMem=           0 cpu:         0.0
 (Enter /usr/local/gau/g09/l101.exe)
 -------------------------
 Ala-S-opt-freq-tsa3-6-31g
 -------------------------
 Symbolic Z-matrix:
 Charge =  0 Multiplicity = 1
 N                     1.24012   1.35283   0.05614 
 H                     2.23735   1.42875  -0.02632 
 C                     0.62218   0.10441   0.03091 
 H                    -0.02164  -1.11734  -0.02913 
 C                     1.53021  -1.09368   0.02323 
 C                    -0.71886  -0.00209   0.02443 
 H                     2.17572  -1.09659   0.91188 
 H                     0.94894  -2.01619   0.02025 
 H                     2.18543  -1.08663  -0.8593 
 O                    -1.52814   1.14911  -0.06687 
 H                     0.67777   2.18061  -0.04058 
 O                    -1.40911  -1.21762   0.12854 
 H                    -2.14117   1.19726   0.69807 
 
 Add virtual bond connecting atoms C3         and H4         Dist= 2.61D+00.
 Add virtual bond connecting atoms C6         and H4         Dist= 2.49D+00.
 Add virtual bond connecting atoms H8         and H4         Dist= 2.50D+00.
 Add virtual bond connecting atoms O12        and H4         Dist= 2.65D+00.
 NAtoms=     13 NQM=       13 NQMF=       0 NMMI=      0 NMMIF=      0
                NMic=       0 NMicF=      0.
                    Isotopes and Nuclear Properties:
 (Nuclear quadrupole moments (NQMom) in fm**2, nuclear magnetic moments (NMagM)
  in nuclear magnetons)

  Atom         1           2           3           4           5           6           7           8           9          10
 IAtWgt=          14           1          12           1          12          12           1           1           1          16
 AtmWgt=  14.0030740   1.0078250  12.0000000   1.0078250  12.0000000  12.0000000   1.0078250   1.0078250   1.0078250  15.9949146
 NucSpn=           2           1           0           1           0           0           1           1           1           0
 AtZEff=   0.0000000   0.0000000   0.0000000   0.0000000   0.0000000   0.0000000   0.0000000   0.0000000   0.0000000   0.0000000
 NQMom=    2.0440000   0.0000000   0.0000000   0.0000000   0.0000000   0.0000000   0.0000000   0.0000000   0.0000000   0.0000000
 NMagM=    0.4037610   2.7928460   0.0000000   2.7928460   0.0000000   0.0000000   2.7928460   2.7928460   2.7928460   0.0000000
 AtZNuc=   7.0000000   1.0000000   6.0000000   1.0000000   6.0000000   6.0000000   1.0000000   1.0000000   1.0000000   8.0000000

  Atom        11          12          13
 IAtWgt=           1          16           1
 AtmWgt=   1.0078250  15.9949146   1.0078250
 NucSpn=           1           0           1
 AtZEff=   0.0000000   0.0000000   0.0000000
 NQMom=    0.0000000   0.0000000   0.0000000
 NMagM=    2.7928460   0.0000000   2.7928460
 AtZNuc=   1.0000000   8.0000000   1.0000000
 Leave Link  101 at Thu Apr 14 08:54:38 2016, MaxMem=    33554432 cpu:         0.4
 (Enter /usr/local/gau/g09/l103.exe)

 GradGradGradGradGradGradGradGradGradGradGradGradGradGradGradGradGradGrad
 Berny optimization.
 Initialization pass.
                           ----------------------------
                           !    Initial Parameters    !
                           ! (Angstroms and Degrees)  !
 --------------------------                            --------------------------
 ! Name  Definition              Value          Derivative Info.                !
 --------------------------------------------------------------------------------
 ! R1    R(1,2)                  1.0035         calculate D2E/DX2 analytically  !
 ! R2    R(1,3)                  1.3932         calculate D2E/DX2 analytically  !
 ! R3    R(1,11)                 1.0054         calculate D2E/DX2 analytically  !
 ! R4    R(3,4)                  1.3823         calculate D2E/DX2 analytically  !
 ! R5    R(3,5)                  1.5033         calculate D2E/DX2 analytically  !
 ! R6    R(3,6)                  1.3453         calculate D2E/DX2 analytically  !
 ! R7    R(4,6)                  1.3163         calculate D2E/DX2 analytically  !
 ! R8    R(4,8)                  1.3238         calculate D2E/DX2 analytically  !
 ! R9    R(4,12)                 1.4            calculate D2E/DX2 analytically  !
 ! R10   R(5,7)                  1.0984         calculate D2E/DX2 analytically  !
 ! R11   R(5,8)                  1.0904         calculate D2E/DX2 analytically  !
 ! R12   R(5,9)                  1.0992         calculate D2E/DX2 analytically  !
 ! R13   R(6,10)                 1.4102         calculate D2E/DX2 analytically  !
 ! R14   R(6,12)                 1.4017         calculate D2E/DX2 analytically  !
 ! R15   R(10,13)                0.9815         calculate D2E/DX2 analytically  !
 ! A1    A(2,1,3)              120.4689         calculate D2E/DX2 analytically  !
 ! A2    A(2,1,11)             119.0538         calculate D2E/DX2 analytically  !
 ! A3    A(3,1,11)             119.2059         calculate D2E/DX2 analytically  !
 ! A4    A(1,3,5)              116.508          calculate D2E/DX2 analytically  !
 ! A5    A(1,3,6)              120.8748         calculate D2E/DX2 analytically  !
 ! A6    A(4,3,5)               64.9576         calculate D2E/DX2 analytically  !
 ! A7    A(5,3,6)              122.6153         calculate D2E/DX2 analytically  !
 ! A8    A(3,4,8)              104.8938         calculate D2E/DX2 analytically  !
 ! A9    A(3,4,12)             121.3328         calculate D2E/DX2 analytically  !
 ! A10   A(6,4,8)              164.1748         calculate D2E/DX2 analytically  !
 ! A11   A(8,4,12)             132.3602         calculate D2E/DX2 analytically  !
 ! A12   A(3,5,7)              110.6686         calculate D2E/DX2 analytically  !
 ! A13   A(3,5,8)              110.6273         calculate D2E/DX2 analytically  !
 ! A14   A(3,5,9)              111.0413         calculate D2E/DX2 analytically  !
 ! A15   A(7,5,8)              108.2564         calculate D2E/DX2 analytically  !
 ! A16   A(7,5,9)              107.4144         calculate D2E/DX2 analytically  !
 ! A17   A(8,5,9)              108.7238         calculate D2E/DX2 analytically  !
 ! A18   A(3,6,10)             120.5154         calculate D2E/DX2 analytically  !
 ! A19   A(3,6,12)             123.9986         calculate D2E/DX2 analytically  !
 ! A20   A(10,6,12)            115.4764         calculate D2E/DX2 analytically  !
 ! A21   A(4,8,5)               79.4256         calculate D2E/DX2 analytically  !
 ! A22   A(6,10,13)            110.368          calculate D2E/DX2 analytically  !
 ! A23   L(1,3,4,5,-1)         181.4657         calculate D2E/DX2 analytically  !
 ! A24   L(4,6,10,1,-1)        183.1711         calculate D2E/DX2 analytically  !
 ! A25   L(1,3,4,5,-2)         181.5973         calculate D2E/DX2 analytically  !
 ! A26   L(4,6,10,1,-2)        173.9948         calculate D2E/DX2 analytically  !
 ! D1    D(2,1,3,5)              6.2762         calculate D2E/DX2 analytically  !
 ! D2    D(2,1,3,6)           -174.2135         calculate D2E/DX2 analytically  !
 ! D3    D(11,1,3,5)           173.2777         calculate D2E/DX2 analytically  !
 ! D4    D(11,1,3,6)            -7.2119         calculate D2E/DX2 analytically  !
 ! D5    D(2,1,4,8)              9.2944         calculate D2E/DX2 analytically  !
 ! D6    D(2,1,4,12)           177.9902         calculate D2E/DX2 analytically  !
 ! D7    D(11,1,4,8)           175.4747         calculate D2E/DX2 analytically  !
 ! D8    D(11,1,4,12)          -15.8295         calculate D2E/DX2 analytically  !
 ! D9    D(5,3,4,8)              2.0369         calculate D2E/DX2 analytically  !
 ! D10   D(5,3,4,12)           170.0431         calculate D2E/DX2 analytically  !
 ! D11   D(1,3,5,7)             59.0596         calculate D2E/DX2 analytically  !
 ! D12   D(1,3,5,8)            179.0434         calculate D2E/DX2 analytically  !
 ! D13   D(1,3,5,9)            -60.1392         calculate D2E/DX2 analytically  !
 ! D14   D(4,3,5,7)           -122.5377         calculate D2E/DX2 analytically  !
 ! D15   D(4,3,5,8)             -2.5539         calculate D2E/DX2 analytically  !
 ! D16   D(4,3,5,9)            118.2636         calculate D2E/DX2 analytically  !
 ! D17   D(6,3,5,7)           -120.4415         calculate D2E/DX2 analytically  !
 ! D18   D(6,3,5,8)             -0.4577         calculate D2E/DX2 analytically  !
 ! D19   D(6,3,5,9)            120.3597         calculate D2E/DX2 analytically  !
 ! D20   D(1,3,6,10)             5.1914         calculate D2E/DX2 analytically  !
 ! D21   D(1,3,6,12)          -173.6291         calculate D2E/DX2 analytically  !
 ! D22   D(5,3,6,10)          -175.3288         calculate D2E/DX2 analytically  !
 ! D23   D(5,3,6,12)             5.8507         calculate D2E/DX2 analytically  !
 ! D24   D(8,4,10,13)         -116.3449         calculate D2E/DX2 analytically  !
 ! D25   D(3,4,8,5)             -2.5886         calculate D2E/DX2 analytically  !
 ! D26   D(6,4,8,5)            -15.7617         calculate D2E/DX2 analytically  !
 ! D27   D(12,4,8,5)          -168.6895         calculate D2E/DX2 analytically  !
 ! D28   D(3,5,8,4)              2.4578         calculate D2E/DX2 analytically  !
 ! D29   D(7,5,8,4)            123.8773         calculate D2E/DX2 analytically  !
 ! D30   D(9,5,8,4)           -119.7274         calculate D2E/DX2 analytically  !
 ! D31   D(3,6,10,13)         -122.8659         calculate D2E/DX2 analytically  !
 ! D32   D(12,6,10,13)          56.051          calculate D2E/DX2 analytically  !
 --------------------------------------------------------------------------------
 Trust Radius=3.00D-01 FncErr=1.00D-07 GrdErr=1.00D-06
 Number of steps in this run=     83 maximum allowed number of steps=    100.
 Search for a saddle point of order  1.
 GradGradGradGradGradGradGradGradGradGradGradGradGradGradGradGradGradGrad

 Leave Link  103 at Thu Apr 14 08:54:38 2016, MaxMem=    33554432 cpu:         0.0
 (Enter /usr/local/gau/g09/l202.exe)
                          Input orientation:                          
 ---------------------------------------------------------------------
 Center     Atomic      Atomic             Coordinates (Angstroms)
 Number     Number       Type             X           Y           Z
 ---------------------------------------------------------------------
      1          7           0        1.240120    1.352825    0.056140
      2          1           0        2.237350    1.428751   -0.026324
      3          6           0        0.622179    0.104405    0.030906
      4          1           0       -0.021637   -1.117340   -0.029133
      5          6           0        1.530205   -1.093679    0.023226
      6          6           0       -0.718863   -0.002093    0.024429
      7          1           0        2.175722   -1.096591    0.911882
      8          1           0        0.948938   -2.016187    0.020246
      9          1           0        2.185430   -1.086629   -0.859303
     10          8           0       -1.528144    1.149114   -0.066873
     11          1           0        0.677772    2.180609   -0.040582
     12          8           0       -1.409111   -1.217624    0.128535
     13          1           0       -2.141172    1.197263    0.698066
 ---------------------------------------------------------------------
                    Distance matrix (angstroms):
                    1          2          3          4          5
     1  N    0.000000
     2  H    1.003510   0.000000
     3  C    1.393212   2.089484   0.000000
     4  H    2.775071   3.403764   1.382305   0.000000
     5  C    2.463862   2.620145   1.503321   1.552905   0.000000
     6  C    2.382105   3.284674   1.345280   1.316347   2.499974
     7  H    2.758131   2.694695   2.152210   2.390466   1.098367
     8  H    3.381762   3.678284   2.145646   1.323775   1.090367
     9  H    2.771747   2.650224   2.157496   2.358234   1.099194
    10  O    2.778474   3.776081   2.392669   2.721728   3.793644
    11  H    1.005394   1.731409   2.078178   3.371317   3.384032
    12  O    3.692001   4.508210   2.425579   1.400000   2.943812
    13  H    3.445200   4.444073   3.045579   3.221589   4.379821
                    6          7          8          9         10
     6  C    0.000000
     7  H    3.219335   0.000000
     8  H    2.614986   1.773604   0.000000
     9  H    3.223681   1.771240   1.779493   0.000000
    10  O    1.410159   4.440695   4.020281   4.406487   0.000000
    11  H    2.592104   3.727074   4.205987   3.690282   2.435311
    12  O    1.401712   3.671418   2.491952   3.730108   2.377772
    13  H    1.978688   4.893164   4.509377   5.134301   0.981455
                   11         12         13
    11  H    0.000000
    12  O    3.991449   0.000000
    13  H    3.075551   2.586882   0.000000
 Stoichiometry    C3H7NO2
 Framework group  C1[X(C3H7NO2)]
 Deg. of freedom    33
 Full point group                 C1      NOp   1
 Largest Abelian subgroup         C1      NOp   1
 Largest concise Abelian subgroup C1      NOp   1
                         Standard orientation:                         
 ---------------------------------------------------------------------
 Center     Atomic      Atomic             Coordinates (Angstroms)
 Number     Number       Type             X           Y           Z
 ---------------------------------------------------------------------
      1          7           0        1.106849    1.418273    0.057811
      2          1           0        2.092659    1.594629   -0.006294
      3          6           0        0.617060    0.115267    0.000160
      4          1           0        0.099396   -1.163110   -0.092260
      5          6           0        1.640149   -0.986137   -0.013042
      6          6           0       -0.706400   -0.124016   -0.031048
      7          1           0        2.269134   -0.941807    0.886304
      8          1           0        1.153978   -1.961685   -0.042106
      9          1           0        2.304752   -0.897020   -0.884011
     10          8           0       -1.625063    0.942474   -0.115937
     11          1           0        0.466221    2.187683   -0.033957
     12          8           0       -1.273377   -1.403975    0.039946
     13          1           0       -2.251405    0.914723    0.639165
 ---------------------------------------------------------------------
 Rotational constants (GHZ):      4.9064350      3.3235117      2.0174546
 Leave Link  202 at Thu Apr 14 08:54:38 2016, MaxMem=    33554432 cpu:         0.0
 (Enter /usr/local/gau/g09/l301.exe)
 Standard basis: 6-31G (6D, 7F)
 Ernie: Thresh=  0.10000D-02 Tol=  0.10000D-05 Strict=F.
 There are    68 symmetry adapted cartesian basis functions of A   symmetry.
 There are    68 symmetry adapted basis functions of A   symmetry.
    68 basis functions,   160 primitive gaussians,    68 cartesian basis functions
    24 alpha electrons       24 beta electrons
       nuclear repulsion energy       248.0511517207 Hartrees.
 IExCor=  402 DFT=T Ex+Corr=B3LYP ExCW=0 ScaHFX=  0.200000
 ScaDFX=  0.800000  0.720000  1.000000  0.810000 ScalE2=  1.000000  1.000000
 IRadAn=      0 IRanWt=     -1 IRanGd=            0 ICorTp=0 IEmpDi=  4
 NAtoms=   13 NActive=   13 NUniq=   13 SFac= 1.00D+00 NAtFMM=   60 NAOKFM=F Big=F
 Integral buffers will be    131072 words long.
 Raffenetti 2 integral format.
 Two-electron integral symmetry is turned on.
 Leave Link  301 at Thu Apr 14 08:54:38 2016, MaxMem=    33554432 cpu:         0.0
 (Enter /usr/local/gau/g09/l302.exe)
 NPDir=0 NMtPBC=     1 NCelOv=     1 NCel=       1 NClECP=     1 NCelD=      1
         NCelK=      1 NCelE2=     1 NClLst=     1 CellRange=     0.0.
 One-electron integrals computed using PRISM.
 NBasis=    68 RedAO= T EigKep=  2.69D-03  NBF=    68
 NBsUse=    68 1.00D-06 EigRej= -1.00D+00 NBFU=    68
 Precomputing XC quadrature grid using
 IXCGrd= 4 IRadAn=           0 IRanWt=          -1 IRanGd=           0 AccXCQ= 0.00D+00.
 Generated NRdTot=       0 NPtTot=           0 NUsed=           0 NTot=          32
 NSgBfM=    68    68    68    68    68 MxSgAt=    13 MxSgA2=    13.
 Leave Link  302 at Thu Apr 14 08:54:38 2016, MaxMem=    33554432 cpu:         0.2
 (Enter /usr/local/gau/g09/l303.exe)
 DipDrv:  MaxL=1.
 Leave Link  303 at Thu Apr 14 08:54:38 2016, MaxMem=    33554432 cpu:         0.0
 (Enter /usr/local/gau/g09/l401.exe)
 ExpMin= 1.61D-01 ExpMax= 5.48D+03 ExpMxC= 8.25D+02 IAcc=1 IRadAn=         1 AccDes= 0.00D+00
 Harris functional with IExCor=  402 and IRadAn=       1 diagonalized for initial guess.
 HarFok:  IExCor=  402 AccDes= 0.00D+00 IRadAn=         1 IDoV= 1 UseB2=F ITyADJ=14
 ICtDFT=  3500011 ScaDFX=  1.000000  1.000000  1.000000  1.000000
 FoFCou: FMM=F IPFlag=           0 FMFlag=      100000 FMFlg1=           0
         NFxFlg=           0 DoJE=T BraDBF=F KetDBF=T FulRan=T
         wScrn=  0.000000 ICntrl=     500 IOpCl=  0 I1Cent=   200000004 NGrid=           0
         NMat0=    1 NMatS0=      1 NMatT0=    0 NMatD0=    1 NMtDS0=    0 NMtDT0=    0
 Petite list used in FoFCou.
 Harris En= -323.480800900647    
 JPrj=0 DoOrth=F DoCkMO=F.
 Leave Link  401 at Thu Apr 14 08:54:39 2016, MaxMem=    33554432 cpu:         0.4
 (Enter /usr/local/gau/g09/l502.exe)
 Closed shell SCF:
 Using DIIS extrapolation, IDIIS=  1040.
 Integral symmetry usage will be decided dynamically.
 Keep R1 ints in memory in canonical form, NReq=3676491.
 IVT=       33364 IEndB=       33364 NGot=    33554432 MDV=    30768038
 LenX=    30768038 LenY=    30762973
 Requested convergence on RMS density matrix=1.00D-08 within 128 cycles.
 Requested convergence on MAX density matrix=1.00D-06.
 Requested convergence on             energy=1.00D-06.
 No special actions if energy rises.
 FoFCou: FMM=F IPFlag=           0 FMFlag=           0 FMFlg1=           0
         NFxFlg=           0 DoJE=F BraDBF=F KetDBF=F FulRan=T
         wScrn=  0.000000 ICntrl=     600 IOpCl=  0 I1Cent=           0 NGrid=           0
         NMat0=    1 NMatS0=   2346 NMatT0=    0 NMatD0=    1 NMtDS0=    0 NMtDT0=    0
 Symmetry not used in FoFCou.
 Integral accuracy reduced to 1.0D-05 until final iterations.

 Cycle   1  Pass 0  IDiag  1:
 E= -323.246385928756    
 DIIS: error= 3.64D-02 at cycle   1 NSaved=   1.
 NSaved= 1 IEnMin= 1 EnMin= -323.246385928756     IErMin= 1 ErrMin= 3.64D-02
 ErrMax= 3.64D-02  0.00D+00 EMaxC= 1.00D-01 BMatC= 2.03D-01 BMatP= 2.03D-01
 IDIUse=3 WtCom= 6.36D-01 WtEn= 3.64D-01
 Coeff-Com:  0.100D+01
 Coeff-En:   0.100D+01
 Coeff:      0.100D+01
 Gap=     0.183 Goal=   None    Shift=    0.000
 GapD=    0.183 DampG=1.000 DampE=0.500 DampFc=0.5000 IDamp=-1.
 Damping current iteration by 5.00D-01
 RMSDP=1.90D-02 MaxDP=3.31D-01              OVMax= 1.95D-01

 Cycle   2  Pass 0  IDiag  1:
 E= -323.301499026948     Delta-E=       -0.055113098192 Rises=F Damp=T
 DIIS: error= 1.23D-02 at cycle   2 NSaved=   2.
 NSaved= 2 IEnMin= 2 EnMin= -323.301499026948     IErMin= 2 ErrMin= 1.23D-02
 ErrMax= 1.23D-02  0.00D+00 EMaxC= 1.00D-01 BMatC= 2.52D-02 BMatP= 2.03D-01
 IDIUse=3 WtCom= 8.77D-01 WtEn= 1.23D-01
 Coeff-Com:  0.213D+00 0.787D+00
 Coeff-En:   0.324D+00 0.676D+00
 Coeff:      0.227D+00 0.773D+00
 Gap=     0.222 Goal=   None    Shift=    0.000
 RMSDP=4.84D-03 MaxDP=8.77D-02 DE=-5.51D-02 OVMax= 1.47D-01

 Cycle   3  Pass 0  IDiag  1:
 E= -323.405558456044     Delta-E=       -0.104059429096 Rises=F Damp=F
 DIIS: error= 1.71D-02 at cycle   3 NSaved=   3.
 NSaved= 3 IEnMin= 3 EnMin= -323.405558456044     IErMin= 2 ErrMin= 1.23D-02
 ErrMax= 1.71D-02  0.00D+00 EMaxC= 1.00D-01 BMatC= 2.61D-02 BMatP= 2.52D-02
 IDIUse=3 WtCom= 8.29D-01 WtEn= 1.71D-01
 Coeff-Com:  0.105D+00 0.504D+00 0.390D+00
 Coeff-En:   0.000D+00 0.000D+00 0.100D+01
 Coeff:      0.875D-01 0.418D+00 0.494D+00
 Gap=     0.200 Goal=   None    Shift=    0.000
 RMSDP=4.19D-03 MaxDP=5.28D-02 DE=-1.04D-01 OVMax= 7.54D-02

 Cycle   4  Pass 0  IDiag  1:
 E= -323.420339488392     Delta-E=       -0.014781032348 Rises=F Damp=F
 DIIS: error= 1.56D-02 at cycle   4 NSaved=   4.
 NSaved= 4 IEnMin= 4 EnMin= -323.420339488392     IErMin= 2 ErrMin= 1.23D-02
 ErrMax= 1.56D-02  0.00D+00 EMaxC= 1.00D-01 BMatC= 1.03D-02 BMatP= 2.52D-02
 IDIUse=3 WtCom= 8.44D-01 WtEn= 1.56D-01
 Coeff-Com:  0.443D-01 0.174D+00 0.364D+00 0.417D+00
 Coeff-En:   0.000D+00 0.000D+00 0.323D+00 0.677D+00
 Coeff:      0.374D-01 0.147D+00 0.358D+00 0.458D+00
 Gap=     0.196 Goal=   None    Shift=    0.000
 RMSDP=2.04D-03 MaxDP=2.59D-02 DE=-1.48D-02 OVMax= 4.78D-02

 Cycle   5  Pass 0  IDiag  1:
 E= -323.428996067867     Delta-E=       -0.008656579474 Rises=F Damp=F
 DIIS: error= 3.84D-03 at cycle   5 NSaved=   5.
 NSaved= 5 IEnMin= 5 EnMin= -323.428996067867     IErMin= 5 ErrMin= 3.84D-03
 ErrMax= 3.84D-03  0.00D+00 EMaxC= 1.00D-01 BMatC= 4.65D-04 BMatP= 1.03D-02
 IDIUse=3 WtCom= 9.62D-01 WtEn= 3.84D-02
 Coeff-Com:  0.658D-02-0.324D-03 0.138D+00 0.287D+00 0.568D+00
 Coeff-En:   0.000D+00 0.000D+00 0.000D+00 0.183D-01 0.982D+00
 Coeff:      0.633D-02-0.312D-03 0.133D+00 0.277D+00 0.584D+00
 Gap=     0.196 Goal=   None    Shift=    0.000
 RMSDP=4.75D-04 MaxDP=8.05D-03 DE=-8.66D-03 OVMax= 1.33D-02

 Cycle   6  Pass 0  IDiag  1:
 E= -323.429469774005     Delta-E=       -0.000473706139 Rises=F Damp=F
 DIIS: error= 7.97D-04 at cycle   6 NSaved=   6.
 NSaved= 6 IEnMin= 6 EnMin= -323.429469774005     IErMin= 6 ErrMin= 7.97D-04
 ErrMax= 7.97D-04  0.00D+00 EMaxC= 1.00D-01 BMatC= 1.65D-05 BMatP= 4.65D-04
 IDIUse=3 WtCom= 9.92D-01 WtEn= 7.97D-03
 Coeff-Com:  0.176D-02-0.521D-02 0.504D-01 0.111D+00 0.290D+00 0.552D+00
 Coeff-En:   0.000D+00 0.000D+00 0.000D+00 0.000D+00 0.000D+00 0.100D+01
 Coeff:      0.174D-02-0.517D-02 0.500D-01 0.110D+00 0.288D+00 0.555D+00
 Gap=     0.195 Goal=   None    Shift=    0.000
 RMSDP=8.80D-05 MaxDP=1.51D-03 DE=-4.74D-04 OVMax= 2.78D-03

 Cycle   7  Pass 0  IDiag  1:
 E= -323.429484724684     Delta-E=       -0.000014950678 Rises=F Damp=F
 DIIS: error= 1.78D-04 at cycle   7 NSaved=   7.
 NSaved= 7 IEnMin= 7 EnMin= -323.429484724684     IErMin= 7 ErrMin= 1.78D-04
 ErrMax= 1.78D-04  0.00D+00 EMaxC= 1.00D-01 BMatC= 2.78D-06 BMatP= 1.65D-05
 IDIUse=3 WtCom= 9.98D-01 WtEn= 1.78D-03
 Coeff-Com: -0.155D-04-0.234D-02 0.343D-02 0.962D-02 0.639D-01 0.352D+00
 Coeff-Com:  0.573D+00
 Coeff-En:   0.000D+00 0.000D+00 0.000D+00 0.000D+00 0.000D+00 0.112D+00
 Coeff-En:   0.888D+00
 Coeff:     -0.155D-04-0.233D-02 0.342D-02 0.960D-02 0.638D-01 0.352D+00
 Coeff:      0.574D+00
 Gap=     0.195 Goal=   None    Shift=    0.000
 RMSDP=2.77D-05 MaxDP=3.48D-04 DE=-1.50D-05 OVMax= 4.05D-04

 Cycle   8  Pass 0  IDiag  1:
 E= -323.429487166278     Delta-E=       -0.000002441595 Rises=F Damp=F
 DIIS: error= 1.86D-05 at cycle   8 NSaved=   8.
 NSaved= 8 IEnMin= 8 EnMin= -323.429487166278     IErMin= 8 ErrMin= 1.86D-05
 ErrMax= 1.86D-05  0.00D+00 EMaxC= 1.00D-01 BMatC= 3.94D-08 BMatP= 2.78D-06
 IDIUse=1 WtCom= 1.00D+00 WtEn= 0.00D+00
 Coeff-Com: -0.495D-04-0.821D-03-0.246D-03 0.139D-03 0.177D-01 0.139D+00
 Coeff-Com:  0.244D+00 0.601D+00
 Coeff:     -0.495D-04-0.821D-03-0.246D-03 0.139D-03 0.177D-01 0.139D+00
 Coeff:      0.244D+00 0.601D+00
 Gap=     0.195 Goal=   None    Shift=    0.000
 RMSDP=3.79D-06 MaxDP=4.39D-05 DE=-2.44D-06 OVMax= 4.12D-05

 Initial convergence to 1.0D-05 achieved.  Increase integral accuracy.
 Cycle   9  Pass 1  IDiag  1:
 E= -323.429497209845     Delta-E=       -0.000010043566 Rises=F Damp=F
 DIIS: error= 7.45D-06 at cycle   1 NSaved=   1.
 NSaved= 1 IEnMin= 1 EnMin= -323.429497209845     IErMin= 1 ErrMin= 7.45D-06
 ErrMax= 7.45D-06  0.00D+00 EMaxC= 1.00D-01 BMatC= 1.08D-08 BMatP= 1.08D-08
 IDIUse=1 WtCom= 1.00D+00 WtEn= 0.00D+00
 Coeff-Com:  0.100D+01
 Coeff:      0.100D+01
 Gap=     0.195 Goal=   None    Shift=    0.000
 RMSDP=3.79D-06 MaxDP=4.39D-05 DE=-1.00D-05 OVMax= 4.76D-05

 Cycle  10  Pass 1  IDiag  1:
 E= -323.429497220853     Delta-E=       -0.000000011008 Rises=F Damp=F
 DIIS: error= 7.42D-06 at cycle   2 NSaved=   2.
 NSaved= 2 IEnMin= 2 EnMin= -323.429497220853     IErMin= 2 ErrMin= 7.42D-06
 ErrMax= 7.42D-06  0.00D+00 EMaxC= 1.00D-01 BMatC= 7.19D-09 BMatP= 1.08D-08
 IDIUse=1 WtCom= 1.00D+00 WtEn= 0.00D+00
 Coeff-Com:  0.432D+00 0.568D+00
 Coeff:      0.432D+00 0.568D+00
 Gap=     0.195 Goal=   None    Shift=    0.000
 RMSDP=1.85D-06 MaxDP=2.46D-05 DE=-1.10D-08 OVMax= 2.64D-05

 Cycle  11  Pass 1  IDiag  1:
 E= -323.429497225350     Delta-E=       -0.000000004497 Rises=F Damp=F
 DIIS: error= 6.34D-06 at cycle   3 NSaved=   3.
 NSaved= 3 IEnMin= 3 EnMin= -323.429497225350     IErMin= 3 ErrMin= 6.34D-06
 ErrMax= 6.34D-06  0.00D+00 EMaxC= 1.00D-01 BMatC= 2.37D-09 BMatP= 7.19D-09
 IDIUse=1 WtCom= 1.00D+00 WtEn= 0.00D+00
 Coeff-Com:  0.688D-01 0.353D+00 0.578D+00
 Coeff:      0.688D-01 0.353D+00 0.578D+00
 Gap=     0.195 Goal=   None    Shift=    0.000
 RMSDP=1.17D-06 MaxDP=1.47D-05 DE=-4.50D-09 OVMax= 2.01D-05

 Cycle  12  Pass 1  IDiag  1:
 E= -323.429497226541     Delta-E=       -0.000000001192 Rises=F Damp=F
 DIIS: error= 3.93D-06 at cycle   4 NSaved=   4.
 NSaved= 4 IEnMin= 4 EnMin= -323.429497226541     IErMin= 4 ErrMin= 3.93D-06
 ErrMax= 3.93D-06  0.00D+00 EMaxC= 1.00D-01 BMatC= 9.65D-10 BMatP= 2.37D-09
 IDIUse=1 WtCom= 1.00D+00 WtEn= 0.00D+00
 Coeff-Com: -0.184D-01 0.176D+00 0.435D+00 0.407D+00
 Coeff:     -0.184D-01 0.176D+00 0.435D+00 0.407D+00
 Gap=     0.195 Goal=   None    Shift=    0.000
 RMSDP=5.86D-07 MaxDP=8.06D-06 DE=-1.19D-09 OVMax= 1.05D-05

 Cycle  13  Pass 1  IDiag  1:
 E= -323.429497227351     Delta-E=       -0.000000000810 Rises=F Damp=F
 DIIS: error= 7.73D-07 at cycle   5 NSaved=   5.
 NSaved= 5 IEnMin= 5 EnMin= -323.429497227351     IErMin= 5 ErrMin= 7.73D-07
 ErrMax= 7.73D-07  0.00D+00 EMaxC= 1.00D-01 BMatC= 1.67D-11 BMatP= 9.65D-10
 IDIUse=1 WtCom= 1.00D+00 WtEn= 0.00D+00
 Coeff-Com: -0.116D-01 0.834D-01 0.215D+00 0.232D+00 0.481D+00
 Coeff:     -0.116D-01 0.834D-01 0.215D+00 0.232D+00 0.481D+00
 Gap=     0.195 Goal=   None    Shift=    0.000
 RMSDP=8.51D-08 MaxDP=1.26D-06 DE=-8.10D-10 OVMax= 2.51D-06

 Cycle  14  Pass 1  IDiag  1:
 E= -323.429497227367     Delta-E=       -0.000000000016 Rises=F Damp=F
 DIIS: error= 1.34D-07 at cycle   6 NSaved=   6.
 NSaved= 6 IEnMin= 6 EnMin= -323.429497227367     IErMin= 6 ErrMin= 1.34D-07
 ErrMax= 1.34D-07  0.00D+00 EMaxC= 1.00D-01 BMatC= 1.50D-12 BMatP= 1.67D-11
 IDIUse=1 WtCom= 1.00D+00 WtEn= 0.00D+00
 Coeff-Com: -0.305D-02 0.114D-01 0.343D-01 0.532D-01 0.260D+00 0.644D+00
 Coeff:     -0.305D-02 0.114D-01 0.343D-01 0.532D-01 0.260D+00 0.644D+00
 Gap=     0.195 Goal=   None    Shift=    0.000
 RMSDP=2.48D-08 MaxDP=3.44D-07 DE=-1.57D-11 OVMax= 4.85D-07

 Cycle  15  Pass 1  IDiag  1:
 E= -323.429497227370     Delta-E=       -0.000000000003 Rises=F Damp=F
 DIIS: error= 3.23D-08 at cycle   7 NSaved=   7.
 NSaved= 7 IEnMin= 7 EnMin= -323.429497227370     IErMin= 7 ErrMin= 3.23D-08
 ErrMax= 3.23D-08  0.00D+00 EMaxC= 1.00D-01 BMatC= 1.53D-13 BMatP= 1.50D-12
 IDIUse=1 WtCom= 1.00D+00 WtEn= 0.00D+00
 Coeff-Com: -0.335D-03-0.214D-02-0.253D-02 0.453D-02 0.946D-01 0.318D+00
 Coeff-Com:  0.588D+00
 Coeff:     -0.335D-03-0.214D-02-0.253D-02 0.453D-02 0.946D-01 0.318D+00
 Coeff:      0.588D+00
 Gap=     0.195 Goal=   None    Shift=    0.000
 RMSDP=1.06D-08 MaxDP=1.62D-07 DE=-3.41D-12 OVMax= 2.58D-07

 Cycle  16  Pass 1  IDiag  1:
 E= -323.429497227371     Delta-E=       -0.000000000001 Rises=F Damp=F
 DIIS: error= 2.15D-08 at cycle   8 NSaved=   8.
 NSaved= 8 IEnMin= 8 EnMin= -323.429497227371     IErMin= 8 ErrMin= 2.15D-08
 ErrMax= 2.15D-08  0.00D+00 EMaxC= 1.00D-01 BMatC= 2.00D-14 BMatP= 1.53D-13
 IDIUse=1 WtCom= 1.00D+00 WtEn= 0.00D+00
 Coeff-Com:  0.236D-03-0.240D-02-0.512D-02-0.594D-02 0.901D-02 0.303D-01
 Coeff-Com:  0.258D+00 0.716D+00
 Coeff:      0.236D-03-0.240D-02-0.512D-02-0.594D-02 0.901D-02 0.303D-01
 Coeff:      0.258D+00 0.716D+00
 Gap=     0.195 Goal=   None    Shift=    0.000
 RMSDP=4.02D-09 MaxDP=5.18D-08 DE=-9.09D-13 OVMax= 8.07D-08

 SCF Done:  E(RB3LYP) =  -323.429497227     A.U. after   16 cycles
            NFock= 16  Conv=0.40D-08     -V/T= 2.0047
 KE= 3.219249433029D+02 PE=-1.253649780752D+03 EE= 3.602441885005D+02
 Leave Link  502 at Thu Apr 14 08:55:04 2016, MaxMem=    33554432 cpu:        12.1
 (Enter /usr/local/gau/g09/l801.exe)
 DoSCS=F DFT=T ScalE2(SS,OS)=  1.000000  1.000000
 Range of M.O.s used for correlation:     1    68
 NBasis=    68 NAE=    24 NBE=    24 NFC=     0 NFV=     0
 NROrb=     68 NOA=    24 NOB=    24 NVA=    44 NVB=    44
 Leave Link  801 at Thu Apr 14 08:55:04 2016, MaxMem=    33554432 cpu:         0.0
 (Enter /usr/local/gau/g09/l1101.exe)
 Using compressed storage, NAtomX=    13.
 Will process     14 centers per pass.
 Leave Link 1101 at Thu Apr 14 08:55:04 2016, MaxMem=    33554432 cpu:         0.1
 (Enter /usr/local/gau/g09/l1102.exe)
 Symmetrizing basis deriv contribution to polar:
 IMax=3 JMax=2 DiffMx= 0.00D+00
 Leave Link 1102 at Thu Apr 14 08:55:04 2016, MaxMem=    33554432 cpu:         0.0
 (Enter /usr/local/gau/g09/l1110.exe)
 Forming Gx(P) for the SCF density, NAtomX=    13.
 Integral derivatives from FoFJK, PRISM(SPDF).
 Do as many integral derivatives as possible in FoFJK.
 G2DrvN: MDV=      33554224.
 G2DrvN: will do    14 centers at a time, making    1 passes.
 Calling FoFCou, ICntrl=  3107 FMM=F I1Cent=   0 AccDes= 0.00D+00.
 FoFJK:  IHMeth= 1 ICntrl=    3107 DoSepK=F KAlg= 0 I1Cent=   0 FoldK=F
 IRaf=         0 NMat=   1 IRICut=       1 DoRegI=T DoRafI=F ISym2E= 0.
 FoFCou: FMM=F IPFlag=           0 FMFlag=      100000 FMFlg1=           0
         NFxFlg=           0 DoJE=F BraDBF=F KetDBF=F FulRan=T
         wScrn=  0.000000 ICntrl=    3107 IOpCl=  0 I1Cent=           0 NGrid=           0
         NMat0=    1 NMatS0=      1 NMatT0=    0 NMatD0=    1 NMtDS0=    0 NMtDT0=    0
 Symmetry not used in FoFCou.
 End of G2Drv F.D. properties file   721 does not exist.
 End of G2Drv F.D. properties file   722 does not exist.
 End of G2Drv F.D. properties file   788 does not exist.
 Leave Link 1110 at Thu Apr 14 08:55:52 2016, MaxMem=    33554432 cpu:        23.9
 (Enter /usr/local/gau/g09/l1002.exe)
 Minotr:  Closed shell wavefunction.
          IDoAtm=1111111111111
          Direct CPHF calculation.
          Differentiating once with respect to nuclear coordinates.
          Requested convergence is 1.0D-08 RMS, and 1.0D-07 maximum.
          Secondary convergence is 1.0D-12 RMS, and 1.0D-12 maximum.
          NewPWx=T KeepS1=F KeepF1=F KeepIn=T MapXYZ=F SortEE=F KeepMc=T.
          MDV=      33554230 using IRadAn=       2.
 Generate precomputed XC quadrature information.
 Keep R1 ints in memory in canonical form, NReq=3645297.
 FoFCou: FMM=F IPFlag=           0 FMFlag=           0 FMFlg1=           0
         NFxFlg=           0 DoJE=F BraDBF=F KetDBF=F FulRan=T
         wScrn=  0.000000 ICntrl=     600 IOpCl=  0 I1Cent=           0 NGrid=           0
         NMat0=    1 NMatS0=   2346 NMatT0=    0 NMatD0=    1 NMtDS0=    0 NMtDT0=    0
 Symmetry not used in FoFCou.
          Solving linear equations simultaneously, MaxMat=       0.
          There are    42 degrees of freedom in the 1st order CPHF.  IDoFFX=6 NUNeed=     0.
     36 vectors produced by pass  0 Test12= 2.51D-15 2.38D-09 XBig12= 1.60D-01 1.40D-01.
 AX will form    36 AO Fock derivatives at one time.
     36 vectors produced by pass  1 Test12= 2.51D-15 2.38D-09 XBig12= 2.99D-02 3.54D-02.
     36 vectors produced by pass  2 Test12= 2.51D-15 2.38D-09 XBig12= 1.83D-04 2.25D-03.
     36 vectors produced by pass  3 Test12= 2.51D-15 2.38D-09 XBig12= 2.54D-07 7.33D-05.
     36 vectors produced by pass  4 Test12= 2.51D-15 2.38D-09 XBig12= 2.04D-10 2.18D-06.
     18 vectors produced by pass  5 Test12= 2.51D-15 2.38D-09 XBig12= 1.05D-13 5.31D-08.
 InvSVY:  IOpt=1 It=  1 EMax= 1.11D-15
 Solved reduced A of dimension   198 with    36 vectors.
 End of Minotr F.D. properties file   721 does not exist.
 End of Minotr F.D. properties file   722 does not exist.
 End of Minotr F.D. properties file   788 does not exist.
 Leave Link 1002 at Thu Apr 14 08:56:26 2016, MaxMem=    33554432 cpu:        16.3
 (Enter /usr/local/gau/g09/l601.exe)
 Copying SCF densities to generalized density rwf, IOpCl= 0 IROHF=0.

 **********************************************************************

            Population analysis using the SCF density.

 **********************************************************************

 Orbital symmetries:
       Occupied  (A) (A) (A) (A) (A) (A) (A) (A) (A) (A) (A) (A)
                 (A) (A) (A) (A) (A) (A) (A) (A) (A) (A) (A) (A)
       Virtual   (A) (A) (A) (A) (A) (A) (A) (A) (A) (A) (A) (A)
                 (A) (A) (A) (A) (A) (A) (A) (A) (A) (A) (A) (A)
                 (A) (A) (A) (A) (A) (A) (A) (A) (A) (A) (A) (A)
                 (A) (A) (A) (A) (A) (A) (A) (A)
 The electronic state is 1-A.
 Alpha  occ. eigenvalues --  -19.15733 -19.13166 -14.32688 -10.27823 -10.23326
 Alpha  occ. eigenvalues --  -10.23021  -1.05948  -0.98951  -0.91452  -0.81841
 Alpha  occ. eigenvalues --   -0.71783  -0.58251  -0.56956  -0.52339  -0.47186
 Alpha  occ. eigenvalues --   -0.46146  -0.43661  -0.42735  -0.39830  -0.34570
 Alpha  occ. eigenvalues --   -0.30808  -0.29586  -0.28006  -0.16729
 Alpha virt. eigenvalues --    0.02812   0.04837   0.06613   0.09250   0.12370
 Alpha virt. eigenvalues --    0.13457   0.14684   0.15384   0.20052   0.22599
 Alpha virt. eigenvalues --    0.30417   0.37573   0.44931   0.50627   0.53635
 Alpha virt. eigenvalues --    0.57814   0.62003   0.62094   0.62288   0.67664
 Alpha virt. eigenvalues --    0.72507   0.76267   0.77921   0.80690   0.83405
 Alpha virt. eigenvalues --    0.84916   0.87052   0.89131   0.91773   0.92585
 Alpha virt. eigenvalues --    0.93100   0.95870   1.00052   1.05362   1.08415
 Alpha virt. eigenvalues --    1.11912   1.15245   1.22227   1.27797   1.37133
 Alpha virt. eigenvalues --    1.52322   1.58164   1.84869   1.99354
          Condensed to atoms (all electrons):
               1          2          3          4          5          6
     1  N    6.999064   0.327796   0.189480   0.006644  -0.054286  -0.019570
     2  H    0.327796   0.420118  -0.025880  -0.000527  -0.005287   0.004591
     3  C    0.189480  -0.025880   5.682535  -0.201390   0.384611   0.276344
     4  H    0.006644  -0.000527  -0.201390   0.708690  -0.027703  -0.035455
     5  C   -0.054286  -0.005287   0.384611  -0.027703   5.343730  -0.148375
     6  C   -0.019570   0.004591   0.276344  -0.035455  -0.148375   5.133402
     7  H    0.001762   0.000293  -0.045061  -0.002079   0.347267   0.005738
     8  H    0.003461   0.000029  -0.049690   0.035282   0.348039  -0.012729
     9  H    0.000648   0.001678  -0.043083  -0.002254   0.346416   0.001858
    10  O   -0.001439   0.000296  -0.131355   0.022433   0.000892   0.239669
    11  H    0.332070  -0.024457  -0.030478  -0.000533   0.004453  -0.006666
    12  O    0.002779  -0.000048  -0.153638   0.184338  -0.027616   0.247696
    13  H    0.000748  -0.000006   0.003010  -0.000978  -0.000217  -0.035058
               7          8          9         10         11         12
     1  N    0.001762   0.003461   0.000648  -0.001439   0.332070   0.002779
     2  H    0.000293   0.000029   0.001678   0.000296  -0.024457  -0.000048
     3  C   -0.045061  -0.049690  -0.043083  -0.131355  -0.030478  -0.153638
     4  H   -0.002079   0.035282  -0.002254   0.022433  -0.000533   0.184338
     5  C    0.347267   0.348039   0.346416   0.000892   0.004453  -0.027616
     6  C    0.005738  -0.012729   0.001858   0.239669  -0.006666   0.247696
     7  H    0.554710  -0.018209  -0.043023   0.000035  -0.000060   0.000775
     8  H   -0.018209   0.473298  -0.016395  -0.000015  -0.000175  -0.003727
     9  H   -0.043023  -0.016395   0.560461  -0.000007  -0.000073   0.000803
    10  O    0.000035  -0.000015  -0.000007   8.308744   0.014199  -0.078858
    11  H   -0.000060  -0.000175  -0.000073   0.014199   0.383338   0.000204
    12  O    0.000775  -0.003727   0.000803  -0.078858   0.000204   8.354741
    13  H    0.000036  -0.000006  -0.000014   0.237534  -0.000748   0.003939
              13
     1  N    0.000748
     2  H   -0.000006
     3  C    0.003010
     4  H   -0.000978
     5  C   -0.000217
     6  C   -0.035058
     7  H    0.000036
     8  H   -0.000006
     9  H   -0.000014
    10  O    0.237534
    11  H   -0.000748
    12  O    0.003939
    13  H    0.415811
 Mulliken charges:
               1
     1  N   -0.789157
     2  H    0.301405
     3  C    0.144595
     4  H    0.313531
     5  C   -0.511926
     6  C    0.348557
     7  H    0.197815
     8  H    0.240838
     9  H    0.192986
    10  O   -0.612130
    11  H    0.328926
    12  O   -0.531389
    13  H    0.375949
 Sum of Mulliken charges =   0.00000
 Mulliken charges with hydrogens summed into heavy atoms:
               1
     1  N   -0.158826
     3  C    0.144595
     5  C    0.119712
     6  C    0.662088
    10  O   -0.236181
    12  O   -0.531389
 APT charges:
               1
     1  N   -1.325119
     2  H    0.700395
     3  C    0.192848
     4  H    0.162263
     5  C   -1.226937
     6  C    0.083352
     7  H    0.466389
     8  H    0.394390
     9  H    0.466890
    10  O   -0.778455
    11  H    0.547297
    12  O   -0.342536
    13  H    0.659222
 Sum of APT charges =   0.00000
 APT charges with hydrogens summed into heavy atoms:
               1
     1  N   -0.077427
     3  C    0.192848
     5  C    0.100733
     6  C    0.245614
    10  O   -0.119233
    12  O   -0.342536
 Electronic spatial extent (au):  <R**2>=            598.8911
 Charge=              0.0000 electrons
 Dipole moment (field-independent basis, Debye):
    X=              3.9720    Y=              1.2333    Z=              1.0163  Tot=              4.2815
 Quadrupole moment (field-independent basis, Debye-Ang):
   XX=            -31.5740   YY=            -36.1930   ZZ=            -37.8416
   XY=             -4.5577   XZ=             -4.0857   YZ=              1.2749
 Traceless Quadrupole moment (field-independent basis, Debye-Ang):
   XX=              3.6288   YY=             -0.9901   ZZ=             -2.6387
   XY=             -4.5577   XZ=             -4.0857   YZ=              1.2749
 Octapole moment (field-independent basis, Debye-Ang**2):
  XXX=              1.0028  YYY=             14.9620  ZZZ=              0.7360  XYY=             10.6203
  XXY=             10.8189  XXZ=              7.9209  XZZ=             -3.9056  YZZ=             -0.1481
  YYZ=              0.2199  XYZ=             -4.4807
 Hexadecapole moment (field-independent basis, Debye-Ang**3):
 XXXX=           -344.5823 YYYY=           -259.0466 ZZZZ=            -42.7168 XXXY=             -4.8463
 XXXZ=            -20.1541 YYYX=             -2.6424 YYYZ=              0.1159 ZZZX=             -3.0273
 ZZZY=              0.1444 XXYY=           -112.0515 XXZZ=            -70.1139 YYZZ=            -57.7202
 XXYZ=              6.9677 YYXZ=             -4.8790 ZZXY=             -4.6402
 N-N= 2.480511517207D+02 E-N=-1.253649780725D+03  KE= 3.219249433029D+02
  Exact polarizability:   0.000   0.000   0.000   0.000   0.000   0.000
 Approx polarizability: 116.733  16.107  70.907  -2.379  -0.881  32.156
 No NMR shielding tensors so no spin-rotation constants.
 Leave Link  601 at Thu Apr 14 08:56:26 2016, MaxMem=    33554432 cpu:         0.1
 (Enter /usr/local/gau/g09/l701.exe)
 Compute integral second derivatives.
 ... and contract with generalized density number  0.
 Leave Link  701 at Thu Apr 14 08:56:26 2016, MaxMem=    33554432 cpu:         0.1
 (Enter /usr/local/gau/g09/l702.exe)
 L702 exits ... SP integral derivatives will be done elsewhere.
 Leave Link  702 at Thu Apr 14 08:56:26 2016, MaxMem=    33554432 cpu:         0.0
 (Enter /usr/local/gau/g09/l703.exe)
 Compute integral second derivatives, UseDBF=F ICtDFT=           0.
 Integral derivatives from FoFJK, PRISM(SPDF).
 Calling FoFJK, ICntrl=    100147 FMM=F ISym2X=0 I1Cent= 0 IOpClX= 0 NMat=1 NMatS=1 NMatT=0.
 FoFJK:  IHMeth= 1 ICntrl=  100147 DoSepK=F KAlg= 0 I1Cent=   0 FoldK=F
 IRaf=         0 NMat=   1 IRICut=       1 DoRegI=T DoRafI=F ISym2E= 0.
 FoFCou: FMM=F IPFlag=           0 FMFlag=      100000 FMFlg1=         800
         NFxFlg=           0 DoJE=F BraDBF=F KetDBF=F FulRan=T
         wScrn=  0.000000 ICntrl=  100147 IOpCl=  0 I1Cent=           0 NGrid=           0
         NMat0=    1 NMatS0=      1 NMatT0=    0 NMatD0=    1 NMtDS0=    0 NMtDT0=    0
 Symmetry not used in FoFCou.
 Leave Link  703 at Thu Apr 14 08:57:15 2016, MaxMem=    33554432 cpu:        24.4
 (Enter /usr/local/gau/g09/l716.exe)
 Dipole        = 1.56271542D+00 4.85222992D-01 3.99837914D-01
 Polarizability= 0.00000000D+00 0.00000000D+00 0.00000000D+00
                 0.00000000D+00 0.00000000D+00 0.00000000D+00
 ***** Axes restored to original set *****
 -------------------------------------------------------------------
 Center     Atomic                   Forces (Hartrees/Bohr)
 Number     Number              X              Y              Z
 -------------------------------------------------------------------
      1        7           0.010815501    0.007091637   -0.000525599
      2        1          -0.000083884    0.000719012   -0.001506956
      3        6           0.018846133    0.054659742    0.002724446
      4        1          -0.064966595   -0.086896794   -0.000660702
      5        6           0.022818213   -0.000032240    0.001080876
      6        6          -0.065544239    0.039842179    0.008780581
      7        1          -0.004377135   -0.001611405    0.001632794
      8        1           0.009756499   -0.016986289    0.000133413
      9        1          -0.004694465   -0.001788821   -0.001233495
     10        8           0.013368663    0.003508263    0.000225102
     11        1          -0.001178934   -0.001785099   -0.000372416
     12        8           0.066056480    0.007352982   -0.008225466
     13        1          -0.000816237   -0.004073166   -0.002052578
 -------------------------------------------------------------------
 Cartesian Forces:  Max     0.086896794 RMS     0.026269085
 Force constants in Cartesian coordinates: 
                1             2             3             4             5 
      1  0.868276D+00
      2 -0.354047D-01  0.756928D+00
      3 -0.131558D-01 -0.455390D-01  0.874909D-02
      4 -0.472561D+00 -0.258987D-01  0.314622D-01  0.489509D+00
      5 -0.225840D-01 -0.737044D-01  0.520354D-02  0.306975D-01  0.719726D-01
      6  0.442045D-01  0.540458D-02  0.359380D-02 -0.365293D-01 -0.440148D-02
      7 -0.165101D+00 -0.940741D-01  0.431013D-02 -0.974754D-02 -0.369269D-01
      8 -0.981571D-01 -0.291923D+00  0.775224D-02  0.500175D-02 -0.462865D-02
      9 -0.197911D-02 -0.102530D-02 -0.145850D-01  0.128250D-02  0.279117D-02
     10 -0.181780D-01 -0.919137D-02 -0.166193D-02  0.184898D-03 -0.175134D-02
     11  0.127523D-02 -0.433246D-02  0.138818D-02 -0.510947D-03  0.254876D-02
     12 -0.119795D-02 -0.251857D-02 -0.109589D-01  0.308701D-03  0.475020D-03
     13  0.123589D-01 -0.141119D-01  0.102591D-02  0.127698D-02 -0.570228D-03
     14  0.285244D-01 -0.375909D-01 -0.133323D-03  0.115640D-02  0.249909D-02
     15  0.558974D-03  0.106934D-02  0.469247D-02 -0.272247D-03  0.479742D-05
     16 -0.210788D-01 -0.214773D-02 -0.797305D-03  0.208407D-03  0.501211D-03
     17 -0.518143D-01 -0.848004D-02 -0.130653D-02 -0.282256D-03 -0.733461D-02
     18 -0.240590D-02 -0.473294D-02  0.114106D-01  0.638872D-03  0.182472D-03
     19  0.242576D-02 -0.624365D-03  0.247257D-02  0.358648D-03  0.398129D-03
     20 -0.101369D-02  0.273990D-02 -0.179766D-02 -0.424185D-03 -0.623373D-03
     21  0.702679D-03  0.465653D-03 -0.395402D-03 -0.804610D-04  0.694195D-03
     22 -0.435311D-02  0.237394D-02 -0.502871D-04 -0.157385D-03  0.463932D-03
     23  0.674840D-02 -0.100130D-02  0.477527D-03  0.305438D-03  0.450558D-03
     24  0.239599D-03  0.380477D-04  0.124321D-02 -0.988313D-04 -0.176895D-05
     25  0.227286D-02 -0.936726D-03 -0.218322D-02  0.425984D-03  0.596018D-03
     26 -0.400894D-03  0.304059D-02  0.153747D-02 -0.830965D-03 -0.606790D-03
     27 -0.680459D-03 -0.534298D-03 -0.223381D-03  0.115611D-03 -0.809898D-03
     28  0.141209D-03 -0.354038D-02 -0.504438D-03  0.163688D-03  0.133385D-02
     29 -0.202410D-03  0.838810D-02  0.283243D-02 -0.101196D-02  0.120564D-02
     30  0.531894D-03 -0.202803D-02 -0.331423D-02  0.329054D-03  0.428024D-03
     31 -0.199082D+00  0.185754D+00 -0.199865D-01 -0.105060D-01  0.293705D-01
     32  0.183495D+00 -0.340242D+00  0.328697D-01 -0.910761D-02  0.839842D-02
     33 -0.275457D-01  0.462559D-01 -0.819879D-02  0.342422D-02 -0.412765D-02
     34 -0.526878D-02 -0.337276D-02 -0.619898D-03  0.961077D-03 -0.147401D-02
     35 -0.961067D-02 -0.139587D-01 -0.162015D-02  0.105082D-02 -0.246590D-03
     36  0.696007D-03  0.188224D-02  0.858633D-02 -0.401992D-03 -0.338929D-03
     37  0.147431D-03  0.117452D-02 -0.311488D-03 -0.116605D-03 -0.546011D-04
     38 -0.855154D-03  0.135986D-03 -0.166441D-02 -0.145267D-03  0.693250D-04
     39  0.312984D-04  0.126232D-02 -0.599810D-03 -0.178343D-03 -0.994975D-04
                6             7             8             9            10 
      6  0.125100D-02
      7 -0.118470D-02  0.844705D+00
      8 -0.223984D-02  0.957745D-01  0.681878D+00
      9 -0.491541D-02 -0.796531D-02 -0.454886D-02  0.766482D-01
     10  0.280645D-03  0.248845D-01 -0.407566D-01  0.341475D-02 -0.204043D-01
     11  0.605271D-03 -0.431661D-01 -0.388106D-01 -0.776807D-02 -0.687649D-01
     12 -0.165364D-02  0.354716D-02 -0.308636D-02  0.331837D-01  0.266163D-02
     13  0.221949D-04 -0.131671D+00  0.680838D-01 -0.234835D-02 -0.209719D-01
     14  0.419323D-03  0.322399D-01 -0.170937D+00 -0.643413D-03  0.534230D-02
     15  0.323126D-02 -0.651743D-03  0.187611D-03 -0.646844D-01  0.361185D-03
     16 -0.139111D-02 -0.508720D+00 -0.593475D-01  0.197801D-02  0.249271D-01
     17 -0.100207D-02 -0.504570D-02 -0.108022D+00  0.490724D-02  0.131719D+00
     18 -0.179982D-02  0.810205D-02  0.739800D-02 -0.363292D-01 -0.352989D-02
     19 -0.306468D-03 -0.220219D-01  0.509196D-02 -0.162948D-01  0.595005D-02
     20  0.864409D-03  0.252802D-01 -0.142679D-02  0.234339D-01  0.154920D-02
     21 -0.593918D-03 -0.631908D-03  0.866930D-03  0.687360D-02 -0.350684D-02
     22 -0.186928D-03  0.194217D-01  0.234051D-01  0.768716D-03 -0.320164D-02
     23  0.396610D-04 -0.196430D-01 -0.261782D-01 -0.128475D-02  0.215038D-01
     24 -0.735008D-03  0.278153D-03  0.371122D-03 -0.395240D-02 -0.672048D-03
     25  0.290969D-03 -0.217764D-01  0.484639D-02  0.152404D-01  0.579053D-02
     26 -0.595502D-03  0.260190D-01 -0.137142D-02 -0.230009D-01  0.138869D-02
     27 -0.482142D-03  0.885574D-03 -0.107043D-02  0.613071D-02  0.279609D-02
     28 -0.653915D-03 -0.276410D-01  0.457691D-01 -0.277308D-02 -0.636813D-02
     29 -0.371758D-03  0.575920D-02 -0.183745D-01 -0.227136D-04 -0.559349D-02
     30 -0.377639D-03  0.152483D-02  0.125877D-03  0.579799D-02 -0.241961D-02
     31 -0.497235D-02  0.112712D-01 -0.166663D-01  0.189951D-02  0.157088D-02
     32  0.534448D-04  0.168764D-01 -0.233811D-01  0.300162D-02  0.245252D-02
     33 -0.553489D-03 -0.116084D-02 -0.495764D-02 -0.173670D-02  0.934293D-03
     34  0.940316D-04 -0.135936D-01 -0.348399D-01  0.512060D-02  0.496288D-02
     35  0.109696D-02 -0.184010D-02  0.720791D-02  0.412441D-02 -0.404844D-01
     36  0.317128D-02 -0.358810D-02 -0.113492D-02 -0.165186D-02 -0.125064D-02
     37  0.332436D-03 -0.990040D-05  0.179481D-02  0.165615D-02  0.853162D-03
     38  0.126995D-03 -0.125331D-02 -0.403233D-02  0.356792D-04  0.258635D-02
     39 -0.136265D-03 -0.346530D-02  0.336265D-03 -0.779216D-03  0.259235D-02
               11            12            13            14            15 
     11  0.782189D-01
     12  0.244132D-01 -0.621240D-01
     13 -0.113716D-01 -0.107159D-02  0.561347D+00
     14  0.335165D-01  0.545604D-03  0.568457D-01  0.508005D+00
     15 -0.243591D-02  0.941766D-02  0.569123D-03 -0.143769D-02  0.529207D+00
     16  0.669096D-01  0.599383D-02 -0.380874D-01  0.680435D-02 -0.133422D-02
     17 -0.234857D-01 -0.203905D-01  0.240318D-01  0.859887D-02  0.315855D-02
     18 -0.119112D-01  0.468212D-01  0.148957D-02 -0.145417D-03 -0.971620D-02
     19 -0.769008D-03  0.104235D-02 -0.131825D+00 -0.600990D-02 -0.119719D+00
     20 -0.474294D-02 -0.630596D-03 -0.488888D-02 -0.454642D-01 -0.145052D-02
     21  0.996865D-03  0.166323D-02 -0.118246D+00 -0.325885D-02 -0.222064D+00
     22  0.262897D-02 -0.167394D-02 -0.118653D+00 -0.111241D+00 -0.372694D-03
     23 -0.141439D-01  0.119602D-02 -0.119312D+00 -0.247449D+00 -0.846632D-03
     24  0.128618D-03  0.643322D-02 -0.110207D-04  0.124208D-03 -0.406379D-01
     25 -0.581620D-03  0.101139D-03 -0.133446D+00 -0.761224D-02  0.118840D+00
     26 -0.466933D-02  0.557842D-03 -0.632887D-02 -0.465807D-01  0.280280D-02
     27 -0.791365D-03  0.160085D-02  0.118398D+00  0.561780D-02 -0.218625D+00
     28 -0.416635D-02  0.127888D-02  0.117200D-02 -0.403335D-02  0.194336D-02
     29 -0.113632D-01  0.299468D-02 -0.123404D-02  0.264057D-02 -0.285891D-02
     30  0.684801D-02 -0.737263D-02  0.288750D-02  0.412351D-03  0.128640D-01
     31  0.118132D-02  0.915704D-04 -0.165994D-02 -0.403764D-02  0.176682D-03
     32  0.426603D-03  0.603488D-03 -0.375235D-02 -0.342941D-02  0.769731D-05
     33 -0.634967D-04  0.810406D-04 -0.287801D-03 -0.945586D-03 -0.888296D-05
     34  0.581238D-01 -0.111962D-01  0.137941D-02  0.218117D-02  0.217804D-02
     35 -0.170473D-01 -0.241366D-02  0.129180D-01 -0.419027D-02 -0.434048D-03
     36 -0.107101D-01 -0.172909D-01 -0.405040D-03 -0.491172D-03 -0.411396D-02
     37 -0.788291D-03  0.114431D-03 -0.121920D-02 -0.159646D-03 -0.227718D-02
     38  0.388461D-02 -0.174612D-02 -0.309114D-03  0.382181D-03  0.223292D-02
     39 -0.699987D-03  0.199117D-03 -0.202266D-02 -0.638337D-04  0.437916D-03
               16            17            18            19            20 
     16  0.808622D+00
     17 -0.384430D-01  0.527345D+00
     18 -0.283777D-01 -0.570116D-02  0.744989D-01
     19  0.165240D-02  0.244556D-02 -0.319811D-02  0.144339D+00
     20 -0.215311D-02 -0.474123D-02  0.240500D-02 -0.230475D-02  0.504634D-01
     21  0.331452D-02 -0.257288D-03 -0.100941D-02  0.131651D+00  0.205376D-02
     22  0.758549D-03 -0.613287D-02  0.385359D-03 -0.938402D-02 -0.173034D-01
     23 -0.636023D-02 -0.388732D-02  0.875057D-03  0.915331D-03  0.886712D-03
     24 -0.529211D-04 -0.627387D-03 -0.125881D-04 -0.135066D-01 -0.245508D-01
     25  0.195759D-02  0.109221D-02  0.349932D-02  0.110390D-01  0.435323D-03
     26 -0.266073D-02 -0.508428D-02 -0.203303D-02  0.171049D-03  0.111121D-02
     27 -0.311535D-02  0.107070D-03 -0.684005D-03  0.164176D-01  0.165779D-02
     28 -0.138268D+00  0.836947D-01 -0.482256D-02 -0.735349D-03  0.718691D-03
     29  0.614869D-01 -0.157783D+00  0.295767D-01  0.797235D-03  0.333508D-04
     30  0.265024D-01 -0.109246D-01 -0.546206D-01  0.156008D-02 -0.232834D-02
     31  0.309479D-02 -0.523534D-02 -0.880183D-03 -0.184843D-03  0.194990D-03
     32  0.169068D-02 -0.279374D-02  0.199611D-04 -0.211464D-03  0.217835D-03
     33 -0.225316D-03  0.985218D-03  0.377212D-02  0.106629D-03 -0.172771D-03
     34 -0.110416D+00 -0.142118D+00  0.105324D-01 -0.138636D-02 -0.675771D-03
     35 -0.625448D-01 -0.204549D+00  0.108095D-01 -0.679407D-04  0.196480D-02
     36  0.418880D-02  0.217578D-01 -0.364105D-01 -0.436805D-04  0.631741D-03
     37 -0.246502D-01  0.608789D-02  0.185668D-01 -0.227357D-03  0.585382D-03
     38  0.362644D-01 -0.978280D-02 -0.267430D-01  0.168161D-03 -0.418729D-03
     39 -0.668360D-02  0.929362D-02  0.407946D-02 -0.181444D-03 -0.115898D-03
               21            22            23            24            25 
     21  0.239309D+00
     22  0.196261D-02  0.132800D+00
     23  0.972589D-03  0.119289D+00  0.283349D+00
     24 -0.263472D-04  0.820800D-03 -0.246982D-03  0.368544D-01
     25 -0.158968D-01 -0.940601D-02  0.107557D-02  0.130037D-01  0.146744D+00
     26 -0.127171D-02 -0.171662D-01  0.102125D-02  0.243414D-01 -0.554587D-03
     27 -0.234080D-01 -0.229996D-02 -0.919066D-03  0.186985D-03 -0.131519D+00
     28 -0.167507D-03  0.614293D-03  0.657048D-03 -0.639151D-04 -0.135049D-02
     29  0.393266D-03  0.628330D-03  0.125412D-02  0.101489D-03  0.181762D-02
     30 -0.584709D-03 -0.578293D-03  0.487622D-03  0.112070D-03 -0.141494D-02
     31  0.532012D-04  0.103859D-02 -0.104082D-02 -0.426936D-04 -0.183943D-03
     32  0.675931D-04  0.972866D-03 -0.912124D-03  0.166175D-04 -0.120406D-03
     33  0.205890D-03  0.205487D-03 -0.265324D-03  0.932446D-03 -0.841025D-04
     34  0.599991D-03 -0.956561D-02 -0.400511D-02  0.308902D-04 -0.245977D-02
     35 -0.161880D-02  0.241383D-02  0.698639D-02  0.333545D-03  0.299812D-03
     36 -0.918185D-04  0.954905D-03 -0.989747D-05 -0.424633D-03  0.273900D-03
     37  0.244971D-03  0.878230D-04 -0.133002D-03  0.748815D-04  0.393420D-03
     38 -0.104200D-03 -0.331865D-03 -0.376431D-03 -0.280385D-04 -0.357369D-03
     39  0.122115D-03  0.642252D-04 -0.475820D-03  0.265995D-04 -0.151953D-03
               26            27            28            29            30 
     26  0.513802D-01
     27 -0.423089D-02  0.235495D+00
     28  0.194945D-02  0.206536D-03  0.333221D+00
     29 -0.699959D-03 -0.389566D-03 -0.123259D+00  0.248452D+00
     30  0.209338D-02 -0.988841D-04 -0.224259D+00 -0.154277D-01  0.319625D+00
     31  0.267632D-03 -0.656165D-04 -0.759491D-03  0.377432D-02  0.343068D-03
     32  0.231833D-03 -0.499155D-04  0.189158D-02  0.152450D-02  0.350865D-03
     33  0.117649D-03  0.190068D-03 -0.835763D-04 -0.187414D-02 -0.248456D-02
     34 -0.134106D-02 -0.102389D-02  0.174062D-01  0.265487D-01 -0.548394D-02
     35  0.209865D-02  0.147240D-02 -0.735661D-02 -0.484203D-01  0.501846D-02
     36 -0.499237D-03  0.746979D-04 -0.717753D-03  0.312036D-02  0.985855D-02
     37 -0.512504D-03 -0.115458D-03 -0.177596D+00  0.304884D-01  0.200477D+00
     38  0.128817D-03 -0.596315D-04  0.634104D-02 -0.268570D-01  0.149441D-01
     39  0.180822D-03 -0.156277D-03  0.230617D+00 -0.180741D-01 -0.279404D+00
               31            32            33            34            35 
     31  0.196935D+00
     32 -0.194105D+00  0.357924D+00
     33  0.232626D-01 -0.363453D-01  0.942840D-02
     34 -0.161925D-02  0.137555D-04  0.250888D-03  0.117967D+00
     35 -0.365085D-04  0.133725D-02  0.496621D-03  0.106768D+00  0.268688D+00
     36  0.832410D-04 -0.463517D-03 -0.172944D-02  0.824755D-03 -0.164708D-01
     37  0.853780D-04 -0.958204D-04  0.120331D-02  0.163263D-02 -0.150922D-02
     38  0.578656D-03  0.698134D-03  0.896476D-03 -0.580864D-02  0.128699D-03
     39  0.375028D-04 -0.132236D-03  0.101889D-03 -0.130766D-02 -0.794491D-03
               36            37            38            39 
     36  0.408464D-01
     37 -0.614401D-03  0.200619D+00
     38  0.272641D-02 -0.368779D-01  0.360395D-01
     39 -0.824219D-03 -0.219351D+00  0.938288D-02  0.276933D+00
 FormGI is forming the generalized inverse of G from B-inverse, IUseBI=4.
 Leave Link  716 at Thu Apr 14 08:57:15 2016, MaxMem=    33554432 cpu:         0.0
 (Enter /usr/local/gau/g09/l103.exe)

 GradGradGradGradGradGradGradGradGradGradGradGradGradGradGradGradGradGrad
 Berny optimization.
 Red2BG is reusing G-inverse.
 Internal  Forces:  Max     0.048622063 RMS     0.011016618
 Search for a saddle point.
 Step number   1 out of a maximum of   83
 All quantities printed in internal units (Hartrees-Bohrs-Radians)
 Swapping is turned off.
 Second derivative matrix not updated -- analytic derivatives used.
 ITU=  0
     Eigenvalues ---   -0.02601  -0.00605  -0.00229   0.00042   0.00189
     Eigenvalues ---    0.00352   0.00766   0.01669   0.01773   0.02094
     Eigenvalues ---    0.03299   0.04469   0.05009   0.06016   0.08707
     Eigenvalues ---    0.10079   0.11382   0.12987   0.13128   0.14815
     Eigenvalues ---    0.15704   0.16969   0.24819   0.26423   0.29992
     Eigenvalues ---    0.32743   0.33670   0.35845   0.44910   0.46649
     Eigenvalues ---    0.49035   0.49548   0.49831
 Eigenvectors required to have negative eigenvalues:
                          R9        R4        A10       D26       A24
   1                    0.62838  -0.38411   0.32798  -0.27134  -0.26686
                          A8        A11       A19       A21       A18
   1                    0.20620  -0.17222   0.14821  -0.14642  -0.10095
 Eigenvalue     2 is  -6.05D-03 should be greater than     0.000000 Eigenvector:
                          D27       D10       D12       D26       A25
   1                    0.41536  -0.35676   0.29229  -0.27964   0.25834
                          A26       D13       D11       D8        D18
   1                   -0.25429   0.23342   0.22666  -0.21207   0.19878
 Eigenvalue     3 is  -2.29D-03 should be greater than     0.000000 Eigenvector:
                          D1        D5        D2        D6        D21
   1                   -0.53537  -0.49413  -0.47454  -0.44249  -0.08573
                          D8        D4        D27       D20       D31
   1                    0.07190   0.06210  -0.06152  -0.05526  -0.05011
 RFO step:  Lambda0=4.930289242D-02 Lambda=-4.03855048D-02.
 Linear search not attempted -- option 19 set.
 Maximum step size (   0.300) exceeded in Quadratic search.
    -- Step size scaled by   0.388
 Iteration  1 RMS(Cart)=  0.04214193 RMS(Int)=  0.00750616
 Iteration  2 RMS(Cart)=  0.00427930 RMS(Int)=  0.00525682
 Iteration  3 RMS(Cart)=  0.00007518 RMS(Int)=  0.00525633
 Iteration  4 RMS(Cart)=  0.00000327 RMS(Int)=  0.00525633
 Iteration  5 RMS(Cart)=  0.00000010 RMS(Int)=  0.00525633
 ITry= 1 IFail=0 DXMaxC= 1.90D-01 DCOld= 1.00D+10 DXMaxT= 3.00D-01 DXLimC= 3.00D+00 Rises=F
 Variable       Old X    -DE/DX   Delta X   Delta X   Delta X     New X
                                 (Linear)    (Quad)   (Total)
    R1        1.89636   0.00009   0.00000   0.00082   0.00082   1.89718
    R2        2.63279   0.00960   0.00000   0.00792   0.00783   2.64062
    R3        1.89992  -0.00077   0.00000   0.00057   0.00057   1.90049
    R4        2.61218   0.04467   0.00000  -0.04155  -0.03429   2.57788
    R5        2.84087   0.02134   0.00000   0.04475   0.04075   2.88161
    R6        2.54221   0.02137   0.00000   0.02361   0.01672   2.55893
    R7        2.48754   0.03619   0.00000   0.06793   0.07120   2.55874
    R8        2.50157   0.01118   0.00000   0.00039   0.00394   2.50551
    R9        2.64562  -0.04862   0.00000   0.12024   0.11702   2.76264
   R10        2.07561  -0.00125   0.00000  -0.00321  -0.00321   2.07240
   R11        2.06050   0.01745   0.00000   0.02271   0.01890   2.07940
   R12        2.07718  -0.00182   0.00000  -0.00306  -0.00306   2.07411
   R13        2.66481  -0.00754   0.00000   0.00071  -0.00035   2.66447
   R14        2.64885  -0.00715   0.00000  -0.04075  -0.03573   2.61312
   R15        1.85468  -0.00129   0.00000  -0.00076  -0.00076   1.85392
    A1        2.10258   0.00197   0.00000  -0.00089  -0.00233   2.10025
    A2        2.07788   0.00087   0.00000   0.00166  -0.00032   2.07756
    A3        2.08053  -0.00297   0.00000  -0.02021  -0.02210   2.05843
    A4        2.03345  -0.00004   0.00000  -0.00465  -0.00611   2.02733
    A5        2.10966   0.00444   0.00000   0.02166   0.02061   2.13027
    A6        1.13372  -0.00607   0.00000  -0.04920  -0.04665   1.08708
    A7        2.14004  -0.00439   0.00000  -0.01680  -0.01459   2.12545
    A8        1.83074  -0.00227   0.00000   0.08622   0.07882   1.90956
    A9        2.11766  -0.00723   0.00000  -0.06460  -0.06749   2.05016
   A10        2.86539  -0.01103   0.00000   0.07855   0.05873   2.92412
   A11        2.31012   0.00892   0.00000  -0.04771  -0.04067   2.26945
   A12        1.93153  -0.00248   0.00000   0.00063   0.00204   1.93357
   A13        1.93081   0.00676   0.00000   0.03309   0.03289   1.96370
   A14        1.93804  -0.00093   0.00000  -0.02614  -0.02748   1.91056
   A15        1.88943  -0.00373   0.00000  -0.00124   0.00010   1.88953
   A16        1.87473   0.00357   0.00000   0.02546   0.02548   1.90022
   A17        1.89759  -0.00340   0.00000  -0.03217  -0.03352   1.86407
   A18        2.10339  -0.00276   0.00000  -0.03617  -0.03543   2.06796
   A19        2.16418  -0.02079   0.00000   0.00095  -0.00069   2.16350
   A20        2.01544   0.02362   0.00000   0.03584   0.03628   2.05173
   A21        1.38624   0.00148   0.00000  -0.06886  -0.06385   1.32238
   A22        1.92628  -0.00450   0.00000  -0.01185  -0.01249   1.91379
   A23        3.16717  -0.00611   0.00000  -0.05386  -0.05276   3.11441
   A24        3.19694   0.00419   0.00000  -0.07793  -0.07412   3.12282
   A25        3.16947   0.00101   0.00000   0.09252   0.09042   3.25989
   A26        3.03678  -0.00063   0.00000  -0.10157  -0.09039   2.94639
    D1        0.10954   0.00009   0.00000   0.09693   0.10000   0.20954
    D2       -3.04060   0.00030   0.00000   0.12248   0.12572  -2.91488
    D3        3.02427  -0.00047   0.00000  -0.00080  -0.00052   3.02375
    D4       -0.12587  -0.00027   0.00000   0.02475   0.02520  -0.10068
    D5        0.16222   0.00172   0.00000   0.13582   0.12828   0.29050
    D6        3.10652   0.00058   0.00000   0.05754   0.05810  -3.11857
    D7        3.06261   0.00061   0.00000  -0.00906  -0.01320   3.04941
    D8       -0.27628  -0.00054   0.00000  -0.08735  -0.08338  -0.35966
    D9        0.03555   0.00108   0.00000  -0.01226  -0.01641   0.01914
   D10        2.96781   0.00008   0.00000  -0.12504  -0.11908   2.84874
   D11        1.03078   0.00157   0.00000   0.08839   0.08775   1.11853
   D12        3.12490  -0.00031   0.00000   0.10885   0.11145  -3.04684
   D13       -1.04963  -0.00068   0.00000   0.07302   0.07242  -0.97720
   D14       -2.13869   0.00056   0.00000  -0.00414  -0.00267  -2.14136
   D15       -0.04457  -0.00132   0.00000   0.01632   0.02103  -0.02354
   D16        2.06409  -0.00169   0.00000  -0.01950  -0.01800   2.04609
   D17       -2.10210   0.00131   0.00000   0.06214   0.06192  -2.04018
   D18       -0.00799  -0.00056   0.00000   0.08260   0.08562   0.07763
   D19        2.10067  -0.00094   0.00000   0.04678   0.04660   2.14727
   D20        0.09061  -0.00046   0.00000   0.01721   0.01095   0.10156
   D21       -3.03040  -0.00542   0.00000  -0.02103  -0.01403  -3.04443
   D22       -3.06006  -0.00021   0.00000   0.04443   0.03816  -3.02190
   D23        0.10211  -0.00517   0.00000   0.00620   0.01318   0.11530
   D24       -2.03060   0.00010   0.00000  -0.01166  -0.02322  -2.05382
   D25       -0.04518  -0.00119   0.00000   0.01582   0.02096  -0.02422
   D26       -0.27509   0.00295   0.00000  -0.22318  -0.24313  -0.51822
   D27       -2.94419   0.00308   0.00000   0.14616   0.14203  -2.80216
   D28        0.04290   0.00168   0.00000  -0.01683  -0.02077   0.02212
   D29        2.16207   0.00038   0.00000   0.00355   0.00281   2.16487
   D30       -2.08964   0.00077   0.00000   0.01577   0.01505  -2.07458
   D31       -2.14441  -0.00533   0.00000  -0.08362  -0.07176  -2.21618
   D32        0.97827  -0.00125   0.00000  -0.04882  -0.04875   0.92953
         Item               Value     Threshold  Converged?
 Maximum Force            0.048622     0.000450     NO 
 RMS     Force            0.011017     0.000300     NO 
 Maximum Displacement     0.189561     0.001800     NO 
 RMS     Displacement     0.045002     0.001200     NO 
 Predicted change in Energy= 8.577589D-04
 Lowest energy point so far.  Saving SCF results.
 GradGradGradGradGradGradGradGradGradGradGradGradGradGradGradGradGradGrad

 Leave Link  103 at Thu Apr 14 08:57:15 2016, MaxMem=    33554432 cpu:         0.0
 (Enter /usr/local/gau/g09/l202.exe)
                          Input orientation:                          
 ---------------------------------------------------------------------
 Center     Atomic      Atomic             Coordinates (Angstroms)
 Number     Number       Type             X           Y           Z
 ---------------------------------------------------------------------
      1          7           0        1.246552    1.360841    0.066673
      2          1           0        2.229289    1.429886   -0.126635
      3          6           0        0.612881    0.115424    0.065696
      4          1           0        0.032314   -1.110587   -0.078411
      5          6           0        1.527778   -1.104306    0.043515
      6          6           0       -0.735908   -0.004681    0.063692
      7          1           0        2.132414   -1.153928    0.957096
      8          1           0        0.969755   -2.047832   -0.052335
      9          1           0        2.198383   -1.042830   -0.823190
     10          8           0       -1.514884    1.163718   -0.063075
     11          1           0        0.672508    2.181676   -0.023450
     12          8           0       -1.404215   -1.210232    0.173933
     13          1           0       -2.168077    1.205678    0.667708
 ---------------------------------------------------------------------
                    Distance matrix (angstroms):
                    1          2          3          4          5
     1  N    0.000000
     2  H    1.003947   0.000000
     3  C    1.397355   2.092266   0.000000
     4  H    2.757422   3.359022   1.364158   0.000000
     5  C    2.481244   2.634995   1.524883   1.500439   0.000000
     6  C    2.407240   3.299485   1.354127   1.354025   2.516715
     7  H    2.810990   2.803560   2.171365   2.341916   1.096666
     8  H    3.421962   3.699522   2.195669   1.325860   1.100371
     9  H    2.734131   2.569138   2.155339   2.291537   1.097574
    10  O    2.771501   3.754160   2.375477   2.750731   3.796457
    11  H    1.005694   1.731879   2.069034   3.354380   3.396123
    12  O    3.694385   4.501435   2.416145   1.461924   2.936802
    13  H    3.470592   4.474157   3.047097   3.280777   4.402838
                    6          7          8          9         10
     6  C    0.000000
     7  H    3.216552   0.000000
     8  H    2.664059   1.780390   0.000000
     9  H    3.236414   1.784968   1.764588   0.000000
    10  O    1.409976   4.440159   4.060493   4.385771   0.000000
    11  H    2.602189   3.770816   4.240039   3.655862   2.412984
    12  O    1.382802   3.622741   2.527549   3.741789   2.388318
    13  H    1.970003   4.913828   4.577092   5.132693   0.981053
                   11         12         13
    11  H    0.000000
    12  O    3.982058   0.000000
    13  H    3.082077   2.581457   0.000000
 Stoichiometry    C3H7NO2
 Framework group  C1[X(C3H7NO2)]
 Deg. of freedom    33
 Full point group                 C1      NOp   1
 RotChk:  IX=0 Diff= 2.50D-02
 Largest Abelian subgroup         C1      NOp   1
 Largest concise Abelian subgroup C1      NOp   1
                         Standard orientation:                         
 ---------------------------------------------------------------------
 Center     Atomic      Atomic             Coordinates (Angstroms)
 Number     Number       Type             X           Y           Z
 ---------------------------------------------------------------------
      1          7           0        1.093604    1.436727    0.071151
      2          1           0        2.065860    1.621492   -0.097636
      3          6           0        0.604691    0.128663    0.020786
      4          1           0        0.169141   -1.149811   -0.170857
      5          6           0        1.651667   -0.979422   -0.014656
      6          6           0       -0.721624   -0.141962   -0.015409
      7          1           0        2.240060   -0.988632    0.910755
      8          1           0        1.205686   -1.976265   -0.149641
      9          1           0        2.327867   -0.816724   -0.863744
     10          8           0       -1.624869    0.934929   -0.127151
     11          1           0        0.432455    2.190301   -0.009028
     12          8           0       -1.251620   -1.417701    0.045697
     13          1           0       -2.292788    0.881054    0.589402
 ---------------------------------------------------------------------
 Rotational constants (GHZ):      4.8538095      3.3343003      2.0135126
 Leave Link  202 at Thu Apr 14 08:57:15 2016, MaxMem=    33554432 cpu:         0.0
 (Enter /usr/local/gau/g09/l301.exe)
 Standard basis: 6-31G (6D, 7F)
 Ernie: Thresh=  0.10000D-02 Tol=  0.10000D-05 Strict=F.
 There are    68 symmetry adapted cartesian basis functions of A   symmetry.
 There are    68 symmetry adapted basis functions of A   symmetry.
    68 basis functions,   160 primitive gaussians,    68 cartesian basis functions
    24 alpha electrons       24 beta electrons
       nuclear repulsion energy       247.6482689427 Hartrees.
 IExCor=  402 DFT=T Ex+Corr=B3LYP ExCW=0 ScaHFX=  0.200000
 ScaDFX=  0.800000  0.720000  1.000000  0.810000 ScalE2=  1.000000  1.000000
 IRadAn=      0 IRanWt=     -1 IRanGd=            0 ICorTp=0 IEmpDi=  4
 NAtoms=   13 NActive=   13 NUniq=   13 SFac= 1.00D+00 NAtFMM=   60 NAOKFM=F Big=F
 Integral buffers will be    131072 words long.
 Raffenetti 2 integral format.
 Two-electron integral symmetry is turned on.
 Leave Link  301 at Thu Apr 14 08:57:15 2016, MaxMem=    33554432 cpu:         0.0
 (Enter /usr/local/gau/g09/l302.exe)
 NPDir=0 NMtPBC=     1 NCelOv=     1 NCel=       1 NClECP=     1 NCelD=      1
         NCelK=      1 NCelE2=     1 NClLst=     1 CellRange=     0.0.
 One-electron integrals computed using PRISM.
 NBasis=    68 RedAO= T EigKep=  2.91D-03  NBF=    68
 NBsUse=    68 1.00D-06 EigRej= -1.00D+00 NBFU=    68
 Precomputing XC quadrature grid using
 IXCGrd= 4 IRadAn=           0 IRanWt=          -1 IRanGd=           0 AccXCQ= 0.00D+00.
 Generated NRdTot=       0 NPtTot=           0 NUsed=           0 NTot=          32
 NSgBfM=    68    68    68    68    68 MxSgAt=    13 MxSgA2=    13.
 Leave Link  302 at Thu Apr 14 08:57:15 2016, MaxMem=    33554432 cpu:         0.2
 (Enter /usr/local/gau/g09/l303.exe)
 DipDrv:  MaxL=1.
 Leave Link  303 at Thu Apr 14 08:57:16 2016, MaxMem=    33554432 cpu:         0.0
 (Enter /usr/local/gau/g09/l401.exe)
 Initial guess from the checkpoint file:  "Ala-S-opt-freq-tsa3-6-31g.chk"
 B after Tr=     0.000000    0.000000    0.000000
         Rot=    0.999983   -0.002003    0.000937   -0.005355 Ang=  -0.66 deg.
 Guess basis will be translated and rotated to current coordinates.
 JPrj=2 DoOrth=T DoCkMO=T.
 Generating alternative initial guess.
 ExpMin= 1.61D-01 ExpMax= 5.48D+03 ExpMxC= 8.25D+02 IAcc=1 IRadAn=         1 AccDes= 0.00D+00
 Harris functional with IExCor=  402 and IRadAn=       1 diagonalized for initial guess.
 HarFok:  IExCor=  402 AccDes= 0.00D+00 IRadAn=         1 IDoV= 1 UseB2=F ITyADJ=14
 ICtDFT=  3500011 ScaDFX=  1.000000  1.000000  1.000000  1.000000
 FoFCou: FMM=F IPFlag=           0 FMFlag=      100000 FMFlg1=           0
         NFxFlg=           0 DoJE=T BraDBF=F KetDBF=T FulRan=T
         wScrn=  0.000000 ICntrl=     500 IOpCl=  0 I1Cent=   200000004 NGrid=           0
         NMat0=    1 NMatS0=      1 NMatT0=    0 NMatD0=    1 NMtDS0=    0 NMtDT0=    0
 Petite list used in FoFCou.
 Harris En= -323.482507674707    
 Leave Link  401 at Thu Apr 14 08:57:17 2016, MaxMem=    33554432 cpu:         0.5
 (Enter /usr/local/gau/g09/l502.exe)
 Closed shell SCF:
 Using DIIS extrapolation, IDIIS=  1040.
 Integral symmetry usage will be decided dynamically.
 Keep R1 ints in memory in canonical form, NReq=3676491.
 IVT=       33364 IEndB=       33364 NGot=    33554432 MDV=    30768038
 LenX=    30768038 LenY=    30762973
 Requested convergence on RMS density matrix=1.00D-08 within 128 cycles.
 Requested convergence on MAX density matrix=1.00D-06.
 Requested convergence on             energy=1.00D-06.
 No special actions if energy rises.
 FoFCou: FMM=F IPFlag=           0 FMFlag=           0 FMFlg1=           0
         NFxFlg=           0 DoJE=F BraDBF=F KetDBF=F FulRan=T
         wScrn=  0.000000 ICntrl=     600 IOpCl=  0 I1Cent=           0 NGrid=           0
         NMat0=    1 NMatS0=   2346 NMatT0=    0 NMatD0=    1 NMtDS0=    0 NMtDT0=    0
 Symmetry not used in FoFCou.
 Integral accuracy reduced to 1.0D-05 until final iterations.

 Cycle   1  Pass 0  IDiag  1:
 E= -323.421852059371    
 DIIS: error= 3.99D-03 at cycle   1 NSaved=   1.
 NSaved= 1 IEnMin= 1 EnMin= -323.421852059371     IErMin= 1 ErrMin= 3.99D-03
 ErrMax= 3.99D-03  0.00D+00 EMaxC= 1.00D-01 BMatC= 2.95D-03 BMatP= 2.95D-03
 IDIUse=3 WtCom= 9.60D-01 WtEn= 3.99D-02
 Coeff-Com:  0.100D+01
 Coeff-En:   0.100D+01
 Coeff:      0.100D+01
 Gap=     0.590 Goal=   None    Shift=    0.000
 GapD=    0.590 DampG=2.000 DampE=1.000 DampFc=2.0000 IDamp=-1.
 RMSDP=2.58D-03 MaxDP=2.44D-02              OVMax= 3.70D-02

 Cycle   2  Pass 0  IDiag  1:
 E= -323.428529058553     Delta-E=       -0.006676999182 Rises=F Damp=F
 DIIS: error= 8.17D-04 at cycle   2 NSaved=   2.
 NSaved= 2 IEnMin= 2 EnMin= -323.428529058553     IErMin= 2 ErrMin= 8.17D-04
 ErrMax= 8.17D-04  0.00D+00 EMaxC= 1.00D-01 BMatC= 1.03D-04 BMatP= 2.95D-03
 IDIUse=3 WtCom= 9.92D-01 WtEn= 8.17D-03
 Coeff-Com: -0.318D-01 0.103D+01
 Coeff-En:   0.000D+00 0.100D+01
 Coeff:     -0.316D-01 0.103D+01
 Gap=     0.191 Goal=   None    Shift=    0.000
 RMSDP=5.64D-04 MaxDP=6.79D-03 DE=-6.68D-03 OVMax= 9.47D-03

 Cycle   3  Pass 0  IDiag  1:
 E= -323.428464083658     Delta-E=        0.000064974895 Rises=F Damp=F
 DIIS: error= 2.06D-03 at cycle   3 NSaved=   3.
 NSaved= 3 IEnMin= 2 EnMin= -323.428529058553     IErMin= 2 ErrMin= 8.17D-04
 ErrMax= 2.06D-03  0.00D+00 EMaxC= 1.00D-01 BMatC= 2.31D-04 BMatP= 1.03D-04
 IDIUse=3 WtCom= 1.81D-01 WtEn= 8.19D-01
 Coeff-Com: -0.458D-01 0.647D+00 0.399D+00
 Coeff-En:   0.000D+00 0.593D+00 0.407D+00
 Coeff:     -0.827D-02 0.603D+00 0.405D+00
 Gap=     0.191 Goal=   None    Shift=    0.000
 RMSDP=3.05D-04 MaxDP=5.66D-03 DE= 6.50D-05 OVMax= 8.11D-03

 Cycle   4  Pass 0  IDiag  1:
 E= -323.428697050921     Delta-E=       -0.000232967264 Rises=F Damp=F
 DIIS: error= 4.22D-04 at cycle   4 NSaved=   4.
 NSaved= 4 IEnMin= 4 EnMin= -323.428697050921     IErMin= 4 ErrMin= 4.22D-04
 ErrMax= 4.22D-04  0.00D+00 EMaxC= 1.00D-01 BMatC= 8.57D-06 BMatP= 1.03D-04
 IDIUse=3 WtCom= 9.96D-01 WtEn= 4.22D-03
 Coeff-Com: -0.169D-01 0.172D+00 0.206D+00 0.639D+00
 Coeff-En:   0.000D+00 0.000D+00 0.000D+00 0.100D+01
 Coeff:     -0.168D-01 0.171D+00 0.205D+00 0.641D+00
 Gap=     0.190 Goal=   None    Shift=    0.000
 RMSDP=6.83D-05 MaxDP=8.96D-04 DE=-2.33D-04 OVMax= 1.67D-03

 Cycle   5  Pass 0  IDiag  1:
 E= -323.428704684976     Delta-E=       -0.000007634054 Rises=F Damp=F
 DIIS: error= 1.88D-04 at cycle   5 NSaved=   5.
 NSaved= 5 IEnMin= 5 EnMin= -323.428704684976     IErMin= 5 ErrMin= 1.88D-04
 ErrMax= 1.88D-04  0.00D+00 EMaxC= 1.00D-01 BMatC= 1.64D-06 BMatP= 8.57D-06
 IDIUse=3 WtCom= 9.98D-01 WtEn= 1.88D-03
 Coeff-Com: -0.327D-02 0.428D-02 0.750D-01 0.408D+00 0.516D+00
 Coeff-En:   0.000D+00 0.000D+00 0.000D+00 0.180D-01 0.982D+00
 Coeff:     -0.327D-02 0.427D-02 0.749D-01 0.407D+00 0.517D+00
 Gap=     0.191 Goal=   None    Shift=    0.000
 RMSDP=3.37D-05 MaxDP=4.35D-04 DE=-7.63D-06 OVMax= 8.16D-04

 Cycle   6  Pass 0  IDiag  1:
 E= -323.428705833872     Delta-E=       -0.000001148896 Rises=F Damp=F
 DIIS: error= 1.09D-04 at cycle   6 NSaved=   6.
 NSaved= 6 IEnMin= 6 EnMin= -323.428705833872     IErMin= 6 ErrMin= 1.09D-04
 ErrMax= 1.09D-04  0.00D+00 EMaxC= 1.00D-01 BMatC= 5.68D-07 BMatP= 1.64D-06
 IDIUse=3 WtCom= 9.99D-01 WtEn= 1.09D-03
[...]
 FormGI is forming the generalized inverse of G from B-inverse, IUseBI=4.
 Leave Link  716 at Thu Apr 14 09:13:31 2016, MaxMem=    33554432 cpu:         0.0
 (Enter /usr/local/gau/g09/l103.exe)

 GradGradGradGradGradGradGradGradGradGradGradGradGradGradGradGradGradGrad
 Berny optimization.
 Red2BG is reusing G-inverse.
 Internal  Forces:  Max     0.000049419 RMS     0.000014384
 Search for a saddle point.
 Step number   1 out of a maximum of    2
 All quantities printed in internal units (Hartrees-Bohrs-Radians)
 Swapping is turned off.
 Second derivative matrix not updated -- analytic derivatives used.
 ITU=  0
     Eigenvalues ---   -0.07004   0.00046   0.00343   0.00393   0.00637
     Eigenvalues ---    0.00991   0.01186   0.01386   0.02383   0.03541
     Eigenvalues ---    0.04083   0.04959   0.06738   0.08834   0.09154
     Eigenvalues ---    0.09849   0.10537   0.11250   0.12024   0.14788
     Eigenvalues ---    0.16255   0.17253   0.22007   0.27761   0.31911
     Eigenvalues ---    0.32660   0.33108   0.34001   0.39922   0.47622
     Eigenvalues ---    0.48801   0.48936   0.50984
 Eigenvectors required to have negative eigenvalues:
                          R9        R7        D23       D21       R4
   1                   -0.69153   0.33609  -0.25150  -0.24867   0.24593
                          A24       D32       D26       A26       R6
   1                    0.23035   0.15534   0.15324   0.14722  -0.13080
 Angle between quadratic step and forces=  84.14 degrees.
 Linear search not attempted -- option 19 set.
 Iteration  1 RMS(Cart)=  0.00072298 RMS(Int)=  0.00000083
 Iteration  2 RMS(Cart)=  0.00000071 RMS(Int)=  0.00000025
 ITry= 1 IFail=0 DXMaxC= 2.62D-03 DCOld= 1.00D+10 DXMaxT= 3.00D-01 DXLimC= 3.00D+00 Rises=F
 Variable       Old X    -DE/DX   Delta X   Delta X   Delta X     New X
                                 (Linear)    (Quad)   (Total)
    R1        1.90143   0.00000   0.00000  -0.00001  -0.00001   1.90142
    R2        2.57454   0.00001   0.00000   0.00001   0.00001   2.57455
    R3        1.90697   0.00000   0.00000  -0.00001  -0.00001   1.90695
    R4        4.03154  -0.00001   0.00000  -0.00062  -0.00062   4.03092
    R5        2.82898  -0.00001   0.00000  -0.00004  -0.00004   2.82895
    R6        2.64202  -0.00005   0.00000  -0.00002  -0.00002   2.64200
    R7        2.29310   0.00005   0.00000  -0.00022  -0.00022   2.29288
    R8        4.77161   0.00000   0.00000   0.00181   0.00181   4.77342
    R9        2.56719  -0.00005   0.00000   0.00086   0.00086   2.56805
   R10        2.07474   0.00001   0.00000   0.00001   0.00001   2.07474
   R11        2.06228  -0.00003   0.00000  -0.00009  -0.00009   2.06219
   R12        2.07733   0.00000   0.00000   0.00001   0.00001   2.07734
   R13        2.68405   0.00004   0.00000   0.00010   0.00010   2.68415
   R14        2.74812  -0.00001   0.00000  -0.00022  -0.00022   2.74790
   R15        1.84681   0.00001   0.00000  -0.00001  -0.00001   1.84680
    A1        2.12736   0.00000   0.00000  -0.00007  -0.00007   2.12728
    A2        2.08439   0.00000   0.00000   0.00003   0.00003   2.08442
    A3        2.06950   0.00000   0.00000   0.00007   0.00007   2.06957
    A4        2.08370  -0.00001   0.00000  -0.00005  -0.00005   2.08365
    A5        2.07940  -0.00001   0.00000   0.00006   0.00006   2.07946
    A6        1.70883   0.00000   0.00000   0.00037   0.00037   1.70920
    A7        2.11757   0.00002   0.00000  -0.00001  -0.00001   2.11756
    A8        0.93506  -0.00001   0.00000  -0.00031  -0.00031   0.93475
    A9        1.58125  -0.00002   0.00000  -0.00015  -0.00015   1.58110
   A10        1.39030  -0.00001   0.00000  -0.00086  -0.00086   1.38944
   A11        1.33105  -0.00001   0.00000  -0.00128  -0.00128   1.32977
   A12        1.92090   0.00000   0.00000   0.00003   0.00003   1.92093
   A13        1.91350   0.00000   0.00000  -0.00017  -0.00017   1.91333
   A14        1.96056   0.00000   0.00000  -0.00001  -0.00001   1.96055
   A15        1.88916   0.00000   0.00000   0.00016   0.00016   1.88931
   A16        1.87475   0.00000   0.00000  -0.00002  -0.00002   1.87473
   A17        1.90331   0.00000   0.00000   0.00002   0.00002   1.90332
   A18        1.99379   0.00002   0.00000  -0.00004  -0.00004   1.99375
   A19        2.19847  -0.00002   0.00000  -0.00013  -0.00013   2.19834
   A20        2.02161   0.00000   0.00000   0.00020   0.00020   2.02182
   A21        1.58979   0.00001   0.00000  -0.00073  -0.00073   1.58906
   A22        1.87340   0.00002   0.00000   0.00016   0.00016   1.87356
   A23        3.79253  -0.00001   0.00000   0.00032   0.00032   3.79285
   A24        3.65277   0.00002   0.00000  -0.00085  -0.00085   3.65192
   A25        3.63924   0.00001   0.00000   0.00062   0.00062   3.63987
   A26        2.13145   0.00000   0.00000  -0.00044  -0.00044   2.13102
    D1        0.16966   0.00000   0.00000  -0.00084  -0.00084   0.16882
    D2       -2.89681   0.00000   0.00000  -0.00083  -0.00082  -2.89764
    D3       -3.03928   0.00000   0.00000  -0.00023  -0.00023  -3.03951
    D4        0.17743   0.00000   0.00000  -0.00021  -0.00021   0.17722
    D5        0.93499   0.00000   0.00000   0.00024   0.00024   0.93522
    D6        2.16923  -0.00001   0.00000  -0.00135  -0.00135   2.16788
    D7       -2.75091   0.00000   0.00000   0.00048   0.00048  -2.75044
    D8       -1.51666  -0.00001   0.00000  -0.00111  -0.00111  -1.51777
    D9        0.24767   0.00000   0.00000   0.00075   0.00075   0.24842
   D10        1.51080   0.00000   0.00000  -0.00084  -0.00084   1.50996
   D11        1.05728   0.00000   0.00000  -0.00121  -0.00121   1.05607
   D12        3.13338   0.00000   0.00000  -0.00110  -0.00110   3.13228
   D13       -1.03072   0.00000   0.00000  -0.00120  -0.00120  -1.03193
   D14       -2.58196  -0.00001   0.00000  -0.00183  -0.00183  -2.58380
   D15       -0.50587  -0.00001   0.00000  -0.00172  -0.00172  -0.50759
   D16        1.61322   0.00000   0.00000  -0.00183  -0.00183   1.61139
   D17       -2.16113   0.00000   0.00000  -0.00123  -0.00123  -2.16235
   D18       -0.08503   0.00000   0.00000  -0.00112  -0.00112  -0.08614
   D19        2.03406   0.00000   0.00000  -0.00122  -0.00122   2.03284
   D20       -0.17257   0.00000   0.00000  -0.00077  -0.00077  -0.17334
   D21       -2.90375  -0.00003   0.00000  -0.00091  -0.00091  -2.90465
   D22        3.04565   0.00000   0.00000  -0.00075  -0.00075   3.04490
   D23        0.31447  -0.00003   0.00000  -0.00089  -0.00089   0.31359
   D24       -2.18340  -0.00002   0.00000  -0.00098  -0.00098  -2.18437
   D25       -0.33963  -0.00001   0.00000  -0.00104  -0.00104  -0.34067
   D26       -0.87864   0.00001   0.00000  -0.00204  -0.00204  -0.88068
   D27       -2.10542   0.00001   0.00000  -0.00200  -0.00200  -2.10742
   D28        0.41762   0.00000   0.00000   0.00111   0.00111   0.41874
   D29        2.51320   0.00000   0.00000   0.00115   0.00115   2.51435
   D30       -1.73556   0.00001   0.00000   0.00123   0.00123  -1.73433
   D31       -2.86539  -0.00001   0.00000  -0.00240  -0.00240  -2.86779
   D32       -0.09077   0.00001   0.00000  -0.00235  -0.00235  -0.09311
         Item               Value     Threshold  Converged?
 Maximum Force            0.000049     0.000450     YES
 RMS     Force            0.000014     0.000300     YES
 Maximum Displacement     0.002621     0.001800     NO 
 RMS     Displacement     0.000723     0.001200     YES
 Predicted change in Energy=-4.929062D-08
 GradGradGradGradGradGradGradGradGradGradGradGradGradGradGradGradGradGrad

 Leave Link  103 at Thu Apr 14 09:13:31 2016, MaxMem=    33554432 cpu:         0.0
 (Enter /usr/local/gau/g09/l9999.exe)

 Test job not archived.
 1\1\GINC-KALI\Freq\RB3LYP\6-31G\C3H7N1O2\ROOT\14-Apr-2016\0\\#P Geom=A
 llCheck Guess=TCheck SCRF=Check Test GenChk RB3LYP/6-31G Freq\\Ala-S-o
 pt-freq-tsa3-6-31g\\0,1\N,1.3056047493,1.3407368811,0.0237182759\H,2.2
 850150838,1.479472204,-0.160503645\C,0.7575538619,0.0960035554,0.10356
 11122\H,-0.9367376771,-0.8293871057,-0.8044165593\C,1.6554500735,-1.10
 15153326,0.1325569432\C,-0.6334619883,-0.0391702173,0.0651002057\H,2.3
 164240519,-1.0554821551,1.0079924633\H,1.0539839956,-2.0091513933,0.20
 60083329\H,2.2947662369,-1.165918059,-0.7593727281\O,-1.3414959262,1.1
 880159223,0.1654384564\H,0.6962288641,2.1419046255,0.0952822686\O,-1.3
 852547842,-1.2346437981,0.4121838028\H,-2.2692858014,0.9719609826,0.38
 36695713\\Version=ES64L-G09RevD.01\State=1-A\HF=-323.5132191\RMSD=9.22
 7e-09\RMSF=3.179e-05\ZeroPoint=0.1013431\Thermal=0.1084961\Dipole=1.31
 3223,0.8374967,-0.4734311\DipoleDeriv=-0.6201862,-0.3089231,-0.1154003
 ,-0.8328074,-1.0542015,-0.0008937,-0.069918,0.0330421,-0.739656,0.1986
 97,0.0394959,0.0435032,0.0152238,0.2026534,-0.0100115,0.1033427,0.0165
 177,0.3874068,0.8821203,0.5428378,0.120066,0.8294315,0.8835303,-0.0120
 768,0.163876,-0.0077958,0.1319853,0.539686,0.2898868,0.0213332,0.70560
 48,0.4748225,0.0019886,-0.1437387,-0.2191198,0.1501387,0.0381378,0.066
 5738,-0.0351708,-0.0990484,-0.0974003,0.0211527,-0.0450617,0.0072309,0
 .1078886,0.0780189,-0.7171743,-0.0603465,-0.9284364,0.4808417,0.130204
 ,-1.1013356,-0.3631867,0.0401813,-0.0410173,0.0259236,-0.0988623,0.029
 8554,0.0687365,-0.0357105,-0.1162371,-0.0083866,-0.0327487,0.0681359,-
 0.1159469,0.0057006,-0.0027026,0.0261945,0.004737,-0.0013355,-0.005116
 1,0.0981835,-0.0620461,0.0381317,0.1025102,0.0414924,0.059365,0.025293
 ,0.1419056,-0.0094252,-0.0625026,-0.6397077,0.4016041,0.0052411,0.7332
 242,-0.7800164,-0.0825962,0.1276427,0.0181892,-0.4986751,0.146911,-0.0
 343762,0.0225775,0.045018,0.2358791,0.0128559,-0.0060056,0.0011678,0.3
 996887,-0.8550766,-0.1754368,-0.0477294,-0.3477441,-0.7681575,-0.08535
 55,0.8952961,0.5446819,-0.3727038,0.2663271,-0.0525964,0.0365776,-0.18
 91113,0.2677527,0.0304128,0.0515692,-0.0077994,0.3908134\Polar=72.4932
 179,9.3976783,52.8658257,-2.1755821,0.2875719,27.4539775\PG=C01 [X(C3H
 7N1O2)]\NImag=1\\0.86347399,-0.01475551,0.78949930,-0.12279850,-0.0079
 9434,0.06530695,-0.44574792,-0.04513552,0.07842602,0.46287841,-0.04525
 753,-0.08152235,0.00817441,0.05536077,0.07656712,0.08284637,0.00881656
 ,-0.02113265,-0.08304117,-0.00973192,0.02222334,-0.17841252,-0.0868180
 9,0.02277520,-0.01104443,-0.04000190,0.00451910,0.74754582,-0.09518237
 ,-0.34234420,0.01982827,-0.00032383,-0.00201563,-0.00007897,0.03214318
 ,0.69367994,0.01391969,0.02073156,-0.04431799,0.00012034,0.00621018,-0
 .00263990,-0.03079758,-0.03092092,0.16406196,0.00394108,0.01059579,0.0
 0054870,-0.00097848,-0.00034398,0.00026238,-0.03420643,-0.02086021,-0.
 01399201,0.00889695,0.00842270,0.01743890,-0.00127246,-0.00212105,-0.0
 0021791,-0.00123114,-0.04248784,-0.02328072,-0.00542414,-0.02483507,0.
 00718729,-0.00063007,-0.00140776,0.00137242,0.00062478,0.00012318,0.00
 067446,0.01872388,0.00362657,-0.00811147,0.04141134,0.09133595,0.15536
 106,0.01372708,-0.01300703,-0.00010738,0.00130001,0.00007613,-0.000900
 11,-0.14110962,0.06336836,-0.00197582,-0.00057092,0.00210824,-0.000835
 04,0.55109005,0.02442090,-0.03705935,0.00000608,0.00100474,0.00257606,
 -0.00045028,0.05744698,-0.17410432,0.00065615,0.00049667,0.00076500,0.
 00029095,0.05205883,0.54331439,-0.00125339,0.00384181,0.00279453,-0.00
 095506,-0.00001080,-0.00048760,0.00576414,0.00149611,-0.07269630,0.002
 08970,0.00376431,-0.00012841,-0.00337107,0.00115594,0.53639131,-0.0310
 2308,-0.02920489,-0.00728521,0.00354599,0.00236231,-0.00449195,-0.3403
 4302,-0.02315284,0.01335667,0.03647001,0.04589150,-0.08338864,-0.02090
 886,0.00867501,-0.00686620,0.63374017,-0.05847208,-0.03564705,-0.00202
 393,0.00233156,-0.00548258,-0.00145332,0.03627288,-0.06685119,0.015300
 57,0.03387023,0.01797416,-0.12090724,0.02457665,0.00469682,-0.00181129
 ,-0.04407140,0.41039151,-0.00961576,-0.03512476,0.01189750,0.00565732,
 0.00182359,0.00572072,0.04875872,0.04006999,-0.05583814,-0.00520003,-0
 .01109833,-0.11643844,-0.00018361,0.00002317,0.00105180,-0.06779398,-0
 .00921369,0.17843578,0.00143306,-0.00134818,0.00145084,0.00026293,0.00
 008759,-0.00066827,-0.01776911,0.00132104,-0.01694156,0.00109677,0.000
 64412,0.00040998,-0.13662862,-0.00957510,-0.12338404,0.00037246,0.0018
 7574,-0.00146288,0.15250002,-0.00062609,0.00118251,-0.00159231,-0.0001
 3370,-0.00059645,0.00104797,0.02000874,-0.00111340,0.02397807,-0.00049
 676,-0.00107897,0.00024897,-0.00885679,-0.04926680,-0.01037269,0.00091
 148,-0.00182553,0.00140853,0.00522835,0.05168363,0.00062121,0.00004114
 ,0.00089514,-0.00019353,0.00062877,-0.00067313,-0.00074832,-0.00067259
 ,0.00259251,0.00005543,-0.00006729,0.00019362,-0.12299915,-0.01059088,
 -0.21147196,0.00095553,-0.00002724,-0.00105770,0.13731770,0.01214955,0
 .23125779,-0.00424600,0.00283854,0.00046755,-0.00024893,0.00009848,0.0
 0002918,0.01544279,0.02093895,-0.00127683,0.00071085,0.00175835,-0.001
 37281,-0.13436790,-0.13062298,0.00987782,-0.00178889,0.00131795,-0.002
 74318,-0.01021883,-0.01573481,0.00251843,0.14447053,0.00534561,-0.0021
 5040,0.00003046,0.00023196,0.00035590,-0.00034143,-0.01869779,-0.02605
 475,0.00076112,-0.00032096,-0.00144964,0.00108999,-0.12298299,-0.23817
 227,0.01516344,0.00010703,-0.00110028,0.00250650,0.00042619,-0.0000896
 8,0.00073037,0.13575590,0.26354153,0.00011214,-0.00007442,0.00146709,-
 0.00009702,-0.00010044,-0.00065453,0.00047258,0.00137540,-0.00146381,-
 0.00062881,0.00035566,-0.00009686,0.00975353,0.01556317,-0.05177089,0.
 00010917,-0.00022260,0.00050177,-0.01572901,-0.02406587,0.00215700,-0.
 00994066,-0.01701033,0.05201615,0.00119130,-0.00168632,-0.00112113,0.0
 0050204,0.00045812,0.00069271,-0.01921730,0.00388469,0.01553888,-0.000
 29302,-0.00023844,0.00044819,-0.12783215,0.00461363,0.11866381,0.00298
 457,0.00235995,0.00082218,0.01134194,-0.00113390,-0.01741352,-0.009882
 48,0.00240226,0.01579637,0.14347838,0.00004043,0.00227477,0.00114019,-
 0.00083586,-0.00072368,-0.00051663,0.02164038,-0.00361004,-0.02345141,
 -0.00030403,-0.00035450,0.00003557,0.00615856,-0.05054188,-0.01060322,
 -0.00252935,-0.00308391,0.00025085,0.00098734,0.00020517,-0.00248269,-
 0.01494403,0.00292683,0.02437674,-0.01153563,0.05198571,-0.00039129,-0
 .00069137,0.00055863,0.00033979,-0.00086102,-0.00042140,-0.00169571,0.
 00088445,0.00481368,-0.00032456,-0.00020249,-0.00002495,0.11861662,-0.
 00887356,-0.21549184,-0.00098211,0.00046253,-0.00004324,0.01686224,-0.
 00038660,-0.02377358,-0.00031246,-0.00088034,-0.00148624,-0.13225223,0
 .01083146,0.23628990,-0.00177930,0.00073059,0.00011720,-0.00049780,0.0
 0160500,-0.00078754,-0.03523944,0.04743057,0.00709705,-0.00868211,-0.0
 0328980,0.00874004,-0.00339113,-0.00387344,0.00033206,-0.13621481,0.08
 812703,0.01837764,-0.00132345,0.00082830,-0.00012135,0.00044960,-0.000
 35819,0.00024916,-0.00135483,0.00134868,0.00006351,0.59268604,0.002329
 25,0.01357545,-0.00002350,-0.00135085,0.00069638,-0.00085590,-0.003136
 50,-0.02140089,-0.00408015,0.00674764,-0.02110070,-0.00046710,-0.00249
 259,0.00280310,-0.00129570,0.05167258,-0.16259828,0.00728658,0.0006078
 2,-0.00011703,0.00034581,-0.00064503,0.00008085,-0.00009461,0.00128243
 ,-0.00086294,-0.00044818,0.00344327,0.29258680,0.00298427,0.00435841,-
 0.00134367,-0.00060357,-0.00004311,-0.00009545,-0.00747455,-0.00703790
 ,0.00584904,0.00919812,-0.00721283,0.00516994,0.00008856,0.00047688,0.
 00487839,0.03092387,-0.01817790,-0.04591656,0.00081933,-0.00098944,-0.
 00011478,0.00048619,-0.00029065,-0.00015166,-0.00050133,0.00060697,-0.
 00025229,-0.12213028,-0.00939341,0.05193002,-0.21567846,0.18356785,0.0
 2580877,-0.01061563,0.02683116,0.00070845,0.01786508,-0.01064878,-0.00
 012978,0.00119389,0.00289993,-0.00039552,-0.00106675,-0.00311942,0.000
 80759,0.00037296,-0.00868729,-0.00693372,-0.00014455,0.00000306,0.0000
 7764,0.00050311,-0.00062706,0.00009697,-0.00032692,0.00016602,-0.00004
 449,-0.00091659,0.00336025,0.00029696,0.21016065,0.18247053,-0.3140089
 5,-0.02063942,-0.01007296,0.01031678,0.00143883,0.02095178,-0.02813543
 ,-0.00187592,-0.00052192,-0.00100604,0.00058898,-0.00466372,-0.0021146
 9,-0.00017689,0.00263197,-0.00192577,0.00102780,-0.00003495,0.00029877
 ,0.00012410,0.00118720,-0.00088785,0.00001480,0.00003186,0.00018834,-0
 .00016566,0.00179729,0.00000177,-0.00022818,-0.19438762,0.33509510,0.0
 2487598,-0.01729893,-0.01869562,0.00280714,-0.00545200,-0.00116251,-0.
 00571027,0.00028192,0.00310341,-0.00047345,0.00008026,-0.00016091,0.00
 090228,0.00118619,0.00348467,0.00292330,0.00126813,-0.00190473,0.00035
 341,-0.00061724,0.00008822,-0.00009226,0.00052636,0.00061751,-0.000314
 14,0.00062478,0.00005078,0.00003560,-0.00000370,-0.00254927,-0.0249322
 0,0.02124352,0.01685268,-0.00845186,-0.00830112,0.00220461,0.00069352,
 -0.00137796,0.00088721,-0.00188710,-0.01956219,0.01379980,-0.00718628,
 0.01307154,0.01653024,0.00006819,-0.00118282,-0.00175365,-0.11717514,-
 0.07482165,0.01224387,-0.00098812,-0.00005717,-0.00022817,-0.00084551,
 -0.00133911,-0.00020299,-0.00068004,-0.00019577,0.00026567,0.01795857,
 0.00571917,-0.00967462,-0.00189906,0.00047302,-0.00050850,0.11730893,-
 0.00622929,-0.00934007,0.00462221,0.00107517,-0.00034058,0.00333267,-0
 .00034927,0.00204891,-0.00170903,-0.00740205,0.00247907,0.02784340,0.0
 0241252,-0.00344937,-0.00170733,-0.06194399,-0.15225193,0.01479484,-0.
 00044277,0.00090575,-0.00012598,-0.00208114,0.00294886,-0.00006915,-0.
 00044437,0.00166663,0.00026645,-0.01487244,-0.04235656,0.00907115,-0.0
 0058878,0.00095689,-0.00201930,0.09339757,0.19280991,0.01028528,0.0244
 7022,0.00161571,-0.00314222,-0.00085039,-0.00122708,-0.05278825,-0.029
 58335,0.00536550,-0.03475103,-0.06799759,-0.03767212,0.00129020,0.0004
 0001,0.00143828,0.11958721,0.13485184,0.02571471,0.00072505,-0.0004160
 8,-0.00010538,0.00231916,-0.00228691,-0.00116793,-0.00007077,-0.001235
 68,-0.00016756,-0.01284343,-0.00678159,0.00680191,0.00409314,-0.001453
 56,0.00036316,-0.03217594,-0.05400210,0.00023717,0.00157262,0.00252389
 ,-0.00048668,-0.00004969,0.00010180,-0.00005636,-0.00162474,0.00064342
 ,0.00128116,-0.00039231,-0.00182419,-0.00026638,-0.00030938,-0.0003429
 9,0.00004827,-0.03003236,-0.00467957,0.00807344,0.00006550,0.00005929,
 0.00015809,0.00002168,0.00005715,0.00000857,0.00008849,0.00000327,-0.0
 0014496,-0.42169476,-0.06753745,0.09558705,0.00055227,0.00013753,0.000
 13310,0.00308390,-0.00253116,-0.00252841,0.44871878,-0.00250654,-0.001
 89856,-0.00025566,-0.00003044,0.00038692,0.00002354,0.00302743,-0.0068
 1829,-0.00017609,0.00337466,0.00264405,-0.00240144,0.00124383,0.000553
 31,0.00055632,0.04865059,-0.00229596,-0.01375507,0.00022281,-0.0001879
 8,-0.00005308,0.00013262,0.00005090,-0.00004835,0.00000571,-0.00007050
 ,0.00006432,-0.12291687,-0.06130794,0.02885999,0.00123069,0.00122108,0
 .00018000,-0.00582352,0.00392249,0.00488518,0.07338901,0.06380048,-0.0
 0095593,0.00033186,-0.00041803,0.00005718,0.00008954,-0.00012428,-0.00
 179893,0.00073102,-0.00071849,0.00180421,-0.00102991,-0.00013835,-0.00
 027901,0.00015617,0.00200801,0.00295234,0.00195414,-0.00212347,0.00024
 721,-0.00039285,0.00001224,0.00003989,0.00000142,0.00003241,-0.0002890
 2,0.00042306,-0.00005191,0.10087033,0.01581143,-0.02420560,0.00054617,
 0.00010160,-0.00008740,-0.00138754,-0.00029782,-0.00119639,-0.10180690
 ,-0.01787966,0.02701128\\-0.00001143,-0.00001760,0.00001079,0.00000222
 ,0.00000521,-0.00000522,0.00006695,0.00005990,0.00000762,0.00004788,0.
 00004714,-0.00000617,0.00001192,0.00001773,-0.00001400,-0.00009695,-0.
 00004966,-0.00006643,-0.00000906,-0.00000256,0.00000109,-0.00000988,-0
 .00003254,0.00000352,0.00000131,-0.00000453,0.00000366,0.00002929,-0.0
 0000875,-0.00001727,-0.00000043,0.00000293,0.00000886,-0.00004292,-0.0
 0000595,0.00006627,0.00001110,-0.00001132,0.00000727\\\@


 A true friend is someone who is there for
 you when he'd rather be anywhere else.
                               -- Len Wein
 Job cpu time:       0 days  0 hours  1 minutes 12.0 seconds.
 File lengths (MBytes):  RWF=     12 Int=      0 D2E=      0 Chk=      2 Scr=      1
 Normal termination of Gaussian 09 at Thu Apr 14 09:13:31 2016.
