 Entering Gaussian System, Link 0=g09
 Input=Ala-S-opt-freq-tsa3-6-31g.com
 Output=Ala-S-opt-freq-tsa3-6-31g.log
 Initial command:
 /usr/local/gau/g09/l1.exe "/tmp/Gau-2406.inp" -scrdir="/tmp/"
 Entering Link 1 = /usr/local/gau/g09/l1.exe PID=      2408.
  
 Copyright (c) 1988,1990,1992,1993,1995,1998,2003,2009,2013,
            Gaussian, Inc.  All Rights Reserved.
  
 This is part of the Gaussian(R) 09 program.  It is based on
 the Gaussian(R) 03 system (copyright 2003, Gaussian, Inc.),
 the Gaussian(R) 98 system (copyright 1998, Gaussian, Inc.),
 the Gaussian(R) 94 system (copyright 1995, Gaussian, Inc.),
 the Gaussian 92(TM) system (copyright 1992, Gaussian, Inc.),
 the Gaussian 90(TM) system (copyright 1990, Gaussian, Inc.),
 the Gaussian 88(TM) system (copyright 1988, Gaussian, Inc.),
 the Gaussian 86(TM) system (copyright 1986, Carnegie Mellon
 University), and the Gaussian 82(TM) system (copyright 1983,
 Carnegie Mellon University). Gaussian is a federally registered
 trademark of Gaussian, Inc.
  
 This software contains proprietary and confidential information,
 including trade secrets, belonging to Gaussian, Inc.
  
 This software is provided under written license and may be
 used, copied, transmitted, or stored only in accord with that
 written license.
  
 The following legend is applicable only to US Government
 contracts under FAR:
  
                    RESTRICTED RIGHTS LEGEND
  
 Use, reproduction and disclosure by the US Government is
 subject to restrictions as set forth in subparagraphs (a)
 and (c) of the Commercial Computer Software - Restricted
 Rights clause in FAR 52.227-19.
  
 Gaussian, Inc.
 340 Quinnipiac St., Bldg. 40, Wallingford CT 06492
  
  
 ---------------------------------------------------------------
 Warning -- This program may not be used in any manner that
 competes with the business of Gaussian, Inc. or will provide
 assistance to any competitor of Gaussian, Inc.  The licensee
 of this program is prohibited from giving any competitor of
 Gaussian, Inc. access to this program.  By using this program,
 the user acknowledges that Gaussian, Inc. is engaged in the
 business of creating and licensing software in the field of
 computational chemistry and represents and warrants to the
 licensee that it is not a competitor of Gaussian, Inc. and that
 it will not use this program in any manner prohibited above.
 ---------------------------------------------------------------
  

 Cite this work as:
 Gaussian 09, Revision D.01,
 M. J. Frisch, G. W. Trucks, H. B. Schlegel, G. E. Scuseria, 
 M. A. Robb, J. R. Cheeseman, G. Scalmani, V. Barone, B. Mennucci, 
 G. A. Petersson, H. Nakatsuji, M. Caricato, X. Li, H. P. Hratchian, 
 A. F. Izmaylov, J. Bloino, G. Zheng, J. L. Sonnenberg, M. Hada, 
 M. Ehara, K. Toyota, R. Fukuda, J. Hasegawa, M. Ishida, T. Nakajima, 
 Y. Honda, O. Kitao, H. Nakai, T. Vreven, J. A. Montgomery, Jr., 
 J. E. Peralta, F. Ogliaro, M. Bearpark, J. J. Heyd, E. Brothers, 
 K. N. Kudin, V. N. Staroverov, T. Keith, R. Kobayashi, J. Normand, 
 K. Raghavachari, A. Rendell, J. C. Burant, S. S. Iyengar, J. Tomasi, 
 M. Cossi, N. Rega, J. M. Millam, M. Klene, J. E. Knox, J. B. Cross, 
 V. Bakken, C. Adamo, J. Jaramillo, R. Gomperts, R. E. Stratmann, 
 O. Yazyev, A. J. Austin, R. Cammi, C. Pomelli, J. W. Ochterski, 
 R. L. Martin, K. Morokuma, V. G. Zakrzewski, G. A. Voth, 
 P. Salvador, J. J. Dannenberg, S. Dapprich, A. D. Daniels, 
 O. Farkas, J. B. Foresman, J. V. Ortiz, J. Cioslowski, 
 and D. J. Fox, Gaussian, Inc., Wallingford CT, 2013.
 
 ******************************************
 Gaussian 09:  ES64L-G09RevD.01 24-Apr-2013
                13-Apr-2016 
 ******************************************
 %chk=Ala-S-opt-freq-tsa3-6-31g.chk
 ------------------------------------------------
 #p opt=(calcfc,ts) freq rb3lyp/6-31g iop(1/11=1)
 ------------------------------------------------
 1/5=1,10=4,11=1,14=-1,18=20,26=3,38=1/1,3;
 2/9=110,12=2,17=6,18=5,40=1/2;
 3/5=1,6=6,11=2,16=1,25=1,30=1,71=2,74=-5,116=1,140=1/1,2,3;
 4//1;
 5/5=2,38=5/2;
 8/6=4,10=90,11=11/1;
 11/6=1,8=1,9=11,15=111,16=1/1,2,10;
 10/6=1,13=1/2;
 6/7=2,8=2,9=2,10=2,28=1/1;
 7/10=1,18=20,25=1/1,2,3,16;
 1/5=1,10=4,11=1,14=-1,18=20,26=3/3(2);
 2/9=110/2;
 99//99;
 2/9=110/2;
 3/5=1,6=6,11=2,16=1,25=1,30=1,71=1,74=-5,116=1/1,2,3;
 4/5=5,16=3,69=1/1;
 5/5=2,38=5/2;
 7//1,2,3,16;
 1/5=1,11=1,14=-1,18=20,26=3/3(-5);
 2/9=110/2;
 6/7=2,8=2,9=2,10=2,19=2,28=1/1;
 99/9=1/99;
 Leave Link    1 at Wed Apr 13 08:29:59 2016, MaxMem=           0 cpu:         0.0
 (Enter /usr/local/gau/g09/l101.exe)
 -------------------------
 Ala-S-opt-freq-tsa3-6-31g
 -------------------------
 Symbolic Z-matrix:
 Charge =  0 Multiplicity = 1
 N                     1.0947    1.25928   0.13501 
 H                     2.09193   1.3352    0.05255 
 C                     0.47676   0.01086   0.10978 
 H                    -2.09655  -1.47125  -0.59585 
 C                     1.38478  -1.18723   0.1021 
 C                    -0.86429  -0.09564   0.1033 
 H                     2.0303   -1.19014   0.99075 
 H                     0.80352  -2.10974   0.09912 
 H                     2.04001  -1.18018  -0.78043 
 O                    -1.64104   1.11938  -0.02281 
 H                     0.53235   2.08706   0.03829 
 O                    -1.55453  -1.31117   0.20741 
 H                    -0.33586   0.64792  -0.01677 
 
 NAtoms=     13 NQM=       13 NQMF=       0 NMMI=      0 NMMIF=      0
                NMic=       0 NMicF=      0.
                    Isotopes and Nuclear Properties:
 (Nuclear quadrupole moments (NQMom) in fm**2, nuclear magnetic moments (NMagM)
  in nuclear magnetons)

  Atom         1           2           3           4           5           6           7           8           9          10
 IAtWgt=          14           1          12           1          12          12           1           1           1          16
 AtmWgt=  14.0030740   1.0078250  12.0000000   1.0078250  12.0000000  12.0000000   1.0078250   1.0078250   1.0078250  15.9949146
 NucSpn=           2           1           0           1           0           0           1           1           1           0
 AtZEff=   0.0000000   0.0000000   0.0000000   0.0000000   0.0000000   0.0000000   0.0000000   0.0000000   0.0000000   0.0000000
 NQMom=    2.0440000   0.0000000   0.0000000   0.0000000   0.0000000   0.0000000   0.0000000   0.0000000   0.0000000   0.0000000
 NMagM=    0.4037610   2.7928460   0.0000000   2.7928460   0.0000000   0.0000000   2.7928460   2.7928460   2.7928460   0.0000000
 AtZNuc=   7.0000000   1.0000000   6.0000000   1.0000000   6.0000000   6.0000000   1.0000000   1.0000000   1.0000000   8.0000000

  Atom        11          12          13
 IAtWgt=           1          16           1
 AtmWgt=   1.0078250  15.9949146   1.0078250
 NucSpn=           1           0           1
 AtZEff=   0.0000000   0.0000000   0.0000000
 NQMom=    0.0000000   0.0000000   0.0000000
 NMagM=    2.7928460   0.0000000   2.7928460
 AtZNuc=   1.0000000   8.0000000   1.0000000
 Leave Link  101 at Wed Apr 13 08:29:59 2016, MaxMem=    33554432 cpu:         0.1
 (Enter /usr/local/gau/g09/l103.exe)

 GradGradGradGradGradGradGradGradGradGradGradGradGradGradGradGradGradGrad
 Berny optimization.
 Initialization pass.
                           ----------------------------
                           !    Initial Parameters    !
                           ! (Angstroms and Degrees)  !
 --------------------------                            --------------------------
 ! Name  Definition              Value          Derivative Info.                !
 --------------------------------------------------------------------------------
 ! R1    R(1,2)                  1.0035         calculate D2E/DX2 analytically  !
 ! R2    R(1,3)                  1.3932         calculate D2E/DX2 analytically  !
 ! R3    R(1,11)                 1.0054         calculate D2E/DX2 analytically  !
 ! R4    R(3,5)                  1.5033         calculate D2E/DX2 analytically  !
 ! R5    R(3,6)                  1.3453         calculate D2E/DX2 analytically  !
 ! R6    R(3,13)                 1.0403         calculate D2E/DX2 analytically  !
 ! R7    R(4,12)                 0.9822         calculate D2E/DX2 analytically  !
 ! R8    R(5,7)                  1.0984         calculate D2E/DX2 analytically  !
 ! R9    R(5,8)                  1.0904         calculate D2E/DX2 analytically  !
 ! R10   R(5,9)                  1.0992         calculate D2E/DX2 analytically  !
 ! R11   R(6,10)                 1.4476         calculate D2E/DX2 analytically  !
 ! R12   R(6,12)                 1.4017         calculate D2E/DX2 analytically  !
 ! R13   R(6,13)                 0.9201         calculate D2E/DX2 analytically  !
 ! A1    A(2,1,3)              120.4689         calculate D2E/DX2 analytically  !
 ! A2    A(2,1,11)             119.0538         calculate D2E/DX2 analytically  !
 ! A3    A(3,1,11)             119.2059         calculate D2E/DX2 analytically  !
 ! A4    A(1,3,5)              116.508          calculate D2E/DX2 analytically  !
 ! A5    A(1,3,6)              120.8748         calculate D2E/DX2 analytically  !
 ! A6    A(1,3,13)              78.4584         calculate D2E/DX2 analytically  !
 ! A7    A(5,3,6)              122.6153         calculate D2E/DX2 analytically  !
 ! A8    A(5,3,13)             163.5863         calculate D2E/DX2 analytically  !
 ! A9    A(3,5,7)              110.6686         calculate D2E/DX2 analytically  !
 ! A10   A(3,5,8)              110.6273         calculate D2E/DX2 analytically  !
 ! A11   A(3,5,9)              111.0413         calculate D2E/DX2 analytically  !
 ! A12   A(7,5,8)              108.2564         calculate D2E/DX2 analytically  !
 ! A13   A(7,5,9)              107.4144         calculate D2E/DX2 analytically  !
 ! A14   A(8,5,9)              108.7238         calculate D2E/DX2 analytically  !
 ! A15   A(3,6,10)             117.9609         calculate D2E/DX2 analytically  !
 ! A16   A(3,6,12)             123.9986         calculate D2E/DX2 analytically  !
 ! A17   A(10,6,12)            118.0403         calculate D2E/DX2 analytically  !
 ! A18   A(10,6,13)             67.5731         calculate D2E/DX2 analytically  !
 ! A19   A(4,12,6)             110.6311         calculate D2E/DX2 analytically  !
 ! A20   L(12,6,13,10,-1)      185.6134         calculate D2E/DX2 analytically  !
 ! A21   L(12,6,13,10,-2)      183.8918         calculate D2E/DX2 analytically  !
 ! D1    D(2,1,3,5)              6.2762         calculate D2E/DX2 analytically  !
 ! D2    D(2,1,3,6)           -174.2135         calculate D2E/DX2 analytically  !
 ! D3    D(2,1,3,13)          -166.5673         calculate D2E/DX2 analytically  !
 ! D4    D(11,1,3,5)           173.2777         calculate D2E/DX2 analytically  !
 ! D5    D(11,1,3,6)            -7.2119         calculate D2E/DX2 analytically  !
 ! D6    D(11,1,3,13)            0.4343         calculate D2E/DX2 analytically  !
 ! D7    D(1,3,5,7)             59.0596         calculate D2E/DX2 analytically  !
 ! D8    D(1,3,5,8)            179.0434         calculate D2E/DX2 analytically  !
 ! D9    D(1,3,5,9)            -60.1392         calculate D2E/DX2 analytically  !
 ! D10   D(6,3,5,7)           -120.4415         calculate D2E/DX2 analytically  !
 ! D11   D(6,3,5,8)             -0.4577         calculate D2E/DX2 analytically  !
 ! D12   D(6,3,5,9)            120.3597         calculate D2E/DX2 analytically  !
 ! D13   D(13,3,5,7)          -146.5332         calculate D2E/DX2 analytically  !
 ! D14   D(13,3,5,8)           -26.5493         calculate D2E/DX2 analytically  !
 ! D15   D(13,3,5,9)            94.2681         calculate D2E/DX2 analytically  !
 ! D16   D(1,3,6,10)             6.5574         calculate D2E/DX2 analytically  !
 ! D17   D(1,3,6,12)          -173.6291         calculate D2E/DX2 analytically  !
 ! D18   D(5,3,6,10)          -173.9628         calculate D2E/DX2 analytically  !
 ! D19   D(5,3,6,12)             5.8507         calculate D2E/DX2 analytically  !
 ! D20   D(3,6,12,4)          -118.4765         calculate D2E/DX2 analytically  !
 ! D21   D(10,6,12,4)           61.3369         calculate D2E/DX2 analytically  !
 --------------------------------------------------------------------------------
 Trust Radius=3.00D-01 FncErr=1.00D-07 GrdErr=1.00D-06
 Number of steps in this run=     65 maximum allowed number of steps=    100.
 Search for a saddle point of order  1.
 GradGradGradGradGradGradGradGradGradGradGradGradGradGradGradGradGradGrad

 Leave Link  103 at Wed Apr 13 08:29:59 2016, MaxMem=    33554432 cpu:         0.0
 (Enter /usr/local/gau/g09/l202.exe)
                          Input orientation:                          
 ---------------------------------------------------------------------
 Center     Atomic      Atomic             Coordinates (Angstroms)
 Number     Number       Type             X           Y           Z
 ---------------------------------------------------------------------
      1          7           0        1.094698    1.259277    0.135011
      2          1           0        2.091928    1.335203    0.052547
      3          6           0        0.476757    0.010857    0.109777
      4          1           0       -2.096545   -1.471249   -0.595849
      5          6           0        1.384783   -1.187227    0.102097
      6          6           0       -0.864285   -0.095641    0.103300
      7          1           0        2.030300   -1.190139    0.990753
      8          1           0        0.803516   -2.109735    0.099117
      9          1           0        2.040008   -1.180177   -0.780432
     10          8           0       -1.641041    1.119378   -0.022808
     11          1           0        0.532350    2.087061    0.038289
     12          8           0       -1.554533   -1.311172    0.207406
     13          1           0       -0.335856    0.647921   -0.016774
 ---------------------------------------------------------------------
                    Distance matrix (angstroms):
                    1          2          3          4          5
     1  N    0.000000
     2  H    1.003510   0.000000
     3  C    1.393212   2.089484   0.000000
     4  H    4.263093   5.083296   3.052283   0.000000
     5  C    2.463862   2.620145   1.503321   3.561944   0.000000
     6  C    2.382105   3.284674   1.345280   1.974733   2.499974
     7  H    2.758131   2.694695   2.152210   4.430257   1.098367
     8  H    3.381762   3.678284   2.145646   3.049753   1.090367
     9  H    2.771747   2.650224   2.157496   4.150887   1.099194
    10  O    2.743856   3.739962   2.394048   2.692064   3.806789
    11  H    1.005394   1.731409   2.078178   4.469317   3.384032
    12  O    3.692001   4.508210   2.425579   0.982151   2.943812
    13  H    1.563099   2.524143   1.040291   2.815357   2.518432
                    6          7          8          9         10
     6  C    0.000000
     7  H    3.219335   0.000000
     8  H    2.614986   1.773604   0.000000
     9  H    3.223681   1.771240   1.779493   0.000000
    10  O    1.447593   4.454203   4.051901   4.405914   0.000000
    11  H    2.592104   3.727074   4.205987   3.690282   2.379868
    12  O    1.401712   3.671418   2.491952   3.730108   2.442961
    13  H    0.920076   3.161055   2.986012   3.093517   1.387738
                   11         12         13
    11  H    0.000000
    12  O    3.991449   0.000000
    13  H    1.681647   2.318076   0.000000
 Stoichiometry    C3H7NO2
 Framework group  C1[X(C3H7NO2)]
 Deg. of freedom    33
 Full point group                 C1      NOp   1
 Largest Abelian subgroup         C1      NOp   1
 Largest concise Abelian subgroup C1      NOp   1
                         Standard orientation:                         
 ---------------------------------------------------------------------
 Center     Atomic      Atomic             Coordinates (Angstroms)
 Number     Number       Type             X           Y           Z
 ---------------------------------------------------------------------
      1          7           0        1.331504   -1.209731   -0.049962
      2          1           0        2.329615   -1.214100    0.053903
      3          6           0        0.622444   -0.011075   -0.011242
      4          1           0       -2.068081    1.260538    0.667362
      5          6           0        1.438914    1.249987    0.044214
      6          6           0       -0.722631   -0.003628   -0.033507
      7          1           0        2.101394    1.321622   -0.828941
      8          1           0        0.791023    2.126934    0.054275
      9          1           0        2.073744    1.269988    0.941330
     10          8           0       -1.409844   -1.275129    0.047424
     11          1           0        0.830027   -2.078690    0.015207
     12          8           0       -1.498568    1.160019   -0.126471
     13          1           0       -0.143312   -0.708997    0.082186
 ---------------------------------------------------------------------
 Rotational constants (GHZ):      4.8122273      3.3642639      2.0177680
 Leave Link  202 at Wed Apr 13 08:29:59 2016, MaxMem=    33554432 cpu:         0.0
 (Enter /usr/local/gau/g09/l301.exe)
 Standard basis: 6-31G (6D, 7F)
 Ernie: Thresh=  0.10000D-02 Tol=  0.10000D-05 Strict=F.
 There are    68 symmetry adapted cartesian basis functions of A   symmetry.
 There are    68 symmetry adapted basis functions of A   symmetry.
    68 basis functions,   160 primitive gaussians,    68 cartesian basis functions
    24 alpha electrons       24 beta electrons
       nuclear repulsion energy       249.5167528052 Hartrees.
 IExCor=  402 DFT=T Ex+Corr=B3LYP ExCW=0 ScaHFX=  0.200000
 ScaDFX=  0.800000  0.720000  1.000000  0.810000 ScalE2=  1.000000  1.000000
 IRadAn=      0 IRanWt=     -1 IRanGd=            0 ICorTp=0 IEmpDi=  4
 NAtoms=   13 NActive=   13 NUniq=   13 SFac= 1.00D+00 NAtFMM=   60 NAOKFM=F Big=F
 Integral buffers will be    131072 words long.
 Raffenetti 2 integral format.
 Two-electron integral symmetry is turned on.
 Leave Link  301 at Wed Apr 13 08:30:00 2016, MaxMem=    33554432 cpu:         0.0
 (Enter /usr/local/gau/g09/l302.exe)
 NPDir=0 NMtPBC=     1 NCelOv=     1 NCel=       1 NClECP=     1 NCelD=      1
         NCelK=      1 NCelE2=     1 NClLst=     1 CellRange=     0.0.
 One-electron integrals computed using PRISM.
 NBasis=    68 RedAO= T EigKep=  2.85D-03  NBF=    68
 NBsUse=    68 1.00D-06 EigRej= -1.00D+00 NBFU=    68
 Precomputing XC quadrature grid using
 IXCGrd= 4 IRadAn=           0 IRanWt=          -1 IRanGd=           0 AccXCQ= 0.00D+00.
 Generated NRdTot=       0 NPtTot=           0 NUsed=           0 NTot=          32
 NSgBfM=    68    68    68    68    68 MxSgAt=    13 MxSgA2=    13.
 Leave Link  302 at Wed Apr 13 08:30:00 2016, MaxMem=    33554432 cpu:         0.1
 (Enter /usr/local/gau/g09/l303.exe)
 DipDrv:  MaxL=1.
 Leave Link  303 at Wed Apr 13 08:30:00 2016, MaxMem=    33554432 cpu:         0.0
 (Enter /usr/local/gau/g09/l401.exe)
 ExpMin= 1.61D-01 ExpMax= 5.48D+03 ExpMxC= 8.25D+02 IAcc=1 IRadAn=         1 AccDes= 0.00D+00
 Harris functional with IExCor=  402 and IRadAn=       1 diagonalized for initial guess.
 HarFok:  IExCor=  402 AccDes= 0.00D+00 IRadAn=         1 IDoV= 1 UseB2=F ITyADJ=14
 ICtDFT=  3500011 ScaDFX=  1.000000  1.000000  1.000000  1.000000
 FoFCou: FMM=F IPFlag=           0 FMFlag=      100000 FMFlg1=           0
         NFxFlg=           0 DoJE=T BraDBF=F KetDBF=T FulRan=T
         wScrn=  0.000000 ICntrl=     500 IOpCl=  0 I1Cent=   200000004 NGrid=           0
         NMat0=    1 NMatS0=      1 NMatT0=    0 NMatD0=    1 NMtDS0=    0 NMtDT0=    0
 Petite list used in FoFCou.
 Harris En= -323.333953319357    
 JPrj=0 DoOrth=F DoCkMO=F.
 Leave Link  401 at Wed Apr 13 08:30:00 2016, MaxMem=    33554432 cpu:         0.4
 (Enter /usr/local/gau/g09/l502.exe)
 Closed shell SCF:
 Using DIIS extrapolation, IDIIS=  1040.
 Integral symmetry usage will be decided dynamically.
 Keep R1 ints in memory in canonical form, NReq=3676491.
 IVT=       33364 IEndB=       33364 NGot=    33554432 MDV=    30768038
 LenX=    30768038 LenY=    30762973
 Requested convergence on RMS density matrix=1.00D-08 within 128 cycles.
 Requested convergence on MAX density matrix=1.00D-06.
 Requested convergence on             energy=1.00D-06.
 No special actions if energy rises.
 FoFCou: FMM=F IPFlag=           0 FMFlag=           0 FMFlg1=           0
         NFxFlg=           0 DoJE=F BraDBF=F KetDBF=F FulRan=T
         wScrn=  0.000000 ICntrl=     600 IOpCl=  0 I1Cent=           0 NGrid=           0
         NMat0=    1 NMatS0=   2346 NMatT0=    0 NMatD0=    1 NMtDS0=    0 NMtDT0=    0
 Symmetry not used in FoFCou.
 Integral accuracy reduced to 1.0D-05 until final iterations.

 Cycle   1  Pass 0  IDiag  1:
 E= -323.118543011792    
 DIIS: error= 3.50D-02 at cycle   1 NSaved=   1.
 NSaved= 1 IEnMin= 1 EnMin= -323.118543011792     IErMin= 1 ErrMin= 3.50D-02
 ErrMax= 3.50D-02  0.00D+00 EMaxC= 1.00D-01 BMatC= 1.85D-01 BMatP= 1.85D-01
 IDIUse=3 WtCom= 6.50D-01 WtEn= 3.50D-01
 Coeff-Com:  0.100D+01
 Coeff-En:   0.100D+01
 Coeff:      0.100D+01
 Gap=     0.217 Goal=   None    Shift=    0.000
 GapD=    0.217 DampG=1.000 DampE=0.500 DampFc=0.5000 IDamp=-1.
 Damping current iteration by 5.00D-01
 RMSDP=2.71D-02 MaxDP=5.81D-01              OVMax= 2.89D-01

 Cycle   2  Pass 0  IDiag  1:
 E= -323.137777175155     Delta-E=       -0.019234163364 Rises=F Damp=T
 DIIS: error= 2.64D-02 at cycle   2 NSaved=   2.
 NSaved= 2 IEnMin= 2 EnMin= -323.137777175155     IErMin= 2 ErrMin= 2.64D-02
 ErrMax= 2.64D-02  0.00D+00 EMaxC= 1.00D-01 BMatC= 4.83D-02 BMatP= 1.85D-01
 IDIUse=3 WtCom= 7.36D-01 WtEn= 2.64D-01
 Coeff-Com:  0.292D+00 0.708D+00
 Coeff-En:   0.448D+00 0.552D+00
 Coeff:      0.333D+00 0.667D+00
 Gap=     0.228 Goal=   None    Shift=    0.000
 RMSDP=8.65D-03 MaxDP=1.36D-01 DE=-1.92D-02 OVMax= 2.34D-01

 Cycle   3  Pass 0  IDiag  1:
 E= -323.233605886250     Delta-E=       -0.095828711095 Rises=F Damp=F
 DIIS: error= 2.76D-02 at cycle   3 NSaved=   3.
 NSaved= 3 IEnMin= 3 EnMin= -323.233605886250     IErMin= 2 ErrMin= 2.64D-02
 ErrMax= 2.76D-02  0.00D+00 EMaxC= 1.00D-01 BMatC= 5.88D-02 BMatP= 4.83D-02
 IDIUse=2 WtCom= 0.00D+00 WtEn= 1.00D+00
 EnCoef did     2 forward-backward iterations
 Coeff-En:   0.571D-02 0.114D+00 0.880D+00
 Coeff:      0.571D-02 0.114D+00 0.880D+00
 Gap=     0.209 Goal=   None    Shift=    0.000
 RMSDP=1.59D-02 MaxDP=2.31D-01 DE=-9.58D-02 OVMax= 3.14D-01

 Cycle   4  Pass 0  IDiag  1:
 E= -322.970629742393     Delta-E=        0.262976143858 Rises=F Damp=F
 DIIS: error= 8.32D-02 at cycle   4 NSaved=   4.
 NSaved= 4 IEnMin= 3 EnMin= -323.233605886250     IErMin= 2 ErrMin= 2.64D-02
 ErrMax= 8.32D-02  0.00D+00 EMaxC= 1.00D-01 BMatC= 3.63D-01 BMatP= 4.83D-02
 IDIUse=2 WtCom= 0.00D+00 WtEn= 1.00D+00
 Coeff-En:   0.000D+00 0.000D+00 0.785D+00 0.215D+00
 Coeff:      0.000D+00 0.000D+00 0.785D+00 0.215D+00
 Gap=     0.197 Goal=   None    Shift=    0.000
 RMSDP=9.67D-03 MaxDP=1.63D-01 DE= 2.63D-01 OVMax= 1.84D-01

 Cycle   5  Pass 0  IDiag  1:
 E= -323.269819165897     Delta-E=       -0.299189423504 Rises=F Damp=F
 DIIS: error= 1.74D-02 at cycle   5 NSaved=   5.
 NSaved= 5 IEnMin= 5 EnMin= -323.269819165897     IErMin= 5 ErrMin= 1.74D-02
 ErrMax= 1.74D-02  0.00D+00 EMaxC= 1.00D-01 BMatC= 2.07D-02 BMatP= 4.83D-02
 IDIUse=3 WtCom= 8.26D-01 WtEn= 1.74D-01
 Coeff-Com: -0.208D-01 0.658D-01 0.291D+00-0.818D-01 0.746D+00
 Coeff-En:   0.000D+00 0.000D+00 0.308D+00 0.000D+00 0.692D+00
 Coeff:     -0.172D-01 0.543D-01 0.294D+00-0.676D-01 0.737D+00
 Gap=     0.206 Goal=   None    Shift=    0.000
 RMSDP=2.57D-03 MaxDP=2.95D-02 DE=-2.99D-01 OVMax= 4.97D-02

 Cycle   6  Pass 0  IDiag  1:
 E= -323.288509597927     Delta-E=       -0.018690432030 Rises=F Damp=F
 DIIS: error= 1.40D-03 at cycle   6 NSaved=   6.
 NSaved= 6 IEnMin= 6 EnMin= -323.288509597927     IErMin= 6 ErrMin= 1.40D-03
 ErrMax= 1.40D-03  0.00D+00 EMaxC= 1.00D-01 BMatC= 9.17D-05 BMatP= 2.07D-02
 IDIUse=3 WtCom= 9.86D-01 WtEn= 1.40D-02
 Coeff-Com: -0.124D-01 0.191D-01 0.113D+00-0.353D-01 0.344D+00 0.572D+00
 Coeff-En:   0.000D+00 0.000D+00 0.000D+00 0.000D+00 0.000D+00 0.100D+01
 Coeff:     -0.122D-01 0.188D-01 0.111D+00-0.348D-01 0.339D+00 0.578D+00
 Gap=     0.204 Goal=   None    Shift=    0.000
 RMSDP=2.33D-04 MaxDP=3.54D-03 DE=-1.87D-02 OVMax= 5.41D-03

 Cycle   7  Pass 0  IDiag  1:
 E= -323.288588108185     Delta-E=       -0.000078510258 Rises=F Damp=F
 DIIS: error= 6.58D-04 at cycle   7 NSaved=   7.
 NSaved= 7 IEnMin= 7 EnMin= -323.288588108185     IErMin= 7 ErrMin= 6.58D-04
 ErrMax= 6.58D-04  0.00D+00 EMaxC= 1.00D-01 BMatC= 9.94D-06 BMatP= 9.17D-05
 IDIUse=3 WtCom= 9.93D-01 WtEn= 6.58D-03
 Coeff-Com: -0.329D-02 0.532D-02 0.247D-01-0.108D-01 0.925D-01 0.347D+00
 Coeff-Com:  0.544D+00
 Coeff-En:   0.000D+00 0.000D+00 0.000D+00 0.000D+00 0.000D+00 0.119D+00
 Coeff-En:   0.881D+00
 Coeff:     -0.327D-02 0.529D-02 0.245D-01-0.107D-01 0.919D-01 0.346D+00
 Coeff:      0.546D+00
 Gap=     0.204 Goal=   None    Shift=    0.000
 RMSDP=7.07D-05 MaxDP=1.06D-03 DE=-7.85D-05 OVMax= 2.27D-03

 Cycle   8  Pass 0  IDiag  1:
 E= -323.288598353142     Delta-E=       -0.000010244957 Rises=F Damp=F
 DIIS: error= 1.12D-04 at cycle   8 NSaved=   8.
 NSaved= 8 IEnMin= 8 EnMin= -323.288598353142     IErMin= 8 ErrMin= 1.12D-04
 ErrMax= 1.12D-04  0.00D+00 EMaxC= 1.00D-01 BMatC= 8.56D-07 BMatP= 9.94D-06
 IDIUse=3 WtCom= 9.99D-01 WtEn= 1.12D-03
 Coeff-Com: -0.324D-03-0.323D-03-0.951D-03-0.114D-02 0.764D-02 0.143D+00
 Coeff-Com:  0.328D+00 0.524D+00
 Coeff-En:   0.000D+00 0.000D+00 0.000D+00 0.000D+00 0.000D+00 0.000D+00
 Coeff-En:   0.000D+00 0.100D+01
 Coeff:     -0.324D-03-0.323D-03-0.950D-03-0.114D-02 0.763D-02 0.143D+00
 Coeff:      0.328D+00 0.524D+00
 Gap=     0.204 Goal=   None    Shift=    0.000
 RMSDP=1.54D-05 MaxDP=1.86D-04 DE=-1.02D-05 OVMax= 2.84D-04

 Cycle   9  Pass 0  IDiag  1:
 E= -323.288599127981     Delta-E=       -0.000000774839 Rises=F Damp=F
 DIIS: error= 2.84D-05 at cycle   9 NSaved=   9.
 NSaved= 9 IEnMin= 9 EnMin= -323.288599127981     IErMin= 9 ErrMin= 2.84D-05
 ErrMax= 2.84D-05  0.00D+00 EMaxC= 1.00D-01 BMatC= 4.92D-08 BMatP= 8.56D-07
 IDIUse=1 WtCom= 1.00D+00 WtEn= 0.00D+00
 Coeff-Com: -0.394D-04-0.793D-03-0.234D-02 0.333D-03-0.283D-02 0.398D-01
 Coeff-Com:  0.113D+00 0.220D+00 0.633D+00
 Coeff:     -0.394D-04-0.793D-03-0.234D-02 0.333D-03-0.283D-02 0.398D-01
 Coeff:      0.113D+00 0.220D+00 0.633D+00
 Gap=     0.204 Goal=   None    Shift=    0.000
 RMSDP=4.25D-06 MaxDP=4.71D-05 DE=-7.75D-07 OVMax= 4.97D-05

 Initial convergence to 1.0D-05 achieved.  Increase integral accuracy.
 Cycle  10  Pass 1  IDiag  1:
 E= -323.288633237327     Delta-E=       -0.000034109346 Rises=F Damp=F
 DIIS: error= 1.07D-05 at cycle   1 NSaved=   1.
 NSaved= 1 IEnMin= 1 EnMin= -323.288633237327     IErMin= 1 ErrMin= 1.07D-05
 ErrMax= 1.07D-05  0.00D+00 EMaxC= 1.00D-01 BMatC= 1.67D-08 BMatP= 1.67D-08
 IDIUse=1 WtCom= 1.00D+00 WtEn= 0.00D+00
 Coeff-Com:  0.100D+01
 Coeff:      0.100D+01
 Gap=     0.204 Goal=   None    Shift=    0.000
 RMSDP=4.25D-06 MaxDP=4.71D-05 DE=-3.41D-05 OVMax= 9.59D-05

 Cycle  11  Pass 1  IDiag  1:
 E= -323.288633226435     Delta-E=        0.000000010893 Rises=F Damp=F
 DIIS: error= 2.80D-05 at cycle   2 NSaved=   2.
 NSaved= 2 IEnMin= 1 EnMin= -323.288633237327     IErMin= 1 ErrMin= 1.07D-05
 ErrMax= 2.80D-05  0.00D+00 EMaxC= 1.00D-01 BMatC= 3.95D-08 BMatP= 1.67D-08
 IDIUse=1 WtCom= 1.00D+00 WtEn= 0.00D+00
 Coeff-Com:  0.625D+00 0.375D+00
 Coeff:      0.625D+00 0.375D+00
 Gap=     0.204 Goal=   None    Shift=    0.000
 RMSDP=5.55D-06 MaxDP=1.04D-04 DE= 1.09D-08 OVMax= 1.00D-04

 Cycle  12  Pass 1  IDiag  1:
 E= -323.288633256787     Delta-E=       -0.000000030353 Rises=F Damp=F
 DIIS: error= 9.66D-06 at cycle   3 NSaved=   3.
 NSaved= 3 IEnMin= 3 EnMin= -323.288633256787     IErMin= 3 ErrMin= 9.66D-06
 ErrMax= 9.66D-06  0.00D+00 EMaxC= 1.00D-01 BMatC= 5.21D-09 BMatP= 1.67D-08
 IDIUse=1 WtCom= 1.00D+00 WtEn= 0.00D+00
 Coeff-Com:  0.169D+00 0.260D+00 0.572D+00
 Coeff:      0.169D+00 0.260D+00 0.572D+00
 Gap=     0.204 Goal=   None    Shift=    0.000
 RMSDP=1.79D-06 MaxDP=2.58D-05 DE=-3.04D-08 OVMax= 3.09D-05

 Cycle  13  Pass 1  IDiag  1:
 E= -323.288633260518     Delta-E=       -0.000000003731 Rises=F Damp=F
 DIIS: error= 3.28D-06 at cycle   4 NSaved=   4.
 NSaved= 4 IEnMin= 4 EnMin= -323.288633260518     IErMin= 4 ErrMin= 3.28D-06
 ErrMax= 3.28D-06  0.00D+00 EMaxC= 1.00D-01 BMatC= 1.07D-09 BMatP= 5.21D-09
 IDIUse=1 WtCom= 1.00D+00 WtEn= 0.00D+00
 Coeff-Com: -0.199D-01 0.101D+00 0.388D+00 0.531D+00
 Coeff:     -0.199D-01 0.101D+00 0.388D+00 0.531D+00
 Gap=     0.204 Goal=   None    Shift=    0.000
 RMSDP=5.45D-07 MaxDP=6.19D-06 DE=-3.73D-09 OVMax= 8.27D-06

 Cycle  14  Pass 1  IDiag  1:
 E= -323.288633261366     Delta-E=       -0.000000000848 Rises=F Damp=F
 DIIS: error= 7.03D-07 at cycle   5 NSaved=   5.
 NSaved= 5 IEnMin= 5 EnMin= -323.288633261366     IErMin= 5 ErrMin= 7.03D-07
 ErrMax= 7.03D-07  0.00D+00 EMaxC= 1.00D-01 BMatC= 4.65D-11 BMatP= 1.07D-09
 IDIUse=1 WtCom= 1.00D+00 WtEn= 0.00D+00
 Coeff-Com: -0.169D-01 0.508D-01 0.203D+00 0.313D+00 0.450D+00
 Coeff:     -0.169D-01 0.508D-01 0.203D+00 0.313D+00 0.450D+00
 Gap=     0.204 Goal=   None    Shift=    0.000
 RMSDP=1.21D-07 MaxDP=1.68D-06 DE=-8.48D-10 OVMax= 1.85D-06

 Cycle  15  Pass 1  IDiag  1:
 E= -323.288633261407     Delta-E=       -0.000000000041 Rises=F Damp=F
 DIIS: error= 2.33D-07 at cycle   6 NSaved=   6.
 NSaved= 6 IEnMin= 6 EnMin= -323.288633261407     IErMin= 6 ErrMin= 2.33D-07
 ErrMax= 2.33D-07  0.00D+00 EMaxC= 1.00D-01 BMatC= 1.76D-12 BMatP= 4.65D-11
 IDIUse=1 WtCom= 1.00D+00 WtEn= 0.00D+00
 Coeff-Com: -0.510D-02 0.126D-01 0.442D-01 0.813D-01 0.186D+00 0.681D+00
 Coeff:     -0.510D-02 0.126D-01 0.442D-01 0.813D-01 0.186D+00 0.681D+00
 Gap=     0.204 Goal=   None    Shift=    0.000
 RMSDP=3.12D-08 MaxDP=6.81D-07 DE=-4.12D-11 OVMax= 7.97D-07

 Cycle  16  Pass 1  IDiag  1:
 E= -323.288633261409     Delta-E=       -0.000000000001 Rises=F Damp=F
 DIIS: error= 6.77D-08 at cycle   7 NSaved=   7.
 NSaved= 7 IEnMin= 7 EnMin= -323.288633261409     IErMin= 7 ErrMin= 6.77D-08
 ErrMax= 6.77D-08  0.00D+00 EMaxC= 1.00D-01 BMatC= 4.85D-13 BMatP= 1.76D-12
 IDIUse=1 WtCom= 1.00D+00 WtEn= 0.00D+00
 Coeff-Com: -0.583D-03 0.457D-03-0.354D-02 0.421D-02 0.510D-01 0.425D+00
 Coeff-Com:  0.524D+00
 Coeff:     -0.583D-03 0.457D-03-0.354D-02 0.421D-02 0.510D-01 0.425D+00
 Coeff:      0.524D+00
 Gap=     0.204 Goal=   None    Shift=    0.000
 RMSDP=1.42D-08 MaxDP=2.21D-07 DE=-1.14D-12 OVMax= 2.86D-07

 Cycle  17  Pass 1  IDiag  1:
 E= -323.288633261411     Delta-E=       -0.000000000003 Rises=F Damp=F
 DIIS: error= 1.35D-08 at cycle   8 NSaved=   8.
 NSaved= 8 IEnMin= 8 EnMin= -323.288633261411     IErMin= 8 ErrMin= 1.35D-08
 ErrMax= 1.35D-08  0.00D+00 EMaxC= 1.00D-01 BMatC= 1.70D-14 BMatP= 4.85D-13
 IDIUse=1 WtCom= 1.00D+00 WtEn= 0.00D+00
 Coeff-Com:  0.149D-03-0.720D-03-0.482D-02-0.429D-02 0.740D-02 0.108D+00
 Coeff-Com:  0.219D+00 0.675D+00
 Coeff:      0.149D-03-0.720D-03-0.482D-02-0.429D-02 0.740D-02 0.108D+00
 Coeff:      0.219D+00 0.675D+00
 Gap=     0.204 Goal=   None    Shift=    0.000
 RMSDP=3.25D-09 MaxDP=3.99D-08 DE=-2.50D-12 OVMax= 4.72D-08

 SCF Done:  E(RB3LYP) =  -323.288633261     A.U. after   17 cycles
            NFock= 17  Conv=0.32D-08     -V/T= 2.0030
 KE= 3.223249331545D+02 PE=-1.256050797816D+03 EE= 3.609204785951D+02
 Leave Link  502 at Wed Apr 13 08:30:12 2016, MaxMem=    33554432 cpu:        10.6
 (Enter /usr/local/gau/g09/l801.exe)
 DoSCS=F DFT=T ScalE2(SS,OS)=  1.000000  1.000000
 Range of M.O.s used for correlation:     1    68
 NBasis=    68 NAE=    24 NBE=    24 NFC=     0 NFV=     0
 NROrb=     68 NOA=    24 NOB=    24 NVA=    44 NVB=    44
 Leave Link  801 at Wed Apr 13 08:30:12 2016, MaxMem=    33554432 cpu:         0.0
 (Enter /usr/local/gau/g09/l1101.exe)
 Using compressed storage, NAtomX=    13.
 Will process     14 centers per pass.
 Leave Link 1101 at Wed Apr 13 08:30:12 2016, MaxMem=    33554432 cpu:         0.1
 (Enter /usr/local/gau/g09/l1102.exe)
 Symmetrizing basis deriv contribution to polar:
 IMax=3 JMax=2 DiffMx= 0.00D+00
 Leave Link 1102 at Wed Apr 13 08:30:12 2016, MaxMem=    33554432 cpu:         0.0
 (Enter /usr/local/gau/g09/l1110.exe)
 Forming Gx(P) for the SCF density, NAtomX=    13.
 Integral derivatives from FoFJK, PRISM(SPDF).
 Do as many integral derivatives as possible in FoFJK.
 G2DrvN: MDV=      33554224.
 G2DrvN: will do    14 centers at a time, making    1 passes.
 Calling FoFCou, ICntrl=  3107 FMM=F I1Cent=   0 AccDes= 0.00D+00.
 FoFJK:  IHMeth= 1 ICntrl=    3107 DoSepK=F KAlg= 0 I1Cent=   0 FoldK=F
 IRaf=         0 NMat=   1 IRICut=       1 DoRegI=T DoRafI=F ISym2E= 0.
 FoFCou: FMM=F IPFlag=           0 FMFlag=      100000 FMFlg1=           0
         NFxFlg=           0 DoJE=F BraDBF=F KetDBF=F FulRan=T
         wScrn=  0.000000 ICntrl=    3107 IOpCl=  0 I1Cent=           0 NGrid=           0
         NMat0=    1 NMatS0=      1 NMatT0=    0 NMatD0=    1 NMtDS0=    0 NMtDT0=    0
 Symmetry not used in FoFCou.
 End of G2Drv F.D. properties file   721 does not exist.
 End of G2Drv F.D. properties file   722 does not exist.
 End of G2Drv F.D. properties file   788 does not exist.
 Leave Link 1110 at Wed Apr 13 08:30:35 2016, MaxMem=    33554432 cpu:        21.8
 (Enter /usr/local/gau/g09/l1002.exe)
 Minotr:  Closed shell wavefunction.
          IDoAtm=1111111111111
          Direct CPHF calculation.
          Differentiating once with respect to nuclear coordinates.
          Requested convergence is 1.0D-08 RMS, and 1.0D-07 maximum.
          Secondary convergence is 1.0D-12 RMS, and 1.0D-12 maximum.
          NewPWx=T KeepS1=F KeepF1=F KeepIn=T MapXYZ=F SortEE=F KeepMc=T.
          MDV=      33554230 using IRadAn=       2.
 Generate precomputed XC quadrature information.
 Keep R1 ints in memory in canonical form, NReq=3645290.
 FoFCou: FMM=F IPFlag=           0 FMFlag=           0 FMFlg1=           0
         NFxFlg=           0 DoJE=F BraDBF=F KetDBF=F FulRan=T
         wScrn=  0.000000 ICntrl=     600 IOpCl=  0 I1Cent=           0 NGrid=           0
         NMat0=    1 NMatS0=   2346 NMatT0=    0 NMatD0=    1 NMtDS0=    0 NMtDT0=    0
 Symmetry not used in FoFCou.
          Solving linear equations simultaneously, MaxMat=       0.
          There are    42 degrees of freedom in the 1st order CPHF.  IDoFFX=6 NUNeed=     0.
     36 vectors produced by pass  0 Test12= 2.51D-15 2.38D-09 XBig12= 2.04D-01 1.67D-01.
 AX will form    36 AO Fock derivatives at one time.
     36 vectors produced by pass  1 Test12= 2.51D-15 2.38D-09 XBig12= 3.20D-02 3.45D-02.
     36 vectors produced by pass  2 Test12= 2.51D-15 2.38D-09 XBig12= 1.46D-04 2.03D-03.
     36 vectors produced by pass  3 Test12= 2.51D-15 2.38D-09 XBig12= 2.95D-07 7.13D-05.
     36 vectors produced by pass  4 Test12= 2.51D-15 2.38D-09 XBig12= 2.75D-10 2.29D-06.
     18 vectors produced by pass  5 Test12= 2.51D-15 2.38D-09 XBig12= 1.49D-13 4.46D-08.
 InvSVY:  IOpt=1 It=  1 EMax= 1.89D-15
 Solved reduced A of dimension   198 with    36 vectors.
 End of Minotr F.D. properties file   721 does not exist.
 End of Minotr F.D. properties file   722 does not exist.
 End of Minotr F.D. properties file   788 does not exist.
 Leave Link 1002 at Wed Apr 13 08:30:49 2016, MaxMem=    33554432 cpu:        14.2
 (Enter /usr/local/gau/g09/l601.exe)
 Copying SCF densities to generalized density rwf, IOpCl= 0 IROHF=0.

 **********************************************************************

            Population analysis using the SCF density.

 **********************************************************************

 Orbital symmetries:
       Occupied  (A) (A) (A) (A) (A) (A) (A) (A) (A) (A) (A) (A)
                 (A) (A) (A) (A) (A) (A) (A) (A) (A) (A) (A) (A)
       Virtual   (A) (A) (A) (A) (A) (A) (A) (A) (A) (A) (A) (A)
                 (A) (A) (A) (A) (A) (A) (A) (A) (A) (A) (A) (A)
                 (A) (A) (A) (A) (A) (A) (A) (A) (A) (A) (A) (A)
                 (A) (A) (A) (A) (A) (A) (A) (A)
 The electronic state is 1-A.
 Alpha  occ. eigenvalues --  -19.18306 -19.10916 -14.35599 -10.30835 -10.26756
 Alpha  occ. eigenvalues --  -10.21214  -1.10824  -1.04237  -0.92715  -0.82681
 Alpha  occ. eigenvalues --   -0.75360  -0.61356  -0.57434  -0.53505  -0.48845
 Alpha  occ. eigenvalues --   -0.46530  -0.43086  -0.41485  -0.39475  -0.36193
 Alpha  occ. eigenvalues --   -0.32244  -0.28223  -0.25956  -0.18856
 Alpha virt. eigenvalues --    0.01548   0.03096   0.06453   0.09043   0.12110
 Alpha virt. eigenvalues --    0.14137   0.16022   0.16653   0.19529   0.23169
 Alpha virt. eigenvalues --    0.31583   0.34287   0.43044   0.50408   0.53537
 Alpha virt. eigenvalues --    0.55080   0.61545   0.62358   0.64137   0.65472
 Alpha virt. eigenvalues --    0.73165   0.73826   0.76174   0.78779   0.81869
 Alpha virt. eigenvalues --    0.86631   0.88962   0.90347   0.92409   0.94556
 Alpha virt. eigenvalues --    0.95941   0.99475   1.02256   1.07210   1.12419
 Alpha virt. eigenvalues --    1.14733   1.18374   1.24332   1.28011   1.40297
 Alpha virt. eigenvalues --    1.46158   1.56413   1.90148   1.97492
          Condensed to atoms (all electrons):
               1          2          3          4          5          6
     1  N    7.139103   0.328337   0.241924   0.000084  -0.053884  -0.117953
     2  H    0.328337   0.376326  -0.022972   0.000002  -0.004998   0.006421
     3  C    0.241924  -0.022972   5.869702   0.003831   0.283442   0.240873
     4  H    0.000084   0.000002   0.003831   0.416973   0.000529  -0.032676
     5  C   -0.053884  -0.004998   0.283442   0.000529   5.107674   0.008825
     6  C   -0.117953   0.006421   0.240873  -0.032676   0.008825   5.321838
     7  H    0.000555   0.000688  -0.037511  -0.000078   0.369200  -0.003042
     8  H    0.003357   0.000018  -0.033107  -0.000437   0.372804  -0.002292
     9  H    0.001965   0.001696  -0.045870   0.000148   0.366981   0.000432
    10  O   -0.009085   0.000364  -0.197287   0.004674   0.002811   0.250845
    11  H    0.308119  -0.016704  -0.040860   0.000000   0.003606  -0.007006
    12  O    0.001848   0.000010  -0.126639   0.234464  -0.008766   0.217348
    13  H   -0.043745   0.001115  -0.386987  -0.008699  -0.013622  -0.153258
               7          8          9         10         11         12
     1  N    0.000555   0.003357   0.001965  -0.009085   0.308119   0.001848
     2  H    0.000688   0.000018   0.001696   0.000364  -0.016704   0.000010
     3  C   -0.037511  -0.033107  -0.045870  -0.197287  -0.040860  -0.126639
     4  H   -0.000078  -0.000437   0.000148   0.004674   0.000000   0.234464
     5  C    0.369200   0.372804   0.366981   0.002811   0.003606  -0.008766
     6  C   -0.003042  -0.002292   0.000432   0.250845  -0.007006   0.217348
     7  H    0.561793  -0.021889  -0.042033  -0.000054  -0.000040   0.000361
     8  H   -0.021889   0.503421  -0.024154   0.000142  -0.000181   0.010457
     9  H   -0.042033  -0.024154   0.587421   0.000014  -0.000032   0.000442
    10  O   -0.000054   0.000142   0.000014   8.385091   0.014729  -0.064810
    11  H   -0.000040  -0.000181  -0.000032   0.014729   0.351254   0.000209
    12  O    0.000361   0.010457   0.000442  -0.064810   0.000209   8.257399
    13  H    0.000650   0.000240  -0.002324   0.146699   0.022005   0.039521
              13
     1  N   -0.043745
     2  H    0.001115
     3  C   -0.386987
     4  H   -0.008699
     5  C   -0.013622
     6  C   -0.153258
     7  H    0.000650
     8  H    0.000240
     9  H   -0.002324
    10  O    0.146699
    11  H    0.022005
    12  O    0.039521
    13  H    1.182427
 Mulliken charges:
               1
     1  N   -0.800623
     2  H    0.329697
     3  C    0.251462
     4  H    0.381185
     5  C   -0.434604
     6  C    0.269646
     7  H    0.171399
     8  H    0.191622
     9  H    0.155313
    10  O   -0.534133
    11  H    0.364902
    12  O   -0.561844
    13  H    0.215979
 Sum of Mulliken charges =   0.00000
 Mulliken charges with hydrogens summed into heavy atoms:
               1
     1  N   -0.106025
     3  C    0.251462
     5  C    0.083730
     6  C    0.485624
    10  O   -0.534133
    12  O   -0.180659
 APT charges:
               1
     1  N   -1.312574
     2  H    0.746295
     3  C    0.265918
     4  H    0.663994
     5  C   -1.236540
     6  C   -0.069170
     7  H    0.471602
     8  H    0.381269
     9  H    0.447057
    10  O   -0.427895
    11  H    0.560377
    12  O   -0.694754
    13  H    0.204419
 Sum of APT charges =   0.00000
 APT charges with hydrogens summed into heavy atoms:
               1
     1  N   -0.005901
     3  C    0.265918
     5  C    0.063388
     6  C    0.135250
    10  O   -0.427895
    12  O   -0.030760
 Electronic spatial extent (au):  <R**2>=            597.8857
 Charge=              0.0000 electrons
 Dipole moment (field-independent basis, Debye):
    X=              4.0745    Y=              1.5152    Z=              2.0307  Tot=              4.7981
 Quadrupole moment (field-independent basis, Debye-Ang):
   XX=            -33.0404   YY=            -35.8389   ZZ=            -37.4394
   XY=             -6.1342   XZ=             -2.8404   YZ=              1.8553
 Traceless Quadrupole moment (field-independent basis, Debye-Ang):
   XX=              2.3991   YY=             -0.3993   ZZ=             -1.9999
   XY=             -6.1342   XZ=             -2.8404   YZ=              1.8553
 Octapole moment (field-independent basis, Debye-Ang**2):
  XXX=              6.7309  YYY=             -4.6434  ZZZ=              1.3884  XYY=              8.4105
  XXY=              6.7752  XXZ=              8.0791  XZZ=             -4.2833  YZZ=              2.4920
  YYZ=              3.6979  XYZ=             -5.9665
 Hexadecapole moment (field-independent basis, Debye-Ang**3):
 XXXX=           -343.3250 YYYY=           -265.5066 ZZZZ=            -42.5086 XXXY=            -41.8113
 XXXZ=            -13.6489 YYYX=            -24.6142 YYYZ=              2.9597 ZZZX=             -2.0869
 ZZZY=              0.7451 XXYY=           -107.3484 XXZZ=            -70.8401 YYZZ=            -56.7822
 XXYZ=              7.3998 YYXZ=             -5.0822 ZZXY=             -1.9153
 N-N= 2.495167528052D+02 E-N=-1.256050799209D+03  KE= 3.223249331545D+02
  Exact polarizability:   0.000   0.000   0.000   0.000   0.000   0.000
 Approx polarizability: 113.018   9.343  75.809  -1.772  -1.032  32.704
 No NMR shielding tensors so no spin-rotation constants.
 Leave Link  601 at Wed Apr 13 08:30:49 2016, MaxMem=    33554432 cpu:         0.1
 (Enter /usr/local/gau/g09/l701.exe)
 Compute integral second derivatives.
 ... and contract with generalized density number  0.
 Leave Link  701 at Wed Apr 13 08:30:49 2016, MaxMem=    33554432 cpu:         0.1
 (Enter /usr/local/gau/g09/l702.exe)
 L702 exits ... SP integral derivatives will be done elsewhere.
 Leave Link  702 at Wed Apr 13 08:30:49 2016, MaxMem=    33554432 cpu:         0.0
 (Enter /usr/local/gau/g09/l703.exe)
 Compute integral second derivatives, UseDBF=F ICtDFT=           0.
 Integral derivatives from FoFJK, PRISM(SPDF).
 Calling FoFJK, ICntrl=    100147 FMM=F ISym2X=0 I1Cent= 0 IOpClX= 0 NMat=1 NMatS=1 NMatT=0.
 FoFJK:  IHMeth= 1 ICntrl=  100147 DoSepK=F KAlg= 0 I1Cent=   0 FoldK=F
 IRaf=         0 NMat=   1 IRICut=       1 DoRegI=T DoRafI=F ISym2E= 0.
 FoFCou: FMM=F IPFlag=           0 FMFlag=      100000 FMFlg1=         800
         NFxFlg=           0 DoJE=F BraDBF=F KetDBF=F FulRan=T
         wScrn=  0.000000 ICntrl=  100147 IOpCl=  0 I1Cent=           0 NGrid=           0
         NMat0=    1 NMatS0=      1 NMatT0=    0 NMatD0=    1 NMtDS0=    0 NMtDT0=    0
 Symmetry not used in FoFCou.
 Leave Link  703 at Wed Apr 13 08:31:19 2016, MaxMem=    33554432 cpu:        22.9
 (Enter /usr/local/gau/g09/l716.exe)
 Dipole        = 1.60304434D+00 5.96130566D-01 7.98942931D-01
 Polarizability= 0.00000000D+00 0.00000000D+00 0.00000000D+00
                 0.00000000D+00 0.00000000D+00 0.00000000D+00
 ***** Axes restored to original set *****
 -------------------------------------------------------------------
 Center     Atomic                   Forces (Hartrees/Bohr)
 Number     Number              X              Y              Z
 -------------------------------------------------------------------
      1        7           0.030122149    0.024203469    0.003334862
      2        1          -0.000646989   -0.002820735    0.000530249
      3        6           0.151429948   -0.104190444    0.033248879
      4        1          -0.002152137    0.005393957    0.000599986
      5        6           0.000904893   -0.006818730   -0.004098405
      6        6          -0.225288979   -0.181770159    0.047455530
      7        1          -0.002277356    0.001959991    0.000637755
      8        1          -0.000135929    0.000724215    0.000158270
      9        1          -0.001135805    0.000730890   -0.000441276
     10        8           0.021219185   -0.031403393    0.005656400
     11        1           0.000612139    0.006283833    0.002151476
     12        8           0.017512807   -0.002850864   -0.004481221
     13        1           0.009836075    0.290557970   -0.084752506
 -------------------------------------------------------------------
 Cartesian Forces:  Max     0.290557970 RMS     0.074440536
 Force constants in Cartesian coordinates: 
                1             2             3             4             5 
      1  0.914792D+00
      2 -0.702902D-02  0.747435D+00
      3 -0.971895D-02 -0.406466D-01  0.737028D-02
      4 -0.476704D+00 -0.262628D-01  0.325171D-01  0.490564D+00
      5 -0.201741D-01 -0.717553D-01  0.592447D-02  0.295046D-01  0.706009D-01
      6  0.438698D-01  0.751924D-02 -0.142381D-03 -0.366481D-01 -0.500295D-02
      7 -0.168740D+00 -0.865010D-01  0.474994D-02 -0.609713D-02 -0.407693D-01
      8 -0.104095D+00 -0.281504D+00  0.806877D-03  0.200827D-02 -0.287746D-02
      9 -0.375500D-02 -0.652695D-02 -0.197105D-01  0.144614D-02  0.212542D-02
     10  0.673869D-04  0.180292D-02  0.228603D-02 -0.148069D-03 -0.314670D-03
     11 -0.139531D-03 -0.524204D-03  0.112314D-02  0.210395D-03 -0.100157D-03
     12  0.681045D-03 -0.176019D-02 -0.762545D-03  0.311557D-03  0.310075D-03
     13  0.979440D-02 -0.156799D-01 -0.165583D-03  0.169188D-02 -0.868996D-03
     14  0.235605D-01 -0.392361D-01  0.236334D-03  0.138837D-02  0.282109D-02
     15  0.192278D-02 -0.143341D-03  0.329802D-02 -0.468773D-04  0.367234D-03
     16 -0.284956D-01  0.109176D-01  0.647049D-02  0.372518D-03 -0.818439D-03
     17 -0.446805D-01 -0.106437D-01  0.255524D-02  0.516604D-02 -0.722109D-02
     18 -0.385584D-02 -0.118532D-02 -0.107553D-02 -0.569040D-03 -0.278613D-03
     19  0.186978D-02 -0.120058D-02  0.170645D-02  0.301098D-03  0.237086D-03
     20 -0.927668D-03  0.253145D-02 -0.196258D-02 -0.446369D-03 -0.602146D-03
     21  0.732026D-03  0.359216D-03  0.166633D-03 -0.239677D-03  0.782471D-03
     22 -0.322339D-02  0.309565D-02 -0.132363D-03 -0.246521D-03  0.239867D-03
     23  0.417830D-02 -0.255499D-02  0.198822D-03  0.442202D-03  0.345901D-03
     24  0.156815D-03 -0.201185D-03  0.125783D-02 -0.843837D-04 -0.286047D-04
     25  0.158220D-02 -0.116410D-02 -0.166667D-02  0.405806D-03  0.289133D-03
     26 -0.422933D-03  0.271881D-02  0.162896D-02 -0.611255D-03 -0.666848D-03
     27 -0.703661D-03 -0.492797D-03  0.112084D-04  0.204535D-03 -0.912170D-03
     28  0.122172D-02 -0.263185D-02  0.264734D-03 -0.288384D-03  0.167010D-02
     29 -0.219141D-02  0.207029D-01  0.290853D-02 -0.263764D-02  0.143879D-02
     30  0.937440D-03 -0.345747D-03 -0.791815D-03 -0.677631D-04  0.219919D-03
     31 -0.196132D+00  0.182722D+00 -0.190463D-01 -0.911697D-02  0.282043D-01
     32  0.177730D+00 -0.340531D+00  0.328075D-01 -0.810166D-02  0.948270D-02
     33 -0.248799D-01  0.434135D-01 -0.994343D-02  0.297230D-02 -0.375872D-02
     34 -0.340432D-02 -0.372067D-02 -0.224853D-02  0.104531D-02 -0.933647D-03
     35 -0.234240D-02 -0.504932D-02 -0.270749D-02  0.202814D-03  0.171145D-03
     36 -0.122025D-02  0.167237D-02  0.796839D-02 -0.248340D-03 -0.620210D-03
     37 -0.526280D-01 -0.543477D-01 -0.150164D-01 -0.177973D-02  0.373397D-02
     38 -0.234664D-01 -0.215893D-01 -0.287317D-02 -0.862943D-03 -0.163757D-02
     39 -0.416626D-02 -0.166223D-02  0.123538D-01  0.452576D-03  0.871676D-03
                6             7             8             9            10 
      6  0.257458D-02
      7 -0.208884D-02  0.996272D+00
      8 -0.373739D-02 -0.189572D+00  0.674378D+00
      9 -0.444089D-02  0.565356D-01 -0.377355D-01 -0.902291D-02
     10  0.683480D-03 -0.122345D-02 -0.316920D-02 -0.188145D-03  0.156008D+00
     11  0.621781D-03  0.224014D-02 -0.246389D-02  0.821873D-03  0.624908D-01
     12  0.164121D-03  0.346806D-02  0.298390D-02 -0.286291D-03  0.200903D+00
     13 -0.270878D-03 -0.115729D+00  0.662213D-01  0.277420D-02 -0.457887D-03
     14  0.197989D-03  0.467922D-01 -0.157224D+00 -0.471688D-02 -0.402445D-03
     15  0.328597D-02 -0.220526D-02  0.237884D-02 -0.497908D-01 -0.229155D-02
     16  0.838238D-03 -0.436332D+00 -0.195780D-01 -0.125947D-01 -0.175061D-01
     17  0.398340D-03 -0.269601D-01 -0.109238D+00 -0.114595D-01 -0.870741D-02
     18 -0.421729D-02 -0.158574D-02 -0.102434D-01 -0.616824D-01 -0.110321D-01
     19 -0.313925D-03 -0.187734D-01  0.509913D-02 -0.139612D-01 -0.208859D-03
     20  0.734159D-03  0.236269D-01 -0.631783D-02  0.205765D-01  0.245874D-03
     21 -0.681305D-03  0.285422D-03 -0.496090D-03  0.559781D-02  0.202058D-03
     22 -0.502514D-04  0.937927D-02  0.210316D-01 -0.189583D-04 -0.219552D-03
     23  0.129987D-04 -0.122167D-01 -0.236545D-01  0.717985D-04  0.638423D-04
     24 -0.825681D-03 -0.426492D-03  0.690741D-04 -0.225441D-02 -0.506084D-03
     25  0.359950D-03 -0.191433D-01  0.413988D-02  0.132101D-01  0.216915D-03
     26 -0.444357D-03  0.225516D-01 -0.469210D-02 -0.202542D-01 -0.112008D-03
     27 -0.620872D-03  0.122799D-03  0.488064D-03  0.512795D-02  0.000000D+00
     28 -0.325680D-03 -0.267500D-01  0.457199D-01  0.141605D-02 -0.732762D-03
     29  0.260043D-03  0.127116D-02 -0.133126D-01 -0.367655D-02  0.206026D-02
     30  0.574015D-03 -0.316721D-02  0.331771D-02  0.173905D-02  0.831268D-03
     31 -0.453988D-02  0.111863D-01 -0.131768D-01  0.191629D-02  0.125165D-03
     32  0.000000D+00  0.148670D-01 -0.212616D-01  0.297292D-02 -0.110059D-03
     33  0.160997D-02  0.533286D-03 -0.162078D-02 -0.445677D-02 -0.391477D-03
     34 -0.380909D-03 -0.253163D-01 -0.347170D-01  0.257088D-02 -0.136939D+00
     35 -0.444478D-03 -0.146266D-01  0.124377D-02  0.199750D-02 -0.530941D-01
     36  0.304938D-02 -0.384487D-03 -0.274695D-02  0.130105D-01 -0.184559D+00
     37 -0.113293D-02 -0.198732D+00  0.220089D+00 -0.493512D-01  0.101835D-02
     38 -0.116055D-03  0.259297D+00 -0.530749D-01  0.558035D-01 -0.753832D-03
     39 -0.329617D-03 -0.558370D-01  0.465356D-01  0.126170D+00 -0.593653D-02
               11            12            13            14            15 
     11  0.492526D-01
     12  0.488728D-01  0.306820D+00
     13  0.745932D-03  0.375616D-03  0.536109D+00
     14  0.240789D-03  0.408881D-03  0.645550D-01  0.538206D+00
     15 -0.177125D-02  0.804661D-04  0.000000D+00  0.187743D-02  0.532814D+00
     16 -0.345333D-01  0.773830D-02 -0.368780D-01  0.161595D-01 -0.182403D-02
     17 -0.171759D-01  0.128425D-01  0.307180D-01  0.928760D-02  0.343628D-02
     18 -0.263501D-01  0.410640D-02 -0.180508D-02  0.662380D-03  0.216821D-01
     19 -0.510966D-04  0.874621D-04 -0.131728D+00 -0.391504D-02 -0.121045D+00
     20  0.154246D-03 -0.261142D-03 -0.416905D-02 -0.477480D-01 -0.174763D-02
     21  0.856199D-04 -0.787323D-04 -0.120573D+00 -0.329769D-02 -0.220342D+00
     22 -0.216025D-03 -0.440510D-04 -0.129974D+00 -0.131516D+00 -0.624435D-03
     23  0.385007D-03 -0.383561D-04 -0.123001D+00 -0.245524D+00 -0.111696D-02
     24  0.369838D-03  0.734949D-04 -0.171054D-03 -0.606043D-03 -0.494659D-01
     25  0.309158D-03  0.176926D-03 -0.133310D+00 -0.559165D-02  0.119764D+00
     26 -0.285114D-03  0.475522D-04 -0.527775D-02 -0.495289D-01  0.324843D-02
     27  0.815393D-05  0.287749D-04  0.118982D+00  0.512775D-02 -0.215384D+00
     28  0.487062D-02  0.109833D-02  0.128795D-02 -0.775292D-02 -0.342707D-02
     29  0.139395D-02 -0.626652D-03 -0.470786D-02  0.389790D-02 -0.890353D-03
     30  0.257824D-02 -0.134089D-02  0.651316D-04 -0.750815D-03  0.972739D-02
     31 -0.417373D-03 -0.438393D-03 -0.183844D-02 -0.246435D-02 -0.102223D-03
     32 -0.142618D-03  0.391309D-05 -0.356345D-02 -0.264194D-02 -0.183510D-03
     33 -0.628925D-04  0.154318D-03 -0.762231D-04 -0.716047D-03  0.420522D-03
     34 -0.336680D-01 -0.213148D+00  0.242616D-02 -0.173122D-02  0.154275D-02
     35 -0.340506D-01 -0.611666D-01  0.332364D-02 -0.494352D-02  0.987497D-03
     36 -0.215992D-01 -0.311713D+00 -0.644509D-04 -0.778480D-03 -0.979402D-02
     37 -0.184168D-02 -0.120979D-02 -0.139416D-02  0.918318D-03  0.833737D-02
     38  0.331594D-02 -0.161667D-02 -0.829600D-02 -0.760705D-02 -0.644267D-02
     39 -0.469804D-02  0.275387D-02  0.930044D-03  0.235520D-02 -0.265318D-01
               16            17            18            19            20 
     16  0.783398D+00
     17  0.606521D+00  0.857686D+00
     18 -0.438166D-01 -0.117561D+00 -0.101614D+00
     19  0.135957D-02  0.320725D-02  0.111387D-02  0.146290D+00
     20 -0.138721D-02 -0.433360D-02 -0.209607D-02 -0.128139D-02  0.515023D-01
     21  0.145489D-02 -0.697967D-03 -0.666947D-03  0.133540D+00  0.351550D-02
     22  0.202339D-02  0.897168D-03  0.210906D-03 -0.950366D-02 -0.156125D-01
     23 -0.313511D-02 -0.143830D-02  0.265381D-03  0.434770D-03  0.705856D-03
     24  0.104322D-03 -0.746400D-04  0.221979D-03 -0.155443D-01 -0.248160D-01
     25  0.209349D-02  0.185004D-02 -0.913463D-03  0.112952D-01  0.904840D-04
     26 -0.179219D-02 -0.286800D-02  0.185619D-02  0.434406D-04  0.695273D-03
     27 -0.167983D-02  0.519318D-03 -0.123992D-02  0.173781D-01  0.197407D-02
     28 -0.970836D-01  0.871541D-01 -0.468950D-02 -0.197982D-02  0.217904D-02
     29  0.789122D-02 -0.116226D+00  0.810975D-02  0.853504D-03 -0.264437D-03
     30 -0.530253D-02 -0.991775D-03 -0.520091D-01  0.122164D-02 -0.161896D-02
     31  0.516756D-02 -0.360121D-02  0.128956D-02 -0.240230D-03  0.177677D-03
     32  0.271799D-02 -0.221385D-02  0.142997D-02 -0.591440D-04  0.209844D-03
     33 -0.176561D-02 -0.411152D-03  0.210288D-03  0.770093D-04 -0.216941D-03
     34 -0.100495D+00 -0.913127D-01 -0.322294D-02 -0.346878D-03 -0.286779D-03
     35 -0.713427D-01 -0.183904D+00  0.220598D-01 -0.424454D-03  0.105885D-02
     36 -0.257407D-01 -0.909670D-02 -0.286657D-01 -0.954865D-03  0.174083D-02
     37 -0.776242D-01 -0.560251D+00  0.688759D-01  0.166586D-02 -0.220895D-02
     38 -0.511620D+00 -0.411712D+00  0.123331D+00 -0.294348D-02  0.240815D-02
     39  0.761178D-01  0.120541D+00  0.224950D+00 -0.330497D-02  0.417828D-02
               21            22            23            24            25 
     21  0.239151D+00
     22  0.139833D-02  0.141672D+00
     23  0.861487D-03  0.135400D+00  0.270651D+00
     24  0.392686D-03  0.100561D-02  0.791923D-03  0.497490D-01
     25 -0.165273D-01 -0.950418D-02  0.708834D-03  0.153060D-01  0.148891D+00
     26 -0.174339D-02 -0.153925D-01  0.106671D-02  0.246472D-01 -0.259146D-03
     27 -0.238464D-01 -0.164697D-02 -0.711994D-03  0.577082D-03 -0.133100D+00
     28  0.329429D-03 -0.858880D-04  0.319491D-03  0.991731D-04 -0.107611D-02
     29  0.638215D-03 -0.446321D-04  0.766727D-04 -0.551413D-05  0.120661D-02
     30 -0.355473D-03  0.451493D-04 -0.162937D-04 -0.144671D-03 -0.157310D-02
     31  0.219267D-04  0.607879D-03 -0.654033D-03 -0.631239D-04 -0.219337D-03
     32  0.105713D-03  0.100347D-02 -0.593885D-03 -0.344771D-05 -0.270392D-04
     33  0.956861D-04  0.635912D-04 -0.167629D-03  0.757214D-03 -0.130214D-03
     34 -0.895729D-04 -0.176976D-02 -0.126344D-02  0.858424D-04 -0.933850D-03
     35 -0.151624D-03 -0.709177D-03  0.235276D-02 -0.319254D-03 -0.563244D-03
     36  0.298897D-03 -0.255176D-03  0.152585D-03 -0.585477D-03  0.987991D-03
     37 -0.534029D-03  0.844208D-03 -0.127697D-02  0.376949D-04 -0.297776D-03
     38  0.385335D-04  0.182364D-02 -0.181833D-02  0.176643D-03 -0.988968D-03
     39  0.268653D-03  0.486191D-04 -0.303764D-03  0.246808D-03  0.410586D-02
               26            27            28            29            30 
     26  0.521867D-01
     27 -0.521984D-02  0.234154D+00
     28  0.105830D-02  0.754114D-04  0.170001D+00
     29 -0.677867D-03 -0.765163D-03 -0.942675D-01  0.169801D+00
     30  0.184948D-02 -0.307706D-03  0.610157D-02 -0.122188D-01  0.314678D-01
     31  0.193428D-03 -0.334426D-04 -0.285316D-02  0.764666D-02  0.125371D-03
     32  0.176187D-03 -0.899489D-04  0.308273D-02  0.253826D-02 -0.305003D-04
     33  0.211084D-03  0.107380D-03  0.682891D-03 -0.117439D-02 -0.388801D-02
     34 -0.576028D-03  0.116926D-04  0.184417D-01  0.120174D-01  0.322015D-03
     35  0.133589D-02  0.256926D-04 -0.122577D-01 -0.461048D-01  0.514768D-02
     36 -0.132586D-02  0.298596D-03 -0.115744D-02  0.755087D-02  0.100820D-01
     37  0.597093D-03  0.390259D-03 -0.601026D-01  0.709022D-01  0.461020D-03
     38  0.539181D-03  0.488648D-04 -0.291443D-01 -0.232640D-01  0.285983D-02
     39 -0.450124D-02  0.109420D-02 -0.467897D-03 -0.110005D-03  0.524729D-02
               31            32            33            34            35 
     31  0.192228D+00
     32 -0.185108D+00  0.367510D+00
     33  0.226547D-01 -0.354124D-01  0.537175D-02
     34 -0.112855D-02  0.894514D-04  0.421988D-03  0.261189D+00
     35  0.843249D-03  0.954845D-03  0.415704D-03  0.142093D+00  0.273535D+00
     36 -0.198623D-03 -0.460437D-03 -0.178408D-03  0.211113D+00  0.287556D-01
     37  0.221362D-02 -0.252201D-02 -0.162294D-03 -0.127693D-01  0.889715D-02
     38 -0.143654D-01 -0.134863D-01 -0.499350D-03  0.140092D-01 -0.660066D-02
     39 -0.158588D-02 -0.114041D-02  0.973950D-02  0.302163D-02  0.539999D-02
               36            37            38            39 
     36  0.348055D+00
     37  0.268230D-02  0.399586D+00
     38 -0.324449D-02  0.317311D+00  0.534526D+00
     39 -0.318259D-01 -0.133779D-01 -0.167466D+00 -0.324136D+00
 FormGI is forming the generalized inverse of G from B-inverse, IUseBI=4.
 Leave Link  716 at Wed Apr 13 08:31:19 2016, MaxMem=    33554432 cpu:         0.0
 (Enter /usr/local/gau/g09/l103.exe)

 GradGradGradGradGradGradGradGradGradGradGradGradGradGradGradGradGradGrad
 Berny optimization.
 Red2BG is reusing G-inverse.
 Internal  Forces:  Max     0.206587588 RMS     0.039670281
 Search for a saddle point.
 Step number   1 out of a maximum of   65
 All quantities printed in internal units (Hartrees-Bohrs-Radians)
 Swapping is turned off.
 Second derivative matrix not updated -- analytic derivatives used.
 ITU=  0
     Eigenvalues ---   -0.09680  -0.00264  -0.00071   0.00120   0.00205
     Eigenvalues ---    0.00369   0.01291   0.01920   0.03560   0.04952
     Eigenvalues ---    0.04972   0.10013   0.11604   0.12632   0.13781
     Eigenvalues ---    0.15097   0.15579   0.15892   0.17768   0.20513
     Eigenvalues ---    0.26534   0.29628   0.32568   0.33073   0.34111
     Eigenvalues ---    0.35752   0.36965   0.46204   0.46704   0.48999
     Eigenvalues ---    0.49814   0.55144   0.71962
 Eigenvectors required to have negative eigenvalues:
                          A21       A8        D14       D13       D15
   1                   -0.44147   0.31231   0.26777   0.25308   0.25118
                          D6        D12       D10       D11       D3
   1                   -0.24567  -0.24442  -0.24252  -0.22783  -0.21182
 Eigenvalue     2 is  -2.64D-03 should be greater than     0.000000 Eigenvector:
                          D1        D4        D3        D15       D14
   1                    0.47802   0.35467   0.34141   0.26762   0.26759
                          D13       D2        D6        D18       D19
   1                    0.26694   0.24285   0.21805  -0.21057  -0.18480
 Eigenvalue     3 is  -7.06D-04 should be greater than     0.000000 Eigenvector:
                          D2        D3        D15       D13       D14
   1                    0.42121   0.33541  -0.32405  -0.32396  -0.31376
                          D19       D5        D1        D21       D6
   1                    0.26619   0.26173   0.21302   0.18020   0.17593
 RFO step:  Lambda0=9.087764545D-04 Lambda=-1.38816311D-01.
 Linear search not attempted -- option 19 set.
 Maximum step size (   0.300) exceeded in Quadratic search.
    -- Step size scaled by   0.505
 Iteration  1 RMS(Cart)=  0.06227371 RMS(Int)=  0.01022243
 Iteration  2 RMS(Cart)=  0.00974170 RMS(Int)=  0.00494738
 Iteration  3 RMS(Cart)=  0.00026575 RMS(Int)=  0.00494583
 Iteration  4 RMS(Cart)=  0.00000179 RMS(Int)=  0.00494583
 Iteration  5 RMS(Cart)=  0.00000007 RMS(Int)=  0.00494583
 ITry= 1 IFail=0 DXMaxC= 1.85D-01 DCOld= 1.00D+10 DXMaxT= 3.00D-01 DXLimC= 3.00D+00 Rises=F
 Variable       Old X    -DE/DX   Delta X   Delta X   Delta X     New X
                                 (Linear)    (Quad)   (Total)
    R1        1.89636  -0.00090   0.00000   0.00008   0.00008   1.89644
    R2        2.63279   0.03825   0.00000   0.03089   0.03089   2.66368
    R3        1.89992   0.00463   0.00000   0.00197   0.00197   1.90189
    R4        2.84087   0.00113   0.00000   0.00582   0.00582   2.84668
    R5        2.54221   0.08690   0.00000   0.01023   0.00339   2.54560
    R6        1.96587   0.14999   0.00000   0.18683   0.18884   2.15471
    R7        1.85600  -0.00019   0.00000  -0.00083  -0.00083   1.85516
    R8        2.07561  -0.00083   0.00000  -0.00078  -0.00078   2.07484
    R9        2.06050  -0.00054   0.00000  -0.00105  -0.00105   2.05945
   R10        2.07718  -0.00031   0.00000  -0.00003  -0.00003   2.07715
   R11        2.73555  -0.03824   0.00000  -0.03700  -0.03700   2.69856
   R12        2.64885  -0.01005   0.00000  -0.00762  -0.00762   2.64123
   R13        1.73869   0.20659   0.00000   0.14229   0.14921   1.88790
    A1        2.10258  -0.00599   0.00000  -0.01961  -0.01964   2.08294
    A2        2.07788  -0.00084   0.00000  -0.00879  -0.00883   2.06906
    A3        2.08053   0.00719   0.00000   0.02512   0.02509   2.10563
    A4        2.03345  -0.00158   0.00000  -0.03193  -0.04154   1.99191
    A5        2.10966   0.06115   0.00000   0.04241   0.03232   2.14198
    A6        1.36936  -0.01116   0.00000  -0.01199  -0.01330   1.35605
    A7        2.14004  -0.05966   0.00000  -0.01183  -0.00485   2.13519
    A8        2.85512   0.01303   0.00000   0.08334   0.07791   2.93303
    A9        1.93153  -0.00378   0.00000  -0.01559  -0.01559   1.91594
   A10        1.93081   0.00011   0.00000  -0.00132  -0.00133   1.92948
   A11        1.93804  -0.00088   0.00000   0.00819   0.00820   1.94624
   A12        1.88943   0.00146   0.00000   0.00665   0.00661   1.89604
   A13        1.87473   0.00256   0.00000   0.00424   0.00427   1.87901
   A14        1.89759   0.00071   0.00000  -0.00184  -0.00185   1.89574
   A15        2.05881   0.02360   0.00000   0.00262  -0.00130   2.05751
   A16        2.16418  -0.03062   0.00000  -0.02390  -0.01968   2.14451
   A17        2.06019   0.00702   0.00000   0.02125   0.02093   2.08112
   A18        1.17937  -0.01899   0.00000  -0.09298  -0.08828   1.09109
   A19        1.93088  -0.00695   0.00000  -0.00247  -0.00247   1.92841
   A20        3.23956  -0.01197   0.00000  -0.07173  -0.06736   3.17221
   A21        3.20952   0.00004   0.00000   0.05400   0.06890   3.27842
    D1        0.10954   0.00467   0.00000   0.18519   0.17696   0.28650
    D2       -3.04060  -0.00706   0.00000   0.01258   0.00945  -3.03115
    D3       -2.90715   0.00117   0.00000   0.07258   0.08393  -2.82321
    D4        3.02427   0.00640   0.00000   0.16761   0.15939  -3.09953
    D5       -0.12587  -0.00533   0.00000  -0.00499  -0.00812  -0.13399
    D6        0.00758   0.00290   0.00000   0.05500   0.06636   0.07394
    D7        1.03078  -0.00126   0.00000  -0.08046  -0.07764   0.95315
    D8        3.12490  -0.00182   0.00000  -0.08317  -0.08031   3.04458
    D9       -1.04963  -0.00143   0.00000  -0.08091  -0.07806  -1.12768
   D10       -2.10210   0.01004   0.00000   0.09513   0.08894  -2.01316
   D11       -0.00799   0.00948   0.00000   0.09242   0.08626   0.07827
   D12        2.10067   0.00987   0.00000   0.09468   0.08852   2.18919
   D13       -2.55749  -0.00800   0.00000   0.21476   0.21806  -2.33942
   D14       -0.46337  -0.00856   0.00000   0.21205   0.21538  -0.24799
   D15        1.64529  -0.00817   0.00000   0.21431   0.21764   1.86293
   D16        0.11445   0.00025   0.00000   0.03146   0.03175   0.14620
   D17       -3.03040  -0.00017   0.00000   0.01947   0.02438  -3.00602
   D18       -3.03622  -0.01187   0.00000  -0.15199  -0.14950   3.09746
   D19        0.10211  -0.01229   0.00000  -0.16398  -0.15688  -0.05476
   D20       -2.06781  -0.00369   0.00000  -0.00658  -0.00885  -2.07665
   D21        1.07053  -0.00408   0.00000  -0.01862  -0.01636   1.05417
         Item               Value     Threshold  Converged?
 Maximum Force            0.206588     0.000450     NO 
 RMS     Force            0.039670     0.000300     NO 
 Maximum Displacement     0.184569     0.001800     NO 
 RMS     Displacement     0.067127     0.001200     NO 
 Predicted change in Energy=-6.080255D-02
 Lowest energy point so far.  Saving SCF results.
 GradGradGradGradGradGradGradGradGradGradGradGradGradGradGradGradGradGrad

 Leave Link  103 at Wed Apr 13 08:31:19 2016, MaxMem=    33554432 cpu:         0.0
 (Enter /usr/local/gau/g09/l202.exe)
                          Input orientation:                          
 ---------------------------------------------------------------------
 Center     Atomic      Atomic             Coordinates (Angstroms)
 Number     Number       Type             X           Y           Z
 ---------------------------------------------------------------------
      1          7           0        1.118564    1.250918    0.126348
      2          1           0        2.110442    1.295015   -0.019787
      3          6           0        0.461634    0.007091    0.035790
      4          1           0       -2.112577   -1.476525   -0.611777
      5          6           0        1.382920   -1.182561    0.107887
      6          6           0       -0.878577   -0.114749    0.095800
      7          1           0        1.993764   -1.124714    1.018398
      8          1           0        0.809938   -2.109295    0.131235
      9          1           0        2.067538   -1.214823   -0.751446
     10          8           0       -1.659559    1.080582    0.073995
     11          1           0        0.593592    2.109593    0.125253
     12          8           0       -1.525495   -1.351765    0.165090
     13          1           0       -0.400104    0.745591   -0.074353
 ---------------------------------------------------------------------
                    Distance matrix (angstroms):
                    1          2          3          4          5
     1  N    0.000000
     2  H    1.003555   0.000000
     3  C    1.409561   2.092941   0.000000
     4  H    4.292324   5.085841   3.040892   0.000000
     5  C    2.447865   2.585337   1.506399   3.580898   0.000000
     6  C    2.419618   3.306816   1.347075   1.969227   2.500947
     7  H    2.684280   2.635627   2.143344   4.432074   1.097956
     8  H    3.374361   3.647389   2.146979   3.081162   1.089812
     9  H    2.784053   2.614661   2.166043   4.190627   1.099179
    10  O    2.783832   3.777259   2.377667   2.685946   3.792050
    11  H    1.006438   1.727834   2.108537   4.552670   3.385501
    12  O    3.710324   4.501073   2.410786   0.981709   2.913894
    13  H    1.613068   2.570542   1.140222   2.856429   2.632519
                    6          7          8          9         10
     6  C    0.000000
     7  H    3.181440   0.000000
     8  H    2.613533   1.777049   0.000000
     9  H    3.256928   1.773671   1.777853   0.000000
    10  O    1.428014   4.370583   4.034478   4.454379   0.000000
    11  H    2.667554   3.635785   4.224436   3.740703   2.477535
    12  O    1.397680   3.628342   2.455452   3.710616   2.437741
    13  H    0.999036   3.228428   3.107546   3.223497   1.311660
                   11         12         13
    11  H    0.000000
    12  O    4.058708   0.000000
    13  H    1.699346   2.392224   0.000000
 Stoichiometry    C3H7NO2
 Framework group  C1[X(C3H7NO2)]
 Deg. of freedom    33
 Full point group                 C1      NOp   1
 RotChk:  IX=0 Diff= 5.65D-02
 Largest Abelian subgroup         C1      NOp   1
 Largest concise Abelian subgroup C1      NOp   1
                         Standard orientation:                         
 ---------------------------------------------------------------------
 Center     Atomic      Atomic             Coordinates (Angstroms)
 Number     Number       Type             X           Y           Z
 ---------------------------------------------------------------------
      1          7           0        1.392382   -1.170981   -0.028410
      2          1           0        2.381535   -1.110150    0.129704
      3          6           0        0.606334   -0.003981    0.055848
      4          1           0       -2.118121    1.196904    0.674106
      5          6           0        1.397186    1.276752   -0.003438
      6          6           0       -0.738430   -0.024629   -0.020274
      7          1           0        2.021546    1.286335   -0.906539
      8          1           0        0.729563    2.137638   -0.032488
      9          1           0        2.064227    1.379086    0.864191
     10          8           0       -1.388577   -1.296014   -0.009581
     11          1           0        0.961366   -2.080432   -0.034858
     12          8           0       -1.511894    1.137080   -0.095740
     13          1           0       -0.173564   -0.829892    0.154511
 ---------------------------------------------------------------------
 Rotational constants (GHZ):      4.8375226      3.3474397      2.0141120
 Leave Link  202 at Wed Apr 13 08:31:19 2016, MaxMem=    33554432 cpu:         0.0
 (Enter /usr/local/gau/g09/l301.exe)
 Standard basis: 6-31G (6D, 7F)
 Ernie: Thresh=  0.10000D-02 Tol=  0.10000D-05 Strict=F.
 There are    68 symmetry adapted cartesian basis functions of A   symmetry.
 There are    68 symmetry adapted basis functions of A   symmetry.
    68 basis functions,   160 primitive gaussians,    68 cartesian basis functions
    24 alpha electrons       24 beta electrons
       nuclear repulsion energy       248.9541569372 Hartrees.
 IExCor=  402 DFT=T Ex+Corr=B3LYP ExCW=0 ScaHFX=  0.200000
 ScaDFX=  0.800000  0.720000  1.000000  0.810000 ScalE2=  1.000000  1.000000
 IRadAn=      0 IRanWt=     -1 IRanGd=            0 ICorTp=0 IEmpDi=  4
 NAtoms=   13 NActive=   13 NUniq=   13 SFac= 1.00D+00 NAtFMM=   60 NAOKFM=F Big=F
 Integral buffers will be    131072 words long.
 Raffenetti 2 integral format.
 Two-electron integral symmetry is turned on.
 Leave Link  301 at Wed Apr 13 08:31:19 2016, MaxMem=    33554432 cpu:         0.0
 (Enter /usr/local/gau/g09/l302.exe)
 NPDir=0 NMtPBC=     1 NCelOv=     1 NCel=       1 NClECP=     1 NCelD=      1
         NCelK=      1 NCelE2=     1 NClLst=     1 CellRange=     0.0.
 One-electron integrals computed using PRISM.
 NBasis=    68 RedAO= T EigKep=  3.12D-03  NBF=    68
 NBsUse=    68 1.00D-06 EigRej= -1.00D+00 NBFU=    68
 Precomputing XC quadrature grid using
 IXCGrd= 4 IRadAn=           0 IRanWt=          -1 IRanGd=           0 AccXCQ= 0.00D+00.
 Generated NRdTot=       0 NPtTot=           0 NUsed=           0 NTot=          32
 NSgBfM=    68    68    68    68    68 MxSgAt=    13 MxSgA2=    13.
 Leave Link  302 at Wed Apr 13 08:31:19 2016, MaxMem=    33554432 cpu:         0.2
 (Enter /usr/local/gau/g09/l303.exe)
 DipDrv:  MaxL=1.
 Leave Link  303 at Wed Apr 13 08:31:19 2016, MaxMem=    33554432 cpu:         0.0
 (Enter /usr/local/gau/g09/l401.exe)
 Initial guess from the checkpoint file:  "Ala-S-opt-freq-tsa3-6-31g.chk"
 B after Tr=     0.000000    0.000000    0.000000
         Rot=    0.999921    0.001570   -0.000232   -0.012444 Ang=   1.44 deg.
 Guess basis will be translated and rotated to current coordinates.
 JPrj=2 DoOrth=T DoCkMO=T.
 Generating alternative initial guess.
 ExpMin= 1.61D-01 ExpMax= 5.48D+03 ExpMxC= 8.25D+02 IAcc=1 IRadAn=         1 AccDes= 0.00D+00
 Harris functional with IExCor=  402 and IRadAn=       1 diagonalized for initial guess.
 HarFok:  IExCor=  402 AccDes= 0.00D+00 IRadAn=         1 IDoV= 1 UseB2=F ITyADJ=14
 ICtDFT=  3500011 ScaDFX=  1.000000  1.000000  1.000000  1.000000
 FoFCou: FMM=F IPFlag=           0 FMFlag=      100000 FMFlg1=           0
         NFxFlg=           0 DoJE=T BraDBF=F KetDBF=T FulRan=T
         wScrn=  0.000000 ICntrl=     500 IOpCl=  0 I1Cent=   200000004 NGrid=           0
         NMat0=    1 NMatS0=      1 NMatT0=    0 NMatD0=    1 NMtDS0=    0 NMtDT0=    0
 Petite list used in FoFCou.
 Harris En= -323.394787808614    
 Leave Link  401 at Wed Apr 13 08:31:20 2016, MaxMem=    33554432 cpu:         0.5
 (Enter /usr/local/gau/g09/l502.exe)
 Closed shell SCF:
 Using DIIS extrapolation, IDIIS=  1040.
 Integral symmetry usage will be decided dynamically.
 Keep R1 ints in memory in canonical form, NReq=3676491.
 IVT=       33364 IEndB=       33364 NGot=    33554432 MDV=    30768038
 LenX=    30768038 LenY=    30762973
 Requested convergence on RMS density matrix=1.00D-08 within 128 cycles.
 Requested convergence on MAX density matrix=1.00D-06.
 Requested convergence on             energy=1.00D-06.
 No special actions if energy rises.
 FoFCou: FMM=F IPFlag=           0 FMFlag=           0 FMFlg1=           0
         NFxFlg=           0 DoJE=F BraDBF=F KetDBF=F FulRan=T
         wScrn=  0.000000 ICntrl=     600 IOpCl=  0 I1Cent=           0 NGrid=           0
         NMat0=    1 NMatS0=   2346 NMatT0=    0 NMatD0=    1 NMtDS0=    0 NMtDT0=    0
 Symmetry not used in FoFCou.
 Integral accuracy reduced to 1.0D-05 until final iterations.

 Cycle   1  Pass 0  IDiag  1:
 E= -323.335030882481    
 DIIS: error= 7.80D-03 at cycle   1 NSaved=   1.
 NSaved= 1 IEnMin= 1 EnMin= -323.335030882481     IErMin= 1 ErrMin= 7.80D-03
 ErrMax= 7.80D-03  0.00D+00 EMaxC= 1.00D-01 BMatC= 1.03D-02 BMatP= 1.03D-02
 IDIUse=3 WtCom= 9.22D-01 WtEn= 7.80D-02
 Coeff-Com:  0.100D+01
 Coeff-En:   0.100D+01
 Coeff:      0.100D+01
 Gap=     0.648 Goal=   None    Shift=    0.000
 GapD=    0.648 DampG=2.000 DampE=1.000 DampFc=2.0000 IDamp=-1.
 RMSDP=5.10D-03 MaxDP=1.14D-01              OVMax= 3.10D-02

 Cycle   2  Pass 0  IDiag  1:
 E= -323.344793556116     Delta-E=       -0.009762673636 Rises=F Damp=F
 DIIS: error= 9.05D-03 at cycle   2 NSaved=   2.
 NSaved= 2 IEnMin= 2 EnMin= -323.344793556116     IErMin= 1 ErrMin= 7.80D-03
 ErrMax= 9.05D-03  0.00D+00 EMaxC= 1.00D-01 BMatC= 7.25D-03 BMatP= 1.03D-02
 IDIUse=3 WtCom= 9.09D-01 WtEn= 9.05D-02
 Coeff-Com:  0.433D+00 0.567D+00
 Coeff-En:   0.000D+00 0.100D+01
 Coeff:      0.394D+00 0.606D+00
 Gap=     0.209 Goal=   None    Shift=    0.000
 RMSDP=3.43D-03 MaxDP=5.89D-02 DE=-9.76D-03 OVMax= 5.76D-02

 Cycle   3  Pass 0  IDiag  1:
 E= -323.342037705241     Delta-E=        0.002755850876 Rises=F Damp=F
 DIIS: error= 1.29D-02 at cycle   3 NSaved=   3.
 NSaved= 3 IEnMin= 2 EnMin= -323.344793556116     IErMin= 1 ErrMin= 7.80D-03
 ErrMax= 1.29D-02  0.00D+00 EMaxC= 1.00D-01 BMatC= 1.03D-02 BMatP= 7.25D-03
 IDIUse=2 WtCom= 0.00D+00 WtEn= 1.00D+00
 Coeff-En:   0.000D+00 0.565D+00 0.435D+00
 Coeff:      0.000D+00 0.565D+00 0.435D+00
 Gap=     0.212 Goal=   None    Shift=    0.000
 RMSDP=1.86D-03 MaxDP=2.52D-02 DE= 2.76D-03 OVMax= 3.50D-02

 Cycle   4  Pass 0  IDiag  1:
 E= -323.350811889817     Delta-E=       -0.008774184577 Rises=F Damp=F
 DIIS: error= 1.01D-03 at cycle   4 NSaved=   4.
 NSaved= 4 IEnMin= 4 EnMin= -323.350811889817     IErMin= 4 ErrMin= 1.01D-03
 ErrMax= 1.01D-03  0.00D+00 EMaxC= 1.00D-01 BMatC= 1.30D-04 BMatP= 7.25D-03
 IDIUse=3 WtCom= 9.90D-01 WtEn= 1.01D-02
 Coeff-Com: -0.170D-01 0.289D+00 0.219D+00 0.508D+00
 Coeff-En:   0.000D+00 0.000D+00 0.000D+00 0.100D+01
 Coeff:     -0.168D-01 0.286D+00 0.217D+00 0.513D+00
 Gap=     0.211 Goal=   None    Shift=    0.000
 RMSDP=2.36D-04 MaxDP=3.39D-03 DE=-8.77D-03 OVMax= 2.49D-03

 Cycle   5  Pass 0  IDiag  1:
 E= -323.350922187278     Delta-E=       -0.000110297460 Rises=F Damp=F
 DIIS: error= 3.28D-04 at cycle   5 NSaved=   5.
 NSaved= 5 IEnMin= 5 EnMin= -323.350922187278     IErMin= 5 ErrMin= 3.28D-04
 ErrMax= 3.28D-04  0.00D+00 EMaxC= 1.00D-01 BMatC= 1.13D-05 BMatP= 1.30D-04
 IDIUse=3 WtCom= 9.97D-01 WtEn= 3.28D-03
 Coeff-Com: -0.744D-02 0.691D-01 0.505D-01 0.266D+00 0.622D+00
 Coeff-En:   0.000D+00 0.000D+00 0.000D+00 0.502D-02 0.995D+00
 Coeff:     -0.741D-02 0.688D-01 0.504D-01 0.265D+00 0.623D+00
 Gap=     0.211 Goal=   None    Shift=    0.000
 RMSDP=6.58D-05 MaxDP=9.13D-04 DE=-1.10D-04 OVMax= 9.90D-04

 Cycle   6  Pass 0  IDiag  1:
 E= -323.350931619780     Delta-E=       -0.000009432503 Rises=F Damp=F
 DIIS: error= 8.09D-05 at cycle   6 NSaved=   6.
 NSaved= 6 IEnMin= 6 EnMin= -323.350931619780     IErMin= 6 ErrMin= 8.09D-05
 ErrMax= 8.09D-05  0.00D+00 EMaxC= 1.00D-01 BMatC= 7.55D-07 BMatP= 1.13D-05
 IDIUse=1 WtCom= 1.00D+00 WtEn= 0.00D+00
 Coeff-Com: -0.274D-02 0.191D-01 0.128D-01 0.109D+00 0.309D+00 0.553D+00
 Coeff:     -0.274D-02 0.191D-01 0.128D-01 0.109D+00 0.309D+00 0.553D+00
 Gap=     0.211 Goal=   None    Shift=    0.000
 RMSDP=1.79D-05 MaxDP=2.19D-04 DE=-9.43D-06 OVMax= 3.76D-04

 Cycle   7  Pass 0  IDiag  1:
 E= -323.350932228225     Delta-E=       -0.000000608444 Rises=F Damp=F
 DIIS: error= 6.95D-05 at cycle   7 NSaved=   7.
 NSaved= 7 IEnMin= 7 EnMin= -323.350932228225     IErMin= 7 ErrMin= 6.95D-05
 ErrMax= 6.95D-05  0.00D+00 EMaxC= 1.00D-01 BMatC= 1.31D-07 BMatP= 7.55D-07
 IDIUse=1 WtCom= 1.00D+00 WtEn= 0.00D+00
 Coeff-Com: -0.317D-03-0.120D-03-0.150D-02 0.199D-01 0.707D-01 0.300D+00
 Coeff-Com:  0.611D+00
 Coeff:     -0.317D-03-0.120D-03-0.150D-02 0.199D-01 0.707D-01 0.300D+00
 Coeff:      0.611D+00
 Gap=     0.211 Goal=   None    Shift=    0.000
 RMSDP=8.25D-06 MaxDP=1.07D-04 DE=-6.08D-07 OVMax= 2.39D-04

 Initial convergence to 1.0D-05 achieved.  Increase integral accuracy.
 Cycle   8  Pass 1  IDiag  1:
 E= -323.350961103254     Delta-E=       -0.000028875030 Rises=F Damp=F
 DIIS: error= 1.27D-05 at cycle   1 NSaved=   1.
 NSaved= 1 IEnMin= 1 EnMin= -323.350961103254     IErMin= 1 ErrMin= 1.27D-05
 ErrMax= 1.27D-05  0.00D+00 EMaxC= 1.00D-01 BMatC= 3.38D-08 BMatP= 3.38D-08
 IDIUse=1 WtCom= 1.00D+00 WtEn= 0.00D+00
 Coeff-Com:  0.100D+01
 Coeff:      0.100D+01
 Gap=     0.211 Goal=   None    Shift=    0.000
 RMSDP=8.25D-06 MaxDP=1.07D-04 DE=-2.89D-05 OVMax= 1.08D-04

 Cycle   9  Pass 1  IDiag  1:
 E= -323.350961086403     Delta-E=        0.000000016852 Rises=F Damp=F
 DIIS: error= 2.62D-05 at cycle   2 NSaved=   2.
 NSaved= 2 IEnMin= 1 EnMin= -323.350961103254     IErMin= 1 ErrMin= 1.27D-05
 ErrMax= 2.62D-05  0.00D+00 EMaxC= 1.00D-01 BMatC= 6.87D-08 BMatP= 3.38D-08
 IDIUse=1 WtCom= 1.00D+00 WtEn= 0.00D+00
 Coeff-Com:  0.598D+00 0.402D+00
 Coeff:      0.598D+00 0.402D+00
 Gap=     0.211 Goal=   None    Shift=    0.000
 RMSDP=4.52D-06 MaxDP=5.55D-05 DE= 1.69D-08 OVMax= 6.80D-05

 Cycle  10  Pass 1  IDiag  1:
 E= -323.350961143521     Delta-E=       -0.000000057118 Rises=F Damp=F
 DIIS: error= 6.01D-06 at cycle   3 NSaved=   3.
 NSaved= 3 IEnMin= 3 EnMin= -323.350961143521     IErMin= 3 ErrMin= 6.01D-06
 ErrMax= 6.01D-06  0.00D+00 EMaxC= 1.00D-01 BMatC= 2.88D-09 BMatP= 3.38D-08
 IDIUse=1 WtCom= 1.00D+00 WtEn= 0.00D+00
 Coeff-Com:  0.140D+00 0.186D+00 0.674D+00
 Coeff:      0.140D+00 0.186D+00 0.674D+00
[...]
    A7        2.19733   0.00028   0.00000   0.00536   0.00232   2.19965
    A8        3.14111   0.00025   0.00000  -0.01054  -0.01043   3.13069
    A9        1.94913  -0.00004   0.00000   0.00180   0.00180   1.95094
   A10        1.93687   0.00008   0.00000   0.00141   0.00141   1.93827
   A11        1.94724  -0.00006   0.00000  -0.00132  -0.00132   1.94592
   A12        1.88021   0.00000   0.00000  -0.00127  -0.00127   1.87894
   A13        1.86504   0.00003   0.00000  -0.00022  -0.00022   1.86482
   A14        1.88182  -0.00001   0.00000  -0.00053  -0.00053   1.88129
   A15        2.11928   0.00144   0.00000   0.00377   0.00415   2.12344
   A16        2.18161  -0.00010   0.00000  -0.00024  -0.00067   2.18094
   A17        1.98227  -0.00134   0.00000  -0.00345  -0.00346   1.97880
   A18        0.53680   0.00129   0.00000  -0.00478  -0.00518   0.53162
   A19        1.91884   0.00004   0.00000  -0.00120  -0.00120   1.91764
   A20        2.51907  -0.00005   0.00000  -0.00823  -0.00864   2.51042
   A21        3.14902  -0.00054   0.00000   0.00146   0.00124   3.15026
    D1        1.13589   0.00008   0.00000   0.01247   0.01267   1.14856
    D2       -2.01644   0.00010   0.00000   0.01171   0.01176  -2.00469
    D3       -2.00515  -0.00021   0.00000   0.02469   0.02445  -1.98070
    D4       -1.11197  -0.00005   0.00000   0.02218   0.02237  -1.08960
    D5        2.01888  -0.00003   0.00000   0.02141   0.02146   2.04033
    D6        2.03018  -0.00034   0.00000   0.03439   0.03414   2.06432
    D7        1.06254  -0.00004   0.00000   0.00951   0.00945   1.07199
    D8       -3.12244  -0.00002   0.00000   0.01007   0.01002  -3.11242
    D9       -1.02346  -0.00001   0.00000   0.00947   0.00941  -1.01405
   D10       -2.06686  -0.00006   0.00000   0.01044   0.01052  -2.05634
   D11        0.03135  -0.00003   0.00000   0.01101   0.01109   0.04244
   D12        2.13033  -0.00003   0.00000   0.01040   0.01048   2.14081
   D13        2.50734  -0.00002   0.00000   0.37763   0.37761   2.88495
   D14       -1.67765   0.00001   0.00000   0.37820   0.37818  -1.29946
   D15        0.42134   0.00001   0.00000   0.37759   0.37757   0.79891
   D16        0.01180  -0.00022   0.00000   0.00781   0.00774   0.01954
   D17       -3.13774   0.00015   0.00000   0.01924   0.01920  -3.11855
   D18       -3.14117  -0.00020   0.00000   0.00694   0.00675  -3.13442
   D19       -0.00753   0.00017   0.00000   0.01837   0.01821   0.01069
   D20       -3.06507  -0.00052   0.00000   0.07691   0.07692  -2.98816
   D21        0.06912  -0.00017   0.00000   0.08758   0.08757   0.15669
         Item               Value     Threshold  Converged?
 Maximum Force            0.001792     0.000450     NO 
 RMS     Force            0.000468     0.000300     NO 
 Maximum Displacement     0.066301     0.001800     NO 
 RMS     Displacement     0.016091     0.001200     NO 
 Predicted change in Energy= 3.663102D-05
 Optimization stopped.
    -- Number of steps exceeded,  NStep=  65
    -- Flag reset to prevent archiving.
                           ----------------------------
                           ! Non-Optimized Parameters !
                           ! (Angstroms and Degrees)  !
 --------------------------                            --------------------------
 ! Name  Definition              Value          Derivative Info.                !
 --------------------------------------------------------------------------------
 ! R1    R(1,2)                  1.0184         -DE/DX =    0.0                 !
 ! R2    R(1,3)                  1.4517         -DE/DX =    0.0007              !
 ! R3    R(1,11)                 1.0182         -DE/DX =    0.0                 !
 ! R4    R(3,5)                  1.4981         -DE/DX =    0.0001              !
 ! R5    R(3,6)                  1.3445         -DE/DX =    0.0009              !
 ! R6    R(3,13)                 2.3456         -DE/DX =    0.0005              !
 ! R7    R(4,12)                 0.9771         -DE/DX =    0.0                 !
 ! R8    R(5,7)                  1.1011         -DE/DX =   -0.0001              !
 ! R9    R(5,8)                  1.0941         -DE/DX =    0.0                 !
 ! R10   R(5,9)                  1.1007         -DE/DX =    0.0                 !
 ! R11   R(6,10)                 1.384          -DE/DX =   -0.0018              !
 ! R12   R(6,12)                 1.372          -DE/DX =    0.0003              !
 ! R13   R(6,13)                 1.894          -DE/DX =   -0.0004              !
 ! A1    A(2,1,3)              114.4062         -DE/DX =   -0.0002              !
 ! A2    A(2,1,11)             109.9556         -DE/DX =    0.0                 !
 ! A3    A(3,1,11)             114.521          -DE/DX =    0.0004              !
 ! A4    A(1,3,5)              120.9657         -DE/DX =   -0.0002              !
 ! A5    A(1,3,6)              112.9997         -DE/DX =   -0.0001              !
 ! A6    A(1,3,13)              59.1861         -DE/DX =    0.0002              !
 ! A7    A(5,3,6)              126.0309         -DE/DX =    0.0003              !
 ! A8    A(5,3,13)             179.3751         -DE/DX =    0.0003              !
 ! A9    A(3,5,7)              111.7804         -DE/DX =    0.0                 !
 ! A10   A(3,5,8)              111.0549         -DE/DX =    0.0001              !
 ! A11   A(3,5,9)              111.493          -DE/DX =   -0.0001              !
 ! A12   A(7,5,8)              107.6551         -DE/DX =    0.0                 !
 ! A13   A(7,5,9)              106.8462         -DE/DX =    0.0                 !
 ! A14   A(8,5,9)              107.79           -DE/DX =    0.0                 !
 ! A15   A(3,6,10)             121.664          -DE/DX =    0.0014              !
 ! A16   A(3,6,12)             124.9585         -DE/DX =   -0.0001              !
 ! A17   A(10,6,12)            113.3772         -DE/DX =   -0.0013              !
 ! A18   A(10,6,13)             30.4593         -DE/DX =    0.0013              !
 ! A19   A(4,12,6)             109.8729         -DE/DX =    0.0                 !
 ! A20   L(12,6,13,10,-1)      143.8365         -DE/DX =   -0.0001              !
 ! A21   L(12,6,13,10,-2)      180.4965         -DE/DX =   -0.0005              !
 ! D1    D(2,1,3,5)             65.8078         -DE/DX =    0.0001              !
 ! D2    D(2,1,3,6)           -114.86           -DE/DX =    0.0001              !
 ! D3    D(2,1,3,13)          -113.4858         -DE/DX =   -0.0002              !
 ! D4    D(11,1,3,5)           -62.4296         -DE/DX =    0.0                 !
 ! D5    D(11,1,3,6)           116.9025         -DE/DX =    0.0                 !
 ! D6    D(11,1,3,13)          118.2768         -DE/DX =   -0.0003              !
 ! D7    D(1,3,5,7)             61.4204         -DE/DX =    0.0                 !
 ! D8    D(1,3,5,8)           -178.3286         -DE/DX =    0.0                 !
 ! D9    D(1,3,5,9)            -58.1008         -DE/DX =    0.0                 !
 ! D10   D(6,3,5,7)           -117.8194         -DE/DX =   -0.0001              !
 ! D11   D(6,3,5,8)              2.4315         -DE/DX =    0.0                 !
 ! D12   D(6,3,5,9)            122.6594         -DE/DX =    0.0                 !
 ! D13   D(13,3,5,7)           165.2953         -DE/DX =    0.0                 !
 ! D14   D(13,3,5,8)           -74.4537         -DE/DX =    0.0                 !
 ! D15   D(13,3,5,9)            45.7741         -DE/DX =    0.0                 !
 ! D16   D(1,3,6,10)             1.1193         -DE/DX =   -0.0002              !
 ! D17   D(1,3,6,12)          -178.6797         -DE/DX =    0.0002              !
 ! D18   D(5,3,6,10)          -179.5888         -DE/DX =   -0.0002              !
 ! D19   D(5,3,6,12)             0.6122         -DE/DX =    0.0002              !
 ! D20   D(3,6,12,4)          -171.2088         -DE/DX =   -0.0005              !
 ! D21   D(10,6,12,4)            8.9776         -DE/DX =   -0.0002              !
 --------------------------------------------------------------------------------
 Lowest energy point so far.  Saving SCF results.
 GradGradGradGradGradGradGradGradGradGradGradGradGradGradGradGradGradGrad

 Largest change from initial coordinates is atom   11       1.284 Angstoms.
 Leave Link  103 at Wed Apr 13 08:49:13 2016, MaxMem=    33554432 cpu:         0.0
 (Enter /usr/local/gau/g09/l202.exe)
                          Input orientation:                          
 ---------------------------------------------------------------------
 Center     Atomic      Atomic             Coordinates (Angstroms)
 Number     Number       Type             X           Y           Z
 ---------------------------------------------------------------------
      1          7           0        0.973254    1.264897    0.060693
      2          1           0        1.573586    1.518665   -0.721411
      3          6           0        0.528967   -0.116861    0.058743
      4          1           0       -2.426401   -1.277734   -0.300780
      5          6           0        1.507288   -1.241070    0.221824
      6          6           0       -0.802800   -0.244628   -0.086669
      7          1           0        2.036113   -1.183381    1.185839
      8          1           0        1.001401   -2.210054    0.176846
      9          1           0        2.276261   -1.225683   -0.565517
     10          8           0       -1.621279    0.859875   -0.231184
     11          1           0        1.388775    1.574243    0.937242
     12          8           0       -1.479803   -1.436632   -0.117050
     13          1           0       -0.993286    1.632719   -0.196145
 ---------------------------------------------------------------------
                    Distance matrix (angstroms):
                    1          2          3          4          5
     1  N    0.000000
     2  H    1.018078   0.000000
     3  C    1.451431   2.091606   0.000000
     4  H    4.260668   4.898640   3.195478   0.000000
     5  C    2.567299   2.917229   1.499184   3.968421   0.000000
     6  C    2.335540   3.026435   1.345761   1.936293   2.534674
     7  H    2.896495   3.339548   2.163168   4.704569   1.101049
     8  H    3.477006   3.877836   2.149092   3.584295   1.094018
     9  H    2.879748   2.837164   2.161532   4.710395   1.100664
    10  O    2.642128   3.298710   2.379418   2.285265   3.795671
    11  H    1.018180   1.669842   2.090661   4.921588   2.907207
    12  O    3.653401   4.292111   2.409949   0.977268   3.012605
    13  H    2.017062   2.622546   2.333079   3.245844   3.832262
                    6          7          8          9         10
     6  C    0.000000
     7  H    3.249609   0.000000
     8  H    2.680947   1.772781   0.000000
     9  H    3.266861   1.768250   1.773516   0.000000
    10  O    1.382289   4.422597   4.058252   4.433075   0.000000
    11  H    3.026497   2.843472   3.879325   3.299318   3.306957
    12  O    1.371178   3.758101   2.615517   3.788620   2.303690
    13  H    1.890160   4.360912   4.345665   4.358536   0.996439
                   11         12         13
    11  H    0.000000
    12  O    4.290179   0.000000
    13  H    2.638598   3.108677   0.000000
 Stoichiometry    C3H7NO2
 Framework group  C1[X(C3H7NO2)]
 Deg. of freedom    33
 Full point group                 C1      NOp   1
 RotChk:  IX=1 Diff= 1.71D-15
 Largest Abelian subgroup         C1      NOp   1
 Largest concise Abelian subgroup C1      NOp   1
                         Standard orientation:                         
 ---------------------------------------------------------------------
 Center     Atomic      Atomic             Coordinates (Angstroms)
 Number     Number       Type             X           Y           Z
 ---------------------------------------------------------------------
      1          7           0        1.177712   -1.332824   -0.000819
      2          1           0        1.698013   -1.588669    0.836028
      3          6           0        0.652580    0.020272    0.003445
      4          1           0       -2.389910    0.995695    0.057168
      5          6           0        1.572658    1.203913    0.001764
      6          6           0       -0.692370    0.066293   -0.004495
      7          1           0        2.211879    1.220877   -0.894572
      8          1           0        1.006705    2.139877    0.025074
      9          1           0        2.244982    1.195023    0.873179
     10          8           0       -1.453036   -1.087873   -0.001576
     11          1           0        1.709869   -1.577269   -0.833733
     12          8           0       -1.439911    1.215774   -0.007032
     13          1           0       -0.779159   -1.821837    0.007174
 ---------------------------------------------------------------------
 Rotational constants (GHZ):      4.8223337      3.3072792      2.0083582
 Leave Link  202 at Wed Apr 13 08:49:13 2016, MaxMem=    33554432 cpu:         0.0
 (Enter /usr/local/gau/g09/l601.exe)
 Copying SCF densities to generalized density rwf, IOpCl= 0 IROHF=0.

 **********************************************************************

            Population analysis using the SCF density.

 **********************************************************************

 Orbital symmetries:
       Occupied  (A) (A) (A) (A) (A) (A) (A) (A) (A) (A) (A) (A)
                 (A) (A) (A) (A) (A) (A) (A) (A) (A) (A) (A) (A)
       Virtual   (A) (A) (A) (A) (A) (A) (A) (A) (A) (A) (A) (A)
                 (A) (A) (A) (A) (A) (A) (A) (A) (A) (A) (A) (A)
                 (A) (A) (A) (A) (A) (A) (A) (A) (A) (A) (A) (A)
                 (A) (A) (A) (A) (A) (A) (A) (A)
 The electronic state is 1-A.
 Alpha  occ. eigenvalues --  -19.17424 -19.15955 -14.32840 -10.28750 -10.19358
 Alpha  occ. eigenvalues --  -10.16925  -1.09373  -1.02357  -0.89348  -0.75010
 Alpha  occ. eigenvalues --   -0.67815  -0.59058  -0.55296  -0.50043  -0.47279
 Alpha  occ. eigenvalues --   -0.43696  -0.42034  -0.39237  -0.38471  -0.37147
 Alpha  occ. eigenvalues --   -0.35732  -0.31415  -0.25411  -0.19611
 Alpha virt. eigenvalues --    0.06033   0.07128   0.07245   0.12880   0.14556
 Alpha virt. eigenvalues --    0.15797   0.17455   0.18627   0.22419   0.24611
 Alpha virt. eigenvalues --    0.25321   0.39417   0.44206   0.54275   0.57224
 Alpha virt. eigenvalues --    0.59140   0.63395   0.63927   0.67780   0.69361
 Alpha virt. eigenvalues --    0.72289   0.78131   0.78376   0.79574   0.82467
 Alpha virt. eigenvalues --    0.87651   0.90536   0.91380   0.92903   0.93281
 Alpha virt. eigenvalues --    0.95636   0.96654   0.97389   0.98526   1.05011
 Alpha virt. eigenvalues --    1.07564   1.12701   1.21459   1.27263   1.33942
 Alpha virt. eigenvalues --    1.38098   1.57061   1.79938   2.06348
          Condensed to atoms (all electrons):
               1          2          3          4          5          6
     1  N    6.968504   0.323592   0.330988  -0.000148  -0.098812  -0.090031
     2  H    0.323592   0.468071  -0.048246   0.000007   0.000911   0.001406
     3  C    0.330988  -0.048246   5.216961   0.009722   0.307349   0.373220
     4  H   -0.000148   0.000007   0.009722   0.375703  -0.000286  -0.023740
     5  C   -0.098812   0.000911   0.307349  -0.000286   5.190739  -0.041501
     6  C   -0.090031   0.001406   0.373220  -0.023740  -0.041501   4.816995
     7  H    0.000234  -0.000933  -0.042026  -0.000004   0.365205  -0.000119
     8  H    0.004697  -0.000074  -0.026408  -0.000042   0.357780  -0.000715
     9  H    0.000210   0.003873  -0.041112   0.000004   0.363023   0.000785
    10  O   -0.033995   0.001046  -0.109073  -0.001201   0.003589   0.259990
    11  H    0.323535  -0.045212  -0.047779   0.000002   0.001203   0.000776
    12  O    0.001811  -0.000008  -0.087942   0.246428  -0.000586   0.260835
    13  H    0.056685  -0.001070  -0.000069  -0.000074   0.001575  -0.039602
               7          8          9         10         11         12
     1  N    0.000234   0.004697   0.000210  -0.033995   0.323535   0.001811
     2  H   -0.000933  -0.000074   0.003873   0.001046  -0.045212  -0.000008
     3  C   -0.042026  -0.026408  -0.041112  -0.109073  -0.047779  -0.087942
     4  H   -0.000004  -0.000042   0.000004  -0.001201   0.000002   0.246428
     5  C    0.365205   0.357780   0.363023   0.003589   0.001203  -0.000586
     6  C   -0.000119  -0.000715   0.000785   0.259990   0.000776   0.260835
     7  H    0.615094  -0.026999  -0.044731  -0.000022   0.003849   0.000262
     8  H   -0.026999   0.546636  -0.026510   0.000058  -0.000086   0.003522
     9  H   -0.044731  -0.026510   0.616250  -0.000022  -0.000989   0.000279
    10  O   -0.000022   0.000058  -0.000022   8.350557   0.001001  -0.080386
    11  H    0.003849  -0.000086  -0.000989   0.001001   0.468026  -0.000015
    12  O    0.000262   0.003522   0.000279  -0.080386  -0.000015   8.254361
    13  H   -0.000022  -0.000096  -0.000023   0.226712  -0.000958   0.003840
              13
     1  N    0.056685
     2  H   -0.001070
     3  C   -0.000069
     4  H   -0.000074
     5  C    0.001575
     6  C   -0.039602
     7  H   -0.000022
     8  H   -0.000096
     9  H   -0.000023
    10  O    0.226712
    11  H   -0.000958
    12  O    0.003840
    13  H    0.355426
 Mulliken charges:
               1
     1  N   -0.787270
     2  H    0.296637
     3  C    0.164414
     4  H    0.393628
     5  C   -0.450189
     6  C    0.481701
     7  H    0.130212
     8  H    0.168237
     9  H    0.128963
    10  O   -0.618256
    11  H    0.296646
    12  O   -0.602400
    13  H    0.397677
 Sum of Mulliken charges =   0.00000
 Mulliken charges with hydrogens summed into heavy atoms:
               1
     1  N   -0.193987
     3  C    0.164414
     5  C   -0.022777
     6  C    0.481701
    10  O   -0.220580
    12  O   -0.208772
 Electronic spatial extent (au):  <R**2>=            607.5022
 Charge=              0.0000 electrons
 Dipole moment (field-independent basis, Debye):
    X=              1.4263    Y=             -1.0665    Z=              0.1512  Tot=              1.7874
 Quadrupole moment (field-independent basis, Debye-Ang):
   XX=            -30.3869   YY=            -36.3269   ZZ=            -35.8597
   XY=             -4.3041   XZ=             -0.3705   YZ=              0.0911
 Traceless Quadrupole moment (field-independent basis, Debye-Ang):
   XX=              3.8043   YY=             -2.1357   ZZ=             -1.6685
   XY=             -4.3041   XZ=             -0.3705   YZ=              0.0911
 Octapole moment (field-independent basis, Debye-Ang**2):
  XXX=            -15.5548  YYY=            -11.6284  ZZZ=              0.0205  XYY=              2.4549
  XXY=              3.1090  XXZ=              0.7963  XZZ=              0.4446  YZZ=             -3.8122
  YYZ=              0.3556  XYZ=             -0.3735
 Hexadecapole moment (field-independent basis, Debye-Ang**3):
 XXXX=           -356.6980 YYYY=           -282.5097 ZZZZ=            -43.4873 XXXY=            -51.5026
 XXXZ=             -2.0479 YYYX=             -4.9916 YYYZ=              0.0071 ZZZX=             -0.2489
 ZZZY=             -0.0343 XXYY=           -107.8085 XXZZ=            -70.0691 YYZZ=            -53.1963
 XXYZ=              0.8072 YYXZ=             -0.4610 ZZXY=             -6.9509
 N-N= 2.464255457830D+02 E-N=-1.250869255959D+03  KE= 3.218000159529D+02
 No NMR shielding tensors so no spin-rotation constants.
 Leave Link  601 at Wed Apr 13 08:49:13 2016, MaxMem=    33554432 cpu:         0.1
 (Enter /usr/local/gau/g09/l9999.exe)


 Just remember, when you're over the hill, you begin to pick up speed.
 -- Charles Schulz
 Error termination request processed by link 9999.
 Error termination via Lnk1e in /usr/local/gau/g09/l9999.exe at Wed Apr 13 08:49:13 2016.
 Job cpu time:       0 days  0 hours 14 minutes 55.0 seconds.
 File lengths (MBytes):  RWF=     12 Int=      0 D2E=      0 Chk=      2 Scr=      1
