 Entering Link 1 = c:\G03W06\l1.exe PID=      3732.
  
 Copyright (c) 1988,1990,1992,1993,1995,1998,2003,2004,2007, Gaussian, Inc.
                  All Rights Reserved.
  
 This is the Gaussian(R) 03 program.  It is based on the
 the Gaussian(R) 98 system (copyright 1998, Gaussian, Inc.),
 the Gaussian(R) 94 system (copyright 1995, Gaussian, Inc.),
 the Gaussian 92(TM) system (copyright 1992, Gaussian, Inc.),
 the Gaussian 90(TM) system (copyright 1990, Gaussian, Inc.),
 the Gaussian 88(TM) system (copyright 1988, Gaussian, Inc.),
 the Gaussian 86(TM) system (copyright 1986, Carnegie Mellon
 University), and the Gaussian 82(TM) system (copyright 1983,
 Carnegie Mellon University). Gaussian is a federally registered
 trademark of Gaussian, Inc.
  
 This software contains proprietary and confidential information,
 including trade secrets, belonging to Gaussian, Inc.
  
 This software is provided under written license and may be
 used, copied, transmitted, or stored only in accord with that
 written license.
  
 The following legend is applicable only to US Government
 contracts under FAR:
  
                    RESTRICTED RIGHTS LEGEND
  
 Use, reproduction and disclosure by the US Government is
 subject to restrictions as set forth in subparagraphs (a)
 and (c) of the Commercial Computer Software - Restricted
 Rights clause in FAR 52.227-19.
  
 Gaussian, Inc.
 340 Quinnipiac St., Bldg. 40, Wallingford CT 06492
  
  
 ---------------------------------------------------------------
 Warning -- This program may not be used in any manner that
 competes with the business of Gaussian, Inc. or will provide
 assistance to any competitor of Gaussian, Inc.  The licensee
 of this program is prohibited from giving any competitor of
 Gaussian, Inc. access to this program.  By using this program,
 the user acknowledges that Gaussian, Inc. is engaged in the
 business of creating and licensing software in the field of
 computational chemistry and represents and warrants to the
 licensee that it is not a competitor of Gaussian, Inc. and that
 it will not use this program in any manner prohibited above.
 ---------------------------------------------------------------
  

 Cite this work as:
 Gaussian 03, Revision E.01,
 M. J. Frisch, G. W. Trucks, H. B. Schlegel, G. E. Scuseria, 
 M. A. Robb, J. R. Cheeseman, J. A. Montgomery, Jr., T. Vreven, 
 K. N. Kudin, J. C. Burant, J. M. Millam, S. S. Iyengar, J. Tomasi, 
 V. Barone, B. Mennucci, M. Cossi, G. Scalmani, N. Rega, 
 G. A. Petersson, H. Nakatsuji, M. Hada, M. Ehara, K. Toyota, 
 R. Fukuda, J. Hasegawa, M. Ishida, T. Nakajima, Y. Honda, O. Kitao, 
 H. Nakai, M. Klene, X. Li, J. E. Knox, H. P. Hratchian, J. B. Cross, 
 V. Bakken, C. Adamo, J. Jaramillo, R. Gomperts, R. E. Stratmann, 
 O. Yazyev, A. J. Austin, R. Cammi, C. Pomelli, J. W. Ochterski, 
 P. Y. Ayala, K. Morokuma, G. A. Voth, P. Salvador, J. J. Dannenberg, 
 V. G. Zakrzewski, S. Dapprich, A. D. Daniels, M. C. Strain, 
 O. Farkas, D. K. Malick, A. D. Rabuck, K. Raghavachari, 
 J. B. Foresman, J. V. Ortiz, Q. Cui, A. G. Baboul, S. Clifford, 
 J. Cioslowski, B. B. Stefanov, G. Liu, A. Liashenko, P. Piskorz, 
 I. Komaromi, R. L. Martin, D. J. Fox, T. Keith, M. A. Al-Laham, 
 C. Y. Peng, A. Nanayakkara, M. Challacombe, P. M. W. Gill, 
 B. Johnson, W. Chen, M. W. Wong, C. Gonzalez, and J. A. Pople, 
 Gaussian, Inc., Wallingford CT, 2004.
 
 ******************************************
 Gaussian 03:  IA32W-G03RevE.01 11-Sep-2007
                01-Apr-2016 
 ******************************************
 %chk=E:\YangJ\Amiano\phe\ts1\r\Phe-R-opt-freq-ts1-6-31g.chk
 -----------------------------------------------
 # opt=(calcfc,ts) freq rb3lyp/6-31g iop(1/11=1)
 -----------------------------------------------
 1/5=1,10=4,11=1,14=-1,18=20,26=3,38=1/1,3;
 2/9=110,17=6,18=5,40=1/2;
 3/5=1,6=6,11=2,16=1,25=1,30=1,74=-5/1,2,3;
 4/7=1/1;
 5/5=2,38=5/2;
 8/6=4,10=90,11=11/1;
 11/6=1,8=1,9=11,15=111,16=1/1,2,10;
 10/6=1,7=6/2;
 6/7=2,8=2,9=2,10=2,28=1/1;
 7/10=1,18=20,25=1/1,2,3,16;
 1/5=1,10=4,11=1,14=-1,18=20/3(3);
 2/9=110/2;
 6/7=2,8=2,9=2,10=2,19=2,28=1/1;
 99//99;
 2/9=110/2;
 3/5=1,6=6,11=2,16=1,25=1,30=1,74=-5/1,2,3;
 4/5=5,7=1,16=3/1;
 5/5=2,38=5/2;
 7//1,2,3,16;
 1/5=1,11=1,14=-1,18=20/3(-5);
 2/9=110/2;
 6/7=2,8=2,9=2,10=2,19=2,28=1/1;
 99/9=1/99;
 ------------------------
 Phe-R-opt-freq-ts1-6-31g
 ------------------------
 Symbolic Z-matrix:
 Charge =  0 Multiplicity = 1
 C                     0.        0.        0. 
 H                     0.        0.        1.09158 
 C                     1.47352   0.       -0.40735 
 O                     2.39842   0.28699   0.31063 
 O                     1.6446   -0.34209  -1.7119 
 H                     2.74121   0.32412  -1.01761 
 C                    -0.65073   1.32387  -0.48827 
 H                     0.05935   2.14007  -0.32533 
 H                    -0.80691   1.24851  -1.56899 
 C                    -1.94874   1.64633   0.21616 
 C                    -3.16722   1.11722  -0.22249 
 C                    -1.94996   2.47932   1.34088 
 C                    -4.3539    1.41173   0.44576 
 H                    -3.1832    0.46382  -1.08666 
 C                    -3.1347    2.77509   2.01281 
 H                    -1.01478   2.90521   1.69183 
 C                    -4.34197   2.2409    1.56637 
 H                    -5.28906   0.99285   0.09051 
 H                    -3.11457   3.42584   2.8801 
 H                    -5.2658    2.47153   2.08502 
 N                    -0.76505  -1.1539   -0.46076 
 H                    -0.63293  -1.30308  -1.45597 
 H                    -0.48358  -2.00119   0.02002 
 

 GradGradGradGradGradGradGradGradGradGradGradGradGradGradGradGradGradGrad
 Berny optimization.
 Initialization pass.
                           ----------------------------
                           !    Initial Parameters    !
                           ! (Angstroms and Degrees)  !
 --------------------------                            --------------------------
 ! Name  Definition              Value          Derivative Info.                !
 --------------------------------------------------------------------------------
 ! R1    R(1,2)                  1.0916         calculate D2E/DX2 analytically  !
 ! R2    R(1,3)                  1.5288         calculate D2E/DX2 analytically  !
 ! R3    R(1,7)                  1.5539         calculate D2E/DX2 analytically  !
 ! R4    R(1,21)                 1.4591         calculate D2E/DX2 analytically  !
 ! R5    R(3,4)                  1.2055         calculate D2E/DX2 analytically  !
 ! R6    R(3,5)                  1.3595         calculate D2E/DX2 analytically  !
 ! R7    R(3,6)                  1.4438         calculate D2E/DX2 analytically  !
 ! R8    R(4,6)                  1.3723         calculate D2E/DX2 analytically  !
 ! R9    R(5,6)                  1.4589         calculate D2E/DX2 analytically  !
 ! R10   R(7,8)                  1.094          calculate D2E/DX2 analytically  !
 ! R11   R(7,9)                  1.0945         calculate D2E/DX2 analytically  !
 ! R12   R(7,10)                 1.5116         calculate D2E/DX2 analytically  !
 ! R13   R(10,11)                1.399          calculate D2E/DX2 analytically  !
 ! R14   R(10,12)                1.3996         calculate D2E/DX2 analytically  !
 ! R15   R(11,13)                1.3934         calculate D2E/DX2 analytically  !
 ! R16   R(11,14)                1.0835         calculate D2E/DX2 analytically  !
 ! R17   R(12,15)                1.3938         calculate D2E/DX2 analytically  !
 ! R18   R(12,16)                1.0859         calculate D2E/DX2 analytically  !
 ! R19   R(13,17)                1.3941         calculate D2E/DX2 analytically  !
 ! R20   R(13,18)                1.0845         calculate D2E/DX2 analytically  !
 ! R21   R(15,17)                1.3936         calculate D2E/DX2 analytically  !
 ! R22   R(15,19)                1.0845         calculate D2E/DX2 analytically  !
 ! R23   R(17,20)                1.0843         calculate D2E/DX2 analytically  !
 ! R24   R(21,22)                1.015          calculate D2E/DX2 analytically  !
 ! R25   R(21,23)                1.014          calculate D2E/DX2 analytically  !
 ! A1    A(2,1,3)              105.4534         calculate D2E/DX2 analytically  !
 ! A2    A(2,1,7)              108.3143         calculate D2E/DX2 analytically  !
 ! A3    A(2,1,21)             108.4077         calculate D2E/DX2 analytically  !
 ! A4    A(3,1,7)              108.6577         calculate D2E/DX2 analytically  !
 ! A5    A(3,1,21)             114.9119         calculate D2E/DX2 analytically  !
 ! A6    A(7,1,21)             110.7906         calculate D2E/DX2 analytically  !
 ! A7    A(1,3,4)              125.5055         calculate D2E/DX2 analytically  !
 ! A8    A(1,3,5)              112.1471         calculate D2E/DX2 analytically  !
 ! A9    A(1,3,6)              163.5194         calculate D2E/DX2 analytically  !
 ! A10   A(4,3,5)              122.3354         calculate D2E/DX2 analytically  !
 ! A11   A(4,6,5)              105.0999         calculate D2E/DX2 analytically  !
 ! A12   A(1,7,8)              108.4821         calculate D2E/DX2 analytically  !
 ! A13   A(1,7,9)              108.1408         calculate D2E/DX2 analytically  !
 ! A14   A(1,7,10)             113.2604         calculate D2E/DX2 analytically  !
 ! A15   A(8,7,9)              106.92           calculate D2E/DX2 analytically  !
 ! A16   A(8,7,10)             109.1941         calculate D2E/DX2 analytically  !
 ! A17   A(9,7,10)             110.627          calculate D2E/DX2 analytically  !
 ! A18   A(7,10,11)            121.4067         calculate D2E/DX2 analytically  !
 ! A19   A(7,10,12)            120.1451         calculate D2E/DX2 analytically  !
 ! A20   A(11,10,12)           118.4451         calculate D2E/DX2 analytically  !
 ! A21   A(10,11,13)           120.762          calculate D2E/DX2 analytically  !
 ! A22   A(10,11,14)           119.4068         calculate D2E/DX2 analytically  !
 ! A23   A(13,11,14)           119.8287         calculate D2E/DX2 analytically  !
 ! A24   A(10,12,15)           120.9609         calculate D2E/DX2 analytically  !
 ! A25   A(10,12,16)           119.4984         calculate D2E/DX2 analytically  !
 ! A26   A(15,12,16)           119.5399         calculate D2E/DX2 analytically  !
 ! A27   A(11,13,17)           120.261          calculate D2E/DX2 analytically  !
 ! A28   A(11,13,18)           119.7117         calculate D2E/DX2 analytically  !
 ! A29   A(17,13,18)           120.0273         calculate D2E/DX2 analytically  !
 ! A30   A(12,15,17)           120.0394         calculate D2E/DX2 analytically  !
 ! A31   A(12,15,19)           119.8094         calculate D2E/DX2 analytically  !
 ! A32   A(17,15,19)           120.1504         calculate D2E/DX2 analytically  !
 ! A33   A(13,17,15)           119.5315         calculate D2E/DX2 analytically  !
 ! A34   A(13,17,20)           120.247          calculate D2E/DX2 analytically  !
 ! A35   A(15,17,20)           120.2212         calculate D2E/DX2 analytically  !
 ! A36   A(1,21,22)            110.9539         calculate D2E/DX2 analytically  !
 ! A37   A(1,21,23)            111.4392         calculate D2E/DX2 analytically  !
 ! A38   A(22,21,23)           107.8146         calculate D2E/DX2 analytically  !
 ! D1    D(2,1,3,4)            -17.0038         calculate D2E/DX2 analytically  !
 ! D2    D(2,1,3,5)            164.2358         calculate D2E/DX2 analytically  !
 ! D3    D(2,1,3,6)           -127.6893         calculate D2E/DX2 analytically  !
 ! D4    D(7,1,3,4)             98.9372         calculate D2E/DX2 analytically  !
 ! D5    D(7,1,3,5)            -79.8232         calculate D2E/DX2 analytically  !
 ! D6    D(7,1,3,6)            -11.7483         calculate D2E/DX2 analytically  !
 ! D7    D(21,1,3,4)          -136.3197         calculate D2E/DX2 analytically  !
 ! D8    D(21,1,3,5)            44.9199         calculate D2E/DX2 analytically  !
 ! D9    D(21,1,3,6)           112.9948         calculate D2E/DX2 analytically  !
 ! D10   D(2,1,7,8)             73.9756         calculate D2E/DX2 analytically  !
 ! D11   D(2,1,7,9)           -170.4028         calculate D2E/DX2 analytically  !
 ! D12   D(2,1,7,10)           -47.4233         calculate D2E/DX2 analytically  !
 ! D13   D(3,1,7,8)            -40.1039         calculate D2E/DX2 analytically  !
 ! D14   D(3,1,7,9)             75.5177         calculate D2E/DX2 analytically  !
 ! D15   D(3,1,7,10)          -161.5027         calculate D2E/DX2 analytically  !
 ! D16   D(21,1,7,8)          -167.2433         calculate D2E/DX2 analytically  !
 ! D17   D(21,1,7,9)           -51.6217         calculate D2E/DX2 analytically  !
 ! D18   D(21,1,7,10)           71.3579         calculate D2E/DX2 analytically  !
 ! D19   D(2,1,21,22)         -168.2784         calculate D2E/DX2 analytically  !
 ! D20   D(2,1,21,23)          -48.124          calculate D2E/DX2 analytically  !
 ! D21   D(3,1,21,22)          -50.6199         calculate D2E/DX2 analytically  !
 ! D22   D(3,1,21,23)           69.5344         calculate D2E/DX2 analytically  !
 ! D23   D(7,1,21,22)           72.997          calculate D2E/DX2 analytically  !
 ! D24   D(7,1,21,23)         -166.8487         calculate D2E/DX2 analytically  !
 ! D25   D(1,7,10,11)          -85.2637         calculate D2E/DX2 analytically  !
 ! D26   D(1,7,10,12)           94.0853         calculate D2E/DX2 analytically  !
 ! D27   D(8,7,10,11)          153.7386         calculate D2E/DX2 analytically  !
 ! D28   D(8,7,10,12)          -26.9124         calculate D2E/DX2 analytically  !
 ! D29   D(9,7,10,11)           36.3313         calculate D2E/DX2 analytically  !
 ! D30   D(9,7,10,12)         -144.3197         calculate D2E/DX2 analytically  !
 ! D31   D(7,10,11,13)         179.2955         calculate D2E/DX2 analytically  !
 ! D32   D(7,10,11,14)          -0.1307         calculate D2E/DX2 analytically  !
 ! D33   D(12,10,11,13)         -0.0642         calculate D2E/DX2 analytically  !
 ! D34   D(12,10,11,14)       -179.4905         calculate D2E/DX2 analytically  !
 ! D35   D(7,10,12,15)        -179.2352         calculate D2E/DX2 analytically  !
 ! D36   D(7,10,12,16)           1.0769         calculate D2E/DX2 analytically  !
 ! D37   D(11,10,12,15)          0.1329         calculate D2E/DX2 analytically  !
 ! D38   D(11,10,12,16)       -179.555          calculate D2E/DX2 analytically  !
 ! D39   D(10,11,13,17)         -0.0479         calculate D2E/DX2 analytically  !
 ! D40   D(10,11,13,18)        179.954          calculate D2E/DX2 analytically  !
 ! D41   D(14,11,13,17)        179.3759         calculate D2E/DX2 analytically  !
 ! D42   D(14,11,13,18)         -0.6222         calculate D2E/DX2 analytically  !
 ! D43   D(10,12,15,17)         -0.0894         calculate D2E/DX2 analytically  !
 ! D44   D(10,12,15,19)       -179.7661         calculate D2E/DX2 analytically  !
 ! D45   D(16,12,15,17)        179.5983         calculate D2E/DX2 analytically  !
 ! D46   D(16,12,15,19)         -0.0783         calculate D2E/DX2 analytically  !
 ! D47   D(11,13,17,15)          0.0929         calculate D2E/DX2 analytically  !
 ! D48   D(11,13,17,20)        179.8776         calculate D2E/DX2 analytically  !
 ! D49   D(18,13,17,15)       -179.909          calculate D2E/DX2 analytically  !
 ! D50   D(18,13,17,20)         -0.1243         calculate D2E/DX2 analytically  !
 ! D51   D(12,15,17,13)         -0.0249         calculate D2E/DX2 analytically  !
 ! D52   D(12,15,17,20)       -179.8096         calculate D2E/DX2 analytically  !
 ! D53   D(19,15,17,13)        179.6506         calculate D2E/DX2 analytically  !
 ! D54   D(19,15,17,20)         -0.1341         calculate D2E/DX2 analytically  !
 --------------------------------------------------------------------------------
 Trust Radius=3.00D-01 FncErr=1.00D-07 GrdErr=1.00D-06
 Number of steps in this run= 127 maximum allowed number of steps= 138.
 Search for a saddle point of order  1.
 GradGradGradGradGradGradGradGradGradGradGradGradGradGradGradGradGradGrad

                          Input orientation:                          
 ---------------------------------------------------------------------
 Center     Atomic     Atomic              Coordinates (Angstroms)
 Number     Number      Type              X           Y           Z
 ---------------------------------------------------------------------
    1          6             0        0.000000    0.000000    0.000000
    2          1             0        0.000000    0.000000    1.091576
    3          6             0        1.473521    0.000000   -0.407353
    4          8             0        2.398419    0.286989    0.310635
    5          8             0        1.644601   -0.342086   -1.711897
    6          1             0        2.741212    0.324123   -1.017611
    7          6             0       -0.650731    1.323873   -0.488271
    8          1             0        0.059348    2.140073   -0.325328
    9          1             0       -0.806913    1.248506   -1.568987
   10          6             0       -1.948741    1.646329    0.216160
   11          6             0       -3.167222    1.117218   -0.222486
   12          6             0       -1.949959    2.479317    1.340882
   13          6             0       -4.353902    1.411732    0.445756
   14          1             0       -3.183200    0.463820   -1.086663
   15          6             0       -3.134695    2.775087    2.012805
   16          1             0       -1.014782    2.905206    1.691825
   17          6             0       -4.341971    2.240901    1.566373
   18          1             0       -5.289056    0.992854    0.090510
   19          1             0       -3.114572    3.425836    2.880099
   20          1             0       -5.265799    2.471527    2.085023
   21          7             0       -0.765054   -1.153895   -0.460763
   22          1             0       -0.632928   -1.303084   -1.455969
   23          1             0       -0.483580   -2.001194    0.020017
 ---------------------------------------------------------------------
                    Distance matrix (angstroms):
                    1          2          3          4          5
     1  C    0.000000
     2  H    1.091576   0.000000
     3  C    1.528790   2.101916   0.000000
     4  O    2.435420   2.538631   1.205531   0.000000
     5  O    2.398401   3.268210   1.359458   2.248246   0.000000
     6  H    2.941909   3.473898   1.443784   1.372269   1.458911
     7  C    1.553865   2.161482   2.504322   3.318236   3.088888
     8  H    2.165473   2.567305   2.566422   3.051168   3.255259
     9  H    2.161388   3.047700   2.847550   3.838183   2.925804
    10  C    2.560218   2.697099   3.848512   4.555714   4.536883
    11  C    3.365854   3.606416   4.776908   5.652421   5.244193
    12  C    3.427436   3.164096   4.574227   4.977560   5.495511
    13  C    4.598711   4.622394   6.056371   6.846688   6.611609
    14  H    3.395398   3.884922   4.728810   5.756577   4.934376
    15  C    4.645300   4.286734   5.898638   6.301061   6.814092
    16  H    3.511734   3.135331   4.363304   4.518041   5.403938
    17  C    5.131070   4.909153   6.537368   7.129342   7.297803
    18  H    5.382199   5.473756   6.853180   7.722951   7.287410
    19  H    5.452695   4.963439   6.602597   6.844529   7.611399
    20  H    6.179353   5.901188   7.598606   8.164612   8.371777
    21  N    1.459138   2.080033   2.519036   3.560725   2.833868
    22  H    2.053892   2.930634   2.689749   3.852050   2.485187
    23  H    2.058890   2.320963   2.831548   3.691363   3.206450
                    6          7          8          9         10
     6  H    0.000000
     7  C    3.575608   0.000000
     8  H    3.311997   1.094049   0.000000
     9  H    3.707788   1.094541   1.758404   0.000000
    10  C    5.026537   1.511632   2.137618   2.156104   0.000000
    11  C    6.014218   2.538913   3.386379   2.720545   1.398952
    12  C    5.675776   2.523657   2.632234   3.359879   1.399596
    13  C    7.325638   3.820157   4.538923   4.082519   2.427458
    14  H    5.926461   2.740651   3.728750   2.548551   2.149318
    15  C    7.051023   3.812018   4.008993   4.536326   2.430744
    16  H    5.301936   2.717714   2.409999   3.663436   2.152821
    17  C    7.779620   4.322934   4.791692   4.828247   2.811431
    18  H    8.133900   4.686003   5.485841   4.786324   3.405954
    19  H    7.687846   4.672759   4.690599   5.464469   3.409161
    20  H    8.851548   5.407199   5.854643   5.893151   3.895699
    21  N    3.845584   2.480557   3.398265   2.646024   3.114578
    22  H    3.771576   2.799582   3.689570   2.560011   3.636814
    23  H    4.108900   3.367843   4.190957   3.631808   3.935682
                   11         12         13         14         15
    11  C    0.000000
    12  C    2.404404   0.000000
    13  C    1.393374   2.778476   0.000000
    14  H    1.083507   3.387637   2.148810   0.000000
    15  C    2.783184   1.393758   2.408495   3.866654   0.000000
    16  H    3.390352   1.085864   3.864308   4.287470   2.148020
    17  C    2.417170   2.414417   1.394076   3.396965   1.393618
    18  H    2.148397   3.862974   1.084514   2.469867   3.393058
    19  H    3.867624   2.149747   3.393903   4.951106   1.084471
    20  H    3.400407   3.398323   2.154511   4.292749   2.153826
    21  N    3.314385   4.224944   4.503781   2.975934   5.212546
    22  H    3.715103   4.885028   4.983214   3.124456   5.909544
    23  H    4.121315   4.895909   5.177712   3.819552   5.814850
                   16         17         18         19         20
    16  H    0.000000
    17  C    3.395177   0.000000
    18  H    4.948810   2.152385   0.000000
    19  H    2.468232   2.153243   4.292969   0.000000
    20  H    4.291133   1.084271   2.482961   2.484075   0.000000
    21  N    4.601337   5.331816   5.037760   6.136410   6.315173
    22  H    5.269168   5.954106   5.416868   6.879152   6.946208
    23  H    5.210554   5.939172   5.662322   6.674941   6.865791
                   21         22         23
    21  N    0.000000
    22  H    1.014963   0.000000
    23  H    1.014047   1.639572   0.000000
 Stoichiometry    C9H11NO2
 Framework group  C1[X(C9H11NO2)]
 Deg. of freedom    63
 Full point group                 C1
 Largest Abelian subgroup         C1      NOp   1
 Largest concise Abelian subgroup C1      NOp   1
                         Standard orientation:                         
 ---------------------------------------------------------------------
 Center     Atomic     Atomic              Coordinates (Angstroms)
 Number     Number      Type              X           Y           Z
 ---------------------------------------------------------------------
    1          6             0       -1.375188    0.148199    0.441918
    2          1             0       -1.043337   -0.479508    1.271013
    3          6             0       -2.784788   -0.336715    0.102676
    4          8             0       -3.263829   -1.389431    0.442700
    5          8             0       -3.461459    0.554574   -0.669235
    6          1             0       -3.952545   -0.817312   -0.597240
    7          6             0       -0.449640   -0.122684   -0.776475
    8          1             0       -0.707634   -1.098858   -1.197745
    9          1             0       -0.670725    0.624490   -1.545159
   10          6             0        1.020417   -0.105987   -0.424789
   11          6             0        1.747981    1.088357   -0.389282
   12          6             0        1.681895   -1.299098   -0.112059
   13          6             0        3.099208    1.089876   -0.049170
   14          1             0        1.249381    2.022118   -0.620529
   15          6             0        3.033027   -1.301470    0.229992
   16          1             0        1.135408   -2.236965   -0.141333
   17          6             0        3.746505   -0.104786    0.262659
   18          1             0        3.647049    2.025602   -0.027723
   19          1             0        3.527944   -2.237306    0.465246
   20          1             0        4.798469   -0.103582    0.525362
   21          7             0       -1.288881    1.544195    0.857646
   22          1             0       -1.763765    2.149958    0.196067
   23          1             0       -1.712285    1.686686    1.767984
 ---------------------------------------------------------------------
 Rotational constants (GHZ):      2.3557519      0.4584664      0.4124939
 Standard basis: 6-31G (6D, 7F)
 There are   130 symmetry adapted basis functions of A   symmetry.
 Integral buffers will be    262144 words long.
 Raffenetti 2 integral format.
 Two-electron integral symmetry is turned on.
   130 basis functions,   308 primitive gaussians,   130 cartesian basis functions
    44 alpha electrons       44 beta electrons
       nuclear repulsion energy       665.5233507475 Hartrees.
 NAtoms=   23 NActive=   23 NUniq=   23 SFac= 7.50D-01 NAtFMM=   80 NAOKFM=F Big=F
 One-electron integrals computed using PRISM.
 NBasis=   130 RedAO= T  NBF=   130
 NBsUse=   130 1.00D-06 NBFU=   130
 Harris functional with IExCor=  402 diagonalized for initial guess.
 ExpMin= 1.61D-01 ExpMax= 5.48D+03 ExpMxC= 8.25D+02 IAcc=1 IRadAn=         1 AccDes= 1.00D-06
 HarFok:  IExCor= 402 AccDes= 1.00D-06 IRadAn=         1 IDoV=1
 ScaDFX=  1.000000  1.000000  1.000000  1.000000
 Initial guess orbital symmetries:
       Occupied  (A) (A) (A) (A) (A) (A) (A) (A) (A) (A) (A) (A)
                 (A) (A) (A) (A) (A) (A) (A) (A) (A) (A) (A) (A)
                 (A) (A) (A) (A) (A) (A) (A) (A) (A) (A) (A) (A)
                 (A) (A) (A) (A) (A) (A) (A) (A)
       Virtual   (A) (A) (A) (A) (A) (A) (A) (A) (A) (A) (A) (A)
                 (A) (A) (A) (A) (A) (A) (A) (A) (A) (A) (A) (A)
                 (A) (A) (A) (A) (A) (A) (A) (A) (A) (A) (A) (A)
                 (A) (A) (A) (A) (A) (A) (A) (A) (A) (A) (A) (A)
                 (A) (A) (A) (A) (A) (A) (A) (A) (A) (A) (A) (A)
                 (A) (A) (A) (A) (A) (A) (A) (A) (A) (A) (A) (A)
                 (A) (A) (A) (A) (A) (A) (A) (A) (A) (A) (A) (A)
                 (A) (A)
 The electronic state of the initial guess is 1-A.
 Requested convergence on RMS density matrix=1.00D-08 within 128 cycles.
 Requested convergence on MAX density matrix=1.00D-06.
 Requested convergence on             energy=1.00D-06.
 No special actions if energy rises.
 Integral accuracy reduced to 1.0D-05 until final iterations.
 Initial convergence to 1.0D-05 achieved.  Increase integral accuracy.
 SCF Done:  E(RB+HF-LYP) =  -554.526118534     A.U. after   17 cycles
             Convg  =    0.5315D-08             -V/T =  2.0050
             S**2   =   0.0000
 Range of M.O.s used for correlation:     1   130
 NBasis=   130 NAE=    44 NBE=    44 NFC=     0 NFV=     0
 NROrb=    130 NOA=    44 NOB=    44 NVA=    86 NVB=    86

 **** Warning!!: The largest alpha MO coefficient is  0.12391531D+02

 Symmetrizing basis deriv contribution to polar:
 IMax=3 JMax=2 DiffMx= 0.00D+00
 G2DrvN: will do   24 centers at a time, making    1 passes doing MaxLOS=1.
 FoFDir/FoFCou used for L=0 through L=1.
 DoAtom=TTTTTTTTTTTTTTTTTTTTTTT
          Differentiating once with respect to electric field.
                with respect to dipole field.
          Differentiating once with respect to nuclear coordinates.
 Integrals replicated using symmetry in FoFDir.
 MinBra= 0 MaxBra= 1 Meth= 1.
 IRaf=       0 NMat=  72 IRICut=      72 DoRegI=T DoRafI=T ISym2E= 2 JSym2E=2.
          There are  72 degrees of freedom in the 1st order CPHF.
    69 vectors were produced by pass  0.
 AX will form  69 AO Fock derivatives at one time.
    69 vectors were produced by pass  1.
    69 vectors were produced by pass  2.
    69 vectors were produced by pass  3.
    23 vectors were produced by pass  4.
     3 vectors were produced by pass  5.
 Inv2:  IOpt= 1 Iter= 1 AM= 2.58D-15 Conv= 1.00D-12.
 Inverted reduced A of dimension  302 with in-core refinement.
 Isotropic polarizability for W=    0.000000       99.91 Bohr**3.
 End of Minotr Frequency-dependent properties file   721 does not exist.

 **********************************************************************

            Population analysis using the SCF density.

 **********************************************************************

 Orbital symmetries:
       Occupied  (A) (A) (A) (A) (A) (A) (A) (A) (A) (A) (A) (A)
                 (A) (A) (A) (A) (A) (A) (A) (A) (A) (A) (A) (A)
                 (A) (A) (A) (A) (A) (A) (A) (A) (A) (A) (A) (A)
                 (A) (A) (A) (A) (A) (A) (A) (A)
       Virtual   (A) (A) (A) (A) (A) (A) (A) (A) (A) (A) (A) (A)
                 (A) (A) (A) (A) (A) (A) (A) (A) (A) (A) (A) (A)
                 (A) (A) (A) (A) (A) (A) (A) (A) (A) (A) (A) (A)
                 (A) (A) (A) (A) (A) (A) (A) (A) (A) (A) (A) (A)
                 (A) (A) (A) (A) (A) (A) (A) (A) (A) (A) (A) (A)
                 (A) (A) (A) (A) (A) (A) (A) (A) (A) (A) (A) (A)
                 (A) (A) (A) (A) (A) (A) (A) (A) (A) (A) (A) (A)
                 (A) (A)
 The electronic state is 1-A.
 Alpha  occ. eigenvalues --  -19.21994 -19.18432 -14.32425 -10.35078 -10.24340
 Alpha  occ. eigenvalues --  -10.19860 -10.19302 -10.18331 -10.18282 -10.18220
 Alpha  occ. eigenvalues --  -10.18161 -10.17939  -1.19036  -1.02558  -0.91239
 Alpha  occ. eigenvalues --   -0.85827  -0.78884  -0.74460  -0.73555  -0.66772
 Alpha  occ. eigenvalues --   -0.60553  -0.58617  -0.56414  -0.54653  -0.52614
 Alpha  occ. eigenvalues --   -0.50976  -0.49644  -0.48503  -0.46271  -0.45208
 Alpha  occ. eigenvalues --   -0.43634  -0.41996  -0.41285  -0.39830  -0.38026
 Alpha  occ. eigenvalues --   -0.36218  -0.35356  -0.34043  -0.33754  -0.33104
 Alpha  occ. eigenvalues --   -0.32022  -0.25108  -0.24303  -0.23920
 Alpha virt. eigenvalues --   -0.03446  -0.01561   0.00577   0.00641   0.08200
 Alpha virt. eigenvalues --    0.09808   0.11696   0.12380   0.14497   0.15641
 Alpha virt. eigenvalues --    0.16279   0.17022   0.17415   0.19185   0.19396
 Alpha virt. eigenvalues --    0.20441   0.21237   0.24235   0.25905   0.29681
 Alpha virt. eigenvalues --    0.31309   0.33125   0.33972   0.35137   0.38415
 Alpha virt. eigenvalues --    0.48251   0.52357   0.52940   0.54222   0.55884
 Alpha virt. eigenvalues --    0.56556   0.56767   0.57717   0.58900   0.59968
 Alpha virt. eigenvalues --    0.61780   0.62262   0.62930   0.63747   0.65440
 Alpha virt. eigenvalues --    0.65787   0.66838   0.67506   0.68793   0.69897
 Alpha virt. eigenvalues --    0.73350   0.74497   0.76122   0.79905   0.81716
 Alpha virt. eigenvalues --    0.83732   0.84713   0.85051   0.86034   0.87478
 Alpha virt. eigenvalues --    0.88631   0.90830   0.91386   0.93421   0.94700
 Alpha virt. eigenvalues --    0.95360   0.97172   0.98107   0.99066   1.00975
 Alpha virt. eigenvalues --    1.03407   1.03972   1.05551   1.06057   1.09416
 Alpha virt. eigenvalues --    1.11391   1.15264   1.17600   1.21034   1.21443
 Alpha virt. eigenvalues --    1.25224   1.31302   1.38860   1.42173   1.48612
 Alpha virt. eigenvalues --    1.50493   1.60235   1.68918   1.87586   1.92401
 Alpha virt. eigenvalues --    1.96212
          Condensed to atoms (all electrons):
              1          2          3          4          5          6
     1  C    5.411427   0.365468   0.086480  -0.078857  -0.117822   0.032251
     2  H    0.365468   0.588008  -0.054247   0.004447   0.004144  -0.001334
     3  C    0.086480  -0.054247   5.169174   0.225394   0.266427   0.000721
     4  O   -0.078857   0.004447   0.225394   8.350263  -0.153845   0.054770
     5  O   -0.117822   0.004144   0.266427  -0.153845   8.431176   0.076018
     6  H    0.032251  -0.001334   0.000721   0.054770   0.076018   0.476352
     7  C    0.260977  -0.035028  -0.055404   0.000730   0.002430  -0.001704
     8  H   -0.045787  -0.001020   0.002385   0.001252  -0.000964  -0.000296
     9  H   -0.040928   0.005585  -0.004048   0.000109   0.004041  -0.000098
    10  C   -0.043465  -0.002990   0.004848  -0.000224   0.000069   0.000069
    11  C   -0.003240  -0.000018   0.000250  -0.000002   0.000002   0.000000
    12  C   -0.004549   0.003260   0.000022   0.000004  -0.000002   0.000001
    13  C    0.000060  -0.000023   0.000002   0.000000   0.000000   0.000000
    14  H    0.000468   0.000045  -0.000007   0.000000  -0.000002   0.000000
    15  C   -0.000047  -0.000164   0.000004   0.000000   0.000000   0.000000
    16  H    0.000269   0.000686  -0.000033  -0.000008   0.000001  -0.000001
    17  C    0.000028  -0.000009   0.000000   0.000000   0.000000   0.000000
    18  H   -0.000002   0.000001   0.000000   0.000000   0.000000   0.000000
    19  H    0.000000   0.000004   0.000000   0.000000   0.000000   0.000000
    20  H    0.000000   0.000000   0.000000   0.000000   0.000000   0.000000
    21  N    0.305536  -0.044683  -0.065440   0.002853  -0.005203  -0.000753
    22  H   -0.045115   0.006274  -0.003673   0.000156   0.010901  -0.000100
    23  H   -0.046552  -0.007029   0.002015   0.000182   0.000182  -0.000058
              7          8          9         10         11         12
     1  C    0.260977  -0.045787  -0.040928  -0.043465  -0.003240  -0.004549
     2  H   -0.035028  -0.001020   0.005585  -0.002990  -0.000018   0.003260
     3  C   -0.055404   0.002385  -0.004048   0.004848   0.000250   0.000022
     4  O    0.000730   0.001252   0.000109  -0.000224  -0.000002   0.000004
     5  O    0.002430  -0.000964   0.004041   0.000069   0.000002  -0.000002
     6  H   -0.001704  -0.000296  -0.000098   0.000069   0.000000   0.000001
     7  C    5.262373   0.361708   0.364901   0.314054  -0.045504  -0.046942
     8  H    0.361708   0.603016  -0.033136  -0.040340   0.003528  -0.003135
     9  H    0.364901  -0.033136   0.578052  -0.032251  -0.003847   0.002962
    10  C    0.314054  -0.040340  -0.032251   4.789262   0.545216   0.533480
    11  C   -0.045504   0.003528  -0.003847   0.545216   4.925158  -0.056686
    12  C   -0.046942  -0.003135   0.002962   0.533480  -0.056686   4.980487
    13  C    0.006253  -0.000220   0.000184  -0.038577   0.513999  -0.042534
    14  H   -0.008572   0.000105   0.003402  -0.037488   0.352140   0.005539
    15  C    0.006537   0.000355  -0.000233  -0.039768  -0.041326   0.516682
    16  H   -0.008063   0.004690   0.000122  -0.042387   0.005265   0.351211
    17  C    0.000463   0.000002   0.000014  -0.031533  -0.054350  -0.055738
    18  H   -0.000190   0.000003  -0.000003   0.004038  -0.031506   0.000864
    19  H   -0.000199  -0.000005   0.000003   0.003945   0.000842  -0.032445
    20  H    0.000004   0.000000   0.000000   0.000552   0.004730   0.004947
    21  N   -0.062091   0.004394  -0.006254  -0.003054   0.004030   0.000024
    22  H   -0.004944  -0.000045   0.004594  -0.000192   0.000105   0.000005
    23  H    0.006856  -0.000211  -0.000032  -0.000070  -0.000072  -0.000004
             13         14         15         16         17         18
     1  C    0.000060   0.000468  -0.000047   0.000269   0.000028  -0.000002
     2  H   -0.000023   0.000045  -0.000164   0.000686  -0.000009   0.000001
     3  C    0.000002  -0.000007   0.000004  -0.000033   0.000000   0.000000
     4  O    0.000000   0.000000   0.000000  -0.000008   0.000000   0.000000
     5  O    0.000000  -0.000002   0.000000   0.000001   0.000000   0.000000
     6  H    0.000000   0.000000   0.000000  -0.000001   0.000000   0.000000
     7  C    0.006253  -0.008572   0.006537  -0.008063   0.000463  -0.000190
     8  H   -0.000220   0.000105   0.000355   0.004690   0.000002   0.000003
     9  H    0.000184   0.003402  -0.000233   0.000122   0.000014  -0.000003
    10  C   -0.038577  -0.037488  -0.039768  -0.042387  -0.031533   0.004038
    11  C    0.513999   0.352140  -0.041326   0.005265  -0.054350  -0.031506
    12  C   -0.042534   0.005539   0.516682   0.351211  -0.055738   0.000864
    13  C    4.917924  -0.036853  -0.046145   0.000438   0.538588   0.351034
    14  H   -0.036853   0.585607   0.000372  -0.000185   0.004759  -0.004641
    15  C   -0.046145   0.000372   4.903019  -0.035691   0.543759   0.004515
    16  H    0.000438  -0.000185  -0.035691   0.603786   0.004695   0.000014
    17  C    0.538588   0.004759   0.543759   0.004695   4.889274  -0.037041
    18  H    0.351034  -0.004641   0.004515   0.000014  -0.037041   0.593614
    19  H    0.004457   0.000013   0.350754  -0.004549  -0.035972  -0.000190
    20  H   -0.035990  -0.000170  -0.036347  -0.000181   0.353649  -0.004591
    21  N   -0.000064   0.005515   0.000002   0.000005   0.000007  -0.000007
    22  H   -0.000001   0.000148   0.000000   0.000000   0.000000   0.000000
    23  H    0.000003  -0.000026  -0.000001   0.000000   0.000000   0.000000
             19         20         21         22         23
     1  C    0.000000   0.000000   0.305536  -0.045115  -0.046552
     2  H    0.000004   0.000000  -0.044683   0.006274  -0.007029
     3  C    0.000000   0.000000  -0.065440  -0.003673   0.002015
     4  O    0.000000   0.000000   0.002853   0.000156   0.000182
     5  O    0.000000   0.000000  -0.005203   0.010901   0.000182
     6  H    0.000000   0.000000  -0.000753  -0.000100  -0.000058
     7  C   -0.000199   0.000004  -0.062091  -0.004944   0.006856
     8  H   -0.000005   0.000000   0.004394  -0.000045  -0.000211
     9  H    0.000003   0.000000  -0.006254   0.004594  -0.000032
    10  C    0.003945   0.000552  -0.003054  -0.000192  -0.000070
    11  C    0.000842   0.004730   0.004030   0.000105  -0.000072
    12  C   -0.032445   0.004947   0.000024   0.000005  -0.000004
    13  C    0.004457  -0.035990  -0.000064  -0.000001   0.000003
    14  H    0.000013  -0.000170   0.005515   0.000148  -0.000026
    15  C    0.350754  -0.036347   0.000002   0.000000  -0.000001
    16  H   -0.004549  -0.000181   0.000005   0.000000   0.000000
    17  C   -0.035972   0.353649   0.000007   0.000000   0.000000
    18  H   -0.000190  -0.004591  -0.000007   0.000000   0.000000
    19  H    0.594484  -0.004581   0.000000   0.000000   0.000000
    20  H   -0.004581   0.594384   0.000000   0.000000   0.000000
    21  N    0.000000   0.000000   6.859565   0.318704   0.325593
    22  H    0.000000   0.000000   0.318704   0.455866  -0.036660
    23  H    0.000000   0.000000   0.325593  -0.036660   0.471755
 Mulliken atomic charges:
              1
     1  C   -0.036601
     2  H    0.168622
     3  C    0.425132
     4  O   -0.407225
     5  O   -0.517554
     6  H    0.364163
     7  C   -0.318647
     8  H    0.143722
     9  H    0.156862
    10  C    0.116806
    11  C   -0.118716
    12  C   -0.157454
    13  C   -0.132536
    14  H    0.129831
    15  C   -0.126276
    16  H    0.119916
    17  C   -0.120594
    18  H    0.124089
    19  H    0.123439
    20  H    0.123593
    21  N   -0.638679
    22  H    0.293978
    23  H    0.284128
 Sum of Mulliken charges=   0.00000
 Atomic charges with hydrogens summed into heavy atoms:
              1
     1  C    0.132021
     2  H    0.000000
     3  C    0.425132
     4  O   -0.043062
     5  O   -0.517554
     6  H    0.000000
     7  C   -0.018062
     8  H    0.000000
     9  H    0.000000
    10  C    0.116806
    11  C    0.011115
    12  C   -0.037538
    13  C   -0.008447
    14  H    0.000000
    15  C   -0.002837
    16  H    0.000000
    17  C    0.003000
    18  H    0.000000
    19  H    0.000000
    20  H    0.000000
    21  N   -0.060573
    22  H    0.000000
    23  H    0.000000
 Sum of Mulliken charges=   0.00000
 APT atomic charges:
              1
     1  C    0.236957
     2  H   -0.009428
     3  C    0.780045
     4  O   -0.629634
     5  O   -0.666218
     6  H    0.350775
     7  C    0.122724
     8  H   -0.026117
     9  H   -0.017313
    10  C    0.047911
    11  C   -0.044028
    12  C   -0.054968
    13  C   -0.006252
    14  H    0.036079
    15  C   -0.017940
    16  H    0.019710
    17  C   -0.030275
    18  H    0.013901
    19  H    0.013855
    20  H    0.016445
    21  N   -0.454206
    22  H    0.185577
    23  H    0.132400
 Sum of APT charges=   0.00000
 APT Atomic charges with hydrogens summed into heavy atoms:
              1
     1  C    0.227529
     2  H    0.000000
     3  C    0.780045
     4  O   -0.278860
     5  O   -0.666218
     6  H    0.000000
     7  C    0.079294
     8  H    0.000000
     9  H    0.000000
    10  C    0.047911
    11  C   -0.007949
    12  C   -0.035259
    13  C    0.007649
    14  H    0.000000
    15  C   -0.004085
    16  H    0.000000
    17  C   -0.013830
    18  H    0.000000
    19  H    0.000000
    20  H    0.000000
    21  N   -0.136229
    22  H    0.000000
    23  H    0.000000
 Sum of APT charges=   0.00000
 Electronic spatial extent (au):  <R**2>=  2627.9368
 Charge=     0.0000 electrons
 Dipole moment (field-independent basis, Debye):
    X=     0.1963    Y=    -0.2035    Z=     0.2374  Tot=     0.3692
 Quadrupole moment (field-independent basis, Debye-Ang):
   XX=   -71.3393   YY=   -68.8061   ZZ=   -71.3324
   XY=    -0.5610   XZ=    -0.3430   YZ=     2.2125
 Traceless Quadrupole moment (field-independent basis, Debye-Ang):
   XX=    -0.8467   YY=     1.6865   ZZ=    -0.8398
   XY=    -0.5610   XZ=    -0.3430   YZ=     2.2125
 Octapole moment (field-independent basis, Debye-Ang**2):
  XXX=    10.9309  YYY=     9.0076  ZZZ=     7.5223  XYY=     1.1205
  XXY=    -2.1636  XXZ=    11.2976  XZZ=   -20.4432  YZZ=     2.5213
  YYZ=    -2.3337  XYZ=   -16.3968
 Hexadecapole moment (field-independent basis, Debye-Ang**3):
 XXXX= -2650.7232 YYYY=  -490.1307 ZZZZ=  -186.1940 XXXY=    46.4302
 XXXZ=    37.6091 YYYX=   -29.6430 YYYZ=    -0.3231 ZZZX=   -12.9197
 ZZZY=     8.0834 XXYY=  -529.8915 XXZZ=  -504.6963 YYZZ=  -117.6605
 XXYZ=    39.9742 YYXZ=     5.2698 ZZXY=    -2.9672
 N-N= 6.655233507475D+02 E-N=-2.623830728060D+03  KE= 5.517401618030D+02
  Exact polarizability: 133.594   3.300 107.704  14.390  -6.470  58.440
 Approx polarizability: 176.955   4.739 195.130  27.528 -24.789  88.620
 ***** Axes restored to original set *****
 -------------------------------------------------------------------
 Center     Atomic                   Forces (Hartrees/Bohr)
 Number     Number              X              Y              Z
 -------------------------------------------------------------------
    1          6           0.004801049    0.001608139    0.017216975
    2          1          -0.004233884    0.000362574    0.003595975
    3          6          -0.175907802   -0.062963584   -0.077676499
    4          8           0.097462650    0.039805735    0.032868960
    5          8           0.043588067    0.039256548    0.048688590
    6          1           0.030651420   -0.016600509   -0.020832933
    7          6          -0.000323227    0.001572481   -0.000594849
    8          1           0.001577659    0.002237860    0.000094792
    9          1           0.000854631   -0.001104337   -0.001639488
   10          6           0.002987111   -0.001117402   -0.000817325
   11          6          -0.000570595   -0.003367026   -0.004751554
   12          6           0.003780640    0.002231992    0.002120593
   13          6          -0.003903488   -0.001895676   -0.001663879
   14          1           0.000485169   -0.000704691   -0.000315906
   15          6           0.000418953    0.002898987    0.003787268
   16          1           0.000963103    0.000381384    0.000246832
   17          6          -0.003971159    0.001023042    0.002240695
   18          1          -0.000695767   -0.000355497   -0.000335352
   19          1           0.000035372    0.000550086    0.000753361
   20          1          -0.000798551    0.000202320    0.000449098
   21          7           0.009417512   -0.002209282   -0.002212762
   22          1          -0.002961273    0.001830812   -0.005752845
   23          1          -0.003657589   -0.003643956    0.004530256
 -------------------------------------------------------------------
 Cartesian Forces:  Max     0.175907802 RMS     0.029797566

 GradGradGradGradGradGradGradGradGradGradGradGradGradGradGradGradGradGrad
 Berny optimization.
 Internal  Forces:  Max     0.100467552 RMS     0.013919282
 Search for a saddle point.
 Step number   1 out of a maximum of 127
 All quantities printed in internal units (Hartrees-Bohrs-Radians)
 Swaping is turned off.
 Second derivative matrix not updated -- analytic derivatives used.
     Eigenvalues ---   -0.06781   0.00061   0.00084   0.00340   0.00356
     Eigenvalues ---    0.00401   0.01654   0.01770   0.01848   0.02152
     Eigenvalues ---    0.02460   0.02631   0.02817   0.02997   0.03019
     Eigenvalues ---    0.03102   0.04049   0.04473   0.04726   0.04876
     Eigenvalues ---    0.05362   0.06163   0.06611   0.08298   0.10205
     Eigenvalues ---    0.11489   0.11897   0.12167   0.12618   0.13060
     Eigenvalues ---    0.13485   0.14127   0.15871   0.16834   0.18984
     Eigenvalues ---    0.19702   0.20255   0.20636   0.20751   0.21166
     Eigenvalues ---    0.22541   0.27096   0.28158   0.31739   0.32509
     Eigenvalues ---    0.32970   0.33980   0.34410   0.34501   0.36128
     Eigenvalues ---    0.36443   0.36502   0.36677   0.36967   0.38155
     Eigenvalues ---    0.42951   0.43339   0.45799   0.46206   0.49519
     Eigenvalues ---    0.49757   0.53119   0.801671000.000001000.00000
     Eigenvalues --- 1000.000001000.000001000.000001000.000001000.00000
     Eigenvalues --- 1000.000001000.000001000.000001000.000001000.00000
     Eigenvalues --- 1000.000001000.000001000.000001000.000001000.00000
     Eigenvalues --- 1000.000001000.000001000.000001000.000001000.00000
     Eigenvalues --- 1000.000001000.000001000.000001000.000001000.00000
     Eigenvalues --- 1000.000001000.000001000.000001000.000001000.00000
     Eigenvalues --- 1000.000001000.000001000.000001000.000001000.00000
     Eigenvalues --- 1000.000001000.000001000.000001000.000001000.00000
     Eigenvalues --- 1000.000001000.000001000.000001000.000001000.00000
     Eigenvalues --- 1000.000001000.000001000.000001000.000001000.00000
     Eigenvalues --- 1000.000001000.00000
 Eigenvectors required to have negative eigenvalues:
                          R1        R2        R3        R4        R5
         1             -0.00534  -0.01436   0.00094   0.01391  -0.05129
                          R6        R7        R8        R9        R10
         1              0.10550  -0.07526   0.64521  -0.56280  -0.00025
                          R11       R12       R13       R14       R15
         1              0.00060  -0.00028  -0.00002   0.00012   0.00006
                          R16       R17       R18       R19       R20
         1             -0.00004  -0.00019  -0.00015  -0.00010  -0.00004
                          R21       R22       R23       R24       R25
         1              0.00009  -0.00008  -0.00004   0.00101  -0.00017
                          A1        A2        A3        A4        A5
         1             -0.02222   0.00783   0.00552   0.00588   0.01145
                          A6        A7        A8        A9        A10
         1             -0.00890  -0.14245   0.10480  -0.31201   0.03604
                          A11       A12       A13       A14       A15
         1              0.02691  -0.00103   0.00410  -0.00234   0.00056
                          A16       A17       A18       A19       A20
         1             -0.00002  -0.00110   0.00066  -0.00097   0.00031
                          A21       A22       A23       A24       A25
         1             -0.00017   0.00039  -0.00022  -0.00027   0.00005
                          A26       A27       A28       A29       A30
         1              0.00022  -0.00006   0.00003   0.00003   0.00007
                          A31       A32       A33       A34       A35
         1             -0.00013   0.00006   0.00012  -0.00007  -0.00005
                          A36       A37       A38       D1        D2
         1              0.01568  -0.00044   0.00055   0.02812   0.11056
                          D3        D4        D5        D6        D7
         1             -0.15832   0.02861   0.11106  -0.15783   0.02991
                          D8        D9        D10       D11       D12
         1              0.11236  -0.15653  -0.00964  -0.00735  -0.00735
                          D13       D14       D15       D16       D17
         1              0.00937   0.01166   0.01165  -0.00331  -0.00102
                          D18       D19       D20       D21       D22
         1             -0.00102  -0.00177   0.00925  -0.01892  -0.00791
                          D23       D24       D25       D26       D27
         1             -0.00949   0.00152  -0.00237  -0.00262   0.00052
                          D28       D29       D30       D31       D32
         1              0.00026   0.00049   0.00023  -0.00019  -0.00029
                          D33       D34       D35       D36       D37
         1              0.00007  -0.00003   0.00014  -0.00011  -0.00011
                          D38       D39       D40       D41       D42
         1             -0.00035   0.00000   0.00000   0.00010   0.00010
                          D43       D44       D45       D46       D47
         1              0.00008  -0.00003   0.00033   0.00021  -0.00003
                          D48       D49       D50       D51       D52
         1              0.00002  -0.00003   0.00002  -0.00001  -0.00006
                          D53       D54
         1              0.00010   0.00006
 RFO step:  Lambda0=3.341437195D-03 Lambda=-7.45982198D-02.
 Linear search not attempted -- option 19 set.
 Maximum step size (   0.300) exceeded in Quadratic search.
    -- Step size scaled by   0.461
 Iteration  1 RMS(Cart)=  0.03306092 RMS(Int)=  0.00364757
 Iteration  2 RMS(Cart)=  0.00245505 RMS(Int)=  0.00116432
 Iteration  3 RMS(Cart)=  0.00003420 RMS(Int)=  0.00116307
 Iteration  4 RMS(Cart)=  0.00000061 RMS(Int)=  0.00116307
 Variable       Old X    -DE/DX   Delta X   Delta X   Delta X     New X
                                 (Linear)    (Quad)   (Total)
    R1        2.06278   0.00359   0.00000   0.00082   0.00082   2.06360
    R2        2.88899   0.00046   0.00000  -0.01914  -0.01914   2.86985
    R3        2.93638   0.00194   0.00000   0.00418   0.00418   2.94056
    R4        2.75737   0.00280   0.00000   0.00522   0.00522   2.76259
    R5        2.27812   0.10047   0.00000   0.04904   0.05141   2.32953
    R6        2.56900  -0.04317   0.00000  -0.05370  -0.05244   2.51656
    R7        2.72836   0.06007   0.00000   0.13664   0.13042   2.85878
    R8        2.59321  -0.00573   0.00000   0.03128   0.03160   2.62481
    R9        2.75694  -0.02702   0.00000  -0.15418  -0.15102   2.60592
   R10        2.06745   0.00271   0.00000   0.00200   0.00200   2.06946
   R11        2.06838   0.00158   0.00000   0.00182   0.00182   2.07020
   R12        2.85657   0.00186   0.00000   0.00175   0.00175   2.85832
   R13        2.64364   0.00558   0.00000   0.00442   0.00442   2.64806
   R14        2.64485   0.00603   0.00000   0.00454   0.00454   2.64939
   R15        2.63310   0.00534   0.00000   0.00402   0.00402   2.63711
   R16        2.04753   0.00067   0.00000   0.00056   0.00056   2.04809
   R17        2.63382   0.00527   0.00000   0.00398   0.00398   2.63780
   R18        2.05198   0.00106   0.00000   0.00093   0.00093   2.05291
   R19        2.63442   0.00603   0.00000   0.00453   0.00453   2.63896
   R20        2.04944   0.00085   0.00000   0.00081   0.00081   2.05024
   R21        2.63356   0.00595   0.00000   0.00450   0.00450   2.63806
   R22        2.04935   0.00094   0.00000   0.00086   0.00086   2.05021
   R23        2.04897   0.00094   0.00000   0.00091   0.00091   2.04988
   R24        1.91800   0.00499   0.00000   0.00355   0.00355   1.92155
   R25        1.91627   0.00418   0.00000   0.00234   0.00234   1.91861
    A1        1.84051   0.00380   0.00000   0.00765   0.00766   1.84817
    A2        1.89044  -0.00136   0.00000  -0.00028  -0.00029   1.89015
    A3        1.89207  -0.00004   0.00000   0.00199   0.00200   1.89408
    A4        1.89643  -0.00084   0.00000  -0.00099  -0.00101   1.89543
    A5        2.00559  -0.00337   0.00000  -0.00836  -0.00836   1.99723
    A6        1.93366   0.00194   0.00000   0.00068   0.00066   1.93432
    A7        2.19048   0.01264   0.00000  -0.00681  -0.00871   2.18178
    A8        1.95734   0.02852   0.00000   0.09583   0.10089   2.05823
    A9        2.85395   0.04832   0.00000   0.09785   0.09627   2.95022
   A10        2.13516  -0.04155   0.00000  -0.09011  -0.09459   2.04056
   A11        1.83434   0.01589   0.00000  -0.00641  -0.01336   1.82098
   A12        1.89337   0.00121   0.00000   0.00111   0.00111   1.89448
   A13        1.88741  -0.00122   0.00000  -0.00180  -0.00179   1.88562
   A14        1.97677  -0.00136   0.00000  -0.00413  -0.00413   1.97264
   A15        1.86611  -0.00020   0.00000  -0.00003  -0.00003   1.86607
   A16        1.90580   0.00021   0.00000   0.00233   0.00233   1.90813
   A17        1.93080   0.00140   0.00000   0.00268   0.00267   1.93348
   A18        2.11895  -0.00131   0.00000  -0.00161  -0.00161   2.11733
   A19        2.09693   0.00060   0.00000   0.00024   0.00024   2.09716
   A20        2.06726   0.00071   0.00000   0.00137   0.00137   2.06863
   A21        2.10769  -0.00043   0.00000  -0.00084  -0.00084   2.10685
   A22        2.08404  -0.00023   0.00000  -0.00057  -0.00057   2.08347
   A23        2.09141   0.00066   0.00000   0.00140   0.00140   2.09281
   A24        2.11117  -0.00035   0.00000  -0.00089  -0.00089   2.11028
   A25        2.08564   0.00006   0.00000   0.00002   0.00002   2.08566
   A26        2.08636   0.00029   0.00000   0.00086   0.00086   2.08723
   A27        2.09895  -0.00004   0.00000  -0.00016  -0.00016   2.09879
   A28        2.08936  -0.00005   0.00000   0.00007   0.00007   2.08944
   A29        2.09487   0.00009   0.00000   0.00008   0.00008   2.09495
   A30        2.09508  -0.00017   0.00000  -0.00011  -0.00011   2.09497
   A31        2.09107   0.00007   0.00000   0.00006   0.00006   2.09113
   A32        2.09702   0.00011   0.00000   0.00005   0.00005   2.09708
   A33        2.08622   0.00029   0.00000   0.00063   0.00063   2.08684
   A34        2.09871  -0.00014   0.00000  -0.00031  -0.00031   2.09839
   A35        2.09826  -0.00015   0.00000  -0.00031  -0.00031   2.09794
   A36        1.93651   0.00092   0.00000   0.00875   0.00864   1.94515
   A37        1.94498   0.00442   0.00000   0.01117   0.01107   1.95605
   A38        1.88172   0.00119   0.00000   0.00861   0.00842   1.89014
    D1       -0.29677  -0.01040   0.00000  -0.01268  -0.01293  -0.30970
    D2        2.86646   0.01016   0.00000   0.04507   0.04576   2.91221
    D3       -2.22860   0.00007   0.00000  -0.04287  -0.04332  -2.27192
    D4        1.72678  -0.01043   0.00000  -0.00957  -0.00981   1.71697
    D5       -1.39318   0.01012   0.00000   0.04818   0.04887  -1.34431
    D6       -0.20505   0.00004   0.00000  -0.03976  -0.04021  -0.24526
    D7       -2.37923  -0.01101   0.00000  -0.01559  -0.01581  -2.39504
    D8        0.78400   0.00955   0.00000   0.04217   0.04287   0.82687
    D9        1.97213  -0.00054   0.00000  -0.04578  -0.04621   1.92592
   D10        1.29112   0.00112   0.00000   0.00217   0.00217   1.29329
   D11       -2.97409   0.00087   0.00000   0.00177   0.00177  -2.97232
   D12       -0.82769   0.00087   0.00000   0.00113   0.00113  -0.82656
   D13       -0.69995  -0.00221   0.00000  -0.00616  -0.00616  -0.70610
   D14        1.31803  -0.00245   0.00000  -0.00656  -0.00656   1.31147
   D15       -2.81875  -0.00245   0.00000  -0.00720  -0.00720  -2.82596
   D16       -2.91895   0.00136   0.00000   0.00482   0.00483  -2.91412
   D17       -0.90097   0.00112   0.00000   0.00442   0.00442  -0.89655
   D18        1.24543   0.00112   0.00000   0.00378   0.00378   1.24921
   D19       -2.93701  -0.00346   0.00000  -0.01289  -0.01294  -2.94996
   D20       -0.83992   0.00163   0.00000   0.01144   0.01148  -0.82844
   D21       -0.88348  -0.00077   0.00000  -0.00700  -0.00706  -0.89054
   D22        1.21360   0.00432   0.00000   0.01733   0.01737   1.23098
   D23        1.27404  -0.00291   0.00000  -0.01417  -0.01422   1.25982
   D24       -2.91206   0.00218   0.00000   0.01016   0.01021  -2.90185
   D25       -1.48813   0.00103   0.00000   0.00264   0.00264  -1.48549
   D26        1.64210   0.00101   0.00000   0.00256   0.00256   1.64466
   D27        2.68324   0.00024   0.00000   0.00232   0.00232   2.68556
   D28       -0.46971   0.00021   0.00000   0.00224   0.00224  -0.46747
   D29        0.63410  -0.00047   0.00000  -0.00063  -0.00064   0.63346
   D30       -2.51885  -0.00049   0.00000  -0.00071  -0.00072  -2.51957
   D31        3.12930   0.00003   0.00000   0.00017   0.00017   3.12947
   D32       -0.00228   0.00022   0.00000   0.00094   0.00094  -0.00134
   D33       -0.00112   0.00006   0.00000   0.00026   0.00026  -0.00086
   D34       -3.13270   0.00024   0.00000   0.00102   0.00102  -3.13168
   D35       -3.12824  -0.00005   0.00000  -0.00024  -0.00024  -3.12848
   D36        0.01880   0.00001   0.00000   0.00004   0.00004   0.01883
   D37        0.00232  -0.00008   0.00000  -0.00033  -0.00033   0.00199
   D38       -3.13383  -0.00002   0.00000  -0.00006  -0.00006  -3.13389
   D39       -0.00084   0.00001   0.00000   0.00001   0.00001  -0.00082
   D40        3.14079   0.00004   0.00000   0.00010   0.00010   3.14089
   D41        3.13070  -0.00018   0.00000  -0.00077  -0.00077   3.12993
   D42       -0.01086  -0.00015   0.00000  -0.00068  -0.00068  -0.01154
   D43       -0.00156   0.00004   0.00000   0.00014   0.00014  -0.00142
   D44       -3.13751   0.00003   0.00000   0.00014   0.00014  -3.13737
   D45        3.13458  -0.00002   0.00000  -0.00014  -0.00014   3.13444
   D46       -0.00137  -0.00003   0.00000  -0.00014  -0.00014  -0.00150
   D47        0.00162  -0.00005   0.00000  -0.00022  -0.00022   0.00140
   D48        3.13946   0.00000   0.00000  -0.00004  -0.00004   3.13942
   D49       -3.14000  -0.00008   0.00000  -0.00030  -0.00030  -3.14030
   D50       -0.00217  -0.00003   0.00000  -0.00012  -0.00012  -0.00229
   D51       -0.00043   0.00003   0.00000   0.00014   0.00014  -0.00029
   D52       -3.13827  -0.00002   0.00000  -0.00004  -0.00004  -3.13831
   D53        3.13550   0.00004   0.00000   0.00014   0.00014   3.13564
   D54       -0.00234  -0.00001   0.00000  -0.00004  -0.00004  -0.00238
         Item               Value     Threshold  Converged?
 Maximum Force            0.100468     0.000450     NO 
 RMS     Force            0.013919     0.000300     NO 
 Maximum Displacement     0.209387     0.001800     NO 
 RMS     Displacement     0.034198     0.001200     NO 
 Predicted change in Energy=-2.815715D-02
 GradGradGradGradGradGradGradGradGradGradGradGradGradGradGradGradGradGrad

                          Input orientation:                          
 ---------------------------------------------------------------------
 Center     Atomic     Atomic              Coordinates (Angstroms)
 Number     Number      Type              X           Y           Z
 ---------------------------------------------------------------------
    1          6             0       -0.007578    0.004245   -0.005311
    2          1             0       -0.006083    0.006561    1.086695
    3          6             0        1.452459   -0.001101   -0.423158
    4          8             0        2.397889    0.305297    0.306171
    5          8             0        1.736019   -0.272205   -1.695771
    6          1             0        2.829908    0.213320   -1.010717
    7          6             0       -0.659346    1.329397   -0.495775
    8          1             0        0.052099    2.146801   -0.337783
    9          1             0       -0.818215    1.249502   -1.576750
   10          6             0       -1.955593    1.649556    0.214912
   11          6             0       -3.175518    1.113359   -0.218559
   12          6             0       -1.954130    2.486690    1.339545
   13          6             0       -4.362114    1.405639    0.455221
   14          1             0       -3.191293    0.457087   -1.080931
   15          6             0       -3.139018    2.780031    2.016622
   16          1             0       -1.018293    2.916829    1.685021
   17          6             0       -4.348055    2.239198    1.575545
   18          1             0       -5.297668    0.982186    0.105185
   19          1             0       -3.117883    3.433212    2.882629
   20          1             0       -5.270922    2.467766    2.097806
   21          7             0       -0.772684   -1.153048   -0.466223
   22          1             0       -0.655349   -1.302478   -1.465158
   23          1             0       -0.504638   -2.004715    0.017118
 ---------------------------------------------------------------------
                    Distance matrix (angstroms):
                    1          2          3          4          5
     1  C    0.000000
     2  H    1.092010   0.000000
     3  C    1.518662   2.099301   0.000000
     4  O    2.444161   2.545102   1.232736   0.000000
     5  O    2.444220   3.294655   1.331709   2.186174   0.000000
     6  H    3.017595   3.533374   1.512801   1.388991   1.378995
     7  C    1.556080   2.163529   2.497042   3.322436   3.121361
     8  H    2.169020   2.571605   2.565498   3.050991   3.245198
     9  H    2.162688   3.049328   2.837383   3.844507   2.975545
    10  C    2.559357   2.694443   3.840133   4.557209   4.579506
    11  C    3.363250   3.601945   4.764667   5.656073   5.312734
    12  C    3.429320   3.163836   4.571769   4.976585   5.517413
    13  C    4.597606   4.618569   6.046464   6.850592   6.680506
    14  H    3.390880   3.879064   4.712434   5.760733   5.018795
    15  C    4.647485   4.286278   5.896514   6.301371   6.845728
    16  H    3.515952   3.138825   4.366160   4.515708   5.402401
    17  C    5.131653   4.906767   6.531441   7.131552   7.350144
    18  H    5.380858   5.469559   6.841799   7.727882   7.368154
    19  H    5.456374   4.964938   6.603844   6.844393   7.632315
    20  H    6.180197   5.899017   7.593051   8.166816   8.425906
    21  N    1.461901   2.084209   2.506013   3.574338   2.929379
    22  H    2.063561   2.940593   2.687416   3.878764   2.614055
    23  H    2.069659   2.331905   2.835232   3.720802   3.310003
                    6          7          8          9         10
     6  H    0.000000
     7  C    3.699417   0.000000
     8  H    3.450712   1.095109   0.000000
     9  H    3.834431   1.095504   1.760008   0.000000
    10  C    5.144507   1.512558   2.140922   2.159565   0.000000
    11  C    6.123946   2.540599   3.391124   2.723985   1.401293
    12  C    5.794735   2.526696   2.637026   3.365369   1.401996
    13  C    7.436113   3.823702   4.545707   4.088094   2.430759
    14  H    6.026542   2.741184   3.731889   2.550541   2.151313
    15  C    7.168044   3.816445   4.015897   4.543233   2.434056
    16  H    5.420757   2.721150   2.414626   3.668673   2.155396
    17  C    7.894053   4.327202   4.799033   4.834897   2.814760
    18  H    8.239774   4.689961   5.492954   4.792271   3.409822
    19  H    7.803977   4.678040   4.698371   5.472031   3.413072
    20  H    8.964869   5.411948   5.862565   5.900265   3.899509
    21  N    3.891285   2.485206   3.403787   2.647185   3.117340
    22  H    3.827685   2.804725   3.697159   2.559606   3.637001
    23  H    4.134648   3.376876   4.203688   3.637124   3.936761
                   11         12         13         14         15
    11  C    0.000000
    12  C    2.409463   0.000000
    13  C    1.395499   2.783718   0.000000
    14  H    1.083802   3.392427   2.151822   0.000000
    15  C    2.788398   1.395866   2.413067   3.872161   0.000000
    16  H    3.395547   1.086354   3.870045   4.292173   2.150848
    17  C    2.420984   2.418228   1.396475   3.401600   1.396002
    18  H    2.150706   3.868646   1.084942   2.473744   3.397883
    19  H    3.873294   2.152053   3.398746   4.957067   1.084924
    20  H    3.404509   3.402415   2.156880   4.297913   2.156181
    21  N    3.312333   4.231348   4.503326   2.969861   5.218541
    22  H    3.706957   4.889886   4.976129   3.110420   5.912553
    23  H    4.112362   4.901281   5.167453   3.805824   5.816508
                   16         17         18         19         20
    16  H    0.000000
    17  C    3.399777   0.000000
    18  H    4.954975   2.154948   0.000000
    19  H    2.471678   2.155797   4.298045   0.000000
    20  H    4.296150   1.084751   2.485599   2.486687   0.000000
    21  N    4.609997   5.334738   5.035991   6.143985   6.318124
    22  H    5.278059   5.951926   5.407105   6.884336   6.943556
    23  H    5.221813   5.933914   5.648227   6.679165   6.859286
                   21         22         23
    21  N    0.000000
    22  H    1.016842   0.000000
    23  H    1.015285   1.647116   0.000000
 Stoichiometry    C9H11NO2
 Framework group  C1[X(C9H11NO2)]
 Deg. of freedom    63
 Full point group                 C1
 Largest Abelian subgroup         C1      NOp   1
 Largest concise Abelian subgroup C1      NOp   1
                         Standard orientation:                         
 ---------------------------------------------------------------------
 Center     Atomic     Atomic              Coordinates (Angstroms)
 Number     Number      Type              X           Y           Z
 ---------------------------------------------------------------------
    1          6             0       -1.366844    0.169742    0.444276
    2          1             0       -1.034904   -0.453911    1.276957
    3          6             0       -2.773632   -0.295448    0.111290
    4          8             0       -3.263615   -1.371669    0.459576
    5          8             0       -3.511143    0.471745   -0.689297
    6          1             0       -4.077091   -0.770216   -0.492162
    7          6             0       -0.447048   -0.116815   -0.777708
    8          1             0       -0.713854   -1.094446   -1.192819
    9          1             0       -0.667120    0.628293   -1.550050
   10          6             0        1.024036   -0.106826   -0.426076
   11          6             0        1.757775    1.086654   -0.396843
   12          6             0        1.680138   -1.304065   -0.107108
   13          6             0        3.111184    1.083120   -0.056710
   14          1             0        1.262093    2.021336   -0.631993
   15          6             0        3.033455   -1.311008    0.234837
   16          1             0        1.128288   -2.239489   -0.131777
   17          6             0        3.753607   -0.115386    0.261123
   18          1             0        3.663915    2.016556   -0.039843
   19          1             0        3.524390   -2.248297    0.474696
   20          1             0        4.806144   -0.117960    0.523503
   21          7             0       -1.273208    1.571691    0.847918
   22          1             0       -1.736171    2.182691    0.179852
   23          1             0       -1.681191    1.733183    1.763491
 ---------------------------------------------------------------------
 Rotational constants (GHZ):      2.3578544      0.4554069      0.4104264
 Standard basis: 6-31G (6D, 7F)
 There are   130 symmetry adapted basis functions of A   symmetry.
 Integral buffers will be    262144 words long.
 Raffenetti 2 integral format.
 Two-electron integral symmetry is turned on.
   130 basis functions,   308 primitive gaussians,   130 cartesian basis functions
    44 alpha electrons       44 beta electrons
       nuclear repulsion energy       664.3532527665 Hartrees.
 NAtoms=   23 NActive=   23 NUniq=   23 SFac= 7.50D-01 NAtFMM=   80 NAOKFM=F Big=F
 One-electron integrals computed using PRISM.
 NBasis=   130 RedAO= T  NBF=   130
 NBsUse=   130 1.00D-06 NBFU=   130
 Initial guess read from the read-write file:
 Initial guess orbital symmetries:
       Occupied  (A) (A) (A) (A) (A) (A) (A) (A) (A) (A) (A) (A)
                 (A) (A) (A) (A) (A) (A) (A) (A) (A) (A) (A) (A)
                 (A) (A) (A) (A) (A) (A) (A) (A) (A) (A) (A) (A)
                 (A) (A) (A) (A) (A) (A) (A) (A)
       Virtual   (A) (A) (A) (A) (A) (A) (A) (A) (A) (A) (A) (A)
                 (A) (A) (A) (A) (A) (A) (A) (A) (A) (A) (A) (A)
                 (A) (A) (A) (A) (A) (A) (A) (A) (A) (A) (A) (A)
                 (A) (A) (A) (A) (A) (A) (A) (A) (A) (A) (A) (A)
                 (A) (A) (A) (A) (A) (A) (A) (A) (A) (A) (A) (A)
                 (A) (A) (A) (A) (A) (A) (A) (A) (A) (A) (A) (A)
                 (A) (A) (A) (A) (A) (A) (A) (A) (A) (A) (A) (A)
                 (A) (A)
 Harris functional with IExCor=  402 diagonalized for initial guess.
 ExpMin= 1.61D-01 ExpMax= 5.48D+03 ExpMxC= 8.25D+02 IAcc=1 IRadAn=         1 AccDes= 1.00D-06
 HarFok:  IExCor= 402 AccDes= 1.00D-06 IRadAn=         1 IDoV=1
 ScaDFX=  1.000000  1.000000  1.000000  1.000000
 Requested convergence on RMS density matrix=1.00D-08 within 128 cycles.
 Requested convergence on MAX density matrix=1.00D-06.
 Requested convergence on             energy=1.00D-06.
 No special actions if energy rises.
 Integral accuracy reduced to 1.0D-05 until final iterations.
 Initial convergence to 1.0D-05 achieved.  Increase integral accuracy.
 SCF Done:  E(RB+HF-LYP) =  -554.553511414     A.U. after   13 cycles
             Convg  =    0.9639D-08             -V/T =  2.0052
             S**2   =   0.0000
 ***** Axes restored to original set *****
 -------------------------------------------------------------------
 Center     Atomic                   Forces (Hartrees/Bohr)
 Number     Number              X              Y              Z
 -------------------------------------------------------------------
    1          6           0.003009631   -0.001364854    0.009867902
    2          1          -0.002801306   -0.000092674    0.002055866
    3          6          -0.110937236   -0.028826338   -0.040296825
    4          8           0.060259549    0.023005251    0.021814098
    5          8           0.031318108    0.021742983    0.030111588
    6          1           0.016440378   -0.013556423   -0.020071659
    7          6          -0.000404833    0.001530342   -0.000617225
    8          1           0.001063576    0.001217155    0.000122960
    9          1           0.000567854   -0.000746046   -0.001022967
   10          6           0.001649052   -0.000765266   -0.000466792
   11          6          -0.000405641   -0.002051732   -0.002887941
   12          6           0.002301412    0.001400070    0.001265925
   13          6          -0.002322601   -0.001136806   -0.000952818
   14          1           0.000357795   -0.000507434   -0.000127436
   15          6           0.000226482    0.001717974    0.002239751
   16          1           0.000592704    0.000229511    0.000121579
   17          6          -0.002331113    0.000604934    0.001322973
   18          1          -0.000429956   -0.000210248   -0.000205958
   19          1           0.000018839    0.000330982    0.000460204
   20          1          -0.000490364    0.000125023    0.000271509
   21          7           0.008762700   -0.002590528   -0.003164318
   22          1          -0.002967669    0.001848673   -0.003555745
   23          1          -0.003477360   -0.001904548    0.003715328
 -------------------------------------------------------------------
 Cartesian Forces:  Max     0.110937236 RMS     0.018234033

 GradGradGradGradGradGradGradGradGradGradGradGradGradGradGradGradGradGrad
 Berny optimization.
 Internal  Forces:  Max     0.062808713 RMS     0.008649423
 Search for a saddle point.
 Step number   2 out of a maximum of 127
 All quantities printed in internal units (Hartrees-Bohrs-Radians)
 Swaping is turned off.
 Update second derivatives using D2CorX and points  1  2
     Eigenvalues ---   -0.07498   0.00061   0.00089   0.00341   0.00358
     Eigenvalues ---    0.00729   0.01654   0.01770   0.01848   0.02152
     Eigenvalues ---    0.02460   0.02631   0.02817   0.02981   0.03019
     Eigenvalues ---    0.03101   0.04055   0.04473   0.04725   0.04875
     Eigenvalues ---    0.05361   0.06167   0.06574   0.08298   0.11489
     Eigenvalues ---    0.11896   0.12167   0.12618   0.13060   0.13485
     Eigenvalues ---    0.13634   0.14168   0.15868   0.16844   0.18982
     Eigenvalues ---    0.19718   0.20255   0.20638   0.20752   0.21167
     Eigenvalues ---    0.22869   0.26947   0.28094   0.31739   0.32510
     Eigenvalues ---    0.33251   0.33980   0.34409   0.34501   0.36128
     Eigenvalues ---    0.36443   0.36502   0.36677   0.36967   0.38156
     Eigenvalues ---    0.42951   0.43339   0.45798   0.46206   0.49519
     Eigenvalues ---    0.49757   0.53116   0.799071000.000001000.00000
     Eigenvalues --- 1000.000001000.000001000.000001000.000001000.00000
     Eigenvalues --- 1000.000001000.000001000.000001000.000001000.00000
     Eigenvalues --- 1000.000001000.000001000.000001000.000001000.00000
     Eigenvalues --- 1000.000001000.000001000.000001000.000001000.00000
     Eigenvalues --- 1000.000001000.000001000.000001000.000001000.00000
     Eigenvalues --- 1000.000001000.000001000.000001000.000001000.00000
     Eigenvalues --- 1000.000001000.000001000.000001000.000001000.00000
     Eigenvalues --- 1000.000001000.000001000.000001000.000001000.00000
     Eigenvalues --- 1000.000001000.000001000.000001000.000001000.00000
     Eigenvalues --- 1000.000001000.000001000.000001000.000001000.00000
     Eigenvalues --- 1000.000001000.00000
 Eigenvectors required to have negative eigenvalues:
                          R1        R2        R3        R4        R5
         1             -0.00561  -0.02000   0.00240   0.01405  -0.04508
                          R6        R7        R8        R9        R10
         1              0.10463  -0.03778   0.63262  -0.58762  -0.00015
                          R11       R12       R13       R14       R15
         1              0.00078  -0.00013   0.00041   0.00051   0.00039
                          R16       R17       R18       R19       R20
         1             -0.00001   0.00018  -0.00007   0.00030   0.00005
                          R21       R22       R23       R24       R25
         1              0.00047   0.00001   0.00006   0.00068  -0.00052
                          A1        A2        A3        A4        A5
         1             -0.01931   0.00809   0.00608   0.00597   0.00845
                          A6        A7        A8        A9        A10
         1             -0.00943  -0.13877   0.10939  -0.28631   0.02410
                          A11       A12       A13       A14       A15
         1              0.02833  -0.00106   0.00323  -0.00320   0.00074
                          A16       A17       A18       A19       A20
         1              0.00097  -0.00048   0.00039  -0.00097   0.00058
                          A21       A22       A23       A24       A25
         1             -0.00033   0.00019   0.00013  -0.00047   0.00003
                          A26       A27       A28       A29       A30
         1              0.00044  -0.00010   0.00007   0.00003   0.00007
                          A31       A32       A33       A34       A35
         1             -0.00011   0.00004   0.00025  -0.00014  -0.00011
                          A36       A37       A38       D1        D2
         1              0.01859   0.00340   0.00518   0.03140   0.11027
                          D3        D4        D5        D6        D7
         1             -0.16640   0.03373   0.11260  -0.16407   0.03208
                          D8        D9        D10       D11       D12
         1              0.11095  -0.16571  -0.00850  -0.00648  -0.00690
                          D13       D14       D15       D16       D17
         1              0.00688   0.00890   0.00849  -0.00162   0.00039
                          D18       D19       D20       D21       D22
         1             -0.00002  -0.00705   0.01538  -0.02195   0.00048
                          D23       D24       D25       D26       D27
         1             -0.01512   0.00731  -0.00097  -0.00128   0.00182
                          D28       D29       D30       D31       D32
         1              0.00151   0.00060   0.00030  -0.00013   0.00016
                          D33       D34       D35       D36       D37
         1              0.00018   0.00047   0.00005  -0.00005  -0.00024
                          D38       D39       D40       D41       D42
         1             -0.00035   0.00000   0.00002  -0.00029  -0.00027
                          D43       D44       D45       D46       D47
         1              0.00012   0.00003   0.00022   0.00013  -0.00013
                          D48       D49       D50       D51       D52
         1             -0.00002  -0.00015  -0.00004   0.00007  -0.00004
                          D53       D54
         1              0.00016   0.00005
 RFO step:  Lambda0=2.003422131D-05 Lambda=-3.19019832D-02.
 Linear search not attempted -- option 19 set.
 Maximum step size (   0.300) exceeded in Quadratic search.
    -- Step size scaled by   0.714
 Iteration  1 RMS(Cart)=  0.03769137 RMS(Int)=  0.00526836
 Iteration  2 RMS(Cart)=  0.00350680 RMS(Int)=  0.00129650
 Iteration  3 RMS(Cart)=  0.00023869 RMS(Int)=  0.00124073
 Iteration  4 RMS(Cart)=  0.00000322 RMS(Int)=  0.00124073
 Iteration  5 RMS(Cart)=  0.00000006 RMS(Int)=  0.00124073
 Variable       Old X    -DE/DX   Delta X   Delta X   Delta X     New X
                                 (Linear)    (Quad)   (Total)
    R1        2.06360   0.00205   0.00000   0.00069   0.00069   2.06429
    R2        2.86985  -0.00049   0.00000  -0.02459  -0.02459   2.84527
    R3        2.94056   0.00145   0.00000   0.00720   0.00720   2.94777
    R4        2.76259   0.00183   0.00000   0.00204   0.00204   2.76464
    R5        2.32953   0.06281   0.00000   0.06374   0.06649   2.39602
    R6        2.51656  -0.02194   0.00000  -0.04581  -0.04365   2.47291
    R7        2.85878   0.03639   0.00000   0.14309   0.13627   2.99505
    R8        2.62481  -0.00115   0.00000  -0.03139  -0.03095   2.59387
    R9        2.60592  -0.01851   0.00000  -0.09202  -0.08911   2.51682
   R10        2.06946   0.00162   0.00000   0.00196   0.00196   2.07141
   R11        2.07020   0.00098   0.00000   0.00186   0.00186   2.07206
   R12        2.85832   0.00115   0.00000   0.00163   0.00163   2.85995
   R13        2.64806   0.00334   0.00000   0.00454   0.00454   2.65260
   R14        2.64939   0.00360   0.00000   0.00450   0.00450   2.65389
   R15        2.63711   0.00319   0.00000   0.00396   0.00396   2.64107
   R16        2.04809   0.00040   0.00000   0.00048   0.00048   2.04857
   R17        2.63780   0.00316   0.00000   0.00403   0.00403   2.64184
   R18        2.05291   0.00064   0.00000   0.00093   0.00093   2.05385
   R19        2.63896   0.00360   0.00000   0.00453   0.00453   2.64348
   R20        2.05024   0.00052   0.00000   0.00085   0.00085   2.05109
   R21        2.63806   0.00356   0.00000   0.00445   0.00445   2.64251
   R22        2.05021   0.00057   0.00000   0.00088   0.00088   2.05109
   R23        2.04988   0.00057   0.00000   0.00095   0.00095   2.05083
   R24        1.92155   0.00288   0.00000   0.00139   0.00139   1.92295
   R25        1.91861   0.00245   0.00000   0.00058   0.00058   1.91919
    A1        1.84817   0.00260   0.00000   0.01427   0.01429   1.86246
    A2        1.89015  -0.00079   0.00000  -0.00009  -0.00011   1.89004
    A3        1.89408   0.00009   0.00000   0.00272   0.00278   1.89685
    A4        1.89543  -0.00043   0.00000  -0.00080  -0.00088   1.89455
[...]
 52,0.00002230,-0.00000610,-0.00002469,-0.00001040,-0.00002881,-0.00000
 398,0.00001288,-0.00002227,0.00150967,-0.00188975,0.00087693,-0.000005
 99,-0.00005251,0.00029683,-0.00071769,0.00020391,0.00095891,0.00163690
 ,-0.00534734,-0.01138620,-0.00447582,-0.16866780,-0.15295392,-0.003010
 57,0.00336538,-0.00258184,-0.00211547,0.00044058,-0.00271966,0.0051375
 2,0.17085350,-0.00138401,-0.00092123,-0.00027767,-0.00002436,-0.000065
 03,0.00004382,-0.00003309,0.00024988,-0.00011825,0.00011679,0.00009281
 ,0.00004220,0.00006382,0.00007581,0.00009889,-0.00001375,-0.00005386,-
 0.00000513,-0.00029143,0.00245865,-0.00053335,0.00010786,-0.00000918,-
 0.00002441,-0.00034916,-0.00006570,-0.00009471,0.00352844,-0.00590695,
 -0.00375126,0.00318478,-0.15001956,-0.21774802,-0.00081575,-0.00278594
 ,0.00368285,-0.00303106,-0.01063452,-0.00734745,-0.00614031,0.16773469
 ,0.22476687,-0.00026482,0.00090202,-0.00047382,-0.00013547,0.00025157,
 -0.00002683,0.00024119,-0.00000708,-0.00010681,0.00001366,0.00001834,-
 0.00001700,-0.00004716,0.00001424,0.00009299,0.00002187,0.00000439,0.0
 0000485,0.00317282,-0.00289477,0.00001240,-0.00018580,-0.00018213,-0.0
 0014388,-0.00043849,0.00049669,-0.00050214,0.03088261,0.04927741,0.053
 93692,-0.06518232,-0.00859276,0.00710741,-0.28128594,0.00714633,0.0721
 7584,0.03128512,-0.04338333,-0.05916551,-0.00098400,-0.00020041,0.0001
 2821,0.66190698,-0.00107437,0.00036420,0.00037978,-0.00003115,-0.00011
 457,0.00016560,0.00009415,0.00031564,-0.00024169,-0.00003757,0.0000138
 4,0.00005358,-0.00011201,0.00004518,0.00016884,-0.00000022,-0.00002734
 ,0.00000421,-0.00214053,0.00187044,-0.00604354,0.00027448,0.00025103,0
 .00023149,0.00120457,-0.00049057,-0.00074330,0.02346631,0.00286528,-0.
 01209042,-0.00866323,-0.00600978,0.00414015,0.04549493,-0.10215062,-0.
 05681177,-0.01724046,-0.01592010,-0.02568267,-0.00007520,0.00002573,0.
 00069910,0.07705903,0.40354519,0.00076592,-0.00056454,-0.00070557,0.00
 010004,-0.00019533,-0.00000985,-0.00004779,-0.00038064,0.00015173,0.00
 000450,0.00013517,0.00008976,0.00008492,0.00010846,-0.00000851,-0.0000
 0356,-0.00003617,-0.00008288,-0.00061337,-0.00490623,0.00056558,-0.000
 04602,0.00005733,0.00003555,0.00001068,0.00009735,0.00016685,0.0211320
 3,-0.02041577,-0.02299426,0.00670486,0.00442628,-0.00434601,0.11806775
 ,-0.04519670,-0.15589417,-0.02719029,-0.01789876,-0.00421239,0.0000688
 1,0.00059407,0.00036948,-0.06134391,0.29288786,0.51137382,0.00006070,0
 .00005313,0.00001036,-0.00002928,-0.00004548,-0.00001826,-0.00007367,-
 0.00005870,0.00000255,0.00005815,0.00001246,0.00002355,0.00005545,0.00
 001126,-0.00001048,-0.00000982,-0.00000495,-0.00001357,0.00067567,0.00
 146729,0.00027018,0.00060937,-0.00000278,-0.00016801,0.00018698,0.0000
 2579,-0.00003602,0.00106402,0.00159899,0.00307397,0.00177871,-0.000230
 06,0.00116480,-0.25757547,-0.10887893,-0.06388311,0.00043827,0.0005440
 6,0.00043988,0.00003331,0.00004014,0.00003377,-0.01909563,-0.01428946,
 -0.01056900,0.27412844,0.00041482,-0.00038119,-0.00050778,0.00005201,-
 0.00024831,-0.00000860,0.00008532,-0.00036581,-0.00005039,-0.00007736,
 0.00013983,0.00016959,0.00003097,0.00016864,0.00007400,0.00000270,-0.0
 0007516,-0.00010008,-0.00017917,-0.00188450,0.00288408,0.00057403,0.00
 029272,-0.00049401,-0.00009644,0.00050730,0.00040192,-0.01956403,-0.00
 547618,-0.00523374,0.00040579,0.00173490,-0.00568054,-0.10862101,-0.10
 362528,-0.04601143,0.00062817,-0.00029306,-0.00011454,-0.00095175,-0.0
 0016048,-0.00043071,0.00780864,0.00592629,0.00091089,0.11802278,0.1016
 9063,-0.00019142,-0.00002753,0.00030552,-0.00004688,-0.00001142,0.0000
 2603,0.00010774,0.00000663,-0.00017010,-0.00005961,0.00009509,0.000008
 42,-0.00003513,0.00007175,0.00009824,0.00001621,-0.00005308,-0.0000154
 2,-0.00266838,0.00155837,-0.00087368,0.00119459,0.00025848,-0.00017316
 ,0.00033840,0.00000388,0.00002542,-0.02186568,-0.01183408,-0.00380420,
 0.00172500,-0.00571114,-0.00095999,-0.06322594,-0.04534265,-0.07367853
 ,0.00063701,-0.00011487,-0.00067265,-0.00114971,-0.00062366,-0.0001057
 9,0.01583574,0.00750009,0.00748912,0.06626232,0.05465783,0.07203970,-0
 .00023783,-0.00059035,0.00037976,0.00003000,-0.00021130,0.00005719,0.0
 0008228,0.00017258,-0.00008593,-0.00009707,-0.00000173,0.00003556,-0.0
 0010374,0.00002113,0.00005812,-0.00000020,-0.00001896,0.00000302,-0.00
 044413,0.00057980,-0.00059014,0.00027932,0.00015584,-0.00002835,0.0000
 6188,-0.00007048,0.00023044,-0.01604356,-0.02034556,-0.02213823,0.0309
 8946,0.02428010,0.02225108,-0.05869177,0.00306438,0.02405804,-0.129043
 41,0.01093185,0.03155269,-0.00406751,-0.00025382,0.00359805,-0.2826093
 7,-0.10787974,-0.06643614,-0.00207777,0.00059631,0.00347213,0.71840435
 ,0.00030008,-0.00014528,0.00013364,0.00004982,-0.00016957,0.00005570,-
 0.00024043,-0.00013399,0.00009387,0.00000835,0.00002762,0.00003257,0.0
 0008689,0.00001501,-0.00004746,-0.00001753,-0.00001782,-0.00002823,-0.
 00051628,-0.00067589,-0.00039448,0.00011274,0.00023301,-0.00003595,0.0
 0015394,-0.00004062,0.00040155,-0.01987027,-0.03069910,-0.02257179,0.0
 5000126,0.00374916,-0.02085975,-0.02319690,0.02913602,0.03155506,-0.02
 724498,-0.17931745,-0.12757108,-0.00046677,0.00486438,-0.00303840,-0.0
 6950963,-0.13558995,-0.06246807,0.00126386,0.00426648,-0.00388567,0.06
 191471,0.37312547,0.00008617,0.00003167,0.00010604,0.00001245,-0.00009
 284,0.00005484,-0.00027985,-0.00009714,0.00005922,0.00006345,0.0000099
 4,0.00003099,0.00011304,0.00001029,-0.00004485,-0.00002022,-0.00001359
 ,-0.00002452,-0.00045491,-0.00015902,-0.00112033,0.00015507,0.00015742
 ,-0.00008770,0.00042552,-0.00001566,0.00033150,-0.02187343,-0.02176552
 ,-0.02807515,0.05362764,-0.01335044,-0.02359709,-0.00794882,0.02326825
 ,0.03968733,-0.01463945,-0.13893997,-0.22969596,0.00268955,-0.00264730
 ,0.00304951,-0.02055803,-0.05130030,-0.12221559,0.00434732,-0.00369403
 ,0.00158826,-0.09468003,0.26181131,0.48394988,-0.00011095,-0.00024301,
 0.00001378,0.00001768,-0.00003375,-0.00000006,0.00018910,0.00002528,-0
 .00012585,-0.00009372,0.00006907,0.00002868,-0.00008193,0.00006538,0.0
 0009976,0.00001616,-0.00004113,-0.00001828,-0.00063127,-0.00087097,-0.
 00068336,-0.00037443,0.00009570,0.00015954,-0.00000197,0.00004275,0.00
 005152,-0.00187266,0.00118320,0.00407684,-0.01913755,-0.01422664,-0.01
 050841,0.00034726,0.00071153,0.00066461,-0.26141524,-0.10885314,-0.065
 74415,0.00092935,0.00092666,-0.00030440,0.00179665,-0.00034521,0.00111
 726,-0.00011627,0.00009329,-0.00023801,0.00349001,0.00267702,0.0032377
 2,0.27626994,-0.00003530,0.00002644,-0.00000602,0.00001326,-0.00000777
 ,0.00002051,0.00005503,0.00002739,-0.00002922,-0.00002600,-0.00001304,
 0.00001108,-0.00003385,0.00000424,0.00002466,0.00000452,-0.00000003,-0
 .00000180,0.00038178,0.00022911,-0.00005763,0.00014143,-0.00007658,-0.
 00000404,-0.00003823,0.00001846,0.00005035,0.00045460,0.00443168,-0.00
 385985,0.00761618,0.00601881,0.00073463,0.00067077,-0.00024944,-0.0001
 3237,-0.10886683,-0.10345725,-0.04624262,0.00035298,-0.00189677,0.0026
 8869,0.00027552,0.00205158,-0.00601158,0.00010463,-0.00073049,0.000673
 67,-0.01929974,-0.00520720,-0.00473394,0.11811688,0.10094152,-0.000005
 87,0.00005167,0.00002224,-0.00000456,-0.00001968,-0.00001409,-0.000015
 03,-0.00000534,0.00001360,0.00000686,-0.00000756,-0.00000155,-0.000001
 82,-0.00000379,-0.00001683,-0.00000097,0.00000301,0.00000575,0.0004920
 3,0.00036682,0.00040341,0.00014269,0.00003432,-0.00011816,-0.00003656,
 -0.00000980,-0.00002231,0.00354886,-0.00410911,0.00163785,0.01595864,0
 .00748592,0.00784842,0.00064699,-0.00009459,-0.00065032,-0.06569335,-0
 .04626299,-0.07521146,-0.00094718,0.00221313,-0.00116509,0.00187623,-0
 .00584949,-0.00062456,-0.00024696,0.00066366,-0.00043231,-0.02339216,-
 0.01123295,-0.00328839,0.06897792,0.05492519,0.07278470,-0.00009820,-0
 .00007874,0.00010200,0.00001330,0.00000877,-0.00001471,0.00011155,0.00
 006465,-0.00004043,-0.00005620,-0.00001871,-0.00002164,-0.00004761,-0.
 00001054,0.00001274,0.00000889,0.00000092,0.00001603,0.00028273,0.0006
 6108,0.00094056,0.00000824,-0.00000450,-0.00004065,-0.00027456,0.00008
 637,0.00017869,-0.00401802,-0.00050241,0.00252630,-0.00109331,-0.00008
 744,0.00010094,0.00337203,0.01949341,0.02330715,-0.00423735,-0.0028340
 7,-0.00007783,0.00012474,0.00021490,-0.00017326,-0.05976628,-0.0038010
 2,0.00195763,0.00083789,0.00039025,-0.00098008,0.00367625,-0.01934942,
 -0.02327757,0.00004411,-0.00092819,-0.00105491,0.06024148,0.00000214,0
 .00008231,-0.00009409,-0.00001131,0.00000014,-0.00001254,-0.00007627,-
 0.00003540,0.00003305,0.00006765,-0.00000738,0.00001138,0.00005182,-0.
 00000152,-0.00000951,-0.00000921,0.00000745,-0.00000891,-0.00015304,-0
 .00003875,-0.00030049,0.00000583,-0.00002401,0.00001803,0.00017951,-0.
 00005759,-0.00006230,-0.00000862,0.00502962,-0.00270063,-0.00012134,0.
 00006784,0.00070025,-0.00272987,-0.00071545,-0.00381928,-0.00346657,0.
 00387462,-0.00289233,0.00017836,-0.00075373,0.00058771,-0.00383263,-0.
 16300225,-0.14872156,0.00102269,-0.00188513,0.00230889,0.00280514,-0.0
 0522845,-0.01116241,0.00004699,-0.00023384,-0.00066592,0.00558900,0.16
 486873,0.00013374,0.00003995,-0.00007643,-0.00002269,0.00003708,0.0000
 1076,-0.00020348,-0.00008852,0.00007792,0.00010043,0.00002080,0.000005
 71,0.00010128,-0.00000372,-0.00005451,-0.00001806,0.00000079,-0.000010
 24,-0.00043564,-0.00042513,-0.00027223,0.00002391,0.00002875,0.0000141
 5,0.00009117,-0.00007170,-0.00011875,0.00347502,-0.00274187,0.00310029
 ,0.00012863,0.00069881,0.00034797,-0.00309555,-0.01030787,-0.00827283,
 -0.00088884,-0.00306587,0.00371675,-0.00015356,0.00055750,-0.00062079,
 0.00191910,-0.14858886,-0.21688160,-0.00028051,0.00248074,-0.00100752,
 0.00318981,-0.00476201,-0.00322639,0.00013183,-0.00037299,-0.00019033,
 -0.00330249,0.16430965,0.22450618,-0.00002888,-0.00006053,0.00003774,0
 .00001236,-0.00003924,0.00000638,0.00011931,0.00000971,-0.00007525,-0.
 00007888,0.00002303,0.00001980,-0.00006487,0.00003603,0.00005505,0.000
 01326,-0.00002078,-0.00000802,-0.00004501,0.00017235,-0.00007253,0.000
 05127,0.00000950,-0.00003156,-0.00000334,0.00003135,0.00003422,0.00040
 766,-0.00038162,-0.00081263,0.00174647,-0.00120448,0.00019309,-0.00215
 463,-0.00390297,-0.00193352,0.00334715,-0.00262877,-0.00323391,0.00003
 158,-0.00012087,-0.00008804,-0.01871115,0.00793813,0.01595877,-0.00104
 182,0.00027961,0.00074002,-0.26390149,0.04367697,0.11852822,0.00073714
 ,0.00099802,-0.00016482,0.00085480,0.00043099,-0.00092457,0.27874192,0
 .00010761,0.00001884,-0.00006485,0.00000569,0.00000617,-0.00001125,-0.
 00002484,-0.00007005,0.00004148,0.00003081,0.00001807,0.00000653,0.000
 03569,0.00000291,-0.00002112,-0.00000448,0.00000016,-0.00000955,0.0003
 5901,-0.00062433,0.00054677,0.00001026,-0.00001667,-0.00004231,-0.0000
 5572,0.00009815,0.00013339,-0.00062562,-0.00078790,-0.00006591,-0.0017
 7404,0.00177990,-0.00600220,-0.00324293,0.00303697,-0.00424639,0.01942
 242,-0.00034914,-0.00994521,0.00078561,0.00006178,-0.00054062,-0.01423
 862,0.00598895,0.00749524,-0.00069539,0.00029437,0.00022234,0.04376587
 ,-0.05851701,-0.03738136,0.00036321,-0.00183460,0.00250267,0.00108489,
 -0.00189724,0.00229830,-0.04533520,0.05285511,-0.00017288,-0.00005719,
 0.00001179,-0.00000734,-0.00000481,0.00001453,-0.00007256,0.00004660,-
 0.00000272,0.00004314,-0.00000761,-0.00000048,0.00003381,-0.00000698,-
 0.00000401,-0.00000829,0.00000090,0.00000463,-0.00026239,0.00067805,-0
 .00033570,0.00010127,0.00002355,0.00002199,0.00000423,-0.00008503,-0.0
 0006024,-0.00067647,-0.00007640,-0.00048995,-0.00064748,-0.00619746,-0
 .00005848,-0.00115945,-0.00403527,0.00285220,0.02339390,-0.00365555,-0
 .00797482,0.00106355,-0.00018042,-0.00048571,-0.01057809,0.00109008,0.
 00764314,-0.00040961,-0.00007165,0.00032373,0.11854526,-0.03728841,-0.
 11764514,-0.00096138,0.00231045,-0.00092643,-0.00015654,0.00248009,-0.
 00105624,-0.12824042,0.04504845,0.11811242,-0.08555665,-0.03806396,-0.
 02080201,-0.00109439,-0.00254606,-0.00159695,-0.03127399,-0.03215260,-
 0.01298675,-0.00895814,-0.00229365,0.00050447,-0.00139341,-0.00292082,
 -0.00180844,0.00117664,-0.00008268,-0.00067292,0.00514166,-0.00129420,
 0.00155828,0.00003450,0.00126026,-0.00025860,-0.00003239,-0.00005014,0
 .00008666,-0.00135560,-0.00027821,0.00171036,-0.00226502,0.00065343,-0
 .00263058,0.00086686,-0.00036370,-0.00090699,0.00090383,0.00097830,-0.
 00007837,0.00073652,0.00045987,0.00219371,-0.00068631,0.00019966,0.000
 31552,0.00013482,0.00019774,0.00022970,0.00039977,0.00021176,0.0004458
 9,0.00014482,-0.00001291,-0.00010281,0.00003951,0.00004691,0.00004312,
 -0.00002735,0.00002971,0.00022712,0.15010239,-0.08177799,-0.17042357,-
 0.03939820,-0.00122272,-0.00253743,-0.00048399,-0.01731905,-0.01282117
 ,-0.00822570,-0.00302014,0.00304824,0.00227510,0.00497265,0.00343346,0
 .00138419,-0.00075740,-0.00289867,-0.00203842,-0.02006248,-0.03683206,
 -0.01365897,0.00297563,-0.00592269,0.00100064,-0.00155745,0.00376273,-
 0.00136068,-0.00201240,0.00208033,0.00108173,0.00137904,-0.00009816,0.
 00025093,0.00040984,-0.00017808,-0.00059846,0.00006474,-0.00037662,-0.
 00054777,-0.00010334,-0.00131108,-0.00028187,-0.00026504,-0.00002893,0
 .00003916,0.00000455,0.00005096,0.00016771,0.00031446,0.00024797,-0.00
 001073,0.00018323,-0.00002711,0.00002201,0.00002535,-0.00006558,-0.000
 05890,0.00009741,-0.00007610,-0.00005518,0.08573863,0.64164370,-0.0413
 9521,-0.03540098,-0.13309300,-0.02302298,-0.03261559,-0.01544327,-0.00
 350461,-0.00106095,0.00398726,0.00019336,0.00107851,0.00204972,0.00231
 277,0.00274627,0.00052542,-0.00059295,-0.00125249,-0.00095999,0.006165
 59,0.00689276,0.00381413,-0.00104193,0.00328452,0.00059176,0.00098940,
 0.00012969,0.00219523,-0.00029978,-0.00039037,0.00053130,-0.00087017,-
 0.00031204,-0.00053306,0.00011695,-0.00007289,0.00019510,0.00020093,0.
 00021323,0.00026808,0.00066661,-0.00028149,0.00007325,-0.00014408,-0.0
 0001533,0.00007364,-0.00000978,0.00014582,-0.00006216,-0.00012380,0.00
 008014,0.00017701,0.00000800,0.00003065,-0.00006593,-0.00000483,0.0000
 1206,-0.00000059,0.00000782,0.00003819,0.00003292,0.02041791,-0.071891
 21,0.71710382,-0.00601675,-0.00813856,-0.02618657,-0.00122168,-0.00291
 182,-0.00102948,0.00215038,-0.00121117,-0.00529244,0.00017285,0.001993
 15,0.00212516,0.00217473,0.00164654,0.00178821,-0.00063471,-0.00182247
 ,-0.00104663,0.00001180,0.00027059,0.00138246,-0.00011419,-0.00005463,
 -0.00035667,0.00033278,0.00055238,-0.00017393,0.00002664,0.00025743,-0
 .00005826,0.00025116,0.00072169,0.00080235,-0.00012220,-0.00000205,-0.
 00010863,-0.00016094,-0.00028692,-0.00028917,-0.00056244,0.00015219,-0
 .00005888,-0.00003566,-0.00004222,-0.00002073,-0.00002548,-0.00006200,
 -0.00004824,0.00009333,0.00001808,-0.00002045,-0.00003341,0.00001130,0
 .00004311,-0.00000496,-0.00002810,-0.00001689,0.00001747,-0.00003912,-
 0.00005064,-0.01744706,-0.00779040,0.07825554,0.02310545,0.00517608,-0
 .00222559,-0.03231115,-0.00299119,-0.00372561,-0.00189780,0.00024632,0
 .00054008,-0.00031621,-0.00001785,-0.00016910,0.00001236,-0.00029804,-
 0.00021706,0.00064562,-0.00007362,0.00003337,-0.00002503,-0.00040377,0
 .00168171,-0.00217868,0.00004315,0.00011606,0.00068804,0.00028747,-0.0
 0080943,0.00149403,0.00018358,-0.00012837,0.00016216,-0.00022598,-0.00
 027983,-0.00029887,-0.00007775,-0.00008582,0.00007973,0.00011757,0.000
 11225,0.00008072,0.00036042,0.00003325,0.00003630,-0.00005600,0.000047
 74,0.00004239,0.00001760,0.00004687,0.00000924,-0.00002580,0.00003478,
 0.00005297,-0.00002139,-0.00000367,-0.00000739,-0.00001781,0.00002698,
 0.00001830,-0.00001635,0.00001775,0.00003165,-0.01056023,-0.06911331,-
 0.03838296,0.01282383,0.06949750,0.00630750,0.00038967,-0.01411487,-0.
 00140677,-0.00222939,0.00109366,0.00080752,-0.00009028,0.00016375,0.00
 048149,0.00069008,0.00076563,0.00092173,0.00104712,0.00020683,-0.00030
 747,-0.00033517,-0.00030457,0.00003934,-0.00056990,0.00076795,0.000058
 42,-0.00003901,0.00010491,0.00019204,-0.00063183,-0.00000682,-0.000004
 23,0.00012214,-0.00007038,0.00000971,-0.00020695,-0.00012575,-0.000058
 68,0.00003699,0.00001525,-0.00000036,0.00005532,0.00008145,0.00016416,
 -0.00005051,0.00008237,0.00003216,0.00001215,0.00001922,0.00000712,0.0
 0000877,-0.00000367,-0.00004547,-0.00001830,-0.00001475,-0.00001154,-0
 .00000589,0.00000147,-0.00000361,0.00000104,0.00001185,-0.00000704,0.0
 0000842,0.00000874,0.02975458,-0.02300863,-0.42710447,-0.04391602,0.03
 343698,0.45402742,-0.00690782,-0.02325772,0.00818140,0.00095553,0.0007
 8988,0.00032276,0.00004282,-0.00501026,-0.00086733,-0.00059326,0.00148
 398,0.00055283,0.00090284,0.00188132,0.00014276,-0.00043323,-0.0009011
 1,-0.00069112,-0.00030962,0.00176237,-0.00083051,0.00016295,0.00041533
 ,0.00018259,0.00003406,-0.00030210,0.00041589,0.00092622,-0.00011325,-
 0.00059174,-0.00025983,-0.00026073,0.00006236,-0.00017863,0.00003460,0
 .00024953,-0.00006227,-0.00001549,0.00031392,0.00019292,0.00032761,-0.
 00024793,0.00010750,0.00000114,-0.00001787,-0.00001656,-0.00003067,-0.
 00004977,-0.00018877,-0.00006325,0.00002069,-0.00011282,0.00004415,-0.
 00002633,-0.00001901,0.00000994,0.00000423,-0.00002297,0.00003519,-0.0
 0000876,-0.00959100,0.03972288,-0.03832478,-0.00195710,-0.00447027,0.0
 0698541,0.01732806,0.00984397,-0.02124183,0.01387997,0.00032059,0.0008
 7066,-0.00032809,0.00056207,-0.00016515,-0.00016026,0.00027325,0.00042
 273,0.00011594,0.00019173,0.00038653,0.00032478,-0.00009370,-0.0001942
 9,-0.00005900,-0.00451743,-0.00299094,-0.00283364,0.00086807,-0.001329
 06,0.00025583,-0.00013316,0.00061518,-0.00023598,-0.00049829,0.0002226
 2,0.00028191,0.00001942,0.00008675,-0.00010271,0.00014887,-0.00003655,
 -0.00023358,0.00012257,0.00001668,-0.00009530,0.00011430,-0.00017640,0
 .00012994,-0.00009176,0.00002300,0.00000115,0.00001653,0.00000659,0.00
 007014,0.00009531,0.00004242,0.00002238,0.00003506,-0.00001146,0.00000
 020,0.00001326,-0.00001137,-0.00000323,0.00000771,-0.00000609,0.000012
 14,0.00084288,-0.35155683,0.16702444,0.00394229,0.00456944,-0.00862283
 ,-0.01208354,0.37045737,-0.00063444,-0.01974543,0.00888032,0.00028671,
 -0.00046514,0.00067206,0.00038692,0.00014422,-0.00033405,-0.00034324,-
 0.00030160,-0.00039107,-0.00042273,-0.00059283,0.00020203,0.00006010,0
 .00012725,0.00017523,-0.00235012,-0.00286883,-0.00119149,0.00034205,-0
 .00110100,0.00038672,-0.00003722,-0.00003085,0.00028643,-0.00039556,0.
 00020476,0.00033257,-0.00001897,-0.00000127,-0.00012907,0.00006075,-0.
 00003458,-0.00015163,0.00009612,0.00003963,-0.00007330,0.00003147,0.00
 000683,0.00006838,-0.00006178,0.00003447,-0.00000250,0.00000948,0.0000
 0019,0.00005475,0.00008912,0.00003870,0.00000130,0.00002798,-0.0000119
 2,0.00001033,0.00000650,-0.00001219,-0.00000311,0.00001118,-0.00001102
 ,0.00001383,-0.01564290,0.15539723,-0.15435616,-0.00572320,0.03862760,
 -0.01560519,0.02422177,-0.16944422,0.16115362||0.00021607,-0.00004439,
 0.00074223,-0.00000459,-0.00000917,-0.00000645,-0.00052760,0.00011128,
 -0.00136603,0.00010152,0.00014110,0.00005522,0.00003258,-0.00010089,-0
 .00014953,0.00017463,-0.00008973,0.00072002,-0.00000236,-0.00000231,-0
 .00000241,-0.00000168,0.00000252,-0.00000874,0.00000227,0.00000091,0.0
 0000101,0.00000370,-0.00000891,0.00000062,0.00000383,0.00000148,-0.000
 00139,0.00000008,-0.00000204,0.00000555,-0.00000267,-0.00000179,-0.000
 00096,-0.00000003,-0.00000063,0.00000082,0.00000158,-0.00000096,0.0000
 0106,0.00000078,-0.00000070,0.00000115,0.00000199,0.00000079,0.0000023
 9,-0.00000005,0.00000044,0.00000234,0.00000169,-0.00000123,0.00000251,
 0.00000098,-0.00000051,0.00000285,-0.00002572,0.00000601,-0.00000003,0
 .00000956,-0.00000190,0.00000389,0.00001343,0.00000061,-0.00000612|||@


 ALTHOUGH J.J. COULD DIAGNOSE THE FAULTS OF AN
 APPARATUS WITH UNCANNY ACCURACY, IT WAS JUST AS
 WELL NOT TO LET HIM HANDLE IT.
   -- GEORGE THOMPSON, ABOUT HIS FATHER
 Job cpu time:  0 days  0 hours 10 minutes  0.0 seconds.
 File lengths (MBytes):  RWF=     52 Int=      0 D2E=      0 Chk=      9 Scr=      1
 Normal termination of Gaussian 03 at Fri Apr 01 11:53:10 2016.
