 Entering Link 1 = c:\GAUSSION09\l1.exe PID=      1956.
  
 Copyright (c) 1988,1990,1992,1993,1995,1998,2003,2009,2010,
            Gaussian, Inc.  All Rights Reserved.
  
 This is part of the Gaussian(R) 09 program.  It is based on
 the Gaussian(R) 03 system (copyright 2003, Gaussian, Inc.),
 the Gaussian(R) 98 system (copyright 1998, Gaussian, Inc.),
 the Gaussian(R) 94 system (copyright 1995, Gaussian, Inc.),
 the Gaussian 92(TM) system (copyright 1992, Gaussian, Inc.),
 the Gaussian 90(TM) system (copyright 1990, Gaussian, Inc.),
 the Gaussian 88(TM) system (copyright 1988, Gaussian, Inc.),
 the Gaussian 86(TM) system (copyright 1986, Carnegie Mellon
 University), and the Gaussian 82(TM) system (copyright 1983,
 Carnegie Mellon University). Gaussian is a federally registered
 trademark of Gaussian, Inc.
  
 This software contains proprietary and confidential information,
 including trade secrets, belonging to Gaussian, Inc.
  
 This software is provided under written license and may be
 used, copied, transmitted, or stored only in accord with that
 written license.
  
 The following legend is applicable only to US Government
 contracts under FAR:
  
                    RESTRICTED RIGHTS LEGEND
  
 Use, reproduction and disclosure by the US Government is
 subject to restrictions as set forth in subparagraphs (a)
 and (c) of the Commercial Computer Software - Restricted
 Rights clause in FAR 52.227-19.
  
 Gaussian, Inc.
 340 Quinnipiac St., Bldg. 40, Wallingford CT 06492
  
  
 ---------------------------------------------------------------
 Warning -- This program may not be used in any manner that
 competes with the business of Gaussian, Inc. or will provide
 assistance to any competitor of Gaussian, Inc.  The licensee
 of this program is prohibited from giving any competitor of
 Gaussian, Inc. access to this program.  By using this program,
 the user acknowledges that Gaussian, Inc. is engaged in the
 business of creating and licensing software in the field of
 computational chemistry and represents and warrants to the
 licensee that it is not a competitor of Gaussian, Inc. and that
 it will not use this program in any manner prohibited above.
 ---------------------------------------------------------------
  

 Cite this work as:
 Gaussian 09, Revision B.01,
 M. J. Frisch, G. W. Trucks, H. B. Schlegel, G. E. Scuseria, 
 M. A. Robb, J. R. Cheeseman, G. Scalmani, V. Barone, B. Mennucci, 
 G. A. Petersson, H. Nakatsuji, M. Caricato, X. Li, H. P. Hratchian, 
 A. F. Izmaylov, J. Bloino, G. Zheng, J. L. Sonnenberg, M. Hada, 
 M. Ehara, K. Toyota, R. Fukuda, J. Hasegawa, M. Ishida, T. Nakajima, 
 Y. Honda, O. Kitao, H. Nakai, T. Vreven, J. A. Montgomery, Jr., 
 J. E. Peralta, F. Ogliaro, M. Bearpark, J. J. Heyd, E. Brothers, 
 K. N. Kudin, V. N. Staroverov, T. Keith, R. Kobayashi, J. Normand, 
 K. Raghavachari, A. Rendell, J. C. Burant, S. S. Iyengar, J. Tomasi, 
 M. Cossi, N. Rega, J. M. Millam, M. Klene, J. E. Knox, J. B. Cross, 
 V. Bakken, C. Adamo, J. Jaramillo, R. Gomperts, R. E. Stratmann, 
 O. Yazyev, A. J. Austin, R. Cammi, C. Pomelli, J. W. Ochterski, 
 R. L. Martin, K. Morokuma, V. G. Zakrzewski, G. A. Voth, 
 P. Salvador, J. J. Dannenberg, S. Dapprich, A. D. Daniels, 
 O. Farkas, J. B. Foresman, J. V. Ortiz, J. Cioslowski, 
 and D. J. Fox, Gaussian, Inc., Wallingford CT, 2010.
 
 ******************************************
 Gaussian 09:  IA32W-G09RevB.01 12-Aug-2010
                30-Mar-2016 
 ******************************************
 %chk=E:\YangJ\Amiano\Asp\opt-rs\s\Asp-S-opt-6-311gdp.chk
 ------------------------------
 # opt freq b3lyp/6-311++g(d,p)
 ------------------------------
 1/14=-1,18=20,19=15,26=3,38=1/1,3;
 2/9=110,12=2,17=6,18=5,40=1/2;
 3/5=4,6=6,7=1111,11=2,16=1,25=1,30=1,71=1,74=-5/1,2,3;
 4//1;
 5/5=2,38=5/2;
 6/7=2,8=2,9=2,10=2,28=1/1;
 7//1,2,3,16;
 1/14=-1,18=20,19=15/3(2);
 2/9=110/2;
 99//99;
 2/9=110/2;
 3/5=4,6=6,7=1111,11=2,16=1,25=1,30=1,71=1,74=-5/1,2,3;
 4/5=5,16=3/1;
 5/5=2,38=5/2;
 7//1,2,3,16;
 1/14=-1,18=20,19=15/3(-5);
 2/9=110/2;
 6/7=2,8=2,9=2,10=2,19=2,28=1/1;
 99/9=1/99;
 ----------------------------
 Asp-S-opt-freq-6-311++g(d,p)
 ----------------------------
 Symbolic Z-matrix:
 Charge =  0 Multiplicity = 1
 N                     1.62819   1.81001   0.07315 
 H                     2.05212   1.75748  -0.84899 
 C                     0.74027   0.67876   0.2925 
 H                     0.43416   0.67673   1.34337 
 C                    -0.5432    0.83345  -0.54881 
 C                     1.40732  -0.67606   0.02146 
 H                    -0.77033   1.90372  -0.58276 
 H                    -0.40833   0.49904  -1.57941 
 C                    -1.75279   0.15807   0.05918 
 O                     2.54941  -0.82861  -0.33112 
 O                    -1.97433   0.0495    1.23798 
 H                     2.39702   1.78734   0.73493 
 O                     0.55724  -1.71007   0.21934 
 H                     1.04082  -2.52877   0.03004 
 O                    -2.6159   -0.27154  -0.89154 
 H                    -3.38375  -0.64523  -0.43244 
 

 GradGradGradGradGradGradGradGradGradGradGradGradGradGradGradGradGradGrad
 Berny optimization.
 Initialization pass.
                           ----------------------------
                           !    Initial Parameters    !
                           ! (Angstroms and Degrees)  !
 --------------------------                            --------------------------
 ! Name  Definition              Value          Derivative Info.                !
 --------------------------------------------------------------------------------
 ! R1    R(1,2)                  1.0163         estimate D2E/DX2                !
 ! R2    R(1,3)                  1.4547         estimate D2E/DX2                !
 ! R3    R(1,12)                 1.0147         estimate D2E/DX2                !
 ! R4    R(3,4)                  1.0945         estimate D2E/DX2                !
 ! R5    R(3,5)                  1.5424         estimate D2E/DX2                !
 ! R6    R(3,6)                  1.5343         estimate D2E/DX2                !
 ! R7    R(5,7)                  1.0946         estimate D2E/DX2                !
 ! R8    R(5,8)                  1.0919         estimate D2E/DX2                !
 ! R9    R(5,9)                  1.5129         estimate D2E/DX2                !
 ! R10   R(6,10)                 1.205          estimate D2E/DX2                !
 ! R11   R(6,13)                 1.3531         estimate D2E/DX2                !
 ! R12   R(9,11)                 1.2043         estimate D2E/DX2                !
 ! R13   R(9,15)                 1.354          estimate D2E/DX2                !
 ! R14   R(13,14)                0.9695         estimate D2E/DX2                !
 ! R15   R(15,16)                0.9695         estimate D2E/DX2                !
 ! A1    A(2,1,3)              110.5629         estimate D2E/DX2                !
 ! A2    A(2,1,12)             105.9361         estimate D2E/DX2                !
 ! A3    A(3,1,12)             110.2894         estimate D2E/DX2                !
 ! A4    A(1,3,4)              108.4764         estimate D2E/DX2                !
 ! A5    A(1,3,5)              110.3447         estimate D2E/DX2                !
 ! A6    A(1,3,6)              113.2458         estimate D2E/DX2                !
 ! A7    A(4,3,5)              106.9273         estimate D2E/DX2                !
 ! A8    A(4,3,6)              106.8317         estimate D2E/DX2                !
 ! A9    A(5,3,6)              110.7307         estimate D2E/DX2                !
 ! A10   A(3,5,7)              106.7161         estimate D2E/DX2                !
 ! A11   A(3,5,8)              112.4171         estimate D2E/DX2                !
 ! A12   A(3,5,9)              113.6611         estimate D2E/DX2                !
 ! A13   A(7,5,8)              107.2056         estimate D2E/DX2                !
 ! A14   A(7,5,9)              106.4424         estimate D2E/DX2                !
 ! A15   A(8,5,9)              109.9598         estimate D2E/DX2                !
 ! A16   A(3,6,10)             125.1394         estimate D2E/DX2                !
 ! A17   A(3,6,13)             112.0751         estimate D2E/DX2                !
 ! A18   A(10,6,13)            122.785          estimate D2E/DX2                !
 ! A19   A(5,9,11)             125.4967         estimate D2E/DX2                !
 ! A20   A(5,9,15)             111.661          estimate D2E/DX2                !
 ! A21   A(11,9,15)            122.7784         estimate D2E/DX2                !
 ! A22   A(6,13,14)            107.6613         estimate D2E/DX2                !
 ! A23   A(9,15,16)            107.136          estimate D2E/DX2                !
 ! D1    D(2,1,3,4)            170.7246         estimate D2E/DX2                !
 ! D2    D(2,1,3,5)            -72.4481         estimate D2E/DX2                !
 ! D3    D(2,1,3,6)             52.3132         estimate D2E/DX2                !
 ! D4    D(12,1,3,4)            53.8951         estimate D2E/DX2                !
 ! D5    D(12,1,3,5)           170.7225         estimate D2E/DX2                !
 ! D6    D(12,1,3,6)           -64.5163         estimate D2E/DX2                !
 ! D7    D(1,3,5,7)            -34.6912         estimate D2E/DX2                !
 ! D8    D(1,3,5,8)             82.5662         estimate D2E/DX2                !
 ! D9    D(1,3,5,9)           -151.708          estimate D2E/DX2                !
 ! D10   D(4,3,5,7)             83.0939         estimate D2E/DX2                !
 ! D11   D(4,3,5,8)           -159.6487         estimate D2E/DX2                !
 ! D12   D(4,3,5,9)            -33.923          estimate D2E/DX2                !
 ! D13   D(6,3,5,7)           -160.8778         estimate D2E/DX2                !
 ! D14   D(6,3,5,8)            -43.6204         estimate D2E/DX2                !
 ! D15   D(6,3,5,9)             82.1054         estimate D2E/DX2                !
 ! D16   D(1,3,6,10)             0.3912         estimate D2E/DX2                !
 ! D17   D(1,3,6,13)          -179.368          estimate D2E/DX2                !
 ! D18   D(4,3,6,10)          -118.969          estimate D2E/DX2                !
 ! D19   D(4,3,6,13)            61.2718         estimate D2E/DX2                !
 ! D20   D(5,3,6,10)           124.9433         estimate D2E/DX2                !
 ! D21   D(5,3,6,13)           -54.8159         estimate D2E/DX2                !
 ! D22   D(3,5,9,11)            33.3526         estimate D2E/DX2                !
 ! D23   D(3,5,9,15)          -149.4989         estimate D2E/DX2                !
 ! D24   D(7,5,9,11)           -83.8235         estimate D2E/DX2                !
 ! D25   D(7,5,9,15)            93.325          estimate D2E/DX2                !
 ! D26   D(8,5,9,11)           160.3718         estimate D2E/DX2                !
 ! D27   D(8,5,9,15)           -22.4797         estimate D2E/DX2                !
 ! D28   D(3,6,13,14)          179.9084         estimate D2E/DX2                !
 ! D29   D(10,6,13,14)           0.1427         estimate D2E/DX2                !
 ! D30   D(5,9,15,16)         -176.8544         estimate D2E/DX2                !
 ! D31   D(11,9,15,16)           0.3845         estimate D2E/DX2                !
 --------------------------------------------------------------------------------
 Trust Radius=3.00D-01 FncErr=1.00D-07 GrdErr=1.00D-06
 Number of steps in this run=     79 maximum allowed number of steps=    100.
 GradGradGradGradGradGradGradGradGradGradGradGradGradGradGradGradGradGrad

                          Input orientation:                          
 ---------------------------------------------------------------------
 Center     Atomic      Atomic             Coordinates (Angstroms)
 Number     Number       Type             X           Y           Z
 ---------------------------------------------------------------------
      1          7           0        1.628190    1.810012    0.073149
      2          1           0        2.052123    1.757482   -0.848988
      3          6           0        0.740268    0.678764    0.292504
      4          1           0        0.434163    0.676730    1.343374
      5          6           0       -0.543203    0.833445   -0.548806
      6          6           0        1.407317   -0.676057    0.021458
      7          1           0       -0.770327    1.903723   -0.582763
      8          1           0       -0.408329    0.499044   -1.579406
      9          6           0       -1.752790    0.158073    0.059177
     10          8           0        2.549412   -0.828610   -0.331122
     11          8           0       -1.974325    0.049499    1.237980
     12          1           0        2.397017    1.787340    0.734927
     13          8           0        0.557241   -1.710074    0.219336
     14          1           0        1.040816   -2.528766    0.030037
     15          8           0       -2.615904   -0.271535   -0.891542
     16          1           0       -3.383746   -0.645228   -0.432439
 ---------------------------------------------------------------------
                    Distance matrix (angstroms):
                    1          2          3          4          5
     1  N    0.000000
     2  H    1.016275   0.000000
     3  C    1.454732   2.046363   0.000000
     4  H    2.079303   2.931258   1.094547   0.000000
     5  C    2.460784   2.771222   1.542409   2.135451   0.000000
     6  C    2.496397   2.663750   1.534262   2.127093   2.531467
     7  H    2.488350   2.838747   2.132725   2.581920   1.094638
     8  H    2.932062   2.858496   2.203547   3.046967   1.091857
     9  C    3.762994   4.226137   2.557518   2.588616   1.512902
    10  O    2.823900   2.683906   2.435998   3.089379   3.517681
    11  O    4.175446   4.846125   2.942603   2.491052   2.419770
    12  H    1.014672   1.621305   2.041934   2.335906   3.347055
    13  O    3.682297   3.924275   2.396956   2.641106   2.875849
    14  H    4.378568   4.490807   3.232254   3.516829   3.761468
    15  O    4.824500   5.090108   3.683602   3.898328   2.373718
    16  H    5.603867   5.957785   4.391582   4.413334   3.204481
                    6          7          8          9         10
     6  C    0.000000
     7  H    3.429647   0.000000
     8  H    2.690762   1.759961   0.000000
     9  C    3.268558   2.103477   2.146809   0.000000
    10  O    1.204976   4.306929   3.474062   4.431119   0.000000
    11  O    3.666314   2.864064   3.254550   1.204343   4.867993
    12  H    2.748976   3.432480   3.858213   4.509107   2.828936
    13  O    1.353136   3.932598   3.007989   2.975209   2.246937
    14  H    1.888631   4.827289   3.722628   3.876105   2.301484
    15  O    4.145300   2.869363   2.437281   1.354029   5.225408
    16  H    4.812614   3.653725   3.387919   1.883347   5.936856
                   11         12         13         14         15
    11  O    0.000000
    12  H    4.730939   0.000000
    13  O    3.246931   3.985287   0.000000
    14  H    4.147005   4.578747   0.969503   0.000000
    15  O    2.247120   5.658069   3.656815   4.394997   0.000000
    16  H    2.293341   6.379448   4.134016   4.830978   0.969538
                   16
    16  H    0.000000
 Stoichiometry    C4H7NO4
 Framework group  C1[X(C4H7NO4)]
 Deg. of freedom    42
 Full point group                 C1      NOp   1
 Largest Abelian subgroup         C1      NOp   1
 Largest concise Abelian subgroup C1      NOp   1
                         Standard orientation:                         
 ---------------------------------------------------------------------
 Center     Atomic      Atomic             Coordinates (Angstroms)
 Number     Number       Type             X           Y           Z
 ---------------------------------------------------------------------
      1          7           0        1.628190    1.810012    0.073149
      2          1           0        2.052123    1.757482   -0.848988
      3          6           0        0.740268    0.678764    0.292504
      4          1           0        0.434163    0.676730    1.343374
      5          6           0       -0.543203    0.833445   -0.548806
      6          6           0        1.407317   -0.676057    0.021458
      7          1           0       -0.770327    1.903723   -0.582763
      8          1           0       -0.408329    0.499044   -1.579406
      9          6           0       -1.752790    0.158073    0.059177
     10          8           0        2.549412   -0.828610   -0.331122
     11          8           0       -1.974325    0.049499    1.237980
     12          1           0        2.397017    1.787340    0.734927
     13          8           0        0.557241   -1.710074    0.219336
     14          1           0        1.040816   -2.528766    0.030037
     15          8           0       -2.615904   -0.271535   -0.891542
     16          1           0       -3.383746   -0.645228   -0.432439
 ---------------------------------------------------------------------
 Rotational constants (GHZ):      2.6260487      1.0916065      0.9118764
 Standard basis: 6-311++G(d,p) (5D, 7F)
 There are   247 symmetry adapted basis functions of A   symmetry.
 Integral buffers will be    262144 words long.
 Raffenetti 2 integral format.
 Two-electron integral symmetry is turned on.
   247 basis functions,   387 primitive gaussians,   256 cartesian basis functions
    35 alpha electrons       35 beta electrons
       nuclear repulsion energy       469.3824053950 Hartrees.
 NAtoms=   16 NActive=   16 NUniq=   16 SFac= 1.00D+00 NAtFMM=   50 NAOKFM=F Big=F
 One-electron integrals computed using PRISM.
 NBasis=   247 RedAO= T  NBF=   247
 NBsUse=   247 1.00D-06 NBFU=   247
 Harris functional with IExCor=  402 diagonalized for initial guess.
 ExpMin= 3.60D-02 ExpMax= 8.59D+03 ExpMxC= 1.30D+03 IAcc=3 IRadAn=         0 AccDes= 0.00D+00
 HarFok:  IExCor=  402 AccDes= 0.00D+00 IRadAn=         0 IDoV= 1
 ScaDFX=  1.000000  1.000000  1.000000  1.000000
 FoFCou: FMM=F IPFlag=           0 FMFlag=      100000 FMFlg1=           0
         NFxFlg=           0 DoJE=T BraDBF=F KetDBF=T FulRan=T
         Omega=  0.000000  0.000000  1.000000  0.000000  0.000000 ICntrl=     500 IOpCl=  0
         NMat0=    1 NMatS0=    1 NMatT0=    0 NMatD0=    1 NMtDS0=    0 NMtDT0=    0
         I1Cent=           4 NGrid=           0.
 Petite list used in FoFCou.
 Initial guess orbital symmetries:
       Occupied  (A) (A) (A) (A) (A) (A) (A) (A) (A) (A) (A) (A)
                 (A) (A) (A) (A) (A) (A) (A) (A) (A) (A) (A) (A)
                 (A) (A) (A) (A) (A) (A) (A) (A) (A) (A) (A)
       Virtual   (A) (A) (A) (A) (A) (A) (A) (A) (A) (A) (A) (A)
                 (A) (A) (A) (A) (A) (A) (A) (A) (A) (A) (A) (A)
                 (A) (A) (A) (A) (A) (A) (A) (A) (A) (A) (A) (A)
                 (A) (A) (A) (A) (A) (A) (A) (A) (A) (A) (A) (A)
                 (A) (A) (A) (A) (A) (A) (A) (A) (A) (A) (A) (A)
                 (A) (A) (A) (A) (A) (A) (A) (A) (A) (A) (A) (A)
                 (A) (A) (A) (A) (A) (A) (A) (A) (A) (A) (A) (A)
                 (A) (A) (A) (A) (A) (A) (A) (A) (A) (A) (A) (A)
                 (A) (A) (A) (A) (A) (A) (A) (A) (A) (A) (A) (A)
                 (A) (A) (A) (A) (A) (A) (A) (A) (A) (A) (A) (A)
                 (A) (A) (A) (A) (A) (A) (A) (A) (A) (A) (A) (A)
                 (A) (A) (A) (A) (A) (A) (A) (A) (A) (A) (A) (A)
                 (A) (A) (A) (A) (A) (A) (A) (A) (A) (A) (A) (A)
                 (A) (A) (A) (A) (A) (A) (A) (A) (A) (A) (A) (A)
                 (A) (A) (A) (A) (A) (A) (A) (A) (A) (A) (A) (A)
                 (A) (A) (A) (A) (A) (A) (A) (A) (A) (A) (A) (A)
                 (A) (A) (A) (A) (A) (A) (A) (A) (A) (A) (A) (A)
                 (A) (A) (A) (A) (A) (A) (A) (A)
 The electronic state of the initial guess is 1-A.
 Requested convergence on RMS density matrix=1.00D-08 within 128 cycles.
 Requested convergence on MAX density matrix=1.00D-06.
 Requested convergence on             energy=1.00D-06.
 No special actions if energy rises.
 SCF Done:  E(RB3LYP) =  -512.484348415     A.U. after   13 cycles
             Convg  =    0.9307D-08             -V/T =  2.0035

 **********************************************************************

            Population analysis using the SCF density.

 **********************************************************************

 Orbital symmetries:
       Occupied  (A) (A) (A) (A) (A) (A) (A) (A) (A) (A) (A) (A)
                 (A) (A) (A) (A) (A) (A) (A) (A) (A) (A) (A) (A)
                 (A) (A) (A) (A) (A) (A) (A) (A) (A) (A) (A)
       Virtual   (A) (A) (A) (A) (A) (A) (A) (A) (A) (A) (A) (A)
                 (A) (A) (A) (A) (A) (A) (A) (A) (A) (A) (A) (A)
                 (A) (A) (A) (A) (A) (A) (A) (A) (A) (A) (A) (A)
                 (A) (A) (A) (A) (A) (A) (A) (A) (A) (A) (A) (A)
                 (A) (A) (A) (A) (A) (A) (A) (A) (A) (A) (A) (A)
                 (A) (A) (A) (A) (A) (A) (A) (A) (A) (A) (A) (A)
                 (A) (A) (A) (A) (A) (A) (A) (A) (A) (A) (A) (A)
                 (A) (A) (A) (A) (A) (A) (A) (A) (A) (A) (A) (A)
                 (A) (A) (A) (A) (A) (A) (A) (A) (A) (A) (A) (A)
                 (A) (A) (A) (A) (A) (A) (A) (A) (A) (A) (A) (A)
                 (A) (A) (A) (A) (A) (A) (A) (A) (A) (A) (A) (A)
                 (A) (A) (A) (A) (A) (A) (A) (A) (A) (A) (A) (A)
                 (A) (A) (A) (A) (A) (A) (A) (A) (A) (A) (A) (A)
                 (A) (A) (A) (A) (A) (A) (A) (A) (A) (A) (A) (A)
                 (A) (A) (A) (A) (A) (A) (A) (A) (A) (A) (A) (A)
                 (A) (A) (A) (A) (A) (A) (A) (A) (A) (A) (A) (A)
                 (A) (A) (A) (A) (A) (A) (A) (A) (A) (A) (A) (A)
                 (A) (A) (A) (A) (A) (A) (A) (A)
 The electronic state is 1-A.
 Alpha  occ. eigenvalues --  -19.19016 -19.18621 -19.13567 -19.12861 -14.31259
 Alpha  occ. eigenvalues --  -10.32261 -10.32171 -10.23813 -10.20663  -1.13268
 Alpha  occ. eigenvalues --   -1.12731  -1.04402  -1.03863  -0.91502  -0.79693
 Alpha  occ. eigenvalues --   -0.71499  -0.64269  -0.60223  -0.54408  -0.52333
 Alpha  occ. eigenvalues --   -0.50991  -0.50537  -0.48545  -0.47945  -0.46298
 Alpha  occ. eigenvalues --   -0.44514  -0.43194  -0.40608  -0.39747  -0.38092
 Alpha  occ. eigenvalues --   -0.34845  -0.34111  -0.30488  -0.29932  -0.27100
 Alpha virt. eigenvalues --   -0.02760  -0.02018  -0.00805  -0.00500  -0.00049
 Alpha virt. eigenvalues --    0.01313   0.02911   0.03851   0.05031   0.06290
 Alpha virt. eigenvalues --    0.06812   0.07682   0.08574   0.08828   0.09371
 Alpha virt. eigenvalues --    0.09996   0.10065   0.10841   0.11602   0.12340
 Alpha virt. eigenvalues --    0.13641   0.13784   0.14095   0.14814   0.15197
 Alpha virt. eigenvalues --    0.16021   0.18271   0.18796   0.19328   0.20428
 Alpha virt. eigenvalues --    0.20586   0.21097   0.21920   0.22956   0.23388
 Alpha virt. eigenvalues --    0.23556   0.24356   0.25144   0.25407   0.26969
 Alpha virt. eigenvalues --    0.27434   0.28473   0.29261   0.29285   0.30833
 Alpha virt. eigenvalues --    0.31318   0.31882   0.31949   0.32521   0.33509
 Alpha virt. eigenvalues --    0.34451   0.35131   0.35641   0.36981   0.37490
 Alpha virt. eigenvalues --    0.38016   0.39942   0.43300   0.47148   0.48457
 Alpha virt. eigenvalues --    0.50392   0.52909   0.53376   0.54348   0.55700
 Alpha virt. eigenvalues --    0.57526   0.59070   0.60350   0.60888   0.63466
 Alpha virt. eigenvalues --    0.66418   0.67222   0.68142   0.69486   0.71506
 Alpha virt. eigenvalues --    0.71733   0.73585   0.74184   0.75438   0.84497
 Alpha virt. eigenvalues --    0.85454   0.86132   0.88387   0.90717   0.97237
 Alpha virt. eigenvalues --    0.99055   1.01989   1.06065   1.08144   1.10555
 Alpha virt. eigenvalues --    1.12342   1.12709   1.14908   1.15881   1.16644
 Alpha virt. eigenvalues --    1.16959   1.19362   1.20900   1.22208   1.23441
 Alpha virt. eigenvalues --    1.26116   1.26953   1.28757   1.32080   1.35700
 Alpha virt. eigenvalues --    1.40340   1.42207   1.45394   1.46861   1.50287
 Alpha virt. eigenvalues --    1.51575   1.54976   1.56396   1.57002   1.59114
 Alpha virt. eigenvalues --    1.62549   1.63712   1.65201   1.67545   1.69231
 Alpha virt. eigenvalues --    1.70093   1.70406   1.73872   1.80157   1.82157
 Alpha virt. eigenvalues --    1.84071   1.86214   1.90291   1.92537   1.94122
 Alpha virt. eigenvalues --    1.96270   1.98454   2.02050   2.04387   2.07867
 Alpha virt. eigenvalues --    2.12845   2.16905   2.20239   2.22198   2.28628
 Alpha virt. eigenvalues --    2.38745   2.45926   2.50457   2.52461   2.55140
 Alpha virt. eigenvalues --    2.56412   2.58714   2.60677   2.64031   2.66660
 Alpha virt. eigenvalues --    2.70254   2.74260   2.77907   2.79493   2.82487
 Alpha virt. eigenvalues --    2.85024   2.85415   2.88558   2.90139   2.91336
 Alpha virt. eigenvalues --    2.93657   2.95835   3.00897   3.03592   3.04706
 Alpha virt. eigenvalues --    3.06609   3.10940   3.13032   3.16333   3.17342
 Alpha virt. eigenvalues --    3.21815   3.22505   3.33877   3.36638   3.38074
 Alpha virt. eigenvalues --    3.55524   3.58731   3.60143   3.64295   3.69754
 Alpha virt. eigenvalues --    3.76796   3.81105   3.82611   3.97305   4.04878
 Alpha virt. eigenvalues --    4.05601   4.12357   4.17086   4.29625   4.71384
 Alpha virt. eigenvalues --    4.85282   4.95231   4.99061   5.04007   5.06358
 Alpha virt. eigenvalues --    5.16971   5.17862   5.36969   5.41183   5.58614
 Alpha virt. eigenvalues --    5.59952   5.82789   5.84389  23.76502  23.80266
 Alpha virt. eigenvalues --   23.81704  23.89876  35.59597  49.85039  49.85651
 Alpha virt. eigenvalues --   49.99118  50.00784
          Condensed to atoms (all electrons):
              1          2          3          4          5          6
     1  N    6.646677   0.386465  -0.098029  -0.020338  -0.070740   0.129247
     2  H    0.386465   0.445122  -0.012417   0.007016  -0.019827  -0.005199
     3  C   -0.098029  -0.012417   8.436817   0.475444  -0.627352  -1.543654
     4  H   -0.020338   0.007016   0.475444   0.512230  -0.046813  -0.094974
     5  C   -0.070740  -0.019827  -0.627352  -0.046813   7.147709   0.013126
     6  C    0.129247  -0.005199  -1.543654  -0.094974   0.013126   6.713746
     7  H   -0.006549   0.000571  -0.020913  -0.010850   0.397766  -0.013838
     8  H   -0.000290   0.001227   0.023231   0.019530   0.442611  -0.062215
     9  C   -0.011350  -0.000534   0.162318  -0.103740  -0.673508   0.106684
    10  O   -0.028932  -0.003468  -0.051241  -0.015145  -0.030427   0.466184
    11  O   -0.000286  -0.000385   0.021402   0.004664  -0.107246  -0.006444
    12  H    0.387905  -0.048152  -0.041925  -0.018917  -0.001383   0.011087
    13  O    0.049664  -0.001960  -0.346870   0.003240  -0.033099   0.257647
    14  H    0.003185  -0.000141  -0.072309   0.002223  -0.000031   0.095144
    15  O   -0.001843   0.000192  -0.012063   0.003269  -0.227875  -0.003960
    16  H   -0.000857  -0.000135   0.011497  -0.001183  -0.047967  -0.002561
              7          8          9         10         11         12
     1  N   -0.006549  -0.000290  -0.011350  -0.028932  -0.000286   0.387905
     2  H    0.000571   0.001227  -0.000534  -0.003468  -0.000385  -0.048152
     3  C   -0.020913   0.023231   0.162318  -0.051241   0.021402  -0.041925
     4  H   -0.010850   0.019530  -0.103740  -0.015145   0.004664  -0.018917
     5  C    0.397766   0.442611  -0.673508  -0.030427  -0.107246  -0.001383
     6  C   -0.013838  -0.062215   0.106684   0.466184  -0.006444   0.011087
     7  H    0.465519  -0.035259  -0.006201   0.003099   0.001372   0.002643
     8  H   -0.035259   0.525707  -0.138154  -0.005704   0.003077  -0.001076
     9  C   -0.006201  -0.138154   6.028496   0.020674   0.448891   0.012845
    10  O    0.003099  -0.005704   0.020674   8.050925  -0.000513  -0.000239
    11  O    0.001372   0.003077   0.448891  -0.000513   8.037745   0.000868
    12  H    0.002643  -0.001076   0.012845  -0.000239   0.000868   0.446608
    13  O   -0.000396   0.004209   0.008325  -0.135802  -0.001141  -0.000354
    14  H   -0.001023  -0.000426  -0.010124  -0.011647   0.001281  -0.000424
    15  O    0.001533  -0.005600   0.255661   0.000055  -0.140478   0.000089
    16  H   -0.001554   0.000952   0.051365   0.000079  -0.000270   0.000145
             13         14         15         16
     1  N    0.049664   0.003185  -0.001843  -0.000857
     2  H   -0.001960  -0.000141   0.000192  -0.000135
     3  C   -0.346870  -0.072309  -0.012063   0.011497
     4  H    0.003240   0.002223   0.003269  -0.001183
     5  C   -0.033099  -0.000031  -0.227875  -0.047967
     6  C    0.257647   0.095144  -0.003960  -0.002561
     7  H   -0.000396  -0.001023   0.001533  -0.001554
     8  H    0.004209  -0.000426  -0.005600   0.000952
     9  C    0.008325  -0.010124   0.255661   0.051365
    10  O   -0.135802  -0.011647   0.000055   0.000079
    11  O   -0.001141   0.001281  -0.140478  -0.000270
    12  H   -0.000354  -0.000424   0.000089   0.000145
    13  O    8.145811   0.208735   0.001435  -0.000377
    14  H    0.208735   0.487383  -0.000352  -0.000221
    15  O    0.001435  -0.000352   8.016329   0.253977
    16  H   -0.000377  -0.000221   0.253977   0.460018
 Mulliken atomic charges:
              1
     1  N   -0.363928
     2  H    0.251627
     3  C   -0.303937
     4  H    0.284345
     5  C   -0.114943
     6  C   -0.060021
     7  H    0.224080
     8  H    0.228180
     9  C   -0.151648
    10  O   -0.257898
    11  O   -0.262539
    12  H    0.250278
    13  O   -0.159067
    14  H    0.298748
    15  O   -0.140369
    16  H    0.277092
 Sum of Mulliken atomic charges =   0.00000
 Mulliken charges with hydrogens summed into heavy atoms:
              1
     1  N    0.137977
     3  C   -0.019591
     5  C    0.337316
     6  C   -0.060021
     9  C   -0.151648
    10  O   -0.257898
    11  O   -0.262539
    13  O    0.139681
    15  O    0.136723
 Sum of Mulliken charges with hydrogens summed into heavy atoms =   0.00000
 Electronic spatial extent (au):  <R**2>=           1281.6095
 Charge=              0.0000 electrons
 Dipole moment (field-independent basis, Debye):
    X=             -0.5761    Y=             -0.8686    Z=             -1.1477  Tot=              1.5503
 Quadrupole moment (field-independent basis, Debye-Ang):
   XX=            -53.3003   YY=            -50.1069   ZZ=            -55.4741
   XY=              2.4192   XZ=              4.6127   YZ=             -0.7915
 Traceless Quadrupole moment (field-independent basis, Debye-Ang):
   XX=             -0.3399   YY=              2.8536   ZZ=             -2.5137
   XY=              2.4192   XZ=              4.6127   YZ=             -0.7915
 Octapole moment (field-independent basis, Debye-Ang**2):
  XXX=            -48.3306  YYY=            -40.8680  ZZZ=             -2.5291  XYY=              0.2501
  XXY=              1.7222  XXZ=              1.8183  XZZ=             14.7519  YZZ=              1.2644
  YYZ=             -2.5009  XYZ=             -1.7030
 Hexadecapole moment (field-independent basis, Debye-Ang**3):
 XXXX=           -914.6991 YYYY=           -381.7770 ZZZZ=           -176.3139 XXXY=             85.9661
 XXXZ=             33.2269 YYYX=            -39.3291 YYYZ=             -3.4237 ZZZX=              4.3469
 ZZZY=              0.2192 XXYY=           -209.8664 XXZZ=           -214.9080 YYZZ=            -93.6316
 XXYZ=             -0.8753 YYXZ=              1.2444 ZZXY=              5.4181
 N-N= 4.693824053950D+02 E-N=-2.141883289786D+03  KE= 5.107032692301D+02
 Calling FoFJK, ICntrl=      2127 FMM=F ISym2X=0 I1Cent= 0 IOpClX= 0 NMat=1 NMatS=1 NMatT=0.
 ***** Axes restored to original set *****
 -------------------------------------------------------------------
 Center     Atomic                   Forces (Hartrees/Bohr)
 Number     Number              X              Y              Z
 -------------------------------------------------------------------
      1        7          -0.000001559   -0.000012088    0.000001579
      2        1           0.000001184    0.000002029    0.000000219
      3        6          -0.000007447    0.000025581    0.000001821
      4        1          -0.000000814   -0.000003664   -0.000000023
      5        6           0.000012564   -0.000001217    0.000000276
      6        6           0.000001783   -0.000018012   -0.000001449
      7        1          -0.000002151    0.000001805   -0.000000853
      8        1          -0.000000405    0.000000859   -0.000000493
      9        6          -0.000008331   -0.000004053    0.000000939
     10        8          -0.000001362    0.000000947   -0.000000441
     11        8           0.000001499    0.000000660    0.000003797
     12        1           0.000000908   -0.000000075    0.000001597
     13        8           0.000001627    0.000003761   -0.000001407
     14        1          -0.000001824   -0.000003459   -0.000001410
     15        8           0.000003747    0.000004350   -0.000003354
     16        1           0.000000582    0.000002577   -0.000000797
 -------------------------------------------------------------------
 Cartesian Forces:  Max     0.000025581 RMS     0.000005739

 GradGradGradGradGradGradGradGradGradGradGradGradGradGradGradGradGradGrad
 Berny optimization.
 Internal  Forces:  Max     0.000014360 RMS     0.000002760
 Search for a local minimum.
 Step number   1 out of a maximum of   79
 All quantities printed in internal units (Hartrees-Bohrs-Radians)
 Mixed Optimization -- En-DIIS/RFO-DIIS
 Second derivative matrix not updated -- first step.
 ITU=  0
     Eigenvalues ---    0.00230   0.00313   0.00595   0.00792   0.00968
     Eigenvalues ---    0.01009   0.02300   0.02312   0.03825   0.04195
     Eigenvalues ---    0.04416   0.05390   0.05400   0.06246   0.09540
     Eigenvalues ---    0.12978   0.16000   0.16000   0.16000   0.16000
     Eigenvalues ---    0.17463   0.19031   0.21991   0.24981   0.25000
     Eigenvalues ---    0.25000   0.25000   0.28307   0.29033   0.31061
     Eigenvalues ---    0.34282   0.34292   0.34599   0.37632   0.44938
     Eigenvalues ---    0.45199   0.53472   0.53479   0.54173   0.54360
     Eigenvalues ---    1.02362   1.02671
 RFO step:  Lambda= 0.00000000D+00 EMin= 2.30000000D-03
 Linear search not attempted -- first point.
 Iteration  1 RMS(Cart)=  0.00005704 RMS(Int)=  0.00000000
 Iteration  2 RMS(Cart)=  0.00000000 RMS(Int)=  0.00000000
 Variable       Old X    -DE/DX   Delta X   Delta X   Delta X     New X
                                 (Linear)    (Quad)   (Total)
    R1        1.92048   0.00000   0.00000   0.00000   0.00000   1.92048
    R2        2.74904  -0.00001   0.00000  -0.00002  -0.00002   2.74903
    R3        1.91745   0.00000   0.00000   0.00000   0.00000   1.91745
    R4        2.06839   0.00000   0.00000   0.00000   0.00000   2.06839
    R5        2.91473  -0.00001   0.00000  -0.00002  -0.00002   2.91471
    R6        2.89934   0.00001   0.00000   0.00005   0.00005   2.89938
    R7        2.06857   0.00000   0.00000   0.00001   0.00001   2.06857
    R8        2.06331   0.00000   0.00000   0.00000   0.00000   2.06331
    R9        2.85897   0.00000   0.00000   0.00001   0.00001   2.85898
   R10        2.27707   0.00000   0.00000   0.00000   0.00000   2.27707
   R11        2.55706   0.00000   0.00000   0.00000   0.00000   2.55705
   R12        2.27588   0.00000   0.00000   0.00000   0.00000   2.27588
   R13        2.55874   0.00000   0.00000   0.00000   0.00000   2.55874
   R14        1.83209   0.00000   0.00000   0.00000   0.00000   1.83210
   R15        1.83216   0.00000   0.00000   0.00000   0.00000   1.83216
    A1        1.92969   0.00000   0.00000   0.00003   0.00003   1.92972
    A2        1.84893   0.00000   0.00000   0.00001   0.00001   1.84895
    A3        1.92491   0.00000   0.00000   0.00002   0.00002   1.92493
    A4        1.89327   0.00000   0.00000   0.00003   0.00003   1.89330
    A5        1.92588   0.00000   0.00000   0.00001   0.00001   1.92589
    A6        1.97651   0.00000   0.00000   0.00000   0.00000   1.97651
    A7        1.86623   0.00000   0.00000   0.00000   0.00000   1.86624
    A8        1.86456   0.00000   0.00000  -0.00002  -0.00002   1.86455
    A9        1.93261   0.00000   0.00000  -0.00003  -0.00003   1.93259
   A10        1.86255   0.00000   0.00000   0.00003   0.00003   1.86257
   A11        1.96205   0.00000   0.00000   0.00001   0.00001   1.96206
   A12        1.98376   0.00000   0.00000  -0.00001  -0.00001   1.98375
   A13        1.87109   0.00000   0.00000  -0.00001  -0.00001   1.87109
   A14        1.85777   0.00000   0.00000  -0.00001  -0.00001   1.85776
   A15        1.91916   0.00000   0.00000  -0.00001  -0.00001   1.91915
   A16        2.18410   0.00000   0.00000  -0.00001  -0.00001   2.18408
   A17        1.95608   0.00000   0.00000   0.00000   0.00000   1.95608
   A18        2.14300   0.00000   0.00000   0.00001   0.00001   2.14301
   A19        2.19033   0.00000   0.00000   0.00000   0.00000   2.19033
   A20        1.94885  -0.00001   0.00000  -0.00003  -0.00003   1.94883
   A21        2.14289   0.00001   0.00000   0.00002   0.00002   2.14291
   A22        1.87904   0.00000   0.00000   0.00002   0.00002   1.87907
   A23        1.86988   0.00000   0.00000  -0.00001  -0.00001   1.86986
    D1        2.97971   0.00000   0.00000   0.00004   0.00004   2.97974
    D2       -1.26446   0.00000   0.00000   0.00006   0.00006  -1.26439
    D3        0.91304   0.00000   0.00000   0.00004   0.00004   0.91308
    D4        0.94065   0.00000   0.00000  -0.00001  -0.00001   0.94064
    D5        2.97967   0.00000   0.00000   0.00002   0.00002   2.97969
    D6       -1.12602   0.00000   0.00000  -0.00001  -0.00001  -1.12603
    D7       -0.60548   0.00000   0.00000  -0.00007  -0.00007  -0.60554
    D8        1.44105   0.00000   0.00000  -0.00005  -0.00005   1.44100
    D9       -2.64780   0.00000   0.00000  -0.00007  -0.00007  -2.64787
   D10        1.45026   0.00000   0.00000  -0.00003  -0.00003   1.45023
   D11       -2.78640   0.00000   0.00000  -0.00001  -0.00001  -2.78641
   D12       -0.59207   0.00000   0.00000  -0.00003  -0.00003  -0.59209
   D13       -2.80785   0.00000   0.00000  -0.00006  -0.00006  -2.80791
   D14       -0.76132   0.00000   0.00000  -0.00004  -0.00004  -0.76136
   D15        1.43301   0.00000   0.00000  -0.00006  -0.00006   1.43295
   D16        0.00683   0.00000   0.00000  -0.00009  -0.00009   0.00674
   D17       -3.13056   0.00000   0.00000  -0.00004  -0.00004  -3.13060
   D18       -2.07640   0.00000   0.00000  -0.00011  -0.00011  -2.07651
   D19        1.06940   0.00000   0.00000  -0.00006  -0.00006   1.06933
   D20        2.18067   0.00000   0.00000  -0.00010  -0.00010   2.18058
   D21       -0.95672   0.00000   0.00000  -0.00004  -0.00004  -0.95676
   D22        0.58211   0.00000   0.00000  -0.00005  -0.00005   0.58206
   D23       -2.60925   0.00000   0.00000  -0.00008  -0.00008  -2.60932
   D24       -1.46300   0.00000   0.00000  -0.00007  -0.00007  -1.46307
   D25        1.62883   0.00000   0.00000  -0.00010  -0.00010   1.62873
   D26        2.79902   0.00000   0.00000  -0.00006  -0.00006   2.79896
   D27       -0.39234   0.00000   0.00000  -0.00008  -0.00008  -0.39242
   D28        3.13999   0.00000   0.00000  -0.00003  -0.00003   3.13996
   D29        0.00249   0.00000   0.00000   0.00002   0.00002   0.00251
   D30       -3.08669   0.00000   0.00000   0.00002   0.00002  -3.08667
   D31        0.00671   0.00000   0.00000   0.00000   0.00000   0.00671
         Item               Value     Threshold  Converged?
 Maximum Force            0.000014     0.000450     YES
 RMS     Force            0.000003     0.000300     YES
 Maximum Displacement     0.000235     0.001800     YES
 RMS     Displacement     0.000057     0.001200     YES
 Predicted change in Energy=-1.391932D-09
 Optimization completed.
    -- Stationary point found.
                           ----------------------------
                           !   Optimized Parameters   !
                           ! (Angstroms and Degrees)  !
 --------------------------                            --------------------------
 ! Name  Definition              Value          Derivative Info.                !
 --------------------------------------------------------------------------------
 ! R1    R(1,2)                  1.0163         -DE/DX =    0.0                 !
 ! R2    R(1,3)                  1.4547         -DE/DX =    0.0                 !
 ! R3    R(1,12)                 1.0147         -DE/DX =    0.0                 !
 ! R4    R(3,4)                  1.0945         -DE/DX =    0.0                 !
 ! R5    R(3,5)                  1.5424         -DE/DX =    0.0                 !
 ! R6    R(3,6)                  1.5343         -DE/DX =    0.0                 !
 ! R7    R(5,7)                  1.0946         -DE/DX =    0.0                 !
 ! R8    R(5,8)                  1.0919         -DE/DX =    0.0                 !
 ! R9    R(5,9)                  1.5129         -DE/DX =    0.0                 !
 ! R10   R(6,10)                 1.205          -DE/DX =    0.0                 !
 ! R11   R(6,13)                 1.3531         -DE/DX =    0.0                 !
 ! R12   R(9,11)                 1.2043         -DE/DX =    0.0                 !
 ! R13   R(9,15)                 1.354          -DE/DX =    0.0                 !
 ! R14   R(13,14)                0.9695         -DE/DX =    0.0                 !
 ! R15   R(15,16)                0.9695         -DE/DX =    0.0                 !
 ! A1    A(2,1,3)              110.5629         -DE/DX =    0.0                 !
 ! A2    A(2,1,12)             105.9361         -DE/DX =    0.0                 !
 ! A3    A(3,1,12)             110.2894         -DE/DX =    0.0                 !
 ! A4    A(1,3,4)              108.4764         -DE/DX =    0.0                 !
 ! A5    A(1,3,5)              110.3447         -DE/DX =    0.0                 !
 ! A6    A(1,3,6)              113.2458         -DE/DX =    0.0                 !
 ! A7    A(4,3,5)              106.9273         -DE/DX =    0.0                 !
 ! A8    A(4,3,6)              106.8317         -DE/DX =    0.0                 !
 ! A9    A(5,3,6)              110.7307         -DE/DX =    0.0                 !
 ! A10   A(3,5,7)              106.7161         -DE/DX =    0.0                 !
 ! A11   A(3,5,8)              112.4171         -DE/DX =    0.0                 !
 ! A12   A(3,5,9)              113.6611         -DE/DX =    0.0                 !
 ! A13   A(7,5,8)              107.2056         -DE/DX =    0.0                 !
 ! A14   A(7,5,9)              106.4424         -DE/DX =    0.0                 !
 ! A15   A(8,5,9)              109.9598         -DE/DX =    0.0                 !
 ! A16   A(3,6,10)             125.1394         -DE/DX =    0.0                 !
 ! A17   A(3,6,13)             112.0751         -DE/DX =    0.0                 !
 ! A18   A(10,6,13)            122.785          -DE/DX =    0.0                 !
 ! A19   A(5,9,11)             125.4967         -DE/DX =    0.0                 !
 ! A20   A(5,9,15)             111.661          -DE/DX =    0.0                 !
 ! A21   A(11,9,15)            122.7784         -DE/DX =    0.0                 !
 ! A22   A(6,13,14)            107.6613         -DE/DX =    0.0                 !
 ! A23   A(9,15,16)            107.136          -DE/DX =    0.0                 !
 ! D1    D(2,1,3,4)            170.7246         -DE/DX =    0.0                 !
 ! D2    D(2,1,3,5)            -72.4481         -DE/DX =    0.0                 !
 ! D3    D(2,1,3,6)             52.3132         -DE/DX =    0.0                 !
 ! D4    D(12,1,3,4)            53.8951         -DE/DX =    0.0                 !
 ! D5    D(12,1,3,5)           170.7225         -DE/DX =    0.0                 !
 ! D6    D(12,1,3,6)           -64.5163         -DE/DX =    0.0                 !
 ! D7    D(1,3,5,7)            -34.6912         -DE/DX =    0.0                 !
 ! D8    D(1,3,5,8)             82.5662         -DE/DX =    0.0                 !
 ! D9    D(1,3,5,9)           -151.708          -DE/DX =    0.0                 !
 ! D10   D(4,3,5,7)             83.0939         -DE/DX =    0.0                 !
 ! D11   D(4,3,5,8)           -159.6487         -DE/DX =    0.0                 !
 ! D12   D(4,3,5,9)            -33.923          -DE/DX =    0.0                 !
 ! D13   D(6,3,5,7)           -160.8778         -DE/DX =    0.0                 !
 ! D14   D(6,3,5,8)            -43.6204         -DE/DX =    0.0                 !
 ! D15   D(6,3,5,9)             82.1054         -DE/DX =    0.0                 !
 ! D16   D(1,3,6,10)             0.3912         -DE/DX =    0.0                 !
 ! D17   D(1,3,6,13)          -179.368          -DE/DX =    0.0                 !
 ! D18   D(4,3,6,10)          -118.969          -DE/DX =    0.0                 !
 ! D19   D(4,3,6,13)            61.2718         -DE/DX =    0.0                 !
 ! D20   D(5,3,6,10)           124.9433         -DE/DX =    0.0                 !
 ! D21   D(5,3,6,13)           -54.8159         -DE/DX =    0.0                 !
 ! D22   D(3,5,9,11)            33.3526         -DE/DX =    0.0                 !
 ! D23   D(3,5,9,15)          -149.4989         -DE/DX =    0.0                 !
 ! D24   D(7,5,9,11)           -83.8235         -DE/DX =    0.0                 !
 ! D25   D(7,5,9,15)            93.325          -DE/DX =    0.0                 !
 ! D26   D(8,5,9,11)           160.3718         -DE/DX =    0.0                 !
 ! D27   D(8,5,9,15)           -22.4797         -DE/DX =    0.0                 !
 ! D28   D(3,6,13,14)          179.9084         -DE/DX =    0.0                 !
 ! D29   D(10,6,13,14)           0.1427         -DE/DX =    0.0                 !
 ! D30   D(5,9,15,16)         -176.8544         -DE/DX =    0.0                 !
 ! D31   D(11,9,15,16)           0.3845         -DE/DX =    0.0                 !
 --------------------------------------------------------------------------------
 GradGradGradGradGradGradGradGradGradGradGradGradGradGradGradGradGradGrad

                          Input orientation:                          
 ---------------------------------------------------------------------
 Center     Atomic      Atomic             Coordinates (Angstroms)
 Number     Number       Type             X           Y           Z
 ---------------------------------------------------------------------
      1          7           0        1.628190    1.810012    0.073149
      2          1           0        2.052123    1.757482   -0.848988
      3          6           0        0.740268    0.678764    0.292504
      4          1           0        0.434163    0.676730    1.343374
      5          6           0       -0.543203    0.833445   -0.548806
      6          6           0        1.407317   -0.676057    0.021458
      7          1           0       -0.770327    1.903723   -0.582763
      8          1           0       -0.408329    0.499044   -1.579406
      9          6           0       -1.752790    0.158073    0.059177
     10          8           0        2.549412   -0.828610   -0.331122
     11          8           0       -1.974325    0.049499    1.237980
     12          1           0        2.397017    1.787340    0.734927
     13          8           0        0.557241   -1.710074    0.219336
     14          1           0        1.040816   -2.528766    0.030037
     15          8           0       -2.615904   -0.271535   -0.891542
     16          1           0       -3.383746   -0.645228   -0.432439
 ---------------------------------------------------------------------
                    Distance matrix (angstroms):
                    1          2          3          4          5
     1  N    0.000000
     2  H    1.016275   0.000000
     3  C    1.454732   2.046363   0.000000
     4  H    2.079303   2.931258   1.094547   0.000000
     5  C    2.460784   2.771222   1.542409   2.135451   0.000000
     6  C    2.496397   2.663750   1.534262   2.127093   2.531467
     7  H    2.488350   2.838747   2.132725   2.581920   1.094638
     8  H    2.932062   2.858496   2.203547   3.046967   1.091857
     9  C    3.762994   4.226137   2.557518   2.588616   1.512902
    10  O    2.823900   2.683906   2.435998   3.089379   3.517681
    11  O    4.175446   4.846125   2.942603   2.491052   2.419770
    12  H    1.014672   1.621305   2.041934   2.335906   3.347055
    13  O    3.682297   3.924275   2.396956   2.641106   2.875849
    14  H    4.378568   4.490807   3.232254   3.516829   3.761468
    15  O    4.824500   5.090108   3.683602   3.898328   2.373718
    16  H    5.603867   5.957785   4.391582   4.413334   3.204481
                    6          7          8          9         10
     6  C    0.000000
     7  H    3.429647   0.000000
     8  H    2.690762   1.759961   0.000000
     9  C    3.268558   2.103477   2.146809   0.000000
    10  O    1.204976   4.306929   3.474062   4.431119   0.000000
    11  O    3.666314   2.864064   3.254550   1.204343   4.867993
    12  H    2.748976   3.432480   3.858213   4.509107   2.828936
    13  O    1.353136   3.932598   3.007989   2.975209   2.246937
    14  H    1.888631   4.827289   3.722628   3.876105   2.301484
    15  O    4.145300   2.869363   2.437281   1.354029   5.225408
    16  H    4.812614   3.653725   3.387919   1.883347   5.936856
                   11         12         13         14         15
    11  O    0.000000
    12  H    4.730939   0.000000
    13  O    3.246931   3.985287   0.000000
    14  H    4.147005   4.578747   0.969503   0.000000
    15  O    2.247120   5.658069   3.656815   4.394997   0.000000
    16  H    2.293341   6.379448   4.134016   4.830978   0.969538
                   16
    16  H    0.000000
 Stoichiometry    C4H7NO4
 Framework group  C1[X(C4H7NO4)]
 Deg. of freedom    42
 Full point group                 C1      NOp   1
 Largest Abelian subgroup         C1      NOp   1
 Largest concise Abelian subgroup C1      NOp   1
                         Standard orientation:                         
 ---------------------------------------------------------------------
 Center     Atomic      Atomic             Coordinates (Angstroms)
 Number     Number       Type             X           Y           Z
 ---------------------------------------------------------------------
      1          7           0        1.628190    1.810012    0.073149
      2          1           0        2.052123    1.757482   -0.848988
      3          6           0        0.740268    0.678764    0.292504
      4          1           0        0.434163    0.676730    1.343374
      5          6           0       -0.543203    0.833445   -0.548806
      6          6           0        1.407317   -0.676057    0.021458
      7          1           0       -0.770327    1.903723   -0.582763
      8          1           0       -0.408329    0.499044   -1.579406
      9          6           0       -1.752790    0.158073    0.059177
     10          8           0        2.549412   -0.828610   -0.331122
     11          8           0       -1.974325    0.049499    1.237980
     12          1           0        2.397017    1.787340    0.734927
     13          8           0        0.557241   -1.710074    0.219336
     14          1           0        1.040816   -2.528766    0.030037
     15          8           0       -2.615904   -0.271535   -0.891542
     16          1           0       -3.383746   -0.645228   -0.432439
 ---------------------------------------------------------------------
 Rotational constants (GHZ):      2.6260487      1.0916065      0.9118764
 1|1|UNPC-WIN-20150318OUM|FOpt|RB3LYP|6-311++G(d,p)|C4H7N1O4|ADMINISTRA
 TOR|30-Mar-2016|0||# opt freq b3lyp/6-311++g(d,p)||Asp-S-opt-freq-6-31
 1++g(d,p)||0,1|N,1.62819,1.810012,0.073149|H,2.052123,1.757482,-0.8489
 88|C,0.740268,0.678764,0.292504|H,0.434163,0.67673,1.343374|C,-0.54320
 3,0.833445,-0.548806|C,1.407317,-0.676057,0.021458|H,-0.770327,1.90372
 3,-0.582763|H,-0.408329,0.499044,-1.579406|C,-1.75279,0.158073,0.05917
 7|O,2.549412,-0.82861,-0.331122|O,-1.974325,0.049499,1.23798|H,2.39701
 7,1.78734,0.734927|O,0.557241,-1.710074,0.219336|H,1.040816,-2.528766,
 0.030037|O,-2.615904,-0.271535,-0.891542|H,-3.383746,-0.645228,-0.4324
 39||Version=IA32W-G09RevB.01|State=1-A|HF=-512.4843484|RMSD=9.307e-009
 |RMSF=5.739e-006|Dipole=-0.2266361,-0.3417428,-0.4515307|Quadrupole=-0
 .2526811,2.1215526,-1.8688716,1.7985937,3.4294033,-0.5884452|PG=C01 [X
 (C4H7N1O4)]||@


 A true friend is someone who is there for
 you when he'd rather be anywhere else.
                               -- Len Wein
 Job cpu time:  0 days  0 hours  6 minutes 47.0 seconds.
 File lengths (MBytes):  RWF=     37 Int=      0 D2E=      0 Chk=      4 Scr=      1
 Normal termination of Gaussian 09 at Wed Mar 30 15:31:55 2016.
 Link1:  Proceeding to internal job step number  2.
 ----------------------------------------------------------------------
 #N Geom=AllCheck Guess=TCheck SCRF=Check GenChk RB3LYP/6-311++G(d,p) F
 req
 ----------------------------------------------------------------------
 1/10=4,29=7,30=1,38=1,40=1/1,3;
 2/12=2,40=1/2;
 3/5=4,6=6,7=1111,11=2,14=-4,16=1,25=1,30=1,70=2,71=2,74=-5,116=1/1,2,3;
 4/5=101/1;
 5/5=2,98=1/2;
 8/6=4,10=90,11=11/1;
 11/6=1,8=1,9=11,15=111,16=1/1,2,10;
 10/6=1/2;
 6/7=2,8=2,9=2,10=2,18=1,28=1/1;
 7/8=1,10=1,25=1/1,2,3,16;
 1/10=4,30=1/3;
 99//99;
 ----------------------------
 Asp-S-opt-freq-6-311++g(d,p)
 ----------------------------
 Redundant internal coordinates taken from checkpoint file:
 E:\YangJ\Amiano\Asp\opt-rs\s\Asp-S-opt-6-311gdp.chk
 Charge =  0 Multiplicity = 1
 N,0,1.62819,1.810012,0.073149
 H,0,2.052123,1.757482,-0.848988
 C,0,0.740268,0.678764,0.292504
 H,0,0.434163,0.67673,1.343374
 C,0,-0.543203,0.833445,-0.548806
 C,0,1.407317,-0.676057,0.021458
 H,0,-0.770327,1.903723,-0.582763
 H,0,-0.408329,0.499044,-1.579406
 C,0,-1.75279,0.158073,0.059177
 O,0,2.549412,-0.82861,-0.331122
 O,0,-1.974325,0.049499,1.23798
 H,0,2.397017,1.78734,0.734927
 O,0,0.557241,-1.710074,0.219336
 H,0,1.040816,-2.528766,0.030037
 O,0,-2.615904,-0.271535,-0.891542
 H,0,-3.383746,-0.645228,-0.432439
 Recover connectivity data from disk.

 GradGradGradGradGradGradGradGradGradGradGradGradGradGradGradGradGradGrad
 Berny optimization.
 Initialization pass.
                           ----------------------------
                           !    Initial Parameters    !
                           ! (Angstroms and Degrees)  !
 --------------------------                            --------------------------
 ! Name  Definition              Value          Derivative Info.                !
 --------------------------------------------------------------------------------
 ! R1    R(1,2)                  1.0163         calculate D2E/DX2 analytically  !
 ! R2    R(1,3)                  1.4547         calculate D2E/DX2 analytically  !
 ! R3    R(1,12)                 1.0147         calculate D2E/DX2 analytically  !
 ! R4    R(3,4)                  1.0945         calculate D2E/DX2 analytically  !
 ! R5    R(3,5)                  1.5424         calculate D2E/DX2 analytically  !
 ! R6    R(3,6)                  1.5343         calculate D2E/DX2 analytically  !
 ! R7    R(5,7)                  1.0946         calculate D2E/DX2 analytically  !
 ! R8    R(5,8)                  1.0919         calculate D2E/DX2 analytically  !
 ! R9    R(5,9)                  1.5129         calculate D2E/DX2 analytically  !
 ! R10   R(6,10)                 1.205          calculate D2E/DX2 analytically  !
 ! R11   R(6,13)                 1.3531         calculate D2E/DX2 analytically  !
 ! R12   R(9,11)                 1.2043         calculate D2E/DX2 analytically  !
 ! R13   R(9,15)                 1.354          calculate D2E/DX2 analytically  !
 ! R14   R(13,14)                0.9695         calculate D2E/DX2 analytically  !
 ! R15   R(15,16)                0.9695         calculate D2E/DX2 analytically  !
 ! A1    A(2,1,3)              110.5629         calculate D2E/DX2 analytically  !
 ! A2    A(2,1,12)             105.9361         calculate D2E/DX2 analytically  !
 ! A3    A(3,1,12)             110.2894         calculate D2E/DX2 analytically  !
 ! A4    A(1,3,4)              108.4764         calculate D2E/DX2 analytically  !
 ! A5    A(1,3,5)              110.3447         calculate D2E/DX2 analytically  !
 ! A6    A(1,3,6)              113.2458         calculate D2E/DX2 analytically  !
 ! A7    A(4,3,5)              106.9273         calculate D2E/DX2 analytically  !
 ! A8    A(4,3,6)              106.8317         calculate D2E/DX2 analytically  !
 ! A9    A(5,3,6)              110.7307         calculate D2E/DX2 analytically  !
 ! A10   A(3,5,7)              106.7161         calculate D2E/DX2 analytically  !
 ! A11   A(3,5,8)              112.4171         calculate D2E/DX2 analytically  !
 ! A12   A(3,5,9)              113.6611         calculate D2E/DX2 analytically  !
 ! A13   A(7,5,8)              107.2056         calculate D2E/DX2 analytically  !
 ! A14   A(7,5,9)              106.4424         calculate D2E/DX2 analytically  !
 ! A15   A(8,5,9)              109.9598         calculate D2E/DX2 analytically  !
 ! A16   A(3,6,10)             125.1394         calculate D2E/DX2 analytically  !
 ! A17   A(3,6,13)             112.0751         calculate D2E/DX2 analytically  !
 ! A18   A(10,6,13)            122.785          calculate D2E/DX2 analytically  !
 ! A19   A(5,9,11)             125.4967         calculate D2E/DX2 analytically  !
 ! A20   A(5,9,15)             111.661          calculate D2E/DX2 analytically  !
 ! A21   A(11,9,15)            122.7784         calculate D2E/DX2 analytically  !
 ! A22   A(6,13,14)            107.6613         calculate D2E/DX2 analytically  !
 ! A23   A(9,15,16)            107.136          calculate D2E/DX2 analytically  !
 ! D1    D(2,1,3,4)            170.7246         calculate D2E/DX2 analytically  !
 ! D2    D(2,1,3,5)            -72.4481         calculate D2E/DX2 analytically  !
 ! D3    D(2,1,3,6)             52.3132         calculate D2E/DX2 analytically  !
 ! D4    D(12,1,3,4)            53.8951         calculate D2E/DX2 analytically  !
 ! D5    D(12,1,3,5)           170.7225         calculate D2E/DX2 analytically  !
 ! D6    D(12,1,3,6)           -64.5163         calculate D2E/DX2 analytically  !
 ! D7    D(1,3,5,7)            -34.6912         calculate D2E/DX2 analytically  !
 ! D8    D(1,3,5,8)             82.5662         calculate D2E/DX2 analytically  !
 ! D9    D(1,3,5,9)           -151.708          calculate D2E/DX2 analytically  !
 ! D10   D(4,3,5,7)             83.0939         calculate D2E/DX2 analytically  !
 ! D11   D(4,3,5,8)           -159.6487         calculate D2E/DX2 analytically  !
 ! D12   D(4,3,5,9)            -33.923          calculate D2E/DX2 analytically  !
 ! D13   D(6,3,5,7)           -160.8778         calculate D2E/DX2 analytically  !
 ! D14   D(6,3,5,8)            -43.6204         calculate D2E/DX2 analytically  !
 ! D15   D(6,3,5,9)             82.1054         calculate D2E/DX2 analytically  !
 ! D16   D(1,3,6,10)             0.3912         calculate D2E/DX2 analytically  !
 ! D17   D(1,3,6,13)          -179.368          calculate D2E/DX2 analytically  !
 ! D18   D(4,3,6,10)          -118.969          calculate D2E/DX2 analytically  !
 ! D19   D(4,3,6,13)            61.2718         calculate D2E/DX2 analytically  !
 ! D20   D(5,3,6,10)           124.9433         calculate D2E/DX2 analytically  !
 ! D21   D(5,3,6,13)           -54.8159         calculate D2E/DX2 analytically  !
 ! D22   D(3,5,9,11)            33.3526         calculate D2E/DX2 analytically  !
 ! D23   D(3,5,9,15)          -149.4989         calculate D2E/DX2 analytically  !
 ! D24   D(7,5,9,11)           -83.8235         calculate D2E/DX2 analytically  !
 ! D25   D(7,5,9,15)            93.325          calculate D2E/DX2 analytically  !
 ! D26   D(8,5,9,11)           160.3718         calculate D2E/DX2 analytically  !
 ! D27   D(8,5,9,15)           -22.4797         calculate D2E/DX2 analytically  !
 ! D28   D(3,6,13,14)          179.9084         calculate D2E/DX2 analytically  !
 ! D29   D(10,6,13,14)           0.1427         calculate D2E/DX2 analytically  !
 ! D30   D(5,9,15,16)         -176.8544         calculate D2E/DX2 analytically  !
 ! D31   D(11,9,15,16)           0.3845         calculate D2E/DX2 analytically  !
 --------------------------------------------------------------------------------
 Trust Radius=3.00D-01 FncErr=1.00D-07 GrdErr=1.00D-07
 Number of steps in this run=      2 maximum allowed number of steps=      2.
 GradGradGradGradGradGradGradGradGradGradGradGradGradGradGradGradGradGrad

                          Input orientation:                          
 ---------------------------------------------------------------------
 Center     Atomic      Atomic             Coordinates (Angstroms)
 Number     Number       Type             X           Y           Z
 ---------------------------------------------------------------------
      1          7           0        1.628190    1.810012    0.073149
      2          1           0        2.052123    1.757482   -0.848988
      3          6           0        0.740268    0.678764    0.292504
      4          1           0        0.434163    0.676730    1.343374
      5          6           0       -0.543203    0.833445   -0.548806
      6          6           0        1.407317   -0.676057    0.021458
      7          1           0       -0.770327    1.903723   -0.582763
      8          1           0       -0.408329    0.499044   -1.579406
      9          6           0       -1.752790    0.158073    0.059177
     10          8           0        2.549412   -0.828610   -0.331122
     11          8           0       -1.974325    0.049499    1.237980
     12          1           0        2.397017    1.787340    0.734927
     13          8           0        0.557241   -1.710074    0.219336
     14          1           0        1.040816   -2.528766    0.030037
     15          8           0       -2.615904   -0.271535   -0.891542
     16          1           0       -3.383746   -0.645228   -0.432439
 ---------------------------------------------------------------------
                    Distance matrix (angstroms):
                    1          2          3          4          5
     1  N    0.000000
     2  H    1.016275   0.000000
     3  C    1.454732   2.046363   0.000000
     4  H    2.079303   2.931258   1.094547   0.000000
     5  C    2.460784   2.771222   1.542409   2.135451   0.000000
     6  C    2.496397   2.663750   1.534262   2.127093   2.531467
     7  H    2.488350   2.838747   2.132725   2.581920   1.094638
     8  H    2.932062   2.858496   2.203547   3.046967   1.091857
     9  C    3.762994   4.226137   2.557518   2.588616   1.512902
    10  O    2.823900   2.683906   2.435998   3.089379   3.517681
    11  O    4.175446   4.846125   2.942603   2.491052   2.419770
    12  H    1.014672   1.621305   2.041934   2.335906   3.347055
    13  O    3.682297   3.924275   2.396956   2.641106   2.875849
    14  H    4.378568   4.490807   3.232254   3.516829   3.761468
    15  O    4.824500   5.090108   3.683602   3.898328   2.373718
    16  H    5.603867   5.957785   4.391582   4.413334   3.204481
                    6          7          8          9         10
     6  C    0.000000
     7  H    3.429647   0.000000
     8  H    2.690762   1.759961   0.000000
     9  C    3.268558   2.103477   2.146809   0.000000
    10  O    1.204976   4.306929   3.474062   4.431119   0.000000
    11  O    3.666314   2.864064   3.254550   1.204343   4.867993
    12  H    2.748976   3.432480   3.858213   4.509107   2.828936
    13  O    1.353136   3.932598   3.007989   2.975209   2.246937
    14  H    1.888631   4.827289   3.722628   3.876105   2.301484
    15  O    4.145300   2.869363   2.437281   1.354029   5.225408
    16  H    4.812614   3.653725   3.387919   1.883347   5.936856
                   11         12         13         14         15
    11  O    0.000000
    12  H    4.730939   0.000000
    13  O    3.246931   3.985287   0.000000
    14  H    4.147005   4.578747   0.969503   0.000000
    15  O    2.247120   5.658069   3.656815   4.394997   0.000000
    16  H    2.293341   6.379448   4.134016   4.830978   0.969538
                   16
    16  H    0.000000
 Stoichiometry    C4H7NO4
 Framework group  C1[X(C4H7NO4)]
 Deg. of freedom    42
 Full point group                 C1      NOp   1
 Largest Abelian subgroup         C1      NOp   1
 Largest concise Abelian subgroup C1      NOp   1
                         Standard orientation:                         
 ---------------------------------------------------------------------
 Center     Atomic      Atomic             Coordinates (Angstroms)
 Number     Number       Type             X           Y           Z
 ---------------------------------------------------------------------
      1          7           0        1.628190    1.810012    0.073149
      2          1           0        2.052123    1.757482   -0.848988
      3          6           0        0.740268    0.678764    0.292504
      4          1           0        0.434163    0.676730    1.343374
      5          6           0       -0.543203    0.833445   -0.548806
      6          6           0        1.407317   -0.676057    0.021458
      7          1           0       -0.770327    1.903723   -0.582763
      8          1           0       -0.408329    0.499044   -1.579406
      9          6           0       -1.752790    0.158073    0.059177
     10          8           0        2.549412   -0.828610   -0.331122
     11          8           0       -1.974325    0.049499    1.237980
     12          1           0        2.397017    1.787340    0.734927
     13          8           0        0.557241   -1.710074    0.219336
     14          1           0        1.040816   -2.528766    0.030037
     15          8           0       -2.615904   -0.271535   -0.891542
     16          1           0       -3.383746   -0.645228   -0.432439
 ---------------------------------------------------------------------
 Rotational constants (GHZ):      2.6260487      1.0916065      0.9118764
 Standard basis: 6-311++G(d,p) (5D, 7F)
 There are   247 symmetry adapted basis functions of A   symmetry.
 Integral buffers will be    262144 words long.
 Raffenetti 2 integral format.
 Two-electron integral symmetry is turned on.
   247 basis functions,   387 primitive gaussians,   256 cartesian basis functions
    35 alpha electrons       35 beta electrons
       nuclear repulsion energy       469.3824053950 Hartrees.
 NAtoms=   16 NActive=   16 NUniq=   16 SFac= 1.00D+00 NAtFMM=   50 NAOKFM=F Big=F
 One-electron integrals computed using PRISM.
 NBasis=   247 RedAO= T  NBF=   247
 NBsUse=   247 1.00D-06 NBFU=   247
 Initial guess read from the checkpoint file:  E:\YangJ\Amiano\Asp\opt-rs\s\Asp-S-opt-6-311gdp.chk
 B after Tr=     0.000000    0.000000    0.000000
         Rot=    1.000000    0.000000    0.000000    0.000000 Ang=   0.00 deg.
 Initial guess orbital symmetries:
       Occupied  (A) (A) (A) (A) (A) (A) (A) (A) (A) (A) (A) (A)
                 (A) (A) (A) (A) (A) (A) (A) (A) (A) (A) (A) (A)
                 (A) (A) (A) (A) (A) (A) (A) (A) (A) (A) (A)
       Virtual   (A) (A) (A) (A) (A) (A) (A) (A) (A) (A) (A) (A)
                 (A) (A) (A) (A) (A) (A) (A) (A) (A) (A) (A) (A)
                 (A) (A) (A) (A) (A) (A) (A) (A) (A) (A) (A) (A)
                 (A) (A) (A) (A) (A) (A) (A) (A) (A) (A) (A) (A)
                 (A) (A) (A) (A) (A) (A) (A) (A) (A) (A) (A) (A)
                 (A) (A) (A) (A) (A) (A) (A) (A) (A) (A) (A) (A)
                 (A) (A) (A) (A) (A) (A) (A) (A) (A) (A) (A) (A)
                 (A) (A) (A) (A) (A) (A) (A) (A) (A) (A) (A) (A)
                 (A) (A) (A) (A) (A) (A) (A) (A) (A) (A) (A) (A)
                 (A) (A) (A) (A) (A) (A) (A) (A) (A) (A) (A) (A)
                 (A) (A) (A) (A) (A) (A) (A) (A) (A) (A) (A) (A)
                 (A) (A) (A) (A) (A) (A) (A) (A) (A) (A) (A) (A)
                 (A) (A) (A) (A) (A) (A) (A) (A) (A) (A) (A) (A)
                 (A) (A) (A) (A) (A) (A) (A) (A) (A) (A) (A) (A)
                 (A) (A) (A) (A) (A) (A) (A) (A) (A) (A) (A) (A)
                 (A) (A) (A) (A) (A) (A) (A) (A) (A) (A) (A) (A)
                 (A) (A) (A) (A) (A) (A) (A) (A) (A) (A) (A) (A)
                 (A) (A) (A) (A) (A) (A) (A) (A)
 Requested convergence on RMS density matrix=1.00D-08 within 128 cycles.
 Requested convergence on MAX density matrix=1.00D-06.
 Requested convergence on             energy=1.00D-06.
 No special actions if energy rises.
 SCF Done:  E(RB3LYP) =  -512.484348415     A.U. after    1 cycles
             Convg  =    0.4359D-08             -V/T =  2.0035
 Range of M.O.s used for correlation:     1   247
 NBasis=   247 NAE=    35 NBE=    35 NFC=     0 NFV=     0
 NROrb=    247 NOA=    35 NOB=    35 NVA=   212 NVB=   212

 **** Warning!!: The largest alpha MO coefficient is  0.70419754D+02

 Symmetrizing basis deriv contribution to polar:
 IMax=3 JMax=2 DiffMx= 0.00D+00
 G2DrvN: will do    17 centers at a time, making    1 passes doing MaxLOS=2.
 Calling FoFCou, ICntrl=  3107 FMM=F I1Cent=   0 AccDes= 0.00D+00.
 FoFDir/FoFCou used for L=0 through L=2.
 End of G2Drv Frequency-dependent properties file   721 does not exist.
 End of G2Drv Frequency-dependent properties file   722 does not exist.
          IDoAtm=1111111111111111
          Differentiating once with respect to electric field.
                with respect to dipole field.
          Differentiating once with respect to nuclear coordinates.
          There are    51 degrees of freedom in the 1st order CPHF.  IDoFFX=5.
     48 vectors produced by pass  0 Test12= 1.45D-14 1.96D-09 XBig12= 5.34D+01 2.90D+00.
 AX will form    48 AO Fock derivatives at one time.
     48 vectors produced by pass  1 Test12= 1.45D-14 1.96D-09 XBig12= 1.78D+01 1.35D+00.
     48 vectors produced by pass  2 Test12= 1.45D-14 1.96D-09 XBig12= 1.19D-01 5.03D-02.
     48 vectors produced by pass  3 Test12= 1.45D-14 1.96D-09 XBig12= 6.34D-04 4.19D-03.
     48 vectors produced by pass  4 Test12= 1.45D-14 1.96D-09 XBig12= 1.36D-06 1.11D-04.
     46 vectors produced by pass  5 Test12= 1.45D-14 1.96D-09 XBig12= 2.03D-09 5.24D-06.
      9 vectors produced by pass  6 Test12= 1.45D-14 1.96D-09 XBig12= 2.26D-12 1.45D-07.
      3 vectors produced by pass  7 Test12= 1.45D-14 1.96D-09 XBig12= 4.86D-14 2.25D-08.
      1 vectors produced by pass  8 Test12= 1.45D-14 1.96D-09 XBig12= 2.41D-16 2.22D-09.
 Inverted reduced A of dimension   299 with in-core refinement.
 Isotropic polarizability for W=    0.000000       70.08 Bohr**3.
 End of Minotr Frequency-dependent properties file   721 does not exist.
 End of Minotr Frequency-dependent properties file   722 does not exist.

 **********************************************************************

            Population analysis using the SCF density.

 **********************************************************************

 Orbital symmetries:
       Occupied  (A) (A) (A) (A) (A) (A) (A) (A) (A) (A) (A) (A)
                 (A) (A) (A) (A) (A) (A) (A) (A) (A) (A) (A) (A)
                 (A) (A) (A) (A) (A) (A) (A) (A) (A) (A) (A)
       Virtual   (A) (A) (A) (A) (A) (A) (A) (A) (A) (A) (A) (A)
                 (A) (A) (A) (A) (A) (A) (A) (A) (A) (A) (A) (A)
                 (A) (A) (A) (A) (A) (A) (A) (A) (A) (A) (A) (A)
                 (A) (A) (A) (A) (A) (A) (A) (A) (A) (A) (A) (A)
                 (A) (A) (A) (A) (A) (A) (A) (A) (A) (A) (A) (A)
                 (A) (A) (A) (A) (A) (A) (A) (A) (A) (A) (A) (A)
                 (A) (A) (A) (A) (A) (A) (A) (A) (A) (A) (A) (A)
                 (A) (A) (A) (A) (A) (A) (A) (A) (A) (A) (A) (A)
                 (A) (A) (A) (A) (A) (A) (A) (A) (A) (A) (A) (A)
                 (A) (A) (A) (A) (A) (A) (A) (A) (A) (A) (A) (A)
                 (A) (A) (A) (A) (A) (A) (A) (A) (A) (A) (A) (A)
                 (A) (A) (A) (A) (A) (A) (A) (A) (A) (A) (A) (A)
                 (A) (A) (A) (A) (A) (A) (A) (A) (A) (A) (A) (A)
                 (A) (A) (A) (A) (A) (A) (A) (A) (A) (A) (A) (A)
                 (A) (A) (A) (A) (A) (A) (A) (A) (A) (A) (A) (A)
                 (A) (A) (A) (A) (A) (A) (A) (A) (A) (A) (A) (A)
                 (A) (A) (A) (A) (A) (A) (A) (A) (A) (A) (A) (A)
                 (A) (A) (A) (A) (A) (A) (A) (A)
 The electronic state is 1-A.
 Alpha  occ. eigenvalues --  -19.19016 -19.18621 -19.13567 -19.12861 -14.31259
 Alpha  occ. eigenvalues --  -10.32261 -10.32171 -10.23813 -10.20663  -1.13268
 Alpha  occ. eigenvalues --   -1.12731  -1.04402  -1.03863  -0.91502  -0.79693
 Alpha  occ. eigenvalues --   -0.71499  -0.64269  -0.60223  -0.54408  -0.52333
 Alpha  occ. eigenvalues --   -0.50991  -0.50537  -0.48545  -0.47945  -0.46298
 Alpha  occ. eigenvalues --   -0.44514  -0.43194  -0.40608  -0.39747  -0.38092
 Alpha  occ. eigenvalues --   -0.34845  -0.34111  -0.30488  -0.29932  -0.27100
 Alpha virt. eigenvalues --   -0.02760  -0.02018  -0.00805  -0.00500  -0.00049
 Alpha virt. eigenvalues --    0.01313   0.02911   0.03851   0.05031   0.06290
 Alpha virt. eigenvalues --    0.06812   0.07682   0.08574   0.08828   0.09371
 Alpha virt. eigenvalues --    0.09996   0.10065   0.10841   0.11602   0.12340
 Alpha virt. eigenvalues --    0.13641   0.13784   0.14095   0.14814   0.15197
 Alpha virt. eigenvalues --    0.16021   0.18271   0.18796   0.19328   0.20428
 Alpha virt. eigenvalues --    0.20586   0.21097   0.21920   0.22956   0.23388
 Alpha virt. eigenvalues --    0.23556   0.24356   0.25144   0.25407   0.26969
 Alpha virt. eigenvalues --    0.27434   0.28473   0.29261   0.29285   0.30833
 Alpha virt. eigenvalues --    0.31318   0.31882   0.31949   0.32521   0.33509
 Alpha virt. eigenvalues --    0.34451   0.35131   0.35641   0.36981   0.37490
 Alpha virt. eigenvalues --    0.38016   0.39942   0.43300   0.47148   0.48457
 Alpha virt. eigenvalues --    0.50392   0.52909   0.53376   0.54348   0.55700
 Alpha virt. eigenvalues --    0.57526   0.59070   0.60350   0.60888   0.63466
 Alpha virt. eigenvalues --    0.66418   0.67222   0.68142   0.69486   0.71506
 Alpha virt. eigenvalues --    0.71733   0.73585   0.74184   0.75438   0.84497
 Alpha virt. eigenvalues --    0.85454   0.86132   0.88387   0.90717   0.97237
 Alpha virt. eigenvalues --    0.99055   1.01989   1.06065   1.08144   1.10555
 Alpha virt. eigenvalues --    1.12342   1.12709   1.14908   1.15881   1.16644
 Alpha virt. eigenvalues --    1.16959   1.19362   1.20900   1.22208   1.23441
 Alpha virt. eigenvalues --    1.26116   1.26953   1.28757   1.32080   1.35700
 Alpha virt. eigenvalues --    1.40340   1.42207   1.45394   1.46861   1.50287
 Alpha virt. eigenvalues --    1.51575   1.54976   1.56396   1.57002   1.59114
 Alpha virt. eigenvalues --    1.62549   1.63712   1.65201   1.67545   1.69231
 Alpha virt. eigenvalues --    1.70093   1.70406   1.73872   1.80157   1.82157
 Alpha virt. eigenvalues --    1.84071   1.86214   1.90291   1.92537   1.94122
 Alpha virt. eigenvalues --    1.96270   1.98454   2.02050   2.04387   2.07867
 Alpha virt. eigenvalues --    2.12845   2.16905   2.20239   2.22198   2.28628
 Alpha virt. eigenvalues --    2.38745   2.45926   2.50457   2.52461   2.55140
 Alpha virt. eigenvalues --    2.56412   2.58714   2.60677   2.64031   2.66660
 Alpha virt. eigenvalues --    2.70254   2.74260   2.77907   2.79493   2.82487
 Alpha virt. eigenvalues --    2.85024   2.85415   2.88558   2.90139   2.91336
 Alpha virt. eigenvalues --    2.93657   2.95835   3.00897   3.03592   3.04706
 Alpha virt. eigenvalues --    3.06609   3.10940   3.13032   3.16333   3.17342
 Alpha virt. eigenvalues --    3.21815   3.22505   3.33877   3.36638   3.38074
 Alpha virt. eigenvalues --    3.55524   3.58731   3.60143   3.64295   3.69754
 Alpha virt. eigenvalues --    3.76796   3.81105   3.82611   3.97305   4.04878
 Alpha virt. eigenvalues --    4.05601   4.12357   4.17086   4.29625   4.71384
 Alpha virt. eigenvalues --    4.85282   4.95231   4.99061   5.04007   5.06358
 Alpha virt. eigenvalues --    5.16971   5.17862   5.36969   5.41183   5.58614
 Alpha virt. eigenvalues --    5.59952   5.82789   5.84389  23.76502  23.80266
 Alpha virt. eigenvalues --   23.81704  23.89876  35.59597  49.85039  49.85651
 Alpha virt. eigenvalues --   49.99118  50.00784
          Condensed to atoms (all electrons):
              1          2          3          4          5          6
     1  N    6.646677   0.386465  -0.098030  -0.020338  -0.070740   0.129247
     2  H    0.386465   0.445122  -0.012417   0.007016  -0.019827  -0.005199
     3  C   -0.098030  -0.012417   8.436819   0.475444  -0.627352  -1.543654
     4  H   -0.020338   0.007016   0.475444   0.512230  -0.046813  -0.094974
     5  C   -0.070740  -0.019827  -0.627352  -0.046813   7.147708   0.013126
     6  C    0.129247  -0.005199  -1.543654  -0.094974   0.013126   6.713747
     7  H   -0.006549   0.000571  -0.020913  -0.010850   0.397766  -0.013838
     8  H   -0.000290   0.001227   0.023231   0.019530   0.442611  -0.062215
     9  C   -0.011350  -0.000534   0.162318  -0.103740  -0.673508   0.106684
    10  O   -0.028932  -0.003468  -0.051241  -0.015145  -0.030427   0.466184
    11  O   -0.000286  -0.000385   0.021402   0.004664  -0.107246  -0.006444
    12  H    0.387905  -0.048152  -0.041925  -0.018917  -0.001383   0.011087
    13  O    0.049664  -0.001960  -0.346870   0.003240  -0.033099   0.257647
    14  H    0.003185  -0.000141  -0.072309   0.002223  -0.000031   0.095144
    15  O   -0.001843   0.000192  -0.012063   0.003269  -0.227875  -0.003960
    16  H   -0.000857  -0.000135   0.011497  -0.001183  -0.047967  -0.002561
              7          8          9         10         11         12
     1  N   -0.006549  -0.000290  -0.011350  -0.028932  -0.000286   0.387905
     2  H    0.000571   0.001227  -0.000534  -0.003468  -0.000385  -0.048152
     3  C   -0.020913   0.023231   0.162318  -0.051241   0.021402  -0.041925
     4  H   -0.010850   0.019530  -0.103740  -0.015145   0.004664  -0.018917
     5  C    0.397766   0.442611  -0.673508  -0.030427  -0.107246  -0.001383
     6  C   -0.013838  -0.062215   0.106684   0.466184  -0.006444   0.011087
     7  H    0.465519  -0.035259  -0.006201   0.003099   0.001372   0.002643
     8  H   -0.035259   0.525707  -0.138154  -0.005704   0.003077  -0.001076
     9  C   -0.006201  -0.138154   6.028496   0.020674   0.448891   0.012845
    10  O    0.003099  -0.005704   0.020674   8.050925  -0.000513  -0.000239
[...]
 ! D4    D(12,1,3,4)            53.8951         -DE/DX =    0.0                 !
 ! D5    D(12,1,3,5)           170.7225         -DE/DX =    0.0                 !
 ! D6    D(12,1,3,6)           -64.5163         -DE/DX =    0.0                 !
 ! D7    D(1,3,5,7)            -34.6912         -DE/DX =    0.0                 !
 ! D8    D(1,3,5,8)             82.5662         -DE/DX =    0.0                 !
 ! D9    D(1,3,5,9)           -151.708          -DE/DX =    0.0                 !
 ! D10   D(4,3,5,7)             83.0939         -DE/DX =    0.0                 !
 ! D11   D(4,3,5,8)           -159.6487         -DE/DX =    0.0                 !
 ! D12   D(4,3,5,9)            -33.923          -DE/DX =    0.0                 !
 ! D13   D(6,3,5,7)           -160.8778         -DE/DX =    0.0                 !
 ! D14   D(6,3,5,8)            -43.6204         -DE/DX =    0.0                 !
 ! D15   D(6,3,5,9)             82.1054         -DE/DX =    0.0                 !
 ! D16   D(1,3,6,10)             0.3912         -DE/DX =    0.0                 !
 ! D17   D(1,3,6,13)          -179.368          -DE/DX =    0.0                 !
 ! D18   D(4,3,6,10)          -118.969          -DE/DX =    0.0                 !
 ! D19   D(4,3,6,13)            61.2718         -DE/DX =    0.0                 !
 ! D20   D(5,3,6,10)           124.9433         -DE/DX =    0.0                 !
 ! D21   D(5,3,6,13)           -54.8159         -DE/DX =    0.0                 !
 ! D22   D(3,5,9,11)            33.3526         -DE/DX =    0.0                 !
 ! D23   D(3,5,9,15)          -149.4989         -DE/DX =    0.0                 !
 ! D24   D(7,5,9,11)           -83.8235         -DE/DX =    0.0                 !
 ! D25   D(7,5,9,15)            93.325          -DE/DX =    0.0                 !
 ! D26   D(8,5,9,11)           160.3718         -DE/DX =    0.0                 !
 ! D27   D(8,5,9,15)           -22.4797         -DE/DX =    0.0                 !
 ! D28   D(3,6,13,14)          179.9084         -DE/DX =    0.0                 !
 ! D29   D(10,6,13,14)           0.1427         -DE/DX =    0.0                 !
 ! D30   D(5,9,15,16)         -176.8544         -DE/DX =    0.0                 !
 ! D31   D(11,9,15,16)           0.3845         -DE/DX =    0.0                 !
 --------------------------------------------------------------------------------
 GradGradGradGradGradGradGradGradGradGradGradGradGradGradGradGradGradGrad

 1|1|UNPC-WIN-20150318OUM|Freq|RB3LYP|6-311++G(d,p)|C4H7N1O4|ADMINISTRA
 TOR|30-Mar-2016|0||#N Geom=AllCheck Guess=TCheck SCRF=Check GenChk RB3
 LYP/6-311++G(d,p) Freq||Asp-S-opt-freq-6-311++g(d,p)||0,1|N,1.62819,1.
 810012,0.073149|H,2.052123,1.757482,-0.848988|C,0.740268,0.678764,0.29
 2504|H,0.434163,0.67673,1.343374|C,-0.543203,0.833445,-0.548806|C,1.40
 7317,-0.676057,0.021458|H,-0.770327,1.903723,-0.582763|H,-0.408329,0.4
 99044,-1.579406|C,-1.75279,0.158073,0.059177|O,2.549412,-0.82861,-0.33
 1122|O,-1.974325,0.049499,1.23798|H,2.397017,1.78734,0.734927|O,0.5572
 41,-1.710074,0.219336|H,1.040816,-2.528766,0.030037|O,-2.615904,-0.271
 535,-0.891542|H,-3.383746,-0.645228,-0.432439||Version=IA32W-G09RevB.0
 1|State=1-A|HF=-512.4843484|RMSD=4.359e-009|RMSF=5.732e-006|ZeroPoint=
 0.1228759|Thermal=0.1325132|Dipole=-0.2266363,-0.3417429,-0.4515315|Di
 poleDeriv=-0.454681,-0.0823039,-0.0016919,-0.083486,-0.705525,-0.01854
 7,-0.0252634,0.00881,-0.2103384,0.1457535,-0.071196,0.039894,-0.006728
 8,0.2484245,-0.105931,0.0412654,-0.0423152,0.0766493,0.3160553,0.33700
 85,0.0420427,0.1878978,0.3862326,0.0102508,0.1130837,-0.0608516,0.1111
 424,0.0950835,-0.0070108,0.0147186,0.0139173,0.0093407,0.0128525,-0.00
 94438,0.0272887,-0.0091774,-0.1278114,-0.1583411,0.0319452,-0.1903179,
 -0.07974,0.0800454,0.0675123,0.027645,0.0508958,1.5686897,0.203048,-0.
 3562881,0.0941601,1.2456703,-0.0652042,-0.4555531,-0.0213404,0.3191585
 ,0.0250688,0.0393841,0.0195818,0.059032,-0.0034816,0.0104122,0.0122094
 ,0.0012625,0.0800204,0.0056901,-0.0093007,0.0379581,0.013229,0.0767486
 ,-0.0597552,0.0107056,-0.0238634,-0.0569569,1.368912,0.4182255,0.20888
 86,0.5424286,0.5108298,0.1025285,0.1977146,0.1131905,1.6450149,-1.1894
 365,-0.0333199,0.1900563,0.2410015,-0.6556852,-0.0420491,0.2849413,-0.
 00196,-0.3958291,-0.706871,-0.1048274,0.2113674,-0.1369212,-0.3975845,
 0.0805694,0.0092595,-0.0195735,-1.1582728,0.0576284,-0.0474386,-0.0530
 324,0.0378871,0.2563082,0.0984,-0.0282622,0.0743561,0.1393738,-0.68949
 59,-0.3249751,0.0751344,-0.4889179,-1.0503516,0.1530838,0.0623673,0.08
 49766,-0.3555709,0.2078084,0.0666422,0.0354455,0.0155482,0.2983657,-0.
 0160381,0.0405077,-0.0291196,0.3214952,-0.9423735,-0.2106526,-0.540448
 5,-0.2743323,-0.4683442,-0.2591025,-0.4003301,-0.1747297,-0.7734022,0.
 3199796,-0.014942,0.0444284,-0.0243976,0.3287917,0.0184843,0.0792857,0
 .0362241,0.2157974|Polar=80.938623,4.9370705,68.0234324,-1.6018638,-0.
 2267205,61.2830693|PG=C01 [X(C4H7N1O4)]|NImag=0||0.54076108,0.11492754
 ,0.24950853,0.03789946,-0.01584667,0.67264557,-0.11631653,-0.01484548,
 0.15051366,0.11683036,0.00247168,-0.02678068,-0.05541025,0.01392091,0.
 03491243,0.12398909,-0.01260212,-0.35616950,-0.14232685,0.01957653,0.3
 8242082,-0.12916621,-0.04746299,0.00868379,-0.01040346,-0.01453016,0.0
 0326493,0.48443925,-0.09862315,-0.14274664,0.02466735,0.00479217,-0.00
 523966,-0.00053649,0.03596373,0.44724257,0.01147392,0.01534688,-0.1068
 8676,0.02340241,0.03243663,-0.00405894,-0.04864228,-0.01630975,0.56860
 069,-0.00846820,-0.00437691,0.02132898,-0.00214885,-0.00333593,0.00062
 458,-0.06149671,0.00113291,0.06806706,0.07729317,-0.01145565,-0.004399
 06,0.03067343,-0.00383313,-0.00399878,0.00063174,0.00361913,-0.0511983
 3,-0.01187462,0.00253029,0.05940497,0.00223953,0.00212404,-0.00223807,
 -0.00011645,0.00023964,0.00183179,0.06807947,-0.00265829,-0.28476078,-
 0.07338735,0.00289008,0.31026185,-0.02783919,-0.00772185,-0.01851929,0
 .00085862,0.00047410,0.00044563,-0.12550798,0.00790929,-0.03705022,0.0
 0497492,-0.00146363,-0.00076468,0.45606701,-0.02561129,-0.00115731,-0.
 01676400,0.00036411,0.00067838,0.00006962,0.01656187,-0.07308131,0.012
 32647,-0.00217492,0.00084863,-0.00205948,-0.00781214,0.53166470,0.0031
 0343,-0.00152683,0.00567396,0.00088830,0.00010073,0.00098976,-0.041450
 30,0.00673559,-0.11148545,-0.02840468,0.00419814,-0.02026372,-0.015409
 97,0.04027862,0.56433351,-0.00091145,-0.02025958,-0.00088638,0.0013506
 6,-0.00444444,0.00125154,-0.08307573,0.03008431,0.00024684,-0.00540722
 ,0.00705530,0.00402694,-0.01970564,0.02272167,0.00261457,0.89682515,-0
 .00248120,-0.03860405,-0.00278981,0.00088269,-0.00001897,-0.00101602,0
 .02688143,-0.13211076,-0.00808383,0.00373165,0.00320376,-0.00252935,0.
 01124025,-0.00134731,0.00571121,-0.06683215,0.56339530,-0.00003289,0.0
 0361074,0.00313186,-0.00097425,0.00410204,0.00014823,0.00087969,-0.012
 05536,-0.09586540,0.01704073,-0.03174476,-0.00608848,-0.00899392,0.019
 16608,0.00500527,-0.20096581,0.03710379,0.29185731,0.00204915,0.000370
 99,0.00118648,-0.00065109,0.00038683,0.00010780,-0.01133215,0.02857194
 ,-0.00376875,0.00066451,-0.00045350,0.00022307,-0.05123960,0.04727785,
 0.00206447,-0.00257640,-0.00343599,-0.00454622,0.06224808,-0.00214507,
 0.00048700,-0.00140350,0.00013078,-0.00009211,0.00020851,0.00292344,-0
 .00478455,0.00051432,0.00012909,0.00004763,0.00013137,0.05416619,-0.29
 533472,0.00617578,-0.00045628,0.00039669,0.00096594,-0.05514864,0.3214
 8800,0.00186006,0.00011403,0.00100336,0.00015280,-0.00034812,0.0001575
 5,-0.00715309,0.01887452,-0.00185705,0.00039830,0.00018406,0.00028517,
 0.00093523,0.00658804,-0.04470670,-0.00187632,-0.00163159,-0.00235012,
 0.00140280,-0.00807089,0.04726155,0.00067604,0.00054443,0.00048225,-0.
 00041377,-0.00024995,0.00023291,0.00420301,-0.00701956,-0.02682495,-0.
 00458668,0.00040077,-0.00255788,-0.05576654,0.00951841,0.03003010,0.00
 202773,-0.00143304,-0.00127372,-0.00118407,0.00177796,0.00563186,0.060
 16671,-0.00052384,-0.00007022,-0.00003184,-0.00044620,0.00020072,-0.00
 032465,0.00001820,0.00054204,0.00598312,0.00097753,0.00024997,0.001503
 03,0.01180307,-0.07229365,-0.08224063,0.00035626,0.00083692,0.00122631
 ,0.00506724,-0.00832418,-0.03045827,-0.01164071,0.07603426,-0.00048508
 ,-0.00011347,0.00044222,-0.00048130,-0.00040576,-0.00004763,0.00195896
 ,-0.00265038,-0.01390701,-0.00240253,0.00033849,-0.00055196,0.03462039
 ,-0.07802401,-0.28028880,-0.00000841,-0.00201157,-0.00040372,-0.000074
 94,0.00007231,0.00191802,-0.03381502,0.08531974,0.30475380,0.00021241,
 0.00126344,-0.00028967,-0.00076075,0.00000926,0.00014016,-0.02711409,-
 0.01426071,0.00190444,-0.00048638,-0.00084067,0.00153425,-0.15157959,-
 0.03042116,0.03680935,-0.00333316,0.00659294,0.00180544,0.00810533,0.0
 0110569,-0.00370832,0.00025173,-0.00221636,-0.00024041,0.52426049,0.00
 131891,-0.00015438,0.00103651,-0.00047458,-0.00017820,0.00009667,0.000
 01269,-0.00128211,-0.00922849,-0.00143451,0.00081916,0.00038991,-0.030
 76435,-0.10302182,0.01818483,0.00369314,0.00982244,0.00114341,-0.02900
 642,-0.01734591,0.01616384,0.01431973,0.00465671,-0.00551394,0.1507205
 4,0.30307175,-0.00529868,-0.00068377,-0.00709296,0.00092672,0.00022283
 ,-0.00005246,-0.00714630,-0.00998117,0.01513510,-0.00440106,-0.0015437
 0,-0.00265409,0.02452240,0.01413165,-0.09183598,-0.00316079,-0.0036304
 6,-0.00071071,0.00091424,0.00210717,-0.00204985,0.02502174,0.01641635,
 -0.01513518,-0.10046985,-0.05146432,0.94682856,0.00470933,-0.00413476,
 -0.00205200,0.00012606,0.00184333,-0.00150837,-0.03160081,0.00640500,0
 .01880559,-0.00116814,0.00414401,-0.00127169,0.00235764,0.00248519,0.0
 0283818,-0.65656474,0.10305673,0.17978714,-0.00132275,0.00032735,-0.00
 077004,-0.00050097,-0.00043948,-0.00050413,0.00233544,-0.00016964,0.00
 118140,0.76755653,0.00579085,-0.00023437,-0.00127703,-0.00038453,0.001
 08553,-0.00113538,0.03094720,0.00016648,-0.01153211,0.00198079,-0.0042
 2861,-0.00053373,0.00100751,-0.00347616,-0.00303631,0.08730454,-0.1313
 9857,-0.02868009,0.00142510,0.00006313,0.00080031,0.00007434,0.0001213
 4,0.00058017,-0.00269323,-0.00322514,0.00126788,-0.07469636,0.11446107
 ,-0.00122146,0.00118997,-0.00030442,0.00008557,-0.00172333,0.00017180,
 0.01870910,-0.00296241,0.01963758,-0.00171478,0.00292493,0.00015156,0.
 00032554,-0.00497380,-0.00283586,0.17873546,-0.03353407,-0.13191340,0.
 00164940,-0.00005788,0.00088274,0.00044379,0.00005324,0.00018753,-0.00
 120439,-0.00045881,0.00050073,-0.22575175,0.02683231,0.09878374,-0.000
 90801,-0.00041500,0.00057213,0.00004567,-0.00020545,-0.00011907,0.0019
 6336,0.00096807,0.00124045,-0.00003508,0.00017400,0.00166559,0.0015540
 4,-0.00846082,0.03241649,0.00110536,-0.00321853,-0.00005199,-0.0023210
 5,-0.00099354,0.00242077,-0.00447639,-0.00342308,0.00305741,-0.1371225
 3,-0.02999636,0.12228122,-0.00125623,0.00129498,0.00025382,0.11257036,
 -0.00060336,0.00029260,-0.00034808,0.00021162,0.00001740,0.00002423,-0
 .00010757,0.00044158,0.00182309,0.00025016,-0.00100515,0.00025292,-0.0
 1065960,0.01555867,0.02140965,-0.00182060,-0.00443662,0.00085354,0.002
 77273,0.00209857,-0.00222000,-0.00544945,-0.00159580,0.00163619,-0.029
 01693,-0.09129808,0.06090460,0.00062539,0.00144653,-0.00020640,0.03911
 392,0.05252641,0.00096260,0.00009440,0.00288590,-0.00099029,-0.0001471
 7,-0.00003086,-0.00454433,-0.00089073,-0.00476998,0.00189323,0.0003490
 2,0.00201926,0.01583915,0.00968388,-0.02985995,0.00184338,0.00268210,0
 .00031196,0.00084475,-0.00119015,-0.00094781,0.00349454,0.00244361,0.0
 0026954,0.13529795,0.06590720,-0.69393591,-0.00064392,-0.00084469,-0.0
 0011647,-0.12256039,-0.06206689,0.82262419,-0.26372991,-0.01808918,-0.
 19678566,0.01186058,0.00234972,0.01446533,-0.01824401,0.00648373,-0.01
 497034,0.00024516,0.00053250,0.00036346,-0.00359639,-0.00405267,0.0022
 2753,0.00093769,0.00010950,-0.00001611,0.00048224,-0.00054999,0.000330
 93,-0.00009578,-0.00015672,-0.00019010,0.00014719,0.00025407,-0.002351
 15,0.00019389,0.00035758,-0.00020308,-0.00006856,-0.00006881,0.0007155
 5,0.27286976,0.01615424,-0.02302510,0.03980953,-0.00002074,-0.00193598
 ,-0.00405027,-0.02616252,-0.00697443,-0.02180593,0.00055140,0.00128540
 ,0.00024984,-0.00089013,-0.00284482,0.00157118,-0.00505719,-0.00089038
 ,-0.00061550,-0.00017670,0.00042321,0.00024287,-0.00000886,-0.00003363
 ,-0.00003554,-0.00059819,0.00078665,-0.00063796,0.00212677,0.00077332,
 0.00031685,0.00019241,-0.00015262,-0.00003031,0.01287204,0.03227054,-0
 .17468851,0.00918160,-0.21523642,-0.03103602,0.00214134,-0.02548738,0.
 00626090,0.00016923,0.00594021,0.00066726,-0.00020953,0.00072832,0.001
 39901,0.00157162,0.00102739,-0.00155632,-0.00001166,0.00042685,0.00004
 761,0.00004349,-0.00021705,0.00040856,0.00018458,0.00021292,0.00014504
 ,-0.00005202,0.00067865,0.00117089,0.00107462,0.00008175,0.00005566,-0
 .00001755,-0.00019341,0.19613913,-0.01513841,0.23231313,0.00215667,0.0
 0221371,0.00004269,-0.00059073,0.00136125,-0.00051128,0.00939133,0.004
 77382,-0.00050887,-0.00003221,-0.00052200,-0.00001707,-0.00044338,0.00
 068391,-0.00115901,-0.15410849,-0.04307751,0.02521124,0.00050865,0.000
 14458,0.00042934,-0.00009234,-0.00025486,0.00055021,-0.00160093,-0.002
 08739,0.00103058,-0.07982306,-0.05824124,0.02968577,-0.00014295,0.0019
 9714,-0.00090389,-0.00011829,0.00119310,0.00065269,0.39105400,0.002575
 58,-0.01125623,-0.00099357,-0.00045353,0.00149086,-0.00089699,-0.02222
 618,-0.02972465,0.00407788,-0.00087073,-0.00162268,0.00045966,-0.00063
 729,-0.00228476,-0.00199605,-0.06868143,-0.21642487,0.01370144,0.00069
 990,-0.00008413,0.00043364,0.00009743,-0.00009787,0.00058905,-0.003605
 83,-0.00516087,0.00080137,-0.04619996,0.01455735,0.01292180,0.00238916
 ,0.00163390,-0.00089607,0.00035531,0.00075803,0.00088696,-0.07944436,0
 .59298227,0.00009013,-0.00125500,0.00089390,0.00015703,-0.00055533,0.0
 0009957,-0.00099665,-0.00409741,0.01004935,-0.00097000,0.00218074,0.00
 065260,-0.00003691,-0.00077040,-0.00055836,0.02358022,0.00558839,-0.06
 906672,0.00030212,-0.00006516,0.00052569,0.00004172,-0.00032035,0.0005
 8456,-0.00016456,-0.00031077,-0.00280370,0.02986896,0.01639848,0.02070
 437,0.00022555,-0.00091395,0.00156541,0.00006418,-0.00004543,-0.000251
 93,-0.10867659,0.05236230,0.07308017,0.00012701,-0.00145723,-0.0000117
 0,0.00006513,-0.00004872,-0.00001787,-0.00215085,-0.00262931,0.0017881
 0,-0.00026172,0.00011323,0.00007107,-0.00021543,-0.00013766,0.00026179
 ,0.02318077,-0.02759645,-0.00707202,0.00006636,-0.00002283,-0.00007095
 ,0.00004354,0.00001089,-0.00005929,0.00102268,0.00016960,0.00086565,-0
 .00424938,0.00415323,-0.00036554,-0.00041770,0.00015765,-0.00033824,0.
 00005091,-0.00001292,-0.00000147,-0.16707491,0.21372046,0.05622887,0.1
 5014044,-0.00007469,-0.00154698,-0.00018933,0.00007181,-0.00010916,-0.
 00001339,-0.00636144,0.00046349,0.00188580,0.00019793,0.00032661,-0.00
 040406,0.00007273,0.00076018,-0.00007240,0.01668491,-0.04889820,-0.007
 90279,-0.00016971,0.00011438,-0.00005111,0.00012215,-0.00009048,0.0001
 9141,0.00101647,-0.00027757,0.00033364,0.00499865,0.00867352,-0.000693
 69,-0.00041457,0.00019257,0.00000730,0.00005770,-0.00020241,-0.0000351
 8,0.17014642,-0.34663117,-0.06895534,-0.18611991,0.38726046,0.00016145
 ,0.00039269,0.00036830,0.00001358,-0.00017732,0.00007191,0.00124274,0.
 00053723,0.00400419,-0.00041275,0.00062501,0.00021300,0.00053644,-0.00
 003819,0.00007187,-0.00446734,0.00520831,0.00592787,0.00007964,-0.0000
 3516,-0.00004795,-0.00003213,0.00002423,-0.00008398,0.00032851,0.00002
 200,0.00037105,-0.00049500,-0.00039734,-0.00613045,0.00016667,0.000019
 01,-0.00031538,-0.00001093,0.00013849,0.00005946,0.05398950,-0.0821781
 8,-0.03633959,-0.05096032,0.07606411,0.03201659,-0.00300669,-0.0006128
 1,-0.00171321,0.00010851,0.00002723,-0.00005097,0.00001461,-0.00336712
 ,0.00425998,0.00108377,0.00004895,-0.00001458,-0.02975399,-0.01933211,
 -0.02244582,0.00103013,-0.00377569,-0.00100685,-0.00285338,-0.00080434
 ,-0.00007612,-0.00081449,0.00046292,-0.00164115,-0.17803390,-0.0566598
 4,-0.06633721,-0.00133573,0.00157776,0.00073454,0.02435098,-0.00292785
 ,-0.03627855,-0.00080022,-0.00013479,0.00028374,0.00035753,0.00182575,
 0.00024229,-0.00030176,-0.00033313,-0.00009942,0.49740570,-0.00157905,
 -0.00014835,-0.00085695,0.00010428,-0.00007198,-0.00001489,0.00027728,
 -0.00131821,0.00358757,0.00073881,0.00028494,-0.00005372,-0.02342717,0
 .00028099,-0.01212855,-0.00051765,-0.00399871,-0.00072100,0.00082753,0
 .00066736,-0.00061351,-0.00134487,-0.00020914,-0.00032978,-0.05657958,
 -0.09104267,-0.03401541,-0.00021274,0.00136989,0.00029424,-0.00254202,
 0.02738189,-0.01790837,-0.00038790,-0.00018398,0.00013443,0.00133861,0
 .00239937,0.00077220,-0.00045308,-0.00011603,-0.00021246,0.22505789,0.
 15079849,0.00011895,-0.00003025,0.00106619,-0.00021163,-0.00005669,-0.
 00005133,0.00140150,0.00153145,-0.00036655,0.00167071,0.00042593,0.000
 37960,0.00453932,0.00010332,0.00750971,0.00087954,-0.00099108,-0.00040
 444,-0.00031988,0.00061222,0.00016020,-0.00112357,0.00014225,0.0018878
 4,-0.04215418,-0.02120360,-0.17055954,-0.00079808,0.00048086,0.0002223
 0,-0.04609403,-0.02332102,-0.09578648,0.00030470,0.00006446,-0.0000866
 9,0.00006092,0.00070223,0.00093929,-0.00034535,-0.00020464,-0.00022035
 ,-0.06872567,-0.03171588,0.41488416,-0.00034551,0.00005568,-0.00045150
 ,0.00003959,-0.00002965,0.00001243,0.00008044,-0.00118513,0.00057661,-
 0.00017036,-0.00004961,-0.00007368,-0.00016451,-0.00161024,-0.00438442
 ,-0.00077466,-0.00064465,0.00020954,-0.00064380,-0.00058440,0.00009274
 ,0.00056227,0.00040513,-0.00028461,-0.03630394,-0.01989557,0.01242110,
 0.00054292,0.00010148,-0.00016197,0.00515872,0.00552557,0.00536846,-0.
 00013424,-0.00002791,0.00005184,0.00055911,0.00045574,0.00004365,-0.00
 002509,0.00010466,-0.00004063,-0.30745106,-0.14130034,0.15079676,0.339
 07012,-0.00014151,-0.00016477,-0.00027582,-0.00002019,0.00004018,-0.00
 001709,-0.00035411,-0.00039551,0.00085299,-0.00002757,-0.00001846,-0.0
 0000186,-0.00329698,0.00505031,-0.00336497,0.00016919,0.00047332,-0.00
 015378,0.00099087,0.00017962,-0.00000783,0.00029122,0.00007300,0.00035
 709,-0.02047567,-0.00616996,0.00577130,-0.00015948,-0.00015531,0.00007
 705,0.00553683,-0.00310185,0.00280688,-0.00006688,-0.00005380,0.000076
 48,-0.00022519,-0.00053455,-0.00001296,0.00015306,0.00008078,0.0000075
 8,-0.14105283,-0.08609385,0.07346044,0.15867924,0.09079083,-0.00017200
 ,0.00000376,-0.00018313,-0.00000326,0.00000423,0.00000667,-0.00054812,
 -0.00037337,0.00059080,0.00000229,-0.00004896,0.00003395,-0.00238813,-
 0.00128942,-0.00277665,-0.00025710,-0.00006437,-0.00000635,-0.00011257
 ,-0.00000838,-0.00001775,-0.00016019,0.00007929,0.00016184,-0.02973374
 ,-0.01471243,0.02331629,0.00014280,0.00000205,-0.00002350,0.00446973,0
 .00217066,-0.00372001,-0.00008344,-0.00003385,0.00000419,0.00012378,0.
 00002454,-0.00007463,0.00002726,0.00003967,0.00003345,0.19286902,0.093
 78208,-0.15957391,-0.16417633,-0.07957550,0.14222873||0.00000157,0.000
 01201,-0.00000159,-0.00000119,-0.00000202,-0.00000020,0.00000746,-0.00
 002555,-0.00000175,0.00000082,0.00000366,-0.00000003,-0.00001248,0.000
 00121,-0.00000025,-0.00000169,0.00001815,0.00000141,0.00000214,-0.0000
 0178,0.00000085,0.00000040,-0.00000087,0.00000046,0.00000822,0.0000040
 0,-0.00000084,0.00000127,-0.00000097,0.00000047,-0.00000147,-0.0000006
 5,-0.00000382,-0.00000093,0.00000008,-0.00000161,-0.00000164,-0.000003
 80,0.00000141,0.00000183,0.00000343,0.00000140,-0.00000375,-0.00000435
 ,0.00000332,-0.00000055,-0.00000256,0.00000079|||@


 You never know when you're making a memory.
                        -- Rickie Lee Jones
 Job cpu time:  0 days  0 hours 37 minutes 26.0 seconds.
 File lengths (MBytes):  RWF=    106 Int=      0 D2E=      0 Chk=      5 Scr=      1
 Normal termination of Gaussian 09 at Wed Mar 30 16:09:21 2016.
