 Entering Gaussian System, Link 0=g09
 Input=Asp-S-opt-6-311++g(d,p).com
 Output=Asp-S-opt-6-311++g(d,p).log
 Initial command:
 /usr/local/gau/g09/l1.exe "/tmp/Gau-2127.inp" -scrdir="/tmp/"
 Entering Link 1 = /usr/local/gau/g09/l1.exe PID=      2129.
  
 Copyright (c) 1988,1990,1992,1993,1995,1998,2003,2009,2013,
            Gaussian, Inc.  All Rights Reserved.
  
 This is part of the Gaussian(R) 09 program.  It is based on
 the Gaussian(R) 03 system (copyright 2003, Gaussian, Inc.),
 the Gaussian(R) 98 system (copyright 1998, Gaussian, Inc.),
 the Gaussian(R) 94 system (copyright 1995, Gaussian, Inc.),
 the Gaussian 92(TM) system (copyright 1992, Gaussian, Inc.),
 the Gaussian 90(TM) system (copyright 1990, Gaussian, Inc.),
 the Gaussian 88(TM) system (copyright 1988, Gaussian, Inc.),
 the Gaussian 86(TM) system (copyright 1986, Carnegie Mellon
 University), and the Gaussian 82(TM) system (copyright 1983,
 Carnegie Mellon University). Gaussian is a federally registered
 trademark of Gaussian, Inc.
  
 This software contains proprietary and confidential information,
 including trade secrets, belonging to Gaussian, Inc.
  
 This software is provided under written license and may be
 used, copied, transmitted, or stored only in accord with that
 written license.
  
 The following legend is applicable only to US Government
 contracts under FAR:
  
                    RESTRICTED RIGHTS LEGEND
  
 Use, reproduction and disclosure by the US Government is
 subject to restrictions as set forth in subparagraphs (a)
 and (c) of the Commercial Computer Software - Restricted
 Rights clause in FAR 52.227-19.
  
 Gaussian, Inc.
 340 Quinnipiac St., Bldg. 40, Wallingford CT 06492
  
  
 ---------------------------------------------------------------
 Warning -- This program may not be used in any manner that
 competes with the business of Gaussian, Inc. or will provide
 assistance to any competitor of Gaussian, Inc.  The licensee
 of this program is prohibited from giving any competitor of
 Gaussian, Inc. access to this program.  By using this program,
 the user acknowledges that Gaussian, Inc. is engaged in the
 business of creating and licensing software in the field of
 computational chemistry and represents and warrants to the
 licensee that it is not a competitor of Gaussian, Inc. and that
 it will not use this program in any manner prohibited above.
 ---------------------------------------------------------------
  

 Cite this work as:
 Gaussian 09, Revision D.01,
 M. J. Frisch, G. W. Trucks, H. B. Schlegel, G. E. Scuseria, 
 M. A. Robb, J. R. Cheeseman, G. Scalmani, V. Barone, B. Mennucci, 
 G. A. Petersson, H. Nakatsuji, M. Caricato, X. Li, H. P. Hratchian, 
 A. F. Izmaylov, J. Bloino, G. Zheng, J. L. Sonnenberg, M. Hada, 
 M. Ehara, K. Toyota, R. Fukuda, J. Hasegawa, M. Ishida, T. Nakajima, 
 Y. Honda, O. Kitao, H. Nakai, T. Vreven, J. A. Montgomery, Jr., 
 J. E. Peralta, F. Ogliaro, M. Bearpark, J. J. Heyd, E. Brothers, 
 K. N. Kudin, V. N. Staroverov, T. Keith, R. Kobayashi, J. Normand, 
 K. Raghavachari, A. Rendell, J. C. Burant, S. S. Iyengar, J. Tomasi, 
 M. Cossi, N. Rega, J. M. Millam, M. Klene, J. E. Knox, J. B. Cross, 
 V. Bakken, C. Adamo, J. Jaramillo, R. Gomperts, R. E. Stratmann, 
 O. Yazyev, A. J. Austin, R. Cammi, C. Pomelli, J. W. Ochterski, 
 R. L. Martin, K. Morokuma, V. G. Zakrzewski, G. A. Voth, 
 P. Salvador, J. J. Dannenberg, S. Dapprich, A. D. Daniels, 
 O. Farkas, J. B. Foresman, J. V. Ortiz, J. Cioslowski, 
 and D. J. Fox, Gaussian, Inc., Wallingford CT, 2013.
 
 ******************************************
 Gaussian 09:  ES64L-G09RevD.01 24-Apr-2013
                28-Mar-2016 
 ******************************************
 %chk=Asp-S-opt-6-311gdp.chk
 -------------------------------------------
 # opt b3lyp/6-311++g(d,p) geom=connectivity
 -------------------------------------------
 1/14=-1,18=20,19=15,26=3,38=1,57=2/1,3;
 2/9=110,12=2,17=6,18=5,40=1/2;
 3/5=4,6=6,7=1111,11=2,16=1,25=1,30=1,71=1,74=-5/1,2,3;
 4//1;
 5/5=2,38=5/2;
 6/7=2,8=2,9=2,10=2,28=1/1;
 7//1,2,3,16;
 1/14=-1,18=20,19=15,26=3/3(2);
 2/9=110/2;
 99//99;
 2/9=110/2;
 3/5=4,6=6,7=1111,11=2,16=1,25=1,30=1,71=1,74=-5/1,2,3;
 4/5=5,16=3,69=1/1;
 5/5=2,38=5/2;
 7//1,2,3,16;
 1/14=-1,18=20,19=15,26=3/3(-5);
 2/9=110/2;
 6/7=2,8=2,9=2,10=2,19=2,28=1/1;
 99/9=1/99;
 -----------------------
 Asp-S-opt-6-311++g(d,p)
 -----------------------
 Symbolic Z-matrix:
 Charge =  0 Multiplicity = 1
 N                     1.63199  -1.80447  -0.03294 
 H                     2.06225  -1.8073    0.887 
 C                     0.73717  -0.68113  -0.263 
 H                     0.4287   -0.69455  -1.31651 
 C                    -0.55512  -0.81587   0.57535 
 C                     1.41483   0.66835  -0.01851 
 H                    -0.76379  -1.89015   0.65507 
 H                    -0.44072  -0.42692   1.59053 
 C                    -1.74266  -0.16114  -0.08075 
 O                     2.61433   0.83726   0.21217 
 O                    -1.9166   -0.02379  -1.29411 
 H                     2.33548  -1.92124  -0.75353 
 O                     0.52325   1.71741  -0.08432 
 H                     0.98101   2.57485   0.05731 
 O                    -2.68225   0.23319   0.84613 
 H                    -3.46202   0.6228    0.39329 
 

 GradGradGradGradGradGradGradGradGradGradGradGradGradGradGradGradGradGrad
 Berny optimization.
 Initialization pass.
                           ----------------------------
                           !    Initial Parameters    !
                           ! (Angstroms and Degrees)  !
 --------------------------                            --------------------------
 ! Name  Definition              Value          Derivative Info.                !
 --------------------------------------------------------------------------------
 ! R1    R(1,2)                  1.0156         estimate D2E/DX2                !
 ! R2    R(1,3)                  1.4545         estimate D2E/DX2                !
 ! R3    R(1,12)                 1.0138         estimate D2E/DX2                !
 ! R4    R(3,4)                  1.0978         estimate D2E/DX2                !
 ! R5    R(3,5)                  1.5463         estimate D2E/DX2                !
 ! R6    R(3,6)                  1.5297         estimate D2E/DX2                !
 ! R7    R(5,7)                  1.0973         estimate D2E/DX2                !
 ! R8    R(5,8)                  1.0931         estimate D2E/DX2                !
 ! R9    R(5,9)                  1.5064         estimate D2E/DX2                !
 ! R10   R(6,10)                 1.2331         estimate D2E/DX2                !
 ! R11   R(6,13)                 1.3783         estimate D2E/DX2                !
 ! R12   R(9,11)                 1.2334         estimate D2E/DX2                !
 ! R13   R(9,15)                 1.3775         estimate D2E/DX2                !
 ! R14   R(13,14)                0.9822         estimate D2E/DX2                !
 ! R15   R(15,16)                0.9823         estimate D2E/DX2                !
 ! A1    A(2,1,3)              113.9576         estimate D2E/DX2                !
 ! A2    A(2,1,12)             110.4595         estimate D2E/DX2                !
 ! A3    A(3,1,12)             113.7934         estimate D2E/DX2                !
 ! A4    A(1,3,4)              108.3737         estimate D2E/DX2                !
 ! A5    A(1,3,5)              111.1683         estimate D2E/DX2                !
 ! A6    A(1,3,6)              112.5509         estimate D2E/DX2                !
 ! A7    A(4,3,5)              106.5225         estimate D2E/DX2                !
 ! A8    A(4,3,6)              106.7757         estimate D2E/DX2                !
 ! A9    A(5,3,6)              111.1274         estimate D2E/DX2                !
 ! A10   A(3,5,7)              106.4777         estimate D2E/DX2                !
 ! A11   A(3,5,8)              112.6463         estimate D2E/DX2                !
 ! A12   A(3,5,9)              112.6323         estimate D2E/DX2                !
 ! A13   A(7,5,8)              107.5049         estimate D2E/DX2                !
 ! A14   A(7,5,9)              107.8931         estimate D2E/DX2                !
 ! A15   A(8,5,9)              109.4094         estimate D2E/DX2                !
 ! A16   A(3,6,10)             125.5672         estimate D2E/DX2                !
 ! A17   A(3,6,13)             112.1633         estimate D2E/DX2                !
 ! A18   A(10,6,13)            122.2695         estimate D2E/DX2                !
 ! A19   A(5,9,11)             126.0154         estimate D2E/DX2                !
 ! A20   A(5,9,15)             111.6585         estimate D2E/DX2                !
 ! A21   A(11,9,15)            122.2666         estimate D2E/DX2                !
 ! A22   A(6,13,14)            110.8589         estimate D2E/DX2                !
 ! A23   A(9,15,16)            110.1706         estimate D2E/DX2                !
 ! D1    D(2,1,3,4)            172.7194         estimate D2E/DX2                !
 ! D2    D(2,1,3,5)            -70.5388         estimate D2E/DX2                !
 ! D3    D(2,1,3,6)             54.8645         estimate D2E/DX2                !
 ! D4    D(12,1,3,4)            44.8441         estimate D2E/DX2                !
 ! D5    D(12,1,3,5)           161.5859         estimate D2E/DX2                !
 ! D6    D(12,1,3,6)           -73.0109         estimate D2E/DX2                !
 ! D7    D(1,3,5,7)            -32.6325         estimate D2E/DX2                !
 ! D8    D(1,3,5,8)             84.9664         estimate D2E/DX2                !
 ! D9    D(1,3,5,9)           -150.6963         estimate D2E/DX2                !
 ! D10   D(4,3,5,7)             85.2363         estimate D2E/DX2                !
 ! D11   D(4,3,5,8)           -157.1647         estimate D2E/DX2                !
 ! D12   D(4,3,5,9)            -32.8274         estimate D2E/DX2                !
 ! D13   D(6,3,5,7)           -158.8269         estimate D2E/DX2                !
 ! D14   D(6,3,5,8)            -41.2279         estimate D2E/DX2                !
 ! D15   D(6,3,5,9)             83.1094         estimate D2E/DX2                !
 ! D16   D(1,3,6,10)             7.1989         estimate D2E/DX2                !
 ! D17   D(1,3,6,13)          -172.8574         estimate D2E/DX2                !
 ! D18   D(4,3,6,10)          -111.5951         estimate D2E/DX2                !
 ! D19   D(4,3,6,13)            68.3486         estimate D2E/DX2                !
 ! D20   D(5,3,6,10)           132.6243         estimate D2E/DX2                !
 ! D21   D(5,3,6,13)           -47.4319         estimate D2E/DX2                !
 ! D22   D(3,5,9,11)            29.2366         estimate D2E/DX2                !
 ! D23   D(3,5,9,15)          -153.532          estimate D2E/DX2                !
 ! D24   D(7,5,9,11)           -87.9915         estimate D2E/DX2                !
 ! D25   D(7,5,9,15)            89.24           estimate D2E/DX2                !
 ! D26   D(8,5,9,11)           155.3369         estimate D2E/DX2                !
 ! D27   D(8,5,9,15)           -27.4317         estimate D2E/DX2                !
 ! D28   D(3,6,13,14)         -178.8609         estimate D2E/DX2                !
 ! D29   D(10,6,13,14)           1.085          estimate D2E/DX2                !
 ! D30   D(5,9,15,16)         -177.6652         estimate D2E/DX2                !
 ! D31   D(11,9,15,16)          -0.3135         estimate D2E/DX2                !
 --------------------------------------------------------------------------------
 Trust Radius=3.00D-01 FncErr=1.00D-07 GrdErr=1.00D-06
 Number of steps in this run=     79 maximum allowed number of steps=    100.
 GradGradGradGradGradGradGradGradGradGradGradGradGradGradGradGradGradGrad

                          Input orientation:                          
 ---------------------------------------------------------------------
 Center     Atomic      Atomic             Coordinates (Angstroms)
 Number     Number       Type             X           Y           Z
 ---------------------------------------------------------------------
      1          7           0        1.631993   -1.804473   -0.032944
      2          1           0        2.062252   -1.807298    0.887004
      3          6           0        0.737166   -0.681134   -0.263000
      4          1           0        0.428696   -0.694551   -1.316508
      5          6           0       -0.555118   -0.815873    0.575346
      6          6           0        1.414828    0.668352   -0.018512
      7          1           0       -0.763792   -1.890150    0.655066
      8          1           0       -0.440723   -0.426923    1.590526
      9          6           0       -1.742657   -0.161142   -0.080749
     10          8           0        2.614328    0.837264    0.212167
     11          8           0       -1.916598   -0.023785   -1.294114
     12          1           0        2.335479   -1.921239   -0.753533
     13          8           0        0.523253    1.717411   -0.084319
     14          1           0        0.981007    2.574845    0.057312
     15          8           0       -2.682254    0.233187    0.846134
     16          1           0       -3.462017    0.622795    0.393292
 ---------------------------------------------------------------------
                    Distance matrix (angstroms):
                    1          2          3          4          5
     1  N    0.000000
     2  H    1.015596   0.000000
     3  C    1.454487   2.084852   0.000000
     4  H    2.080237   2.960097   1.097822   0.000000
     5  C    2.476045   2.816146   1.546278   2.135818   0.000000
     6  C    2.482384   2.714399   1.529743   2.124795   2.536982
     7  H    2.494090   2.836756   2.134816   2.595879   1.097256
     8  H    2.971439   2.943682   2.210793   3.046040   1.093142
     9  C    3.753809   4.257195   2.540301   2.554682   1.506447
    10  O    2.829105   2.784583   2.460702   3.075759   3.593070
    11  O    4.165801   4.875391   2.921946   2.439433   2.444568
    12  H    1.013793   1.667032   2.081607   2.336135   3.367982
    13  O    3.692643   3.966807   2.414685   2.710128   2.831178
    14  H    4.428358   4.589189   3.280771   3.589064   3.758325
    15  O    4.851553   5.164841   3.709258   3.900734   2.387166
    16  H    5.658820   6.055299   4.445682   4.449322   3.248534
                    6          7          8          9         10
     6  C    0.000000
     7  H    3.427247   0.000000
     8  H    2.689182   1.766492   0.000000
     9  C    3.265217   2.118742   2.135142   0.000000
    10  O    1.233104   4.364246   3.582091   4.479501   0.000000
    11  O    3.633815   2.934550   3.265253   1.233441   4.851760
    12  H    2.844967   3.404497   3.928726   4.492413   2.935928
    13  O    1.378318   3.900983   2.886611   2.943352   2.288047
    14  H    1.956698   4.830923   3.658234   3.863034   2.389750
    15  O    4.209877   2.868024   2.452412   1.377480   5.368482
    16  H    4.894413   3.696463   3.415186   1.948197   6.082826
                   11         12         13         14         15
    11  O    0.000000
    12  H    4.687507   0.000000
    13  O    3.232374   4.119683   0.000000
    14  H    4.120115   4.765169   0.982238   0.000000
    15  O    2.287559   5.690178   3.652936   4.418720   0.000000
    16  H    2.377756   6.434149   4.160369   4.864550   0.982288
                   16
    16  H    0.000000
 Stoichiometry    C4H7NO4
 Framework group  C1[X(C4H7NO4)]
 Deg. of freedom    42
 Full point group                 C1      NOp   1
 Largest Abelian subgroup         C1      NOp   1
 Largest concise Abelian subgroup C1      NOp   1
                         Standard orientation:                         
 ---------------------------------------------------------------------
 Center     Atomic      Atomic             Coordinates (Angstroms)
 Number     Number       Type             X           Y           Z
 ---------------------------------------------------------------------
      1          7           0        1.631993    1.804473    0.032944
      2          1           0        2.062252    1.807298   -0.887004
      3          6           0        0.737166    0.681134    0.263000
      4          1           0        0.428696    0.694551    1.316508
      5          6           0       -0.555118    0.815873   -0.575346
      6          6           0        1.414828   -0.668352    0.018512
      7          1           0       -0.763792    1.890150   -0.655066
      8          1           0       -0.440723    0.426923   -1.590526
      9          6           0       -1.742657    0.161142    0.080749
     10          8           0        2.614328   -0.837264   -0.212167
     11          8           0       -1.916598    0.023785    1.294114
     12          1           0        2.335479    1.921239    0.753533
     13          8           0        0.523253   -1.717411    0.084319
     14          1           0        0.981007   -2.574845   -0.057312
     15          8           0       -2.682254   -0.233187   -0.846134
     16          1           0       -3.462017   -0.622795   -0.393292
 ---------------------------------------------------------------------
 Rotational constants (GHZ):      2.6268752      1.0760679      0.8997568
 Standard basis: 6-311++G(d,p) (5D, 7F)
 There are   256 symmetry adapted cartesian basis functions of A   symmetry.
 There are   247 symmetry adapted basis functions of A   symmetry.
   247 basis functions,   387 primitive gaussians,   256 cartesian basis functions
    35 alpha electrons       35 beta electrons
       nuclear repulsion energy       465.9636200520 Hartrees.
 NAtoms=   16 NActive=   16 NUniq=   16 SFac= 1.00D+00 NAtFMM=   60 NAOKFM=F Big=F
 Integral buffers will be    131072 words long.
 Raffenetti 2 integral format.
 Two-electron integral symmetry is turned on.
 One-electron integrals computed using PRISM.
 NBasis=   247 RedAO= T EigKep=  1.71D-05  NBF=   247
 NBsUse=   247 1.00D-06 EigRej= -1.00D+00 NBFU=   247
 ExpMin= 3.60D-02 ExpMax= 8.59D+03 ExpMxC= 1.30D+03 IAcc=3 IRadAn=         5 AccDes= 0.00D+00
 Harris functional with IExCor=  402 and IRadAn=       5 diagonalized for initial guess.
 HarFok:  IExCor=  402 AccDes= 0.00D+00 IRadAn=         5 IDoV= 1 UseB2=F ITyADJ=14
 ICtDFT=  3500011 ScaDFX=  1.000000  1.000000  1.000000  1.000000
 FoFCou: FMM=F IPFlag=           0 FMFlag=      100000 FMFlg1=           0
         NFxFlg=           0 DoJE=T BraDBF=F KetDBF=T FulRan=T
         wScrn=  0.000000 ICntrl=     500 IOpCl=  0 I1Cent=   200000004 NGrid=           0
         NMat0=    1 NMatS0=      1 NMatT0=    0 NMatD0=    1 NMtDS0=    0 NMtDT0=    0
 Petite list used in FoFCou.
 Requested convergence on RMS density matrix=1.00D-08 within 128 cycles.
 Requested convergence on MAX density matrix=1.00D-06.
 Requested convergence on             energy=1.00D-06.
 No special actions if energy rises.
 SCF Done:  E(RB3LYP) =  -512.478689848     A.U. after   14 cycles
            NFock= 14  Conv=0.27D-08     -V/T= 2.0043

 **********************************************************************

            Population analysis using the SCF density.

 **********************************************************************

 Orbital symmetries:
       Occupied  (A) (A) (A) (A) (A) (A) (A) (A) (A) (A) (A) (A)
                 (A) (A) (A) (A) (A) (A) (A) (A) (A) (A) (A) (A)
                 (A) (A) (A) (A) (A) (A) (A) (A) (A) (A) (A)
       Virtual   (A) (A) (A) (A) (A) (A) (A) (A) (A) (A) (A) (A)
                 (A) (A) (A) (A) (A) (A) (A) (A) (A) (A) (A) (A)
                 (A) (A) (A) (A) (A) (A) (A) (A) (A) (A) (A) (A)
                 (A) (A) (A) (A) (A) (A) (A) (A) (A) (A) (A) (A)
                 (A) (A) (A) (A) (A) (A) (A) (A) (A) (A) (A) (A)
                 (A) (A) (A) (A) (A) (A) (A) (A) (A) (A) (A) (A)
                 (A) (A) (A) (A) (A) (A) (A) (A) (A) (A) (A) (A)
                 (A) (A) (A) (A) (A) (A) (A) (A) (A) (A) (A) (A)
                 (A) (A) (A) (A) (A) (A) (A) (A) (A) (A) (A) (A)
                 (A) (A) (A) (A) (A) (A) (A) (A) (A) (A) (A) (A)
                 (A) (A) (A) (A) (A) (A) (A) (A) (A) (A) (A) (A)
                 (A) (A) (A) (A) (A) (A) (A) (A) (A) (A) (A) (A)
                 (A) (A) (A) (A) (A) (A) (A) (A) (A) (A) (A) (A)
                 (A) (A) (A) (A) (A) (A) (A) (A) (A) (A) (A) (A)
                 (A) (A) (A) (A) (A) (A) (A) (A) (A) (A) (A) (A)
                 (A) (A) (A) (A) (A) (A) (A) (A) (A) (A) (A) (A)
                 (A) (A) (A) (A) (A) (A) (A) (A) (A) (A) (A) (A)
                 (A) (A) (A) (A) (A) (A) (A) (A)
 The electronic state is 1-A.
 Alpha  occ. eigenvalues --  -19.18820 -19.18626 -19.13481 -19.13077 -14.31207
 Alpha  occ. eigenvalues --  -10.32860 -10.32539 -10.24280 -10.21014  -1.11474
 Alpha  occ. eigenvalues --   -1.11120  -1.02939  -1.02644  -0.91162  -0.79830
 Alpha  occ. eigenvalues --   -0.71522  -0.63999  -0.60259  -0.54470  -0.51971
 Alpha  occ. eigenvalues --   -0.50670  -0.50293  -0.48239  -0.47284  -0.45610
 Alpha  occ. eigenvalues --   -0.44321  -0.42517  -0.40624  -0.39434  -0.38262
 Alpha  occ. eigenvalues --   -0.34225  -0.33660  -0.30114  -0.29760  -0.26443
 Alpha virt. eigenvalues --   -0.03615  -0.02304  -0.01407  -0.00647  -0.00224
 Alpha virt. eigenvalues --    0.01262   0.02711   0.03729   0.04905   0.06329
 Alpha virt. eigenvalues --    0.06824   0.07729   0.08616   0.08802   0.09326
 Alpha virt. eigenvalues --    0.09907   0.10141   0.10767   0.11604   0.12139
 Alpha virt. eigenvalues --    0.13429   0.13588   0.13924   0.14553   0.14923
 Alpha virt. eigenvalues --    0.15992   0.18241   0.18309   0.19156   0.20151
 Alpha virt. eigenvalues --    0.20317   0.21105   0.21984   0.22340   0.23282
 Alpha virt. eigenvalues --    0.23690   0.24562   0.24834   0.25034   0.26881
 Alpha virt. eigenvalues --    0.27610   0.28580   0.29010   0.29458   0.30430
 Alpha virt. eigenvalues --    0.30753   0.31737   0.32110   0.32850   0.33265
 Alpha virt. eigenvalues --    0.33907   0.34383   0.35356   0.37080   0.37133
 Alpha virt. eigenvalues --    0.37723   0.40303   0.43001   0.45573   0.47216
 Alpha virt. eigenvalues --    0.49898   0.52412   0.53342   0.53993   0.55263
 Alpha virt. eigenvalues --    0.57516   0.59070   0.60628   0.61422   0.62894
 Alpha virt. eigenvalues --    0.66292   0.67568   0.68050   0.69026   0.70748
 Alpha virt. eigenvalues --    0.71268   0.72881   0.73838   0.75498   0.84199
 Alpha virt. eigenvalues --    0.84455   0.85173   0.87863   0.90068   0.96880
 Alpha virt. eigenvalues --    0.98874   1.02478   1.06139   1.09408   1.10546
 Alpha virt. eigenvalues --    1.12468   1.12763   1.15351   1.16893   1.17172
 Alpha virt. eigenvalues --    1.18136   1.19120   1.20994   1.22452   1.23303
 Alpha virt. eigenvalues --    1.25846   1.27149   1.29756   1.32353   1.35857
 Alpha virt. eigenvalues --    1.40542   1.43002   1.45310   1.47116   1.50312
 Alpha virt. eigenvalues --    1.51458   1.54254   1.55212   1.55703   1.58088
 Alpha virt. eigenvalues --    1.61521   1.62660   1.64582   1.67787   1.68858
 Alpha virt. eigenvalues --    1.69997   1.72962   1.74050   1.79320   1.81209
 Alpha virt. eigenvalues --    1.83673   1.84656   1.89072   1.91902   1.92285
 Alpha virt. eigenvalues --    1.96477   1.97641   2.02861   2.03682   2.06474
 Alpha virt. eigenvalues --    2.11611   2.17283   2.19989   2.21530   2.27124
 Alpha virt. eigenvalues --    2.36368   2.44932   2.50021   2.52254   2.54712
 Alpha virt. eigenvalues --    2.57031   2.58462   2.60132   2.63771   2.65113
 Alpha virt. eigenvalues --    2.68314   2.74270   2.78778   2.80534   2.82409
 Alpha virt. eigenvalues --    2.84896   2.85447   2.88434   2.89312   2.90331
 Alpha virt. eigenvalues --    2.92359   2.95827   2.99497   3.01093   3.02739
 Alpha virt. eigenvalues --    3.04196   3.08774   3.09684   3.14370   3.15905
 Alpha virt. eigenvalues --    3.17898   3.21688   3.31252   3.33494   3.34817
 Alpha virt. eigenvalues --    3.53385   3.54778   3.55657   3.60477   3.67517
 Alpha virt. eigenvalues --    3.77256   3.81785   3.83662   3.95727   4.03973
 Alpha virt. eigenvalues --    4.04654   4.07432   4.16839   4.28050   4.73604
 Alpha virt. eigenvalues --    4.85804   4.95696   4.98824   5.03558   5.05771
 Alpha virt. eigenvalues --    5.15958   5.16945   5.32588   5.37440   5.55120
 Alpha virt. eigenvalues --    5.56632   5.80665   5.82045  23.72216  23.74185
 Alpha virt. eigenvalues --   23.78554  23.88985  35.60058  49.84236  49.85005
 Alpha virt. eigenvalues --   49.96817  49.97774
          Condensed to atoms (all electrons):
               1          2          3          4          5          6
     1  N    6.616609   0.377810  -0.008655  -0.023424  -0.117629   0.134967
     2  H    0.377810   0.441843   0.005612   0.005465  -0.019527  -0.015033
     3  C   -0.008655   0.005612   8.453139   0.469866  -0.489583  -1.770327
     4  H   -0.023424   0.005465   0.469866   0.487478  -0.065925  -0.070881
     5  C   -0.117629  -0.019527  -0.489583  -0.065925   7.169079  -0.007526
     6  C    0.134967  -0.015033  -1.770327  -0.070881  -0.007526   6.879189
     7  H   -0.006834   0.001109  -0.007197  -0.006769   0.391109  -0.025006
     8  H   -0.000571   0.000851  -0.001329   0.014225   0.457914  -0.053995
     9  C    0.006618  -0.002349   0.156503  -0.072992  -0.721048   0.090773
    10  O   -0.037203  -0.003179  -0.047040  -0.017063  -0.014607   0.457029
    11  O    0.000494  -0.000404   0.010121   0.004870  -0.097476  -0.006046
    12  H    0.386211  -0.039306  -0.032352  -0.013765  -0.003317   0.002486
    13  O    0.046238  -0.001883  -0.368049   0.001894  -0.017032   0.311342
    14  H    0.003298  -0.000237  -0.078471   0.002348  -0.007401   0.099678
    15  O   -0.000810   0.000022  -0.023886   0.004110  -0.232269   0.003552
    16  H   -0.000476  -0.000131   0.011587  -0.000501  -0.047456  -0.003599
               7          8          9         10         11         12
     1  N   -0.006834  -0.000571   0.006618  -0.037203   0.000494   0.386211
     2  H    0.001109   0.000851  -0.002349  -0.003179  -0.000404  -0.039306
     3  C   -0.007197  -0.001329   0.156503  -0.047040   0.010121  -0.032352
     4  H   -0.006769   0.014225  -0.072992  -0.017063   0.004870  -0.013765
     5  C    0.391109   0.457914  -0.721048  -0.014607  -0.097476  -0.003317
     6  C   -0.025006  -0.053995   0.090773   0.457029  -0.006046   0.002486
     7  H    0.458233  -0.028413  -0.005240   0.004097   0.002928   0.002161
     8  H   -0.028413   0.501228  -0.124036  -0.007497   0.002105  -0.000973
     9  C   -0.005240  -0.124036   5.992074   0.018830   0.451948   0.011746
    10  O    0.004097  -0.007497   0.018830   8.045926  -0.000337   0.000230
    11  O    0.002928   0.002105   0.451948  -0.000337   8.029606   0.000815
    12  H    0.002161  -0.000973   0.011746   0.000230   0.000815   0.429343
    13  O    0.001139  -0.000747  -0.001299  -0.126991  -0.000747  -0.000628
    14  H   -0.001583   0.000907  -0.007059  -0.015908   0.001167  -0.000297
    15  O   -0.000060  -0.006531   0.282511  -0.000056  -0.130702   0.000093
    16  H   -0.001119   0.001408   0.048448   0.000074  -0.002954   0.000124
              13         14         15         16
     1  N    0.046238   0.003298  -0.000810  -0.000476
     2  H   -0.001883  -0.000237   0.000022  -0.000131
     3  C   -0.368049  -0.078471  -0.023886   0.011587
     4  H    0.001894   0.002348   0.004110  -0.000501
     5  C   -0.017032  -0.007401  -0.232269  -0.047456
     6  C    0.311342   0.099678   0.003552  -0.003599
     7  H    0.001139  -0.001583  -0.000060  -0.001119
     8  H   -0.000747   0.000907  -0.006531   0.001408
     9  C   -0.001299  -0.007059   0.282511   0.048448
    10  O   -0.126991  -0.015908  -0.000056   0.000074
    11  O   -0.000747   0.001167  -0.130702  -0.002954
    12  H   -0.000628  -0.000297   0.000093   0.000124
    13  O    8.130790   0.203556   0.001862  -0.000385
    14  H    0.203556   0.493204  -0.000230  -0.000163
    15  O    0.001862  -0.000230   8.009289   0.252124
    16  H   -0.000385  -0.000163   0.252124   0.459249
 Mulliken charges:
               1
     1  N   -0.376645
     2  H    0.249337
     3  C   -0.279939
     4  H    0.281062
     5  C   -0.177306
     6  C   -0.026603
     7  H    0.221447
     8  H    0.245454
     9  C   -0.125427
    10  O   -0.256305
    11  O   -0.265388
    12  H    0.257428
    13  O   -0.179061
    14  H    0.307192
    15  O   -0.159017
    16  H    0.283770
 Sum of Mulliken charges =   0.00000
 Mulliken charges with hydrogens summed into heavy atoms:
               1
     1  N    0.130120
     3  C    0.001123
     5  C    0.289596
     6  C   -0.026603
     9  C   -0.125427
    10  O   -0.256305
    11  O   -0.265388
    13  O    0.128131
    15  O    0.124753
 Electronic spatial extent (au):  <R**2>=           1295.7755
 Charge=              0.0000 electrons
 Dipole moment (field-independent basis, Debye):
    X=             -0.7782    Y=             -0.5049    Z=             -1.3054  Tot=              1.6014
 Quadrupole moment (field-independent basis, Debye-Ang):
   XX=            -54.2179   YY=            -48.9281   ZZ=            -55.2755
   XY=              3.4764   XZ=              3.8718   YZ=             -0.2334
 Traceless Quadrupole moment (field-independent basis, Debye-Ang):
   XX=             -1.4107   YY=              3.8791   ZZ=             -2.4684
   XY=              3.4764   XZ=              3.8718   YZ=             -0.2334
 Octapole moment (field-independent basis, Debye-Ang**2):
  XXX=            -55.4511  YYY=            -38.7725  ZZZ=             -3.2979  XYY=              2.6314
  XXY=              3.5974  XXZ=              0.7440  XZZ=             15.8691  YZZ=              1.8344
  YYZ=             -1.8234  XYZ=             -0.6772
 Hexadecapole moment (field-independent basis, Debye-Ang**3):
 XXXX=           -933.8509 YYYY=           -370.3468 ZZZZ=           -176.2909 XXXY=             94.7864
 XXXZ=             23.7873 YYYX=            -30.8274 YYYZ=              1.1297 ZZZX=              5.4319
 ZZZY=              0.8845 XXYY=           -210.1951 XXZZ=           -216.8438 YYZZ=            -91.8623
 XXYZ=              2.1564 YYXZ=              1.9683 ZZXY=              6.4705
 N-N= 4.659636200520D+02 E-N=-2.134891421790D+03  KE= 5.102970169362D+02
 Calling FoFJK, ICntrl=      2127 FMM=F ISym2X=0 I1Cent= 0 IOpClX= 0 NMat=1 NMatS=1 NMatT=0.
 ***** Axes restored to original set *****
 -------------------------------------------------------------------
 Center     Atomic                   Forces (Hartrees/Bohr)
 Number     Number              X              Y              Z
 -------------------------------------------------------------------
      1        7          -0.008354596   -0.006058141   -0.000650682
      2        1           0.001282862    0.003294887   -0.004351978
      3        6           0.006197352   -0.002765257    0.001032455
      4        1           0.001100011    0.000421914    0.001860607
      5        6           0.002842633   -0.000225747   -0.000258891
      6        6           0.033196366    0.026791105    0.007343238
      7        1          -0.001274907    0.002316944   -0.000402702
      8        1           0.000018685   -0.000902291   -0.000800010
      9        6          -0.025610799    0.011347048   -0.032833462
     10        8          -0.044034961   -0.006379277   -0.008317955
     11        8           0.006749293   -0.005307127    0.044215049
     12        1          -0.000191231    0.004245993    0.003878819
     13        8           0.011413021   -0.004691944    0.001431779
     14        1          -0.000944030   -0.014540498   -0.001206716
     15        8           0.004604389   -0.001165241   -0.011788880
     16        1           0.013005913   -0.006382367    0.000849328
 -------------------------------------------------------------------
 Cartesian Forces:  Max     0.044215049 RMS     0.013535859

 GradGradGradGradGradGradGradGradGradGradGradGradGradGradGradGradGradGrad
 Berny optimization.
 FormGI is forming the generalized inverse of G from B-inverse, IUseBI=4.
 Internal  Forces:  Max     0.045265363 RMS     0.009128635
 Search for a local minimum.
 Step number   1 out of a maximum of   79
 All quantities printed in internal units (Hartrees-Bohrs-Radians)
 Mixed Optimization -- RFO/linear search
 Second derivative matrix not updated -- first step.
 ITU=  0
     Eigenvalues ---    0.00230   0.00373   0.00681   0.00751   0.00971
     Eigenvalues ---    0.00994   0.01979   0.01990   0.03290   0.03983
     Eigenvalues ---    0.04137   0.05373   0.05423   0.06341   0.09386
     Eigenvalues ---    0.12859   0.16000   0.16000   0.16000   0.16000
     Eigenvalues ---    0.17684   0.19017   0.21975   0.24982   0.25000
     Eigenvalues ---    0.25000   0.25000   0.27970   0.29447   0.31710
     Eigenvalues ---    0.33924   0.33987   0.34452   0.37663   0.45048
     Eigenvalues ---    0.45343   0.49411   0.49566   0.50943   0.50953
     Eigenvalues ---    0.89668   0.89805
 RFO step:  Lambda=-9.91564362D-03 EMin= 2.30000000D-03
 Linear search not attempted -- first point.
 Iteration  1 RMS(Cart)=  0.03513417 RMS(Int)=  0.00110802
 Iteration  2 RMS(Cart)=  0.00093041 RMS(Int)=  0.00065359
 Iteration  3 RMS(Cart)=  0.00000124 RMS(Int)=  0.00065359
 Iteration  4 RMS(Cart)=  0.00000001 RMS(Int)=  0.00065359
 Variable       Old X    -DE/DX   Delta X   Delta X   Delta X     New X
                                 (Linear)    (Quad)   (Total)
    R1        1.91920  -0.00341   0.00000  -0.00740  -0.00740   1.91179
    R2        2.74858  -0.00579   0.00000  -0.01498  -0.01498   2.73360
    R3        1.91579  -0.00338   0.00000  -0.00729  -0.00729   1.90850
    R4        2.07458  -0.00210   0.00000  -0.00601  -0.00601   2.06857
    R5        2.92204  -0.00080   0.00000  -0.00276  -0.00276   2.91928
    R6        2.89079   0.00076   0.00000   0.00248   0.00248   2.89328
    R7        2.07351  -0.00206   0.00000  -0.00588  -0.00588   2.06764
    R8        2.06574  -0.00106   0.00000  -0.00299  -0.00299   2.06274
    R9        2.84677   0.00013   0.00000   0.00041   0.00041   2.84718
   R10        2.33023  -0.04527   0.00000  -0.04985  -0.04985   2.28037
   R11        2.60464  -0.02142   0.00000  -0.04250  -0.04250   2.56215
   R12        2.33087  -0.04504   0.00000  -0.04968  -0.04968   2.28119
   R13        2.60306  -0.02153   0.00000  -0.04259  -0.04259   2.56047
   R14        1.85616  -0.01331   0.00000  -0.02562  -0.02562   1.83054
   R15        1.85626  -0.01325   0.00000  -0.02551  -0.02551   1.83074
    A1        1.98894  -0.00230   0.00000  -0.03527  -0.03736   1.95158
    A2        1.92788  -0.00012   0.00000  -0.03481  -0.03864   1.88924
    A3        1.98607  -0.00305   0.00000  -0.03973  -0.04183   1.94423
    A4        1.89148  -0.00013   0.00000  -0.00310  -0.00309   1.88838
    A5        1.94025  -0.00172   0.00000  -0.00731  -0.00733   1.93292
    A6        1.96438   0.00183   0.00000   0.01143   0.01144   1.97583
    A7        1.85917   0.00077   0.00000   0.00299   0.00298   1.86215
    A8        1.86359  -0.00087   0.00000  -0.00643  -0.00642   1.85717
    A9        1.93954   0.00010   0.00000   0.00185   0.00186   1.94140
   A10        1.85839   0.00054   0.00000   0.00452   0.00459   1.86298
   A11        1.96605  -0.00108   0.00000  -0.00106  -0.00113   1.96492
   A12        1.96580   0.00279   0.00000   0.01330   0.01328   1.97908
   A13        1.87631   0.00022   0.00000  -0.00282  -0.00284   1.87348
   A14        1.88309  -0.00233   0.00000  -0.01917  -0.01917   1.86392
   A15        1.90955  -0.00030   0.00000   0.00344   0.00337   1.91292
   A16        2.19156  -0.00006   0.00000  -0.00022  -0.00022   2.19134
   A17        1.95762  -0.00027   0.00000  -0.00105  -0.00106   1.95656
   A18        2.13401   0.00033   0.00000   0.00128   0.00127   2.13528
   A19        2.19938  -0.00027   0.00000  -0.00107  -0.00107   2.19832
   A20        1.94881  -0.00062   0.00000  -0.00241  -0.00241   1.94640
   A21        2.13396   0.00089   0.00000   0.00341   0.00341   2.13737
   A22        1.93485  -0.01124   0.00000  -0.06617  -0.06617   1.86868
   A23        1.92284  -0.01099   0.00000  -0.06466  -0.06466   1.85818
    D1        3.01452  -0.00247   0.00000  -0.05760  -0.05662   2.95790
    D2       -1.23113  -0.00259   0.00000  -0.05999  -0.05898  -1.29011
    D3        0.95757  -0.00240   0.00000  -0.05446  -0.05347   0.90409
    D4        0.78268   0.00255   0.00000   0.05968   0.05867   0.84135
    D5        2.82021   0.00243   0.00000   0.05729   0.05631   2.87652
    D6       -1.27428   0.00262   0.00000   0.06282   0.06182  -1.21246
    D7       -0.56955   0.00035   0.00000   0.00689   0.00690  -0.56264
    D8        1.48294   0.00035   0.00000   0.00571   0.00570   1.48864
    D9       -2.63015   0.00130   0.00000   0.01998   0.01998  -2.61017
   D10        1.48765  -0.00028   0.00000   0.00100   0.00100   1.48866
   D11       -2.74304  -0.00028   0.00000  -0.00019  -0.00020  -2.74324
   D12       -0.57295   0.00067   0.00000   0.01409   0.01408  -0.55887
   D13       -2.77205  -0.00082   0.00000  -0.00398  -0.00397  -2.77602
   D14       -0.71956  -0.00082   0.00000  -0.00517  -0.00517  -0.72474
   D15        1.45053   0.00013   0.00000   0.00911   0.00911   1.45964
   D16        0.12564   0.00027   0.00000  -0.00755  -0.00757   0.11807
   D17       -3.01693   0.00037   0.00000  -0.00190  -0.00192  -3.01885
   D18       -1.94770  -0.00006   0.00000  -0.00618  -0.00618  -1.95388
   D19        1.19291   0.00004   0.00000  -0.00053  -0.00052   1.19238
   D20        2.31473  -0.00053   0.00000  -0.00702  -0.00700   2.30773
   D21       -0.82784  -0.00043   0.00000  -0.00136  -0.00135  -0.82919
   D22        0.51027   0.00023   0.00000   0.00320   0.00314   0.51342
   D23       -2.67964   0.00021   0.00000   0.00178   0.00173  -2.67791
   D24       -1.53574  -0.00056   0.00000   0.00213   0.00218  -1.53356
   D25        1.55753  -0.00058   0.00000   0.00072   0.00076   1.55830
   D26        2.71114   0.00065   0.00000   0.01430   0.01431   2.72545
   D27       -0.47877   0.00063   0.00000   0.01289   0.01290  -0.46588
   D28       -3.12171  -0.00011   0.00000  -0.00473  -0.00473  -3.12645
   D29        0.01894  -0.00001   0.00000   0.00071   0.00071   0.01965
   D30       -3.10084   0.00021   0.00000   0.00671   0.00671  -3.09413
   D31       -0.00547   0.00015   0.00000   0.00522   0.00522  -0.00025
         Item               Value     Threshold  Converged?
 Maximum Force            0.045265     0.000450     NO 
 RMS     Force            0.009129     0.000300     NO 
 Maximum Displacement     0.134586     0.001800     NO 
 RMS     Displacement     0.035266     0.001200     NO 
 Predicted change in Energy=-5.136860D-03
 GradGradGradGradGradGradGradGradGradGradGradGradGradGradGradGradGradGrad

                          Input orientation:                          
 ---------------------------------------------------------------------
 Center     Atomic      Atomic             Coordinates (Angstroms)
 Number     Number       Type             X           Y           Z
 ---------------------------------------------------------------------
      1          7           0        1.605106   -1.807612   -0.035834
      2          1           0        2.054716   -1.760865    0.869239
      3          6           0        0.732418   -0.676267   -0.261674
      4          1           0        0.428312   -0.683684   -1.313198
      5          6           0       -0.559762   -0.806274    0.574884
      6          6           0        1.416895    0.671580   -0.018918
      7          1           0       -0.777747   -1.875565    0.653992
      8          1           0       -0.442411   -0.422172    1.589868
      9          6           0       -1.758965   -0.164277   -0.073026
     10          8           0        2.590276    0.830920    0.213392
     11          8           0       -1.942163   -0.040809   -1.259790
     12          1           0        2.323595   -1.865693   -0.743201
     13          8           0        0.543896    1.706706   -0.087178
     14          1           0        1.052227    2.517660    0.062144
     15          8           0       -2.674369    0.222011    0.848219
     16          1           0       -3.426180    0.581628    0.354250
 ---------------------------------------------------------------------
                    Distance matrix (angstroms):
                    1          2          3          4          5
     1  N    0.000000
     2  H    1.011678   0.000000
     3  C    1.446557   2.050314   0.000000
     4  H    2.068747   2.927207   1.094641   0.000000
     5  C    2.462175   2.798818   1.544818   2.134520   0.000000
     6  C    2.486384   2.666913   1.531056   2.118773   2.538470
     7  H    2.481625   2.842944   2.134797   2.597113   1.094147
     8  H    2.958830   2.923533   2.207486   3.042095   1.091558
     9  C    3.744183   4.240415   2.550434   2.567488   1.506663
    10  O    2.827459   2.726593   2.439044   3.049359   3.568448
    11  O    4.147623   4.844213   2.924624   2.456684   2.421363
    12  H    1.009935   1.638062   2.044125   2.305241   3.342673
    13  O    3.671407   3.901455   2.396779   2.688950   2.823377
    14  H    4.361565   4.467903   3.226190   3.539695   3.729604
    15  O    4.818176   5.128009   3.693909   3.888269   2.367201
    16  H    5.583410   5.982701   4.388121   4.386173   3.192382
                    6          7          8          9         10
     6  C    0.000000
     7  H    3.428879   0.000000
     8  H    2.691005   1.760870   0.000000
     9  C    3.284460   2.102343   2.136595   0.000000
    10  O    1.206722   4.343128   3.558386   4.470833   0.000000
    11  O    3.651101   2.895644   3.242721   1.207151   4.844913
    12  H    2.790062   3.401553   3.895863   4.473393   2.873659
    13  O    1.355829   3.889567   2.883991   2.967145   2.246111
    14  H    1.883497   4.795780   3.634624   3.887654   2.287698
    15  O    4.206243   2.834558   2.438575   1.354945   5.337626
    16  H    4.858264   3.625167   3.381899   1.875779   6.023266
                   11         12         13         14         15
    11  O    0.000000
    12  H    4.668379   0.000000
    13  O    3.257195   4.044716   0.000000
    14  H    4.154472   4.634516   0.968681   0.000000
    15  O    2.246976   5.645420   3.665585   4.446957   0.000000
    16  H    2.279223   6.344580   4.149959   4.887706   0.968788
                   16
    16  H    0.000000
 Stoichiometry    C4H7NO4
 Framework group  C1[X(C4H7NO4)]
 Deg. of freedom    42
 Full point group                 C1      NOp   1
 Largest Abelian subgroup         C1      NOp   1
 Largest concise Abelian subgroup C1      NOp   1
                         Standard orientation:                         
 ---------------------------------------------------------------------
 Center     Atomic      Atomic             Coordinates (Angstroms)
 Number     Number       Type             X           Y           Z
 ---------------------------------------------------------------------
      1          7           0        1.592677    1.820354    0.033998
      2          1           0        2.041497    1.776499   -0.871612
      3          6           0        0.731949    0.680553    0.263189
      4          1           0        0.429229    0.686850    1.315120
      5          6           0       -0.562647    0.795715   -0.571810
      6          6           0        1.429878   -0.660665    0.022022
      7          1           0       -0.791694    1.862562   -0.652631
      8          1           0       -0.442758    0.410907   -1.586230
      9          6           0       -1.754310    0.142689    0.078982
     10          8           0        2.604510   -0.808408   -0.211624
     11          8           0       -1.934600    0.019605    1.266231
     12          1           0        2.311505    1.887143    0.740251
     13          8           0        0.567634   -1.704555    0.093451
     14          1           0        1.084049   -2.510537   -0.055049
     15          8           0       -2.666970   -0.254714   -0.840255
     16          1           0       -3.414374   -0.621081   -0.344560
 ---------------------------------------------------------------------
 Rotational constants (GHZ):      2.6711119      1.0823548      0.9046860
 Standard basis: 6-311++G(d,p) (5D, 7F)
 There are   256 symmetry adapted cartesian basis functions of A   symmetry.
 There are   247 symmetry adapted basis functions of A   symmetry.
   247 basis functions,   387 primitive gaussians,   256 cartesian basis functions
    35 alpha electrons       35 beta electrons
       nuclear repulsion energy       469.4205479599 Hartrees.
 NAtoms=   16 NActive=   16 NUniq=   16 SFac= 1.00D+00 NAtFMM=   60 NAOKFM=F Big=F
 Integral buffers will be    131072 words long.
 Raffenetti 2 integral format.
 Two-electron integral symmetry is turned on.
 One-electron integrals computed using PRISM.
 NBasis=   247 RedAO= T EigKep=  1.70D-05  NBF=   247
 NBsUse=   247 1.00D-06 EigRej= -1.00D+00 NBFU=   247
 Initial guess from the checkpoint file:  "Asp-S-opt-6-311gdp.chk"
 B after Tr=     0.000000    0.000000    0.000000
         Rot=    0.999984    0.001467    0.000946   -0.005423 Ang=   0.65 deg.
 ExpMin= 3.60D-02 ExpMax= 8.59D+03 ExpMxC= 1.30D+03 IAcc=3 IRadAn=         5 AccDes= 0.00D+00
 Harris functional with IExCor=  402 and IRadAn=       5 diagonalized for initial guess.
 HarFok:  IExCor=  402 AccDes= 0.00D+00 IRadAn=         5 IDoV= 1 UseB2=F ITyADJ=14
 ICtDFT=  3500011 ScaDFX=  1.000000  1.000000  1.000000  1.000000
 FoFCou: FMM=F IPFlag=           0 FMFlag=      100000 FMFlg1=           0
         NFxFlg=           0 DoJE=T BraDBF=F KetDBF=T FulRan=T
         wScrn=  0.000000 ICntrl=     500 IOpCl=  0 I1Cent=   200000004 NGrid=           0
         NMat0=    1 NMatS0=      1 NMatT0=    0 NMatD0=    1 NMtDS0=    0 NMtDT0=    0
 Petite list used in FoFCou.
 Requested convergence on RMS density matrix=1.00D-08 within 128 cycles.
 Requested convergence on MAX density matrix=1.00D-06.
 Requested convergence on             energy=1.00D-06.
 No special actions if energy rises.
 SCF Done:  E(RB3LYP) =  -512.484001815     A.U. after   12 cycles
            NFock= 12  Conv=0.35D-08     -V/T= 2.0035
 Calling FoFJK, ICntrl=      2127 FMM=F ISym2X=0 I1Cent= 0 IOpClX= 0 NMat=1 NMatS=1 NMatT=0.
 ***** Axes restored to original set *****
 -------------------------------------------------------------------
 Center     Atomic                   Forces (Hartrees/Bohr)
 Number     Number              X              Y              Z
 -------------------------------------------------------------------
      1        7          -0.004059995   -0.005191932   -0.000575408
      2        1           0.002697777    0.000774929    0.001111467
      3        6          -0.001379007    0.000532801    0.000229481
      4        1          -0.000366234    0.000372987   -0.000231881
      5        6           0.003326166   -0.000062846   -0.000388801
      6        6           0.001757008    0.003818389    0.001318156
      7        1          -0.000259250   -0.000087880    0.000045185
      8        1           0.000096953   -0.000325115    0.000183745
      9        6          -0.003644508    0.001355438   -0.003098906
     10        8          -0.002868500   -0.001622495   -0.000869373
     11        8           0.001205762   -0.000565985    0.003483474
     12        1           0.003206003    0.000920889   -0.000089975
     13        8           0.000996776   -0.001359969   -0.000454365
     14        1          -0.000256670    0.001117579    0.000091137
     15        8           0.000807205   -0.000071940   -0.001209574
     16        1          -0.001259486    0.000395151    0.000455640
 -------------------------------------------------------------------
 Cartesian Forces:  Max     0.005191932 RMS     0.001803494

 GradGradGradGradGradGradGradGradGradGradGradGradGradGradGradGradGradGrad
 Berny optimization.
 Using GEDIIS/GDIIS optimizer.
 FormGI is forming the generalized inverse of G from B-inverse, IUseBI=4.
 Internal  Forces:  Max     0.003914903 RMS     0.001106766
 Search for a local minimum.
 Step number   2 out of a maximum of   79
 All quantities printed in internal units (Hartrees-Bohrs-Radians)
 Mixed Optimization -- RFO/linear search
 Update second derivatives using D2CorX and points    1    2
 DE= -5.31D-03 DEPred=-5.14D-03 R= 1.03D+00
 TightC=F SS=  1.41D+00  RLast= 2.14D-01 DXNew= 5.0454D-01 6.4187D-01
 Trust test= 1.03D+00 RLast= 2.14D-01 DXMaxT set to 5.05D-01
 ITU=  1  0
 Use linear search instead of GDIIS.
     Eigenvalues ---    0.00230   0.00372   0.00681   0.00752   0.00971
     Eigenvalues ---    0.00996   0.01979   0.01989   0.03764   0.03891
     Eigenvalues ---    0.04102   0.05398   0.05399   0.06326   0.09525
     Eigenvalues ---    0.12945   0.15995   0.16000   0.16000   0.17017
     Eigenvalues ---    0.17650   0.19144   0.21928   0.24955   0.24994
     Eigenvalues ---    0.25000   0.25031   0.27960   0.29418   0.31672
     Eigenvalues ---    0.33937   0.33998   0.34454   0.38018   0.45067
     Eigenvalues ---    0.45348   0.49411   0.49827   0.50948   0.52219
     Eigenvalues ---    0.85123   0.89757
 RFO step:  Lambda=-4.54738602D-04 EMin= 2.30240229D-03
 Quartic linear search produced a step of  0.04126.
 Iteration  1 RMS(Cart)=  0.02888404 RMS(Int)=  0.00050508
 Iteration  2 RMS(Cart)=  0.00067826 RMS(Int)=  0.00012828
 Iteration  3 RMS(Cart)=  0.00000026 RMS(Int)=  0.00012828
 Variable       Old X    -DE/DX   Delta X   Delta X   Delta X     New X
                                 (Linear)    (Quad)   (Total)
    R1        1.91179   0.00223  -0.00031   0.00512   0.00482   1.91661
    R2        2.73360   0.00391  -0.00062   0.01077   0.01016   2.74375
    R3        1.90850   0.00229  -0.00030   0.00524   0.00494   1.91344
    R4        2.06857   0.00032  -0.00025   0.00098   0.00074   2.06931
    R5        2.91928  -0.00056  -0.00011  -0.00209  -0.00220   2.91708
    R6        2.89328   0.00157   0.00010   0.00552   0.00562   2.89890
    R7        2.06764   0.00014  -0.00024   0.00043   0.00018   2.06782
    R8        2.06274   0.00007  -0.00012   0.00020   0.00008   2.06282
    R9        2.84718   0.00293   0.00002   0.00958   0.00960   2.85678
   R10        2.28037  -0.00317  -0.00206  -0.00380  -0.00586   2.27452
   R11        2.56215  -0.00064  -0.00175  -0.00142  -0.00317   2.55898
   R12        2.28119  -0.00367  -0.00205  -0.00438  -0.00643   2.27476
   R13        2.56047  -0.00011  -0.00176  -0.00030  -0.00206   2.55842
   R14        1.83054   0.00081  -0.00106   0.00162   0.00056   1.83110
   R15        1.83074   0.00089  -0.00105   0.00177   0.00072   1.83146
    A1        1.95158  -0.00002  -0.00154  -0.00905  -0.01092   1.94066
    A2        1.88924  -0.00142  -0.00159  -0.02543  -0.02766   1.86158
    A3        1.94423  -0.00004  -0.00173  -0.00921  -0.01127   1.93297
    A4        1.88838   0.00006  -0.00013   0.00293   0.00280   1.89119
    A5        1.93292   0.00017  -0.00030   0.00210   0.00179   1.93472
    A6        1.97583   0.00030   0.00047   0.00251   0.00298   1.97881
    A7        1.86215   0.00002   0.00012  -0.00116  -0.00105   1.86110
    A8        1.85717  -0.00017  -0.00026  -0.00412  -0.00440   1.85277
    A9        1.94140  -0.00040   0.00008  -0.00255  -0.00248   1.93891
   A10        1.86298  -0.00005   0.00019  -0.00038  -0.00019   1.86279
   A11        1.96492  -0.00030  -0.00005  -0.00052  -0.00058   1.96434
   A12        1.97908   0.00086   0.00055   0.00484   0.00539   1.98447
   A13        1.87348  -0.00001  -0.00012  -0.00275  -0.00287   1.87061
   A14        1.86392  -0.00042  -0.00079  -0.00302  -0.00381   1.86011
   A15        1.91292  -0.00014   0.00014   0.00117   0.00130   1.91422
   A16        2.19134  -0.00166  -0.00001  -0.00683  -0.00715   2.18419
   A17        1.95656   0.00051  -0.00004   0.00216   0.00180   1.95836
   A18        2.13528   0.00116   0.00005   0.00486   0.00459   2.13987
   A19        2.19832  -0.00116  -0.00004  -0.00478  -0.00482   2.19350
   A20        1.94640   0.00079  -0.00010   0.00332   0.00322   1.94961
   A21        2.13737   0.00038   0.00014   0.00164   0.00178   2.13915
   A22        1.86868   0.00148  -0.00273   0.00984   0.00711   1.87579
   A23        1.85818   0.00195  -0.00267   0.01288   0.01021   1.86839
    D1        2.95790  -0.00087  -0.00234  -0.01199  -0.01416   2.94375
    D2       -1.29011  -0.00071  -0.00243  -0.01050  -0.01277  -1.30288
    D3        0.90409  -0.00087  -0.00221  -0.01029  -0.01233   0.89177
    D4        0.84135   0.00100   0.00242   0.03356   0.03581   0.87716
    D5        2.87652   0.00116   0.00232   0.03505   0.03720   2.91372
    D6       -1.21246   0.00099   0.00255   0.03526   0.03764  -1.17482
    D7       -0.56264   0.00000   0.00028  -0.02326  -0.02297  -0.58562
    D8        1.48864  -0.00020   0.00024  -0.02713  -0.02690   1.46174
    D9       -2.61017   0.00007   0.00082  -0.02203  -0.02120  -2.63137
   D10        1.48866   0.00018   0.00004  -0.01931  -0.01927   1.46939
   D11       -2.74324  -0.00002  -0.00001  -0.02318  -0.02319  -2.76644
   D12       -0.55887   0.00025   0.00058  -0.01808  -0.01750  -0.57637
   D13       -2.77602  -0.00022  -0.00016  -0.02622  -0.02638  -2.80240
   D14       -0.72474  -0.00042  -0.00021  -0.03009  -0.03031  -0.75504
   D15        1.45964  -0.00015   0.00038  -0.02499  -0.02461   1.43503
   D16        0.11807   0.00005  -0.00031  -0.00634  -0.00670   0.11137
   D17       -3.01885  -0.00030  -0.00008  -0.05261  -0.05264  -3.07149
   D18       -1.95388  -0.00009  -0.00025  -0.00868  -0.00898  -1.96285
   D19        1.19238  -0.00044  -0.00002  -0.05495  -0.05492   1.13747
   D20        2.30773   0.00019  -0.00029  -0.00362  -0.00395   2.30378
   D21       -0.82919  -0.00016  -0.00006  -0.04988  -0.04990  -0.87909
   D22        0.51342  -0.00003   0.00013  -0.00508  -0.00496   0.50846
   D23       -2.67791   0.00002   0.00007  -0.00084  -0.00078  -2.67869
   D24       -1.53356  -0.00018   0.00009  -0.00539  -0.00530  -1.53886
   D25        1.55830  -0.00013   0.00003  -0.00115  -0.00111   1.55718
   D26        2.72545   0.00012   0.00059  -0.00111  -0.00051   2.72494
   D27       -0.46588   0.00017   0.00053   0.00314   0.00367  -0.46221
   D28       -3.12645   0.00012  -0.00020   0.02026   0.02020  -3.10625
   D29        0.01965  -0.00021   0.00003  -0.02426  -0.02436  -0.00472
   D30       -3.09413   0.00013   0.00028   0.00443   0.00470  -3.08944
   D31       -0.00025   0.00013   0.00022   0.00829   0.00851   0.00825
         Item               Value     Threshold  Converged?
 Maximum Force            0.003915     0.000450     NO 
 RMS     Force            0.001107     0.000300     NO 
 Maximum Displacement     0.104386     0.001800     NO 
 RMS     Displacement     0.028843     0.001200     NO 
 Predicted change in Energy=-2.447618D-04
 GradGradGradGradGradGradGradGradGradGradGradGradGradGradGradGradGradGrad

                          Input orientation:                          
 ---------------------------------------------------------------------
 Center     Atomic      Atomic             Coordinates (Angstroms)
 Number     Number       Type             X           Y           Z
 ---------------------------------------------------------------------
      1          7           0        1.611265   -1.817630   -0.032938
      2          1           0        2.060384   -1.759457    0.874566
      3          6           0        0.733043   -0.683450   -0.257592
      4          1           0        0.434529   -0.681798   -1.311147
      5          6           0       -0.563554   -0.820364    0.568818
      6          6           0        1.409358    0.669789   -0.003443
      7          1           0       -0.792966   -1.889055    0.620209
      8          1           0       -0.445478   -0.466279    1.594620
      9          6           0       -1.761961   -0.152015   -0.065611
     10          8           0        2.577445    0.825401    0.241640
     11          8           0       -1.935940    0.002982   -1.246593
     12          1           0        2.352235   -1.839755   -0.722666
     13          8           0        0.547090    1.705600   -0.135037
     14          1           0        1.049249    2.522060    0.006906
     15          8           0       -2.677274    0.218463    0.860605
     16          1           0       -3.431583    0.592792    0.380831
 ---------------------------------------------------------------------
                    Distance matrix (angstroms):
                    1          2          3          4          5
     1  N    0.000000
     2  H    1.014227   0.000000
     3  C    1.451932   2.049733   0.000000
     4  H    2.075726   2.929521   1.095030   0.000000
     5  C    2.467080   2.803646   1.543652   2.132988   0.000000
     6  C    2.495774   2.663826   1.534031   2.118294   2.537798
     7  H    2.492394   2.867595   2.133710   2.587344   1.094245
     8  H    2.950472   2.910349   2.206074   3.043738   1.091599
     9  C    3.762179   4.251838   2.558188   2.580039   1.511744
    10  O    2.827457   2.710985   2.434684   3.045470   3.561104
    11  O    4.167763   4.855524   2.927932   2.468241   2.420137
    12  H    1.012547   1.625661   2.043310   2.316197   3.347972
    13  O    3.681853   3.913563   2.399408   2.663752   2.847707
    14  H    4.376112   4.484040   3.231910   3.518501   3.753489
    15  O    4.830699   5.133982   3.700550   3.900038   2.373208
    16  H    5.604610   5.994877   4.402327   4.408423   3.202802
                    6          7          8          9         10
     6  C    0.000000
     7  H    3.433199   0.000000
     8  H    2.699050   1.759124   0.000000
     9  C    3.276658   2.103951   2.142022   0.000000
    10  O    1.203624   4.344106   3.554864   4.458721   0.000000
    11  O    3.630575   2.893293   3.242557   1.203749   4.823055
    12  H    2.775628   3.420238   3.883742   4.495197   2.843179
    13  O    1.354152   3.909947   2.948552   2.964333   2.244767
    14  H    1.886980   4.819526   3.699353   3.880572   2.295460
    15  O    4.201289   2.837259   2.447154   1.353856   5.325746
    16  H    4.856779   3.630312   3.392895   1.881936   6.015139
                   11         12         13         14         15
    11  O    0.000000
    12  H    4.696661   0.000000
    13  O    3.209347   4.021616   0.000000
    14  H    4.102240   4.610367   0.968978   0.000000
    15  O    2.244169   5.660298   3.687736   4.463444   0.000000
    16  H    2.287648   6.370835   4.163448   4.892826   0.969168
                   16
    16  H    0.000000
 Stoichiometry    C4H7NO4
 Framework group  C1[X(C4H7NO4)]
 Deg. of freedom    42
 Full point group                 C1      NOp   1
 Largest Abelian subgroup         C1      NOp   1
 Largest concise Abelian subgroup C1      NOp   1
                         Standard orientation:                         
 ---------------------------------------------------------------------
 Center     Atomic      Atomic             Coordinates (Angstroms)
 Number     Number       Type             X           Y           Z
 ---------------------------------------------------------------------
      1          7           0        1.613804    1.818754    0.071474
      2          1           0        2.060877    1.779882   -0.838070
      3          6           0        0.739085    0.677994    0.275534
      4          1           0        0.443127    0.654538    1.329550
      5          6           0       -0.559859    0.827922   -0.544909
      6          6           0        1.418306   -0.668109   -0.007162
      7          1           0       -0.792178    1.896813   -0.574426
      8          1           0       -0.443343    0.494680   -1.577847
      9          6           0       -1.754983    0.143876    0.078895
     10          8           0        2.586199   -0.815704   -0.258064
     11          8           0       -1.925700   -0.035104    1.256959
     12          1           0        2.356380    1.829084    0.759750
     13          8           0        0.559060   -1.708622    0.105782
     14          1           0        1.063000   -2.520754   -0.053608
     15          8           0       -2.671566   -0.210483   -0.852359
     16          1           0       -3.423734   -0.596305   -0.378364
 ---------------------------------------------------------------------
 Rotational constants (GHZ):      2.6609185      1.0842550      0.9049078
 Standard basis: 6-311++G(d,p) (5D, 7F)
 There are   256 symmetry adapted cartesian basis functions of A   symmetry.
 There are   247 symmetry adapted basis functions of A   symmetry.
   247 basis functions,   387 primitive gaussians,   256 cartesian basis functions
    35 alpha electrons       35 beta electrons
       nuclear repulsion energy       469.3422418456 Hartrees.
 NAtoms=   16 NActive=   16 NUniq=   16 SFac= 1.00D+00 NAtFMM=   60 NAOKFM=F Big=F
 Integral buffers will be    131072 words long.
 Raffenetti 2 integral format.
 Two-electron integral symmetry is turned on.
 One-electron integrals computed using PRISM.
 NBasis=   247 RedAO= T EigKep=  1.73D-05  NBF=   247
 NBsUse=   247 1.00D-06 EigRej= -1.00D+00 NBFU=   247
 Initial guess from the checkpoint file:  "Asp-S-opt-6-311gdp.chk"
 B after Tr=     0.000000    0.000000    0.000000
         Rot=    0.999932   -0.011303   -0.000802    0.002623 Ang=  -1.33 deg.
 ExpMin= 3.60D-02 ExpMax= 8.59D+03 ExpMxC= 1.30D+03 IAcc=3 IRadAn=         5 AccDes= 0.00D+00
 Harris functional with IExCor=  402 and IRadAn=       5 diagonalized for initial guess.
 HarFok:  IExCor=  402 AccDes= 0.00D+00 IRadAn=         5 IDoV= 1 UseB2=F ITyADJ=14
 ICtDFT=  3500011 ScaDFX=  1.000000  1.000000  1.000000  1.000000
 FoFCou: FMM=F IPFlag=           0 FMFlag=      100000 FMFlg1=           0
         NFxFlg=           0 DoJE=T BraDBF=F KetDBF=T FulRan=T
         wScrn=  0.000000 ICntrl=     500 IOpCl=  0 I1Cent=   200000004 NGrid=           0
         NMat0=    1 NMatS0=      1 NMatT0=    0 NMatD0=    1 NMtDS0=    0 NMtDT0=    0
 Petite list used in FoFCou.
 Requested convergence on RMS density matrix=1.00D-08 within 128 cycles.
 Requested convergence on MAX density matrix=1.00D-06.
 Requested convergence on             energy=1.00D-06.
 No special actions if energy rises.
 SCF Done:  E(RB3LYP) =  -512.484180845     A.U. after   11 cycles
            NFock= 11  Conv=0.82D-08     -V/T= 2.0035
 Calling FoFJK, ICntrl=      2127 FMM=F ISym2X=0 I1Cent= 0 IOpClX= 0 NMat=1 NMatS=1 NMatT=0.
 ***** Axes restored to original set *****
 -------------------------------------------------------------------
 Center     Atomic                   Forces (Hartrees/Bohr)
 Number     Number              X              Y              Z
 -------------------------------------------------------------------
      1        7          -0.001939297   -0.001730152   -0.000072121
      2        1           0.000758517    0.000336561    0.000813284
      3        6          -0.001895085    0.001334317    0.001234143
      4        1           0.000084371    0.000117005   -0.000003858
      5        6           0.001084029   -0.000539979   -0.000042569
      6        6          -0.000438534    0.000808741   -0.005462475
      7        1          -0.000250489   -0.000202144    0.000214865
      8        1           0.000065388   -0.000153187    0.000262839
      9        6          -0.000186033    0.000641682    0.000260586
     10        8           0.001793285   -0.000266329    0.002418346
     11        8          -0.000022843   -0.000409209   -0.001565827
     12        1           0.001195637    0.000603156   -0.000318566
     13        8          -0.000403852   -0.000834614    0.001408949
     14        1           0.000055086    0.000463762    0.000123229
     15        8           0.000334025   -0.000271653    0.000802307
     16        1          -0.000234205    0.000102042   -0.000073132
 -------------------------------------------------------------------
 Cartesian Forces:  Max     0.005462475 RMS     0.001168753

 GradGradGradGradGradGradGradGradGradGradGradGradGradGradGradGradGradGrad
 Berny optimization.
 Using GEDIIS/GDIIS optimizer.
 FormGI is forming the generalized inverse of G from B-inverse, IUseBI=4.
 Internal  Forces:  Max     0.002198226 RMS     0.000597614
 Search for a local minimum.
 Step number   3 out of a maximum of   79
 All quantities printed in internal units (Hartrees-Bohrs-Radians)
 Mixed Optimization -- En-DIIS/RFO-DIIS
 Update second derivatives using D2CorX and points    1    2    3
 DE= -1.79D-04 DEPred=-2.45D-04 R= 7.31D-01
 TightC=F SS=  1.41D+00  RLast= 1.45D-01 DXNew= 8.4853D-01 4.3543D-01
 Trust test= 7.31D-01 RLast= 1.45D-01 DXMaxT set to 5.05D-01
 ITU=  1  1  0
 Use linear search instead of GDIIS.
     Eigenvalues ---    0.00235   0.00344   0.00681   0.00889   0.00992
     Eigenvalues ---    0.01316   0.01976   0.02002   0.03323   0.03857
     Eigenvalues ---    0.04172   0.05387   0.05472   0.06344   0.09559
     Eigenvalues ---    0.12924   0.15983   0.15997   0.16053   0.16774
     Eigenvalues ---    0.17688   0.19469   0.21982   0.23964   0.24986
     Eigenvalues ---    0.25000   0.25592   0.27803   0.29214   0.31266
     Eigenvalues ---    0.33941   0.34002   0.34460   0.36948   0.43982
     Eigenvalues ---    0.45209   0.49364   0.49910   0.50953   0.52086
     Eigenvalues ---    0.89139   0.91685
 RFO step:  Lambda=-6.42736216D-04 EMin= 2.35309013D-03
 Quartic linear search produced a step of -0.20223.
 Iteration  1 RMS(Cart)=  0.02548794 RMS(Int)=  0.00111397
 Iteration  2 RMS(Cart)=  0.00135773 RMS(Int)=  0.00057923
 Iteration  3 RMS(Cart)=  0.00000097 RMS(Int)=  0.00057923
 Variable       Old X    -DE/DX   Delta X   Delta X   Delta X     New X
                                 (Linear)    (Quad)   (Total)
    R1        1.91661   0.00108  -0.00097   0.00863   0.00766   1.92427
    R2        2.74375   0.00069  -0.00205   0.01568   0.01363   2.75738
    R3        1.91344   0.00108  -0.00100   0.00879   0.00780   1.92123
    R4        2.06931  -0.00002  -0.00015   0.00068   0.00054   2.06984
    R5        2.91708  -0.00066   0.00045  -0.00532  -0.00488   2.91220
    R6        2.89890   0.00034  -0.00114   0.00945   0.00832   2.90721
    R7        2.06782   0.00026  -0.00004   0.00052   0.00048   2.06830
    R8        2.06282   0.00021  -0.00002   0.00040   0.00039   2.06321
    R9        2.85678   0.00036  -0.00194   0.01523   0.01329   2.87007
   R10        2.27452   0.00220   0.00118  -0.00987  -0.00868   2.26584
   R11        2.55898  -0.00021   0.00064  -0.00768  -0.00704   2.55194
   R12        2.27476   0.00149   0.00130  -0.01133  -0.01003   2.26472
   R13        2.55842   0.00039   0.00042  -0.00507  -0.00465   2.55377
   R14        1.83110   0.00044  -0.00011  -0.00006  -0.00017   1.83093
   R15        1.83146   0.00026  -0.00015  -0.00009  -0.00024   1.83122
    A1        1.94066  -0.00023   0.00221  -0.02188  -0.02024   1.92042
    A2        1.86158  -0.00017   0.00559  -0.04891  -0.04456   1.81702
    A3        1.93297  -0.00045   0.00228  -0.02380  -0.02209   1.91087
    A4        1.89119   0.00028  -0.00057   0.00475   0.00418   1.89537
    A5        1.93472  -0.00074  -0.00036  -0.00173  -0.00209   1.93262
    A6        1.97881  -0.00029  -0.00060   0.00260   0.00199   1.98080
    A7        1.86110   0.00012   0.00021   0.00120   0.00142   1.86251
    A8        1.85277  -0.00020   0.00089  -0.00644  -0.00555   1.84722
    A9        1.93891   0.00087   0.00050  -0.00046   0.00005   1.93896
   A10        1.86279   0.00037   0.00004   0.00203   0.00208   1.86488
   A11        1.96434  -0.00012   0.00012  -0.00134  -0.00125   1.96309
   A12        1.98447  -0.00017  -0.00109   0.00853   0.00743   1.99189
   A13        1.87061  -0.00016   0.00058  -0.00603  -0.00545   1.86516
   A14        1.86011  -0.00023   0.00077  -0.00879  -0.00801   1.85209
   A15        1.91422   0.00029  -0.00026   0.00408   0.00380   1.91802
   A16        2.18419  -0.00033   0.00145  -0.01002  -0.01106   2.17313
   A17        1.95836  -0.00018  -0.00036   0.00386   0.00097   1.95933
   A18        2.13987   0.00058  -0.00093   0.01069   0.00719   2.14706
   A19        2.19350  -0.00010   0.00098  -0.00782  -0.00688   2.18662
   A20        1.94961  -0.00084  -0.00065   0.00174   0.00106   1.95068
   A21        2.13915   0.00093  -0.00036   0.00554   0.00515   2.14430
   A22        1.87579   0.00034  -0.00144   0.00814   0.00670   1.88249
   A23        1.86839   0.00012  -0.00206   0.01177   0.00970   1.87809
    D1        2.94375  -0.00025   0.00286  -0.02096  -0.01775   2.92600
    D2       -1.30288  -0.00035   0.00258  -0.01766  -0.01473  -1.31761
    D3        0.89177  -0.00001   0.00249  -0.01764  -0.01480   0.87696
    D4        0.87716   0.00040  -0.00724   0.06952   0.06194   0.93910
    D5        2.91372   0.00030  -0.00752   0.07282   0.06495   2.97867
    D6       -1.17482   0.00065  -0.00761   0.07284   0.06488  -1.10994
    D7       -0.58562  -0.00004   0.00465  -0.00311   0.00154  -0.58408
    D8        1.46174  -0.00007   0.00544  -0.00992  -0.00448   1.45726
    D9       -2.63137   0.00010   0.00429   0.00157   0.00585  -2.62552
   D10        1.46939  -0.00003   0.00390   0.00236   0.00626   1.47565
   D11       -2.76644  -0.00006   0.00469  -0.00445   0.00024  -2.76620
   D12       -0.57637   0.00011   0.00354   0.00703   0.01057  -0.56580
   D13       -2.80240   0.00025   0.00534  -0.00485   0.00049  -2.80191
   D14       -0.75504   0.00022   0.00613  -0.01166  -0.00553  -0.76057
   D15        1.43503   0.00038   0.00498  -0.00018   0.00480   1.43983
   D16        0.11137  -0.00079   0.00135  -0.09997  -0.09836   0.01301
   D17       -3.07149   0.00116   0.01065   0.02230   0.03269  -3.03880
   D18       -1.96285  -0.00084   0.00182  -0.10308  -0.10101  -2.06386
   D19        1.13747   0.00111   0.01111   0.01919   0.03004   1.16751
   D20        2.30378  -0.00131   0.00080  -0.10063  -0.09957   2.20420
   D21       -0.87909   0.00064   0.01009   0.02164   0.03148  -0.84761
   D22        0.50846   0.00033   0.00100   0.01580   0.01677   0.52523
   D23       -2.67869   0.00009   0.00016   0.00278   0.00293  -2.67575
   D24       -1.53886   0.00012   0.00107   0.01421   0.01527  -1.52359
   D25        1.55718  -0.00013   0.00023   0.00119   0.00144   1.55862
   D26        2.72494   0.00028   0.00010   0.02399   0.02409   2.74903
   D27       -0.46221   0.00004  -0.00074   0.01097   0.01026  -0.45195
   D28       -3.10625  -0.00101  -0.00408  -0.06512  -0.06978   3.10716
   D29       -0.00472   0.00086   0.00493   0.05301   0.05851   0.05379
   D30       -3.08944   0.00014  -0.00095   0.01676   0.01585  -3.07358
   D31        0.00825  -0.00013  -0.00172   0.00381   0.00205   0.01030
         Item               Value     Threshold  Converged?
 Maximum Force            0.002198     0.000450     NO 
 RMS     Force            0.000598     0.000300     NO 
 Maximum Displacement     0.084303     0.001800     NO 
 RMS     Displacement     0.025504     0.001200     NO 
 Predicted change in Energy=-3.494302D-04
 GradGradGradGradGradGradGradGradGradGradGradGradGradGradGradGradGradGrad

                          Input orientation:                          
 ---------------------------------------------------------------------
 Center     Atomic      Atomic             Coordinates (Angstroms)
 Number     Number       Type             X           Y           Z
 ---------------------------------------------------------------------
      1          7           0        1.607106   -1.833422   -0.039426
      2          1           0        2.065174   -1.741736    0.865370
      3          6           0        0.731536   -0.690088   -0.274516
      4          1           0        0.426247   -0.694385   -1.326416
      5          6           0       -0.557519   -0.809141    0.561586
      6          6           0        1.418778    0.666583   -0.042323
      7          1           0       -0.793753   -1.875632    0.630260
      8          1           0       -0.427231   -0.447124    1.583350
      9          6           0       -1.770442   -0.148462   -0.070084
     10          8           0        2.564106    0.800507    0.286251
     11          8           0       -1.959854   -0.030627   -1.247580
     12          1           0        2.373067   -1.817058   -0.707751
     13          8           0        0.556135    1.700771   -0.142123
     14          1           0        1.046003    2.515446    0.045169
     15          8           0       -2.671338    0.238666    0.859854
     16          1           0       -3.442173    0.592988    0.391547
 ---------------------------------------------------------------------
                    Distance matrix (angstroms):
                    1          2          3          4          5
     1  N    0.000000
     2  H    1.018277   0.000000
     3  C    1.459144   2.045457   0.000000
     4  H    2.085228   2.930351   1.095314   0.000000
     5  C    2.469001   2.800096   1.541072   2.132021   0.000000
     6  C    2.507090   2.653627   1.538432   2.118076   2.539334
     7  H    2.492868   2.871702   2.133224   2.590816   1.094498
     8  H    2.948517   2.898896   2.203052   3.042417   1.091803
     9  C    3.774634   4.257411   2.568082   2.588792   1.518778
    10  O    2.821257   2.654677   2.427889   3.066893   3.522970
    11  O    4.175273   4.857294   2.936890   2.477956   2.417790
    12  H    1.016672   1.604738   2.037738   2.330933   3.348947
    13  O    3.688578   3.891413   2.400938   2.675106   2.834624
    14  H    4.385731   4.453654   3.236748   3.545187   3.727043
    15  O    4.838113   5.133865   3.705258   3.904535   2.378044
    16  H    5.618578   6.000527   4.416987   4.424184   3.211870
                    6          7          8          9         10
     6  C    0.000000
     7  H    3.436644   0.000000
     8  H    2.700168   1.755948   0.000000
     9  C    3.291837   2.104167   2.151106   0.000000
    10  O    1.199030   4.307584   3.491010   4.451496   0.000000
    11  O    3.654299   2.879257   3.246008   1.198440   4.848673
    12  H    2.742614   3.438380   3.868789   4.512150   2.806453
    13  O    1.350429   3.899928   2.925358   2.972846   2.241858
    14  H    1.888097   4.796728   3.648731   3.878408   2.302992
    15  O    4.210236   2.836951   2.455559   1.351394   5.296655
    16  H    4.880830   3.628387   3.404717   1.886143   6.010785
                   11         12         13         14         15
    11  O    0.000000
    12  H    4.717727   0.000000
    13  O    3.248072   3.999537   0.000000
    14  H    4.145945   4.593318   0.968888   0.000000
    15  O    2.240537   5.668281   3.682159   4.434643   0.000000
    16  H    2.296281   6.390132   4.183116   4.894849   0.969042
                   16
    16  H    0.000000
 Stoichiometry    C4H7NO4
 Framework group  C1[X(C4H7NO4)]
 Deg. of freedom    42
 Full point group                 C1      NOp   1
 Largest Abelian subgroup         C1      NOp   1
 Largest concise Abelian subgroup C1      NOp   1
                         Standard orientation:                         
 ---------------------------------------------------------------------
 Center     Atomic      Atomic             Coordinates (Angstroms)
 Number     Number       Type             X           Y           Z
 ---------------------------------------------------------------------
      1          7           0        1.619870    1.822828    0.053286
      2          1           0        2.079401    1.733532   -0.851008
      3          6           0        0.741704    0.680327    0.282668
      4          1           0        0.434519    0.681413    1.334024
      5          6           0       -0.545606    0.804853   -0.555323
      6          6           0        1.426785   -0.676807    0.046821
      7          1           0       -0.779688    1.872033   -0.620575
      8          1           0       -0.414157    0.446274   -1.578150
      9          6           0       -1.760925    0.144215    0.071769
     10          8           0        2.572449   -0.811730   -0.280167
     11          8           0       -1.952693    0.022497    1.248488
     12          1           0        2.384586    1.802594    0.722929
     13          8           0        0.561998   -1.709700    0.141331
     14          1           0        1.050654   -2.524627   -0.048016
     15          8           0       -2.660870   -0.237838   -0.861185
     16          1           0       -3.433224   -0.592375   -0.395551
 ---------------------------------------------------------------------
 Rotational constants (GHZ):      2.6584316      1.0819422      0.9044521
 Standard basis: 6-311++G(d,p) (5D, 7F)
 There are   256 symmetry adapted cartesian basis functions of A   symmetry.
 There are   247 symmetry adapted basis functions of A   symmetry.
   247 basis functions,   387 primitive gaussians,   256 cartesian basis functions
    35 alpha electrons       35 beta electrons
       nuclear repulsion energy       469.2899562127 Hartrees.
 NAtoms=   16 NActive=   16 NUniq=   16 SFac= 1.00D+00 NAtFMM=   60 NAOKFM=F Big=F
 Integral buffers will be    131072 words long.
 Raffenetti 2 integral format.
 Two-electron integral symmetry is turned on.
 One-electron integrals computed using PRISM.
 NBasis=   247 RedAO= T EigKep=  1.72D-05  NBF=   247
 NBsUse=   247 1.00D-06 EigRej= -1.00D+00 NBFU=   247
 Initial guess from the checkpoint file:  "Asp-S-opt-6-311gdp.chk"
 B after Tr=     0.000000    0.000000    0.000000
         Rot=    0.999956    0.009196    0.001647    0.001007 Ang=   1.08 deg.
 ExpMin= 3.60D-02 ExpMax= 8.59D+03 ExpMxC= 1.30D+03 IAcc=3 IRadAn=         5 AccDes= 0.00D+00
 Harris functional with IExCor=  402 and IRadAn=       5 diagonalized for initial guess.
 HarFok:  IExCor=  402 AccDes= 0.00D+00 IRadAn=         5 IDoV= 1 UseB2=F ITyADJ=14
 ICtDFT=  3500011 ScaDFX=  1.000000  1.000000  1.000000  1.000000
 FoFCou: FMM=F IPFlag=           0 FMFlag=      100000 FMFlg1=           0
         NFxFlg=           0 DoJE=T BraDBF=F KetDBF=T FulRan=T
         wScrn=  0.000000 ICntrl=     500 IOpCl=  0 I1Cent=   200000004 NGrid=           0
         NMat0=    1 NMatS0=      1 NMatT0=    0 NMatD0=    1 NMtDS0=    0 NMtDT0=    0
 Petite list used in FoFCou.
 Requested convergence on RMS density matrix=1.00D-08 within 128 cycles.
 Requested convergence on MAX density matrix=1.00D-06.
 Requested convergence on             energy=1.00D-06.
 No special actions if energy rises.
 SCF Done:  E(RB3LYP) =  -512.483615992     A.U. after   12 cycles
            NFock= 12  Conv=0.33D-08     -V/T= 2.0034
 Calling FoFJK, ICntrl=      2127 FMM=F ISym2X=0 I1Cent= 0 IOpClX= 0 NMat=1 NMatS=1 NMatT=0.
 ***** Axes restored to original set *****
 -------------------------------------------------------------------
 Center     Atomic                   Forces (Hartrees/Bohr)
 Number     Number              X              Y              Z
 -------------------------------------------------------------------
      1        7           0.002888641    0.003812200    0.000203199
      2        1          -0.002105866   -0.000517776    0.000559153
      3        6          -0.000736676    0.002405562   -0.005411265
      4        1          -0.000267275   -0.001910374   -0.000026327
      5        6          -0.001524929    0.000643680    0.001183177
      6        6          -0.010338892   -0.006921277    0.010326921
      7        1           0.000147072   -0.000256184   -0.000167025
      8        1          -0.000092124    0.000316591    0.000047915
[...]
 ! D14   D(6,3,5,8)            -43.6203         -DE/DX =    0.0                 !
 ! D15   D(6,3,5,9)             82.1054         -DE/DX =    0.0                 !
 ! D16   D(1,3,6,10)             0.3912         -DE/DX =    0.0                 !
 ! D17   D(1,3,6,13)          -179.3679         -DE/DX =    0.0                 !
 ! D18   D(4,3,6,10)          -118.969          -DE/DX =    0.0                 !
 ! D19   D(4,3,6,13)            61.2718         -DE/DX =    0.0                 !
 ! D20   D(5,3,6,10)           124.9433         -DE/DX =    0.0                 !
 ! D21   D(5,3,6,13)           -54.8159         -DE/DX =    0.0                 !
 ! D22   D(3,5,9,11)            33.3526         -DE/DX =    0.0                 !
 ! D23   D(3,5,9,15)          -149.4989         -DE/DX =    0.0                 !
 ! D24   D(7,5,9,11)           -83.8235         -DE/DX =    0.0                 !
 ! D25   D(7,5,9,15)            93.325          -DE/DX =    0.0                 !
 ! D26   D(8,5,9,11)           160.3718         -DE/DX =    0.0                 !
 ! D27   D(8,5,9,15)           -22.4797         -DE/DX =    0.0                 !
 ! D28   D(3,6,13,14)          179.9084         -DE/DX =    0.0                 !
 ! D29   D(10,6,13,14)           0.1427         -DE/DX =    0.0                 !
 ! D30   D(5,9,15,16)         -176.8545         -DE/DX =    0.0                 !
 ! D31   D(11,9,15,16)           0.3844         -DE/DX =    0.0                 !
 --------------------------------------------------------------------------------
 GradGradGradGradGradGradGradGradGradGradGradGradGradGradGradGradGradGrad

                          Input orientation:                          
 ---------------------------------------------------------------------
 Center     Atomic      Atomic             Coordinates (Angstroms)
 Number     Number       Type             X           Y           Z
 ---------------------------------------------------------------------
      1          7           0        1.614982   -1.817300   -0.049107
      2          1           0        2.032308   -1.764051    0.875998
      3          6           0        0.730258   -0.685128   -0.276476
      4          1           0        0.431764   -0.684161   -1.329534
      5          6           0       -0.559480   -0.836825    0.555745
      6          6           0        1.397231    0.669145   -0.002523
      7          1           0       -0.788345   -1.906736    0.589567
      8          1           0       -0.431594   -0.501148    1.586821
      9          6           0       -1.763689   -0.160633   -0.061925
     10          8           0        2.536959    0.820608    0.358095
     11          8           0       -1.976540   -0.053425   -1.242452
     12          1           0        2.388606   -1.796639   -0.705337
     13          8           0        0.550060    1.704064   -0.208003
     14          1           0        1.033402    2.522349   -0.016365
     15          8           0       -2.633052    0.271527    0.881918
     16          1           0       -3.397028    0.645638    0.416745
 ---------------------------------------------------------------------
                    Distance matrix (angstroms):
                    1          2          3          4          5
     1  N    0.000000
     2  H    1.016275   0.000000
     3  C    1.454732   2.046363   0.000000
     4  H    2.079304   2.931258   1.094546   0.000000
     5  C    2.460784   2.771222   1.542410   2.135450   0.000000
     6  C    2.496396   2.663750   1.534261   2.127093   2.531467
     7  H    2.488350   2.838747   2.132725   2.581920   1.094639
     8  H    2.932062   2.858496   2.203548   3.046967   1.091857
     9  C    3.762994   4.226137   2.557518   2.588615   1.512901
    10  O    2.823900   2.683907   2.435998   3.089379   3.517681
    11  O    4.175447   4.846125   2.942604   2.491052   2.419770
    12  H    1.014672   1.621305   2.041934   2.335906   3.347055
    13  O    3.682297   3.924275   2.396956   2.641106   2.875849
    14  H    4.378569   4.490807   3.232254   3.516829   3.761467
    15  O    4.824500   5.090107   3.683602   3.898328   2.373718
    16  H    5.603867   5.957785   4.391581   4.413333   3.204481
                    6          7          8          9         10
     6  C    0.000000
     7  H    3.429647   0.000000
     8  H    2.690762   1.759961   0.000000
     9  C    3.268558   2.103477   2.146809   0.000000
    10  O    1.204975   4.306928   3.474062   4.431119   0.000000
    11  O    3.666314   2.864064   3.254550   1.204343   4.867993
    12  H    2.748975   3.432480   3.858213   4.509107   2.828936
    13  O    1.353136   3.932598   3.007989   2.975208   2.246937
    14  H    1.888631   4.827289   3.722628   3.876104   2.301483
    15  O    4.145300   2.869363   2.437280   1.354029   5.225408
    16  H    4.812615   3.653725   3.387920   1.883347   5.936856
                   11         12         13         14         15
    11  O    0.000000
    12  H    4.730940   0.000000
    13  O    3.246931   3.985287   0.000000
    14  H    4.147005   4.578746   0.969503   0.000000
    15  O    2.247120   5.658069   3.656814   4.394997   0.000000
    16  H    2.293340   6.379447   4.134015   4.830978   0.969538
                   16
    16  H    0.000000
 Stoichiometry    C4H7NO4
 Framework group  C1[X(C4H7NO4)]
 Deg. of freedom    42
 Full point group                 C1      NOp   1
 Largest Abelian subgroup         C1      NOp   1
 Largest concise Abelian subgroup C1      NOp   1
                         Standard orientation:                         
 ---------------------------------------------------------------------
 Center     Atomic      Atomic             Coordinates (Angstroms)
 Number     Number       Type             X           Y           Z
 ---------------------------------------------------------------------
      1          7           0        1.628190    1.810012    0.073149
      2          1           0        2.052123    1.757482   -0.848988
      3          6           0        0.740268    0.678764    0.292504
      4          1           0        0.434163    0.676730    1.343374
      5          6           0       -0.543203    0.833445   -0.548806
      6          6           0        1.407317   -0.676057    0.021458
      7          1           0       -0.770327    1.903723   -0.582763
      8          1           0       -0.408329    0.499044   -1.579406
      9          6           0       -1.752790    0.158073    0.059177
     10          8           0        2.549412   -0.828610   -0.331122
     11          8           0       -1.974325    0.049499    1.237980
     12          1           0        2.397017    1.787340    0.734927
     13          8           0        0.557241   -1.710074    0.219336
     14          1           0        1.040816   -2.528766    0.030037
     15          8           0       -2.615904   -0.271535   -0.891542
     16          1           0       -3.383746   -0.645228   -0.432439
 ---------------------------------------------------------------------
 Rotational constants (GHZ):      2.6260489      1.0916065      0.9118764

 **********************************************************************

            Population analysis using the SCF density.

 **********************************************************************

 Orbital symmetries:
       Occupied  (A) (A) (A) (A) (A) (A) (A) (A) (A) (A) (A) (A)
                 (A) (A) (A) (A) (A) (A) (A) (A) (A) (A) (A) (A)
                 (A) (A) (A) (A) (A) (A) (A) (A) (A) (A) (A)
       Virtual   (A) (A) (A) (A) (A) (A) (A) (A) (A) (A) (A) (A)
                 (A) (A) (A) (A) (A) (A) (A) (A) (A) (A) (A) (A)
                 (A) (A) (A) (A) (A) (A) (A) (A) (A) (A) (A) (A)
                 (A) (A) (A) (A) (A) (A) (A) (A) (A) (A) (A) (A)
                 (A) (A) (A) (A) (A) (A) (A) (A) (A) (A) (A) (A)
                 (A) (A) (A) (A) (A) (A) (A) (A) (A) (A) (A) (A)
                 (A) (A) (A) (A) (A) (A) (A) (A) (A) (A) (A) (A)
                 (A) (A) (A) (A) (A) (A) (A) (A) (A) (A) (A) (A)
                 (A) (A) (A) (A) (A) (A) (A) (A) (A) (A) (A) (A)
                 (A) (A) (A) (A) (A) (A) (A) (A) (A) (A) (A) (A)
                 (A) (A) (A) (A) (A) (A) (A) (A) (A) (A) (A) (A)
                 (A) (A) (A) (A) (A) (A) (A) (A) (A) (A) (A) (A)
                 (A) (A) (A) (A) (A) (A) (A) (A) (A) (A) (A) (A)
                 (A) (A) (A) (A) (A) (A) (A) (A) (A) (A) (A) (A)
                 (A) (A) (A) (A) (A) (A) (A) (A) (A) (A) (A) (A)
                 (A) (A) (A) (A) (A) (A) (A) (A) (A) (A) (A) (A)
                 (A) (A) (A) (A) (A) (A) (A) (A) (A) (A) (A) (A)
                 (A) (A) (A) (A) (A) (A) (A) (A)
 The electronic state is 1-A.
 Alpha  occ. eigenvalues --  -19.19016 -19.18621 -19.13567 -19.12861 -14.31259
 Alpha  occ. eigenvalues --  -10.32261 -10.32171 -10.23813 -10.20663  -1.13268
 Alpha  occ. eigenvalues --   -1.12731  -1.04402  -1.03863  -0.91502  -0.79693
 Alpha  occ. eigenvalues --   -0.71499  -0.64269  -0.60223  -0.54408  -0.52333
 Alpha  occ. eigenvalues --   -0.50991  -0.50537  -0.48545  -0.47945  -0.46298
 Alpha  occ. eigenvalues --   -0.44514  -0.43194  -0.40608  -0.39747  -0.38092
 Alpha  occ. eigenvalues --   -0.34845  -0.34111  -0.30488  -0.29932  -0.27100
 Alpha virt. eigenvalues --   -0.02760  -0.02018  -0.00805  -0.00500  -0.00049
 Alpha virt. eigenvalues --    0.01313   0.02911   0.03851   0.05031   0.06290
 Alpha virt. eigenvalues --    0.06812   0.07682   0.08574   0.08828   0.09371
 Alpha virt. eigenvalues --    0.09996   0.10065   0.10841   0.11602   0.12340
 Alpha virt. eigenvalues --    0.13641   0.13784   0.14095   0.14814   0.15197
 Alpha virt. eigenvalues --    0.16021   0.18271   0.18796   0.19328   0.20428
 Alpha virt. eigenvalues --    0.20586   0.21097   0.21920   0.22956   0.23388
 Alpha virt. eigenvalues --    0.23556   0.24356   0.25144   0.25407   0.26969
 Alpha virt. eigenvalues --    0.27434   0.28473   0.29261   0.29285   0.30833
 Alpha virt. eigenvalues --    0.31318   0.31882   0.31949   0.32521   0.33509
 Alpha virt. eigenvalues --    0.34451   0.35131   0.35641   0.36981   0.37490
 Alpha virt. eigenvalues --    0.38016   0.39942   0.43300   0.47148   0.48457
 Alpha virt. eigenvalues --    0.50392   0.52909   0.53376   0.54348   0.55700
 Alpha virt. eigenvalues --    0.57526   0.59070   0.60350   0.60888   0.63466
 Alpha virt. eigenvalues --    0.66418   0.67222   0.68142   0.69486   0.71506
 Alpha virt. eigenvalues --    0.71733   0.73585   0.74184   0.75438   0.84497
 Alpha virt. eigenvalues --    0.85454   0.86132   0.88387   0.90717   0.97237
 Alpha virt. eigenvalues --    0.99055   1.01989   1.06065   1.08144   1.10555
 Alpha virt. eigenvalues --    1.12342   1.12709   1.14908   1.15881   1.16644
 Alpha virt. eigenvalues --    1.16959   1.19362   1.20900   1.22208   1.23441
 Alpha virt. eigenvalues --    1.26116   1.26953   1.28757   1.32080   1.35700
 Alpha virt. eigenvalues --    1.40340   1.42207   1.45394   1.46861   1.50287
 Alpha virt. eigenvalues --    1.51575   1.54976   1.56396   1.57002   1.59114
 Alpha virt. eigenvalues --    1.62549   1.63712   1.65201   1.67545   1.69231
 Alpha virt. eigenvalues --    1.70093   1.70406   1.73872   1.80157   1.82157
 Alpha virt. eigenvalues --    1.84071   1.86214   1.90291   1.92537   1.94122
 Alpha virt. eigenvalues --    1.96270   1.98454   2.02050   2.04387   2.07867
 Alpha virt. eigenvalues --    2.12845   2.16905   2.20239   2.22198   2.28628
 Alpha virt. eigenvalues --    2.38745   2.45926   2.50457   2.52461   2.55140
 Alpha virt. eigenvalues --    2.56412   2.58714   2.60677   2.64031   2.66660
 Alpha virt. eigenvalues --    2.70254   2.74260   2.77907   2.79493   2.82487
 Alpha virt. eigenvalues --    2.85024   2.85415   2.88558   2.90139   2.91336
 Alpha virt. eigenvalues --    2.93657   2.95835   3.00897   3.03592   3.04706
 Alpha virt. eigenvalues --    3.06609   3.10940   3.13032   3.16333   3.17342
 Alpha virt. eigenvalues --    3.21815   3.22505   3.33877   3.36638   3.38074
 Alpha virt. eigenvalues --    3.55524   3.58731   3.60143   3.64295   3.69754
 Alpha virt. eigenvalues --    3.76796   3.81105   3.82611   3.97305   4.04878
 Alpha virt. eigenvalues --    4.05600   4.12357   4.17086   4.29625   4.71384
 Alpha virt. eigenvalues --    4.85281   4.95231   4.99061   5.04007   5.06358
 Alpha virt. eigenvalues --    5.16971   5.17862   5.36969   5.41183   5.58614
 Alpha virt. eigenvalues --    5.59952   5.82789   5.84389  23.76502  23.80266
 Alpha virt. eigenvalues --   23.81704  23.89876  35.59597  49.85039  49.85651
 Alpha virt. eigenvalues --   49.99118  50.00784
          Condensed to atoms (all electrons):
               1          2          3          4          5          6
     1  N    6.646676   0.386465  -0.098028  -0.020338  -0.070740   0.129247
     2  H    0.386465   0.445122  -0.012417   0.007016  -0.019827  -0.005199
     3  C   -0.098028  -0.012417   8.436821   0.475444  -0.627353  -1.543658
     4  H   -0.020338   0.007016   0.475444   0.512230  -0.046813  -0.094974
     5  C   -0.070740  -0.019827  -0.627353  -0.046813   7.147711   0.013126
     6  C    0.129247  -0.005199  -1.543658  -0.094974   0.013126   6.713751
     7  H   -0.006549   0.000571  -0.020913  -0.010850   0.397766  -0.013838
     8  H   -0.000290   0.001227   0.023231   0.019530   0.442611  -0.062215
     9  C   -0.011350  -0.000534   0.162318  -0.103740  -0.673510   0.106684
    10  O   -0.028932  -0.003468  -0.051241  -0.015145  -0.030427   0.466183
    11  O   -0.000286  -0.000385   0.021402   0.004664  -0.107246  -0.006444
    12  H    0.387905  -0.048152  -0.041925  -0.018917  -0.001383   0.011087
    13  O    0.049664  -0.001960  -0.346869   0.003240  -0.033099   0.257646
    14  H    0.003185  -0.000141  -0.072309   0.002223  -0.000031   0.095144
    15  O   -0.001843   0.000192  -0.012062   0.003269  -0.227876  -0.003960
    16  H   -0.000857  -0.000135   0.011497  -0.001183  -0.047967  -0.002561
               7          8          9         10         11         12
     1  N   -0.006549  -0.000290  -0.011350  -0.028932  -0.000286   0.387905
     2  H    0.000571   0.001227  -0.000534  -0.003468  -0.000385  -0.048152
     3  C   -0.020913   0.023231   0.162318  -0.051241   0.021402  -0.041925
     4  H   -0.010850   0.019530  -0.103740  -0.015145   0.004664  -0.018917
     5  C    0.397766   0.442611  -0.673510  -0.030427  -0.107246  -0.001383
     6  C   -0.013838  -0.062215   0.106684   0.466183  -0.006444   0.011087
     7  H    0.465518  -0.035259  -0.006201   0.003099   0.001372   0.002643
     8  H   -0.035259   0.525707  -0.138154  -0.005704   0.003077  -0.001076
     9  C   -0.006201  -0.138154   6.028498   0.020674   0.448891   0.012845
    10  O    0.003099  -0.005704   0.020674   8.050926  -0.000513  -0.000239
    11  O    0.001372   0.003077   0.448891  -0.000513   8.037746   0.000868
    12  H    0.002643  -0.001076   0.012845  -0.000239   0.000868   0.446608
    13  O   -0.000396   0.004209   0.008325  -0.135802  -0.001141  -0.000354
    14  H   -0.001023  -0.000426  -0.010124  -0.011647   0.001281  -0.000424
    15  O    0.001533  -0.005600   0.255661   0.000055  -0.140478   0.000089
    16  H   -0.001554   0.000952   0.051365   0.000079  -0.000270   0.000145
              13         14         15         16
     1  N    0.049664   0.003185  -0.001843  -0.000857
     2  H   -0.001960  -0.000141   0.000192  -0.000135
     3  C   -0.346869  -0.072309  -0.012062   0.011497
     4  H    0.003240   0.002223   0.003269  -0.001183
     5  C   -0.033099  -0.000031  -0.227876  -0.047967
     6  C    0.257646   0.095144  -0.003960  -0.002561
     7  H   -0.000396  -0.001023   0.001533  -0.001554
     8  H    0.004209  -0.000426  -0.005600   0.000952
     9  C    0.008325  -0.010124   0.255661   0.051365
    10  O   -0.135802  -0.011647   0.000055   0.000079
    11  O   -0.001141   0.001281  -0.140478  -0.000270
    12  H   -0.000354  -0.000424   0.000089   0.000145
    13  O    8.145811   0.208735   0.001435  -0.000377
    14  H    0.208735   0.487383  -0.000352  -0.000221
    15  O    0.001435  -0.000352   8.016329   0.253977
    16  H   -0.000377  -0.000221   0.253977   0.460018
 Mulliken charges:
               1
     1  N   -0.363928
     2  H    0.251627
     3  C   -0.303937
     4  H    0.284346
     5  C   -0.114943
     6  C   -0.060021
     7  H    0.224080
     8  H    0.228180
     9  C   -0.151648
    10  O   -0.257898
    11  O   -0.262539
    12  H    0.250278
    13  O   -0.159067
    14  H    0.298748
    15  O   -0.140369
    16  H    0.277092
 Sum of Mulliken charges =   0.00000
 Mulliken charges with hydrogens summed into heavy atoms:
               1
     1  N    0.137977
     3  C   -0.019591
     5  C    0.337316
     6  C   -0.060021
     9  C   -0.151648
    10  O   -0.257898
    11  O   -0.262539
    13  O    0.139681
    15  O    0.136724
 Electronic spatial extent (au):  <R**2>=           1281.6094
 Charge=              0.0000 electrons
 Dipole moment (field-independent basis, Debye):
    X=             -0.5760    Y=             -0.8686    Z=             -1.1477  Tot=              1.5503
 Quadrupole moment (field-independent basis, Debye-Ang):
   XX=            -53.3003   YY=            -50.1069   ZZ=            -55.4741
   XY=              2.4192   XZ=              4.6127   YZ=             -0.7915
 Traceless Quadrupole moment (field-independent basis, Debye-Ang):
   XX=             -0.3399   YY=              2.8536   ZZ=             -2.5137
   XY=              2.4192   XZ=              4.6127   YZ=             -0.7915
 Octapole moment (field-independent basis, Debye-Ang**2):
  XXX=            -48.3306  YYY=            -40.8680  ZZZ=             -2.5291  XYY=              0.2501
  XXY=              1.7221  XXZ=              1.8183  XZZ=             14.7519  YZZ=              1.2644
  YYZ=             -2.5009  XYZ=             -1.7030
 Hexadecapole moment (field-independent basis, Debye-Ang**3):
 XXXX=           -914.6990 YYYY=           -381.7771 ZZZZ=           -176.3138 XXXY=             85.9661
 XXXZ=             33.2269 YYYX=            -39.3291 YYYZ=             -3.4236 ZZZX=              4.3468
 ZZZY=              0.2193 XXYY=           -209.8665 XXZZ=           -214.9080 YYZZ=            -93.6316
 XXYZ=             -0.8753 YYXZ=              1.2444 ZZXY=              5.4181
 N-N= 4.693824099431D+02 E-N=-2.141883301290D+03  KE= 5.107032689016D+02
 1\1\GINC-KALI\FOpt\RB3LYP\6-311++G(d,p)\C4H7N1O4\ROOT\28-Mar-2016\0\\#
  opt b3lyp/6-311++g(d,p) geom=connectivity\\Asp-S-opt-6-311++g(d,p)\\0
 ,1\N,1.6149818786,-1.8173001038,-0.0491067164\H,2.0323075083,-1.764050
 5885,0.8759978422\C,0.7302583641,-0.6851278304,-0.2764757879\H,0.43176
 44803,-0.6841607606,-1.3295343499\C,-0.5594796095,-0.8368250134,0.5557
 447349\C,1.3972308493,0.6691451085,-0.0025225077\H,-0.7883452902,-1.90
 67362286,0.589567117\H,-0.4315936177,-0.5011482313,1.5868208642\C,-1.7
 636885745,-0.1606326142,-0.0619246872\O,2.5369586051,0.8206077281,0.35
 80951857\O,-1.9765400114,-0.0534247188,-1.2424516632\H,2.3886060927,-1
 .7966390415,-0.705337189\O,0.5500601919,1.7040637102,-0.2080029568\H,1
 .0334024181,2.5223492791,-0.0163652561\O,-2.633052005,0.2715274642,0.8
 81918427\H,-3.3970282801,0.645637841,0.4167449431\\Version=ES64L-G09Re
 vD.01\State=1-A\HF=-512.4843484\RMSD=9.766e-09\RMSF=5.819e-06\Dipole=-
 0.2294147,0.3427007,0.449397\Quadrupole=-0.208189,2.1248867,-1.9166977
 ,-1.7958382,-3.4156703,-0.6023415\PG=C01 [X(C4H7N1O4)]\\@


 Standing in the middle of the road is very dangerous;
 you get knocked down by the traffic from both sides.
                                -- Margaret Thatcher
 Job cpu time:       0 days  1 hours 10 minutes 36.3 seconds.
 File lengths (MBytes):  RWF=     38 Int=      0 D2E=      0 Chk=      5 Scr=      1
 Normal termination of Gaussian 09 at Mon Mar 28 15:31:18 2016.
