 Entering Gaussian System, Link 0=g09
 Input=/root/gau/com/wcom/329/test/Phe-R-opt-6-311gdp.com
 Output=/root/gau/com/wcom/329/test/Phe-R-opt-6-311gdp.log
 Initial command:
 /usr/local/gau/g09/l1.exe "/tmp/Gau-3512.inp" -scrdir="/tmp/"
 Entering Link 1 = /usr/local/gau/g09/l1.exe PID=      3515.
  
 Copyright (c) 1988,1990,1992,1993,1995,1998,2003,2009,2013,
            Gaussian, Inc.  All Rights Reserved.
  
 This is part of the Gaussian(R) 09 program.  It is based on
 the Gaussian(R) 03 system (copyright 2003, Gaussian, Inc.),
 the Gaussian(R) 98 system (copyright 1998, Gaussian, Inc.),
 the Gaussian(R) 94 system (copyright 1995, Gaussian, Inc.),
 the Gaussian 92(TM) system (copyright 1992, Gaussian, Inc.),
 the Gaussian 90(TM) system (copyright 1990, Gaussian, Inc.),
 the Gaussian 88(TM) system (copyright 1988, Gaussian, Inc.),
 the Gaussian 86(TM) system (copyright 1986, Carnegie Mellon
 University), and the Gaussian 82(TM) system (copyright 1983,
 Carnegie Mellon University). Gaussian is a federally registered
 trademark of Gaussian, Inc.
  
 This software contains proprietary and confidential information,
 including trade secrets, belonging to Gaussian, Inc.
  
 This software is provided under written license and may be
 used, copied, transmitted, or stored only in accord with that
 written license.
  
 The following legend is applicable only to US Government
 contracts under FAR:
  
                    RESTRICTED RIGHTS LEGEND
  
 Use, reproduction and disclosure by the US Government is
 subject to restrictions as set forth in subparagraphs (a)
 and (c) of the Commercial Computer Software - Restricted
 Rights clause in FAR 52.227-19.
  
 Gaussian, Inc.
 340 Quinnipiac St., Bldg. 40, Wallingford CT 06492
  
  
 ---------------------------------------------------------------
 Warning -- This program may not be used in any manner that
 competes with the business of Gaussian, Inc. or will provide
 assistance to any competitor of Gaussian, Inc.  The licensee
 of this program is prohibited from giving any competitor of
 Gaussian, Inc. access to this program.  By using this program,
 the user acknowledges that Gaussian, Inc. is engaged in the
 business of creating and licensing software in the field of
 computational chemistry and represents and warrants to the
 licensee that it is not a competitor of Gaussian, Inc. and that
 it will not use this program in any manner prohibited above.
 ---------------------------------------------------------------
  

 Cite this work as:
 Gaussian 09, Revision D.01,
 M. J. Frisch, G. W. Trucks, H. B. Schlegel, G. E. Scuseria, 
 M. A. Robb, J. R. Cheeseman, G. Scalmani, V. Barone, B. Mennucci, 
 G. A. Petersson, H. Nakatsuji, M. Caricato, X. Li, H. P. Hratchian, 
 A. F. Izmaylov, J. Bloino, G. Zheng, J. L. Sonnenberg, M. Hada, 
 M. Ehara, K. Toyota, R. Fukuda, J. Hasegawa, M. Ishida, T. Nakajima, 
 Y. Honda, O. Kitao, H. Nakai, T. Vreven, J. A. Montgomery, Jr., 
 J. E. Peralta, F. Ogliaro, M. Bearpark, J. J. Heyd, E. Brothers, 
 K. N. Kudin, V. N. Staroverov, T. Keith, R. Kobayashi, J. Normand, 
 K. Raghavachari, A. Rendell, J. C. Burant, S. S. Iyengar, J. Tomasi, 
 M. Cossi, N. Rega, J. M. Millam, M. Klene, J. E. Knox, J. B. Cross, 
 V. Bakken, C. Adamo, J. Jaramillo, R. Gomperts, R. E. Stratmann, 
 O. Yazyev, A. J. Austin, R. Cammi, C. Pomelli, J. W. Ochterski, 
 R. L. Martin, K. Morokuma, V. G. Zakrzewski, G. A. Voth, 
 P. Salvador, J. J. Dannenberg, S. Dapprich, A. D. Daniels, 
 O. Farkas, J. B. Foresman, J. V. Ortiz, J. Cioslowski, 
 and D. J. Fox, Gaussian, Inc., Wallingford CT, 2013.
 
 ******************************************
 Gaussian 09:  ES64L-G09RevD.01 24-Apr-2013
                29-Mar-2016 
 ******************************************
 %chk=Phe-R-opt-6-311gdp.chk
 -------------------------
 # opt b3lyp/6-311++g(d,p)
 -------------------------
 1/14=-1,18=20,19=15,26=3,38=1/1,3;
 2/9=110,12=2,17=6,18=5,40=1/2;
 3/5=4,6=6,7=1111,11=2,16=1,25=1,30=1,71=1,74=-5/1,2,3;
 4//1;
 5/5=2,38=5/2;
 6/7=2,8=2,9=2,10=2,28=1/1;
 7//1,2,3,16;
 1/14=-1,18=20,19=15,26=3/3(2);
 2/9=110/2;
 99//99;
 2/9=110/2;
 3/5=4,6=6,7=1111,11=2,16=1,25=1,30=1,71=1,74=-5/1,2,3;
 4/5=5,16=3,69=1/1;
 5/5=2,38=5/2;
 7//1,2,3,16;
 1/14=-1,18=20,19=15,26=3/3(-5);
 2/9=110/2;
 6/7=2,8=2,9=2,10=2,19=2,28=1/1;
 99/9=1/99;
 -----------------------
 Phe-R-opt-6-311++g(d,p)
 -----------------------
 Symbolic Z-matrix:
 Charge =  0 Multiplicity = 1
 C                     1.37087   0.12147  -0.44953 
 H                     1.03165  -0.51078  -1.27216 
 C                     2.77721  -0.37226  -0.10946 
 O                     3.24652  -1.43196  -0.44124 
 O                     3.46331   0.52015   0.65278 
 H                     4.32816   0.12873   0.84748 
 C                     0.44619  -0.13073   0.77352 
 H                     0.69705  -1.10525   1.20286 
 H                     0.6755    0.62137   1.53495 
 C                    -1.02457  -0.10479   0.42534 
 C                    -1.74216   1.09527   0.38096 
 C                    -1.69684  -1.29503   0.12492 
 C                    -3.09419   1.10514   0.04419 
 H                    -1.23515   2.02683   0.60262 
 C                    -3.04881  -1.28907  -0.21376 
 H                    -1.15817  -2.23717   0.16122 
 C                    -3.75229  -0.08676  -0.25535 
 H                    -3.6342    2.04522   0.01574 
 H                    -3.55217  -2.22277  -0.43941 
 H                    -4.80487  -0.07904  -0.51545 
 N                     1.29524   1.51438  -0.8775 
 H                     1.77688   2.122    -0.22254 
 H                     1.7175    1.64518  -1.79012 
 

 GradGradGradGradGradGradGradGradGradGradGradGradGradGradGradGradGradGrad
 Berny optimization.
 Initialization pass.
                           ----------------------------
                           !    Initial Parameters    !
                           ! (Angstroms and Degrees)  !
 --------------------------                            --------------------------
 ! Name  Definition              Value          Derivative Info.                !
 --------------------------------------------------------------------------------
 ! R1    R(1,2)                  1.0916         estimate D2E/DX2                !
 ! R2    R(1,3)                  1.5288         estimate D2E/DX2                !
 ! R3    R(1,7)                  1.5539         estimate D2E/DX2                !
 ! R4    R(1,21)                 1.4591         estimate D2E/DX2                !
 ! R5    R(3,4)                  1.2055         estimate D2E/DX2                !
 ! R6    R(3,5)                  1.3595         estimate D2E/DX2                !
 ! R7    R(5,6)                  0.9691         estimate D2E/DX2                !
 ! R8    R(7,8)                  1.094          estimate D2E/DX2                !
 ! R9    R(7,9)                  1.0945         estimate D2E/DX2                !
 ! R10   R(7,10)                 1.5116         estimate D2E/DX2                !
 ! R11   R(10,11)                1.399          estimate D2E/DX2                !
 ! R12   R(10,12)                1.3996         estimate D2E/DX2                !
 ! R13   R(11,13)                1.3934         estimate D2E/DX2                !
 ! R14   R(11,14)                1.0835         estimate D2E/DX2                !
 ! R15   R(12,15)                1.3938         estimate D2E/DX2                !
 ! R16   R(12,16)                1.0859         estimate D2E/DX2                !
 ! R17   R(13,17)                1.3941         estimate D2E/DX2                !
 ! R18   R(13,18)                1.0845         estimate D2E/DX2                !
 ! R19   R(15,17)                1.3936         estimate D2E/DX2                !
 ! R20   R(15,19)                1.0845         estimate D2E/DX2                !
 ! R21   R(17,20)                1.0843         estimate D2E/DX2                !
 ! R22   R(21,22)                1.015          estimate D2E/DX2                !
 ! R23   R(21,23)                1.014          estimate D2E/DX2                !
 ! A1    A(2,1,3)              105.4534         estimate D2E/DX2                !
 ! A2    A(2,1,7)              108.3143         estimate D2E/DX2                !
 ! A3    A(2,1,21)             108.4077         estimate D2E/DX2                !
 ! A4    A(3,1,7)              108.6577         estimate D2E/DX2                !
 ! A5    A(3,1,21)             114.9119         estimate D2E/DX2                !
 ! A6    A(7,1,21)             110.7906         estimate D2E/DX2                !
 ! A7    A(1,3,4)              125.5055         estimate D2E/DX2                !
 ! A8    A(1,3,5)              112.1471         estimate D2E/DX2                !
 ! A9    A(4,3,5)              122.3354         estimate D2E/DX2                !
 ! A10   A(3,5,6)              107.3324         estimate D2E/DX2                !
 ! A11   A(1,7,8)              108.4821         estimate D2E/DX2                !
 ! A12   A(1,7,9)              108.1408         estimate D2E/DX2                !
 ! A13   A(1,7,10)             113.2603         estimate D2E/DX2                !
 ! A14   A(8,7,9)              106.92           estimate D2E/DX2                !
 ! A15   A(8,7,10)             109.1941         estimate D2E/DX2                !
 ! A16   A(9,7,10)             110.627          estimate D2E/DX2                !
 ! A17   A(7,10,11)            121.4067         estimate D2E/DX2                !
 ! A18   A(7,10,12)            120.1451         estimate D2E/DX2                !
 ! A19   A(11,10,12)           118.4451         estimate D2E/DX2                !
 ! A20   A(10,11,13)           120.762          estimate D2E/DX2                !
 ! A21   A(10,11,14)           119.4068         estimate D2E/DX2                !
 ! A22   A(13,11,14)           119.8287         estimate D2E/DX2                !
 ! A23   A(10,12,15)           120.961          estimate D2E/DX2                !
 ! A24   A(10,12,16)           119.4985         estimate D2E/DX2                !
 ! A25   A(15,12,16)           119.5398         estimate D2E/DX2                !
 ! A26   A(11,13,17)           120.261          estimate D2E/DX2                !
 ! A27   A(11,13,18)           119.7117         estimate D2E/DX2                !
 ! A28   A(17,13,18)           120.0273         estimate D2E/DX2                !
 ! A29   A(12,15,17)           120.0393         estimate D2E/DX2                !
 ! A30   A(12,15,19)           119.8094         estimate D2E/DX2                !
 ! A31   A(17,15,19)           120.1505         estimate D2E/DX2                !
 ! A32   A(13,17,15)           119.5315         estimate D2E/DX2                !
 ! A33   A(13,17,20)           120.247          estimate D2E/DX2                !
 ! A34   A(15,17,20)           120.2212         estimate D2E/DX2                !
 ! A35   A(1,21,22)            110.9538         estimate D2E/DX2                !
 ! A36   A(1,21,23)            111.4392         estimate D2E/DX2                !
 ! A37   A(22,21,23)           107.8146         estimate D2E/DX2                !
 ! D1    D(2,1,3,4)            -17.0038         estimate D2E/DX2                !
 ! D2    D(2,1,3,5)            164.2358         estimate D2E/DX2                !
 ! D3    D(7,1,3,4)             98.9372         estimate D2E/DX2                !
 ! D4    D(7,1,3,5)            -79.8232         estimate D2E/DX2                !
 ! D5    D(21,1,3,4)          -136.3197         estimate D2E/DX2                !
 ! D6    D(21,1,3,5)            44.9199         estimate D2E/DX2                !
 ! D7    D(2,1,7,8)             73.9755         estimate D2E/DX2                !
 ! D8    D(2,1,7,9)           -170.4028         estimate D2E/DX2                !
 ! D9    D(2,1,7,10)           -47.4232         estimate D2E/DX2                !
 ! D10   D(3,1,7,8)            -40.1039         estimate D2E/DX2                !
 ! D11   D(3,1,7,9)             75.5177         estimate D2E/DX2                !
 ! D12   D(3,1,7,10)          -161.5027         estimate D2E/DX2                !
 ! D13   D(21,1,7,8)          -167.2433         estimate D2E/DX2                !
 ! D14   D(21,1,7,9)           -51.6217         estimate D2E/DX2                !
 ! D15   D(21,1,7,10)           71.3579         estimate D2E/DX2                !
 ! D16   D(2,1,21,22)         -168.2784         estimate D2E/DX2                !
 ! D17   D(2,1,21,23)          -48.1241         estimate D2E/DX2                !
 ! D18   D(3,1,21,22)          -50.6199         estimate D2E/DX2                !
 ! D19   D(3,1,21,23)           69.5344         estimate D2E/DX2                !
 ! D20   D(7,1,21,22)           72.997          estimate D2E/DX2                !
 ! D21   D(7,1,21,23)         -166.8487         estimate D2E/DX2                !
 ! D22   D(1,3,5,6)            178.3709         estimate D2E/DX2                !
 ! D23   D(4,3,5,6)             -0.4348         estimate D2E/DX2                !
 ! D24   D(1,7,10,11)          -85.2637         estimate D2E/DX2                !
 ! D25   D(1,7,10,12)           94.0852         estimate D2E/DX2                !
 ! D26   D(8,7,10,11)          153.7386         estimate D2E/DX2                !
 ! D27   D(8,7,10,12)          -26.9124         estimate D2E/DX2                !
 ! D28   D(9,7,10,11)           36.3313         estimate D2E/DX2                !
 ! D29   D(9,7,10,12)         -144.3197         estimate D2E/DX2                !
 ! D30   D(7,10,11,13)         179.2955         estimate D2E/DX2                !
 ! D31   D(7,10,11,14)          -0.1307         estimate D2E/DX2                !
 ! D32   D(12,10,11,13)         -0.0642         estimate D2E/DX2                !
 ! D33   D(12,10,11,14)       -179.4905         estimate D2E/DX2                !
 ! D34   D(7,10,12,15)        -179.2352         estimate D2E/DX2                !
 ! D35   D(7,10,12,16)           1.0769         estimate D2E/DX2                !
 ! D36   D(11,10,12,15)          0.1328         estimate D2E/DX2                !
 ! D37   D(11,10,12,16)       -179.555          estimate D2E/DX2                !
 ! D38   D(10,11,13,17)         -0.0479         estimate D2E/DX2                !
 ! D39   D(10,11,13,18)        179.9539         estimate D2E/DX2                !
 ! D40   D(14,11,13,17)        179.376          estimate D2E/DX2                !
 ! D41   D(14,11,13,18)         -0.6222         estimate D2E/DX2                !
 ! D42   D(10,12,15,17)         -0.0894         estimate D2E/DX2                !
 ! D43   D(10,12,15,19)       -179.7661         estimate D2E/DX2                !
 ! D44   D(16,12,15,17)        179.5983         estimate D2E/DX2                !
 ! D45   D(16,12,15,19)         -0.0784         estimate D2E/DX2                !
 ! D46   D(11,13,17,15)          0.0928         estimate D2E/DX2                !
 ! D47   D(11,13,17,20)        179.8775         estimate D2E/DX2                !
 ! D48   D(18,13,17,15)       -179.909          estimate D2E/DX2                !
 ! D49   D(18,13,17,20)         -0.1243         estimate D2E/DX2                !
 ! D50   D(12,15,17,13)         -0.0249         estimate D2E/DX2                !
 ! D51   D(12,15,17,20)       -179.8096         estimate D2E/DX2                !
 ! D52   D(19,15,17,13)        179.6507         estimate D2E/DX2                !
 ! D53   D(19,15,17,20)         -0.1341         estimate D2E/DX2                !
 --------------------------------------------------------------------------------
 Trust Radius=3.00D-01 FncErr=1.00D-07 GrdErr=1.00D-06
 Number of steps in this run=    123 maximum allowed number of steps=    138.
 GradGradGradGradGradGradGradGradGradGradGradGradGradGradGradGradGradGrad

                          Input orientation:                          
 ---------------------------------------------------------------------
 Center     Atomic      Atomic             Coordinates (Angstroms)
 Number     Number       Type             X           Y           Z
 ---------------------------------------------------------------------
      1          6           0        1.370873    0.121471   -0.449530
      2          1           0        1.031649   -0.510785   -1.272159
      3          6           0        2.777210   -0.372255   -0.109456
      4          8           0        3.246523   -1.431957   -0.441243
      5          8           0        3.463309    0.520150    0.652783
      6          1           0        4.328156    0.128730    0.847482
      7          6           0        0.446191   -0.130734    0.773521
      8          1           0        0.697048   -1.105252    1.202857
      9          1           0        0.675502    0.621374    1.534948
     10          6           0       -1.024566   -0.104792    0.425337
     11          6           0       -1.742160    1.095273    0.380958
     12          6           0       -1.696838   -1.295030    0.124918
     13          6           0       -3.094189    1.105141    0.044190
     14          1           0       -1.235146    2.026826    0.602618
     15          6           0       -3.048809   -1.289071   -0.213755
     16          1           0       -1.158175   -2.237168    0.161220
     17          6           0       -3.752291   -0.086759   -0.255349
     18          1           0       -3.634203    2.045219    0.015737
     19          1           0       -3.552168   -2.222766   -0.439412
     20          1           0       -4.804874   -0.079037   -0.515450
     21          7           0        1.295236    1.514383   -0.877501
     22          1           0        1.776877    2.121998   -0.222538
     23          1           0        1.717501    1.645181   -1.790121
 ---------------------------------------------------------------------
                    Distance matrix (angstroms):
                    1          2          3          4          5
     1  C    0.000000
     2  H    1.091576   0.000000
     3  C    1.528791   2.101917   0.000000
     4  O    2.435420   2.538631   1.205531   0.000000
     5  O    2.398401   3.268210   1.359458   2.248246   0.000000
     6  H    3.229213   3.970997   1.890013   2.294883   0.969061
     7  C    1.553866   2.161483   2.504323   3.318236   3.088888
     8  H    2.165473   2.567305   2.566423   3.051168   3.255259
     9  H    2.161388   3.047700   2.847550   3.838183   2.925804
    10  C    2.560218   2.697099   3.848512   4.555714   4.536883
    11  C    3.365854   3.606415   4.776908   5.652421   5.244193
    12  C    3.427435   3.164096   4.574226   4.977560   5.495510
    13  C    4.598711   4.622394   6.056371   6.846688   6.611609
    14  H    3.395398   3.884922   4.728810   5.756577   4.934376
    15  C    4.645300   4.286734   5.898638   6.301061   6.814092
    16  H    3.511734   3.135332   4.363304   4.518040   5.403938
    17  C    5.131069   4.909152   6.537367   7.129341   7.297802
    18  H    5.382199   5.473756   6.853180   7.722951   7.287409
    19  H    5.452695   4.963439   6.602597   6.844529   7.611399
    20  H    6.179353   5.901188   7.598606   8.164613   8.371777
    21  N    1.459138   2.080033   2.519036   3.560725   2.833868
    22  H    2.053892   2.930634   2.689749   3.852050   2.485187
    23  H    2.058890   2.320962   2.831549   3.691363   3.206450
                    6          7          8          9         10
     6  H    0.000000
     7  C    3.891329   0.000000
     8  H    3.851487   1.094049   0.000000
     9  H    3.749292   1.094541   1.758404   0.000000
    10  C    5.374419   1.511632   2.137618   2.156104   0.000000
    11  C    6.164462   2.538913   3.386378   2.720545   1.398952
    12  C    6.232956   2.523657   2.632234   3.359878   1.399595
    13  C    7.529267   3.820157   4.538922   4.082519   2.427457
    14  H    5.883286   2.740650   3.728749   2.548550   2.149318
    15  C    7.586567   3.812019   4.008993   4.536326   2.430744
    16  H    6.014005   2.717714   2.409999   3.663435   2.152821
    17  C    8.158204   4.322934   4.791691   4.828246   2.811430
    18  H    8.231883   4.686003   5.485841   4.786323   3.405954
    19  H    8.323769   4.672760   4.690599   5.464469   3.409161
    20  H    9.236503   5.407199   5.854643   5.893151   3.895699
    21  N    3.754226   2.480557   3.398265   2.646024   3.114578
    22  H    3.409851   2.799582   3.689570   2.560011   3.636815
    23  H    4.009002   3.367843   4.190957   3.631808   3.935682
                   11         12         13         14         15
    11  C    0.000000
    12  C    2.404403   0.000000
    13  C    1.393374   2.778475   0.000000
    14  H    1.083507   3.387636   2.148810   0.000000
    15  C    2.783184   1.393759   2.408494   3.866654   0.000000
    16  H    3.390352   1.085864   3.864308   4.287470   2.148021
    17  C    2.417170   2.414417   1.394076   3.396964   1.393618
    18  H    2.148397   3.862974   1.084515   2.469867   3.393058
    19  H    3.867624   2.149748   3.393904   4.951106   1.084471
    20  H    3.400407   3.398324   2.154511   4.292749   2.153826
    21  N    3.314385   4.224943   4.503780   2.975934   5.212547
    22  H    3.715104   4.885028   4.983214   3.124456   5.909545
    23  H    4.121315   4.895909   5.177711   3.819552   5.814850
                   16         17         18         19         20
    16  H    0.000000
    17  C    3.395177   0.000000
    18  H    4.948810   2.152385   0.000000
    19  H    2.468232   2.153243   4.292970   0.000000
    20  H    4.291134   1.084272   2.482961   2.484076   0.000000
    21  N    4.601337   5.331815   5.037760   6.136410   6.315173
    22  H    5.269168   5.954106   5.416868   6.879152   6.946208
    23  H    5.210555   5.939172   5.662322   6.674941   6.865791
                   21         22         23
    21  N    0.000000
    22  H    1.014964   0.000000
    23  H    1.014047   1.639572   0.000000
 Stoichiometry    C9H11NO2
 Framework group  C1[X(C9H11NO2)]
 Deg. of freedom    63
 Full point group                 C1      NOp   1
 Largest Abelian subgroup         C1      NOp   1
 Largest concise Abelian subgroup C1      NOp   1
                         Standard orientation:                         
 ---------------------------------------------------------------------
 Center     Atomic      Atomic             Coordinates (Angstroms)
 Number     Number       Type             X           Y           Z
 ---------------------------------------------------------------------
      1          6           0        1.370873   -0.121471    0.449530
      2          1           0        1.031649    0.510785    1.272159
      3          6           0        2.777210    0.372255    0.109456
      4          8           0        3.246523    1.431957    0.441243
      5          8           0        3.463309   -0.520150   -0.652783
      6          1           0        4.328156   -0.128730   -0.847482
      7          6           0        0.446191    0.130734   -0.773521
      8          1           0        0.697048    1.105252   -1.202857
      9          1           0        0.675502   -0.621374   -1.534948
     10          6           0       -1.024566    0.104792   -0.425337
     11          6           0       -1.742160   -1.095273   -0.380958
     12          6           0       -1.696838    1.295030   -0.124918
     13          6           0       -3.094189   -1.105141   -0.044190
     14          1           0       -1.235146   -2.026826   -0.602618
     15          6           0       -3.048809    1.289071    0.213755
     16          1           0       -1.158175    2.237168   -0.161220
     17          6           0       -3.752291    0.086759    0.255349
     18          1           0       -3.634203   -2.045219   -0.015737
     19          1           0       -3.552168    2.222766    0.439412
     20          1           0       -4.804874    0.079037    0.515450
     21          7           0        1.295236   -1.514383    0.877501
     22          1           0        1.776877   -2.121998    0.222538
     23          1           0        1.717501   -1.645181    1.790121
 ---------------------------------------------------------------------
 Rotational constants (GHZ):      2.3582077      0.4570246      0.4116528
 Standard basis: 6-311++G(d,p) (5D, 7F)
 There are   353 symmetry adapted cartesian basis functions of A   symmetry.
 There are   341 symmetry adapted basis functions of A   symmetry.
   341 basis functions,   531 primitive gaussians,   353 cartesian basis functions
    44 alpha electrons       44 beta electrons
       nuclear repulsion energy       664.8752644217 Hartrees.
 NAtoms=   23 NActive=   23 NUniq=   23 SFac= 1.00D+00 NAtFMM=   60 NAOKFM=F Big=F
 Integral buffers will be    131072 words long.
 Raffenetti 2 integral format.
 Two-electron integral symmetry is turned on.
 One-electron integrals computed using PRISM.
 NBasis=   341 RedAO= T EigKep=  2.51D-06  NBF=   341
 NBsUse=   340 1.00D-06 EigRej=  6.80D-07 NBFU=   340
 ExpMin= 3.60D-02 ExpMax= 8.59D+03 ExpMxC= 1.30D+03 IAcc=3 IRadAn=         5 AccDes= 0.00D+00
 Harris functional with IExCor=  402 and IRadAn=       5 diagonalized for initial guess.
 HarFok:  IExCor=  402 AccDes= 0.00D+00 IRadAn=         5 IDoV= 1 UseB2=F ITyADJ=14
 ICtDFT=  3500011 ScaDFX=  1.000000  1.000000  1.000000  1.000000
 FoFCou: FMM=F IPFlag=           0 FMFlag=      100000 FMFlg1=           0
         NFxFlg=           0 DoJE=T BraDBF=F KetDBF=T FulRan=T
         wScrn=  0.000000 ICntrl=     500 IOpCl=  0 I1Cent=   200000004 NGrid=           0
         NMat0=    1 NMatS0=      1 NMatT0=    0 NMatD0=    1 NMtDS0=    0 NMtDT0=    0
 Petite list used in FoFCou.
 Requested convergence on RMS density matrix=1.00D-08 within 128 cycles.
 Requested convergence on MAX density matrix=1.00D-06.
 Requested convergence on             energy=1.00D-06.
 No special actions if energy rises.
 SCF Done:  E(RB3LYP) =  -554.958483886     A.U. after   15 cycles
            NFock= 15  Conv=0.30D-08     -V/T= 2.0041

 **********************************************************************

            Population analysis using the SCF density.

 **********************************************************************

 Orbital symmetries:
       Occupied  (A) (A) (A) (A) (A) (A) (A) (A) (A) (A) (A) (A)
                 (A) (A) (A) (A) (A) (A) (A) (A) (A) (A) (A) (A)
                 (A) (A) (A) (A) (A) (A) (A) (A) (A) (A) (A) (A)
                 (A) (A) (A) (A) (A) (A) (A) (A)
       Virtual   (A) (A) (A) (A) (A) (A) (A) (A) (A) (A) (A) (A)
                 (A) (A) (A) (A) (A) (A) (A) (A) (A) (A) (A) (A)
                 (A) (A) (A) (A) (A) (A) (A) (A) (A) (A) (A) (A)
                 (A) (A) (A) (A) (A) (A) (A) (A) (A) (A) (A) (A)
                 (A) (A) (A) (A) (A) (A) (A) (A) (A) (A) (A) (A)
                 (A) (A) (A) (A) (A) (A) (A) (A) (A) (A) (A) (A)
                 (A) (A) (A) (A) (A) (A) (A) (A) (A) (A) (A) (A)
                 (A) (A) (A) (A) (A) (A) (A) (A) (A) (A) (A) (A)
                 (A) (A) (A) (A) (A) (A) (A) (A) (A) (A) (A) (A)
                 (A) (A) (A) (A) (A) (A) (A) (A) (A) (A) (A) (A)
                 (A) (A) (A) (A) (A) (A) (A) (A) (A) (A) (A) (A)
                 (A) (A) (A) (A) (A) (A) (A) (A) (A) (A) (A) (A)
                 (A) (A) (A) (A) (A) (A) (A) (A) (A) (A) (A) (A)
                 (A) (A) (A) (A) (A) (A) (A) (A) (A) (A) (A) (A)
                 (A) (A) (A) (A) (A) (A) (A) (A) (A) (A) (A) (A)
                 (A) (A) (A) (A) (A) (A) (A) (A) (A) (A) (A) (A)
                 (A) (A) (A) (A) (A) (A) (A) (A) (A) (A) (A) (A)
                 (A) (A) (A) (A) (A) (A) (A) (A) (A) (A) (A) (A)
                 (A) (A) (A) (A) (A) (A) (A) (A) (A) (A) (A) (A)
                 (A) (A) (A) (A) (A) (A) (A) (A) (A) (A) (A) (A)
                 (A) (A) (A) (A) (A) (A) (A) (A) (A) (A) (A) (A)
                 (A) (A) (A) (A) (A) (A) (A) (A) (A) (A) (A) (A)
                 (A) (A) (A) (A) (A) (A) (A) (A) (A) (A) (A) (A)
                 (A) (A) (A) (A) (A) (A) (A) (A) (A) (A) (A) (A)
                 (A) (A) (A) (A) (A) (A) (A) (A)
 The electronic state is 1-A.
 Alpha  occ. eigenvalues --  -19.18678 -19.12950 -14.31140 -10.31562 -10.22942
 Alpha  occ. eigenvalues --  -10.18871 -10.18548 -10.17594 -10.17521 -10.17506
 Alpha  occ. eigenvalues --  -10.17446 -10.17294  -1.12653  -1.03747  -0.91138
 Alpha  occ. eigenvalues --   -0.86105  -0.78942  -0.74844  -0.73686  -0.67549
 Alpha  occ. eigenvalues --   -0.62041  -0.60952  -0.58760  -0.52525  -0.51993
 Alpha  occ. eigenvalues --   -0.50840  -0.49486  -0.47337  -0.46464  -0.45615
 Alpha  occ. eigenvalues --   -0.43843  -0.42709  -0.42336  -0.40478  -0.39063
 Alpha  occ. eigenvalues --   -0.37873  -0.36014  -0.34714  -0.34501  -0.34084
 Alpha  occ. eigenvalues --   -0.31541  -0.26125  -0.25330  -0.24838
 Alpha virt. eigenvalues --   -0.02787  -0.01703  -0.01463  -0.00847  -0.00207
 Alpha virt. eigenvalues --    0.00615   0.00987   0.01570   0.02542   0.03372
 Alpha virt. eigenvalues --    0.04079   0.04775   0.05514   0.06090   0.06453
 Alpha virt. eigenvalues --    0.07423   0.07849   0.08617   0.08663   0.09662
 Alpha virt. eigenvalues --    0.10089   0.10630   0.10946   0.11297   0.11855
 Alpha virt. eigenvalues --    0.12054   0.12230   0.12263   0.12840   0.13260
 Alpha virt. eigenvalues --    0.13863   0.13978   0.14547   0.14913   0.15261
 Alpha virt. eigenvalues --    0.15983   0.16436   0.16700   0.17219   0.17307
 Alpha virt. eigenvalues --    0.17975   0.18577   0.19225   0.19563   0.20083
 Alpha virt. eigenvalues --    0.20185   0.20585   0.21624   0.21935   0.22769
 Alpha virt. eigenvalues --    0.23637   0.24109   0.24954   0.25085   0.25605
 Alpha virt. eigenvalues --    0.25888   0.26609   0.26888   0.27183   0.27297
 Alpha virt. eigenvalues --    0.27984   0.28591   0.28861   0.29469   0.30186
 Alpha virt. eigenvalues --    0.30303   0.31062   0.31507   0.32168   0.32544
 Alpha virt. eigenvalues --    0.33523   0.34006   0.35317   0.35542   0.36616
 Alpha virt. eigenvalues --    0.37233   0.37425   0.37822   0.38790   0.39338
 Alpha virt. eigenvalues --    0.40465   0.42326   0.48106   0.48766   0.52260
 Alpha virt. eigenvalues --    0.53283   0.53706   0.54012   0.54866   0.56017
 Alpha virt. eigenvalues --    0.56325   0.56932   0.57159   0.57486   0.58630
 Alpha virt. eigenvalues --    0.59158   0.59870   0.61449   0.62286   0.62760
 Alpha virt. eigenvalues --    0.63618   0.66327   0.68031   0.68582   0.69521
 Alpha virt. eigenvalues --    0.70306   0.70790   0.71480   0.72048   0.72624
 Alpha virt. eigenvalues --    0.73416   0.75123   0.76098   0.77174   0.77713
 Alpha virt. eigenvalues --    0.78552   0.80083   0.82980   0.84114   0.85049
 Alpha virt. eigenvalues --    0.85619   0.86394   0.86928   0.88465   0.90006
 Alpha virt. eigenvalues --    0.91095   0.92003   0.94300   0.94875   0.96456
 Alpha virt. eigenvalues --    1.00744   1.02601   1.02960   1.03575   1.04555
 Alpha virt. eigenvalues --    1.06729   1.09071   1.09504   1.10520   1.11994
 Alpha virt. eigenvalues --    1.13555   1.14775   1.15685   1.18763   1.23049
 Alpha virt. eigenvalues --    1.23942   1.26030   1.27980   1.28513   1.31296
 Alpha virt. eigenvalues --    1.32731   1.36696   1.41023   1.44954   1.47785
 Alpha virt. eigenvalues --    1.48556   1.50568   1.51940   1.52600   1.53896
 Alpha virt. eigenvalues --    1.54598   1.55897   1.56940   1.57571   1.57960
 Alpha virt. eigenvalues --    1.59226   1.61751   1.63202   1.64826   1.65377
 Alpha virt. eigenvalues --    1.66499   1.67022   1.70771   1.71322   1.72922
 Alpha virt. eigenvalues --    1.74473   1.74682   1.77819   1.78510   1.79782
 Alpha virt. eigenvalues --    1.80372   1.83072   1.85828   1.86624   1.89567
 Alpha virt. eigenvalues --    1.92085   1.92998   1.93669   1.94856   1.95448
 Alpha virt. eigenvalues --    1.96631   1.97050   1.97989   1.98717   2.02120
 Alpha virt. eigenvalues --    2.03922   2.05091   2.07762   2.09051   2.12889
 Alpha virt. eigenvalues --    2.15391   2.19832   2.21628   2.26487   2.28214
 Alpha virt. eigenvalues --    2.32259   2.34044   2.39282   2.41477   2.44065
 Alpha virt. eigenvalues --    2.46200   2.47331   2.49417   2.51041   2.55458
 Alpha virt. eigenvalues --    2.56535   2.59613   2.63694   2.64815   2.66177
 Alpha virt. eigenvalues --    2.67125   2.68036   2.69046   2.70896   2.71496
 Alpha virt. eigenvalues --    2.72678   2.73878   2.74226   2.75809   2.78073
 Alpha virt. eigenvalues --    2.80391   2.81656   2.82532   2.83968   2.84946
 Alpha virt. eigenvalues --    2.86789   2.88582   2.91429   2.92618   2.94107
 Alpha virt. eigenvalues --    2.95212   2.96959   2.97980   3.00077   3.01396
 Alpha virt. eigenvalues --    3.05101   3.09025   3.09956   3.13099   3.16105
 Alpha virt. eigenvalues --    3.20163   3.23357   3.24962   3.29352   3.35856
 Alpha virt. eigenvalues --    3.37255   3.38771   3.50080   3.54368   3.55339
 Alpha virt. eigenvalues --    3.61546   3.63546   3.68790   3.71524   3.79276
 Alpha virt. eigenvalues --    3.85051   4.00246   4.02999   4.04575   4.08371
 Alpha virt. eigenvalues --    4.13451   4.15708   4.16549   4.24673   4.34769
 Alpha virt. eigenvalues --    4.73417   4.84791   4.85089   4.98744   5.05942
 Alpha virt. eigenvalues --    5.16913   5.39333   5.58423   5.83653  23.62404
 Alpha virt. eigenvalues --   23.79663  23.82255  23.90660  23.97373  23.98236
 Alpha virt. eigenvalues --   24.09075  24.10283  24.19650  35.60634  49.86595
 Alpha virt. eigenvalues --   50.00138
          Condensed to atoms (all electrons):
               1          2          3          4          5          6
     1  C    9.478926   0.505855  -1.465690   0.080184   0.151199  -0.127626
     2  H    0.505855   0.512282  -0.197766   0.008764   0.019941  -0.006192
     3  C   -1.465690  -0.197766   7.055851   0.360722   0.088416   0.117170
     4  O    0.080184   0.008764   0.360722   8.021568  -0.152012  -0.006577
     5  O    0.151199   0.019941   0.088416  -0.152012   8.067252   0.220981
     6  H   -0.127626  -0.006192   0.117170  -0.006577   0.220981   0.475262
     7  C   -1.769928  -0.106481   0.930049  -0.100888  -0.184914   0.029462
     8  H   -0.047582  -0.006478   0.036302  -0.009172  -0.002399   0.000926
     9  H   -0.052751   0.017271  -0.043117   0.001460   0.005500  -0.001979
    10  C   -0.000251   0.078760  -0.670886   0.031692   0.000179  -0.006229
    11  C   -0.805374  -0.015934   0.349514   0.000072   0.036022   0.003786
    12  C    1.067112   0.026654  -0.468521  -0.002004  -0.027247  -0.004315
    13  C   -0.064136  -0.012900   0.049063  -0.000899   0.002447   0.000549
    14  H    0.000631  -0.000665  -0.002578  -0.000083   0.000573  -0.000037
    15  C    0.013197  -0.036061   0.070019  -0.002162  -0.001539   0.000005
    16  H   -0.001036   0.002616  -0.018957  -0.000760  -0.000431  -0.000138
    17  C    0.064896   0.006155  -0.020089   0.000214  -0.000146  -0.000079
    18  H   -0.005076   0.000359  -0.000537   0.000009   0.000001  -0.000007
    19  H   -0.003178  -0.000048   0.001018   0.000034   0.000039   0.000011
    20  H   -0.000248   0.000204  -0.000541   0.000005  -0.000005  -0.000002
    21  N   -0.322062  -0.034937  -0.018011   0.016672  -0.062099   0.012839
    22  H   -0.028957   0.013251  -0.022490  -0.001056   0.003530   0.001225
    23  H   -0.089364  -0.018498   0.029845   0.000741  -0.000187   0.000993
               7          8          9         10         11         12
     1  C   -1.769928  -0.047582  -0.052751  -0.000251  -0.805374   1.067112
     2  H   -0.106481  -0.006478   0.017271   0.078760  -0.015934   0.026654
     3  C    0.930049   0.036302  -0.043117  -0.670886   0.349514  -0.468521
     4  O   -0.100888  -0.009172   0.001460   0.031692   0.000072  -0.002004
     5  O   -0.184914  -0.002399   0.005500   0.000179   0.036022  -0.027247
     6  H    0.029462   0.000926  -0.001979  -0.006229   0.003786  -0.004315
     7  C   14.574767   0.581703   0.449123  -4.531697  -0.930816  -2.547367
     8  H    0.581703   0.570722  -0.038876  -0.233094  -0.095228   0.077942
     9  H    0.449123  -0.038876   0.547813  -0.047812   0.052221  -0.059286
    10  C   -4.531697  -0.233094  -0.047812  11.399595  -0.289507   0.361992
    11  C   -0.930816  -0.095228   0.052221  -0.289507   9.804466  -2.987734
    12  C   -2.547367   0.077942  -0.059286   0.361992  -2.987734  10.903450
    13  C    0.380844  -0.025360   0.035610  -0.682924   0.108075   0.252960
    14  H    0.003248   0.005160  -0.010446  -0.068346   0.463221  -0.037947
    15  C   -0.191002   0.036275  -0.038387  -0.468720   0.646123  -0.349050
    16  H   -0.021824  -0.005715   0.005207  -0.011815   0.006955   0.423262
    17  C   -0.242774  -0.005405  -0.013112  -0.175635  -0.139371  -0.122410
    18  H    0.007014  -0.000122   0.002047   0.032246  -0.093144   0.016315
    19  H    0.006255   0.000658   0.000488   0.042308   0.014646  -0.088658
    20  H   -0.013511  -0.000336  -0.000342   0.024084   0.008071  -0.000532
    21  N    0.284929  -0.008434  -0.005488  -0.044288   0.019808  -0.095972
    22  H    0.000734   0.001200   0.001779  -0.008125   0.005254  -0.005158
    23  H    0.015782  -0.000466  -0.001493   0.011888   0.007052  -0.004677
              13         14         15         16         17         18
     1  C   -0.064136   0.000631   0.013197  -0.001036   0.064896  -0.005076
     2  H   -0.012900  -0.000665  -0.036061   0.002616   0.006155   0.000359
     3  C    0.049063  -0.002578   0.070019  -0.018957  -0.020089  -0.000537
     4  O   -0.000899  -0.000083  -0.002162  -0.000760   0.000214   0.000009
     5  O    0.002447   0.000573  -0.001539  -0.000431  -0.000146   0.000001
     6  H    0.000549  -0.000037   0.000005  -0.000138  -0.000079  -0.000007
     7  C    0.380844   0.003248  -0.191002  -0.021824  -0.242774   0.007014
     8  H   -0.025360   0.005160   0.036275  -0.005715  -0.005405  -0.000122
     9  H    0.035610  -0.010446  -0.038387   0.005207  -0.013112   0.002047
    10  C   -0.682924  -0.068346  -0.468720  -0.011815  -0.175635   0.032246
    11  C    0.108075   0.463221   0.646123   0.006955  -0.139371  -0.093144
    12  C    0.252960  -0.037947  -0.349050   0.423262  -0.122410   0.016315
    13  C    5.762105  -0.089940  -0.236776   0.017135   0.440855   0.419721
    14  H   -0.089940   0.547910   0.022382  -0.003289   0.026286  -0.019232
    15  C   -0.236776   0.022382   6.036085  -0.091031   0.552174   0.001281
    16  H    0.017135  -0.003289  -0.091031   0.552207   0.003148   0.001084
    17  C    0.440855   0.026286   0.552174   0.003148   5.637947  -0.066101
    18  H    0.419721  -0.019232   0.001281   0.001084  -0.066101   0.549600
    19  H    0.003925   0.000490   0.412246  -0.017017  -0.072628  -0.000379
    20  H   -0.067752   0.001069  -0.056287  -0.000127   0.435946  -0.015882
    21  N    0.005469   0.001047   0.005018  -0.000552  -0.004946  -0.001115
    22  H    0.002093  -0.000161  -0.000567  -0.000352   0.000049   0.000027
    23  H   -0.001890   0.001379   0.001956  -0.000141  -0.001360   0.000055
              19         20         21         22         23
     1  C   -0.003178  -0.000248  -0.322062  -0.028957  -0.089364
     2  H   -0.000048   0.000204  -0.034937   0.013251  -0.018498
     3  C    0.001018  -0.000541  -0.018011  -0.022490   0.029845
     4  O    0.000034   0.000005   0.016672  -0.001056   0.000741
     5  O    0.000039  -0.000005  -0.062099   0.003530  -0.000187
     6  H    0.000011  -0.000002   0.012839   0.001225   0.000993
     7  C    0.006255  -0.013511   0.284929   0.000734   0.015782
     8  H    0.000658  -0.000336  -0.008434   0.001200  -0.000466
     9  H    0.000488  -0.000342  -0.005488   0.001779  -0.001493
    10  C    0.042308   0.024084  -0.044288  -0.008125   0.011888
    11  C    0.014646   0.008071   0.019808   0.005254   0.007052
    12  C   -0.088658  -0.000532  -0.095972  -0.005158  -0.004677
    13  C    0.003925  -0.067752   0.005469   0.002093  -0.001890
    14  H    0.000490   0.001069   0.001047  -0.000161   0.001379
    15  C    0.412246  -0.056287   0.005018  -0.000567   0.001956
    16  H   -0.017017  -0.000127  -0.000552  -0.000352  -0.000141
    17  C   -0.072628   0.435946  -0.004946   0.000049  -0.001360
    18  H   -0.000379  -0.015882  -0.001115   0.000027   0.000055
    19  H    0.549132  -0.015305   0.000037   0.000040   0.000073
    20  H   -0.015305   0.550132  -0.000095  -0.000018  -0.000037
    21  N    0.000037  -0.000095   6.715981   0.389009   0.399112
    22  H    0.000040  -0.000018   0.389009   0.456634  -0.047364
    23  H    0.000073  -0.000037   0.399112  -0.047364   0.451009
 Mulliken charges:
               1
     1  C   -0.578741
     2  H    0.243849
     3  C   -0.158786
     4  O   -0.246524
     5  O   -0.165100
     6  H    0.289972
     7  C   -0.622705
     8  H    0.167780
     9  H    0.194570
    10  C    1.256585
    11  C   -0.168177
    12  C   -0.328809
    13  C   -0.298274
    14  H    0.159327
    15  C   -0.325179
    16  H    0.161570
    17  C   -0.303613
    18  H    0.171837
    19  H    0.165814
    20  H    0.151510
    21  N   -0.251922
    22  H    0.239424
    23  H    0.245594
 Sum of Mulliken charges =   0.00000
 Mulliken charges with hydrogens summed into heavy atoms:
               1
     1  C   -0.334892
     3  C   -0.158786
     4  O   -0.246524
     5  O    0.124872
     7  C   -0.260355
    10  C    1.256585
    11  C   -0.008850
    12  C   -0.167239
    13  C   -0.126437
    15  C   -0.159365
    17  C   -0.152103
    21  N    0.233095
 Electronic spatial extent (au):  <R**2>=           2636.4894
 Charge=              0.0000 electrons
 Dipole moment (field-independent basis, Debye):
    X=              0.7363    Y=             -1.4613    Z=             -0.5194  Tot=              1.7168
 Quadrupole moment (field-independent basis, Debye-Ang):
   XX=            -65.1818   YY=            -71.7976   ZZ=            -72.2994
   XY=             -7.3668   XZ=             -4.1481   YZ=             -1.2661
 Traceless Quadrupole moment (field-independent basis, Debye-Ang):
   XX=              4.5778   YY=             -2.0380   ZZ=             -2.5398
   XY=             -7.3668   XZ=             -4.1481   YZ=             -1.2661
 Octapole moment (field-independent basis, Debye-Ang**2):
  XXX=             44.3094  YYY=             -9.3399  ZZZ=              6.1977  XYY=             -7.9456
  XXY=            -25.1602  XXZ=             -7.3755  XZZ=             27.3380  YZZ=             -3.0189
  YYZ=             -2.7051  XYZ=            -11.8351
 Hexadecapole moment (field-independent basis, Debye-Ang**3):
 XXXX=          -2424.0835 YYYY=           -512.6810 ZZZZ=           -201.7419 XXXY=            -68.4779
 XXXZ=           -137.4722 YYYX=            -34.8890 YYYZ=              1.6642 ZZZX=              4.8628
 ZZZY=             -8.2168 XXYY=           -569.1129 XXZZ=           -504.4396 YYZZ=           -126.4714
 XXYZ=            -21.5144 YYXZ=             -6.4906 ZZXY=             -6.4729
 N-N= 6.648752644217D+02 E-N=-2.624477975159D+03  KE= 5.526825810769D+02
 Calling FoFJK, ICntrl=      2127 FMM=F ISym2X=0 I1Cent= 0 IOpClX= 0 NMat=1 NMatS=1 NMatT=0.
 ***** Axes restored to original set *****
 -------------------------------------------------------------------
 Center     Atomic                   Forces (Hartrees/Bohr)
 Number     Number              X              Y              Z
 -------------------------------------------------------------------
      1        6           0.000009448   -0.000004256   -0.000000022
      2        1          -0.000007165    0.000001284    0.000000071
      3        6          -0.000002339    0.000007819   -0.000010787
      4        8          -0.000002183   -0.000012127   -0.000007742
      5        8          -0.000002219   -0.000007679   -0.000005435
      6        1          -0.000000935   -0.000005172   -0.000004846
      7        6           0.000005959   -0.000001438    0.000009448
      8        1           0.000002167   -0.000001839   -0.000005083
      9        1           0.000000679   -0.000004079   -0.000000396
     10        6          -0.000002787   -0.000003809   -0.000006086
     11        6          -0.000002517    0.000003186    0.000003910
     12        6           0.000002251    0.000003765    0.000002927
     13        6           0.000003993    0.000005363    0.000005155
     14        1           0.000004073    0.000001015    0.000003759
     15        6          -0.000004428    0.000005803    0.000001831
     16        1          -0.000002700    0.000000813   -0.000002277
     17        6          -0.000001502    0.000001279    0.000005094
     18        1           0.000001417    0.000003553    0.000006306
     19        1          -0.000003078    0.000004500    0.000001201
     20        1          -0.000000733    0.000006745    0.000005157
     21        7           0.000004135   -0.000000901   -0.000007142
     22        1          -0.000005084   -0.000002864    0.000002860
     23        1           0.000003550   -0.000000962    0.000002098
 -------------------------------------------------------------------
 Cartesian Forces:  Max     0.000012127 RMS     0.000004641

 GradGradGradGradGradGradGradGradGradGradGradGradGradGradGradGradGradGrad
 Berny optimization.
 FormGI is forming the generalized inverse of G from B-inverse, IUseBI=4.
 Internal  Forces:  Max     0.000008782 RMS     0.000002043
 Search for a local minimum.
 Step number   1 out of a maximum of  123
 All quantities printed in internal units (Hartrees-Bohrs-Radians)
 Mixed Optimization -- En-DIIS/RFO-DIIS
 Second derivative matrix not updated -- first step.
 ITU=  0
     Eigenvalues ---    0.00230   0.00385   0.00612   0.00822   0.00910
     Eigenvalues ---    0.01493   0.02107   0.02131   0.02140   0.02158
     Eigenvalues ---    0.02170   0.02171   0.02172   0.02173   0.02228
     Eigenvalues ---    0.03979   0.04074   0.04205   0.05400   0.05406
     Eigenvalues ---    0.06237   0.09376   0.12885   0.15999   0.16000
     Eigenvalues ---    0.16000   0.16000   0.16000   0.16000   0.16000
     Eigenvalues ---    0.16000   0.17191   0.19222   0.21969   0.22000
     Eigenvalues ---    0.22000   0.23473   0.24997   0.24998   0.25000
     Eigenvalues ---    0.27325   0.29535   0.31187   0.34293   0.34349
     Eigenvalues ---    0.34631   0.35295   0.35454   0.35459   0.35483
     Eigenvalues ---    0.35574   0.37072   0.42062   0.42142   0.45151
     Eigenvalues ---    0.45302   0.45929   0.46241   0.46662   0.46709
     Eigenvalues ---    0.53057   0.53569   1.02092
 RFO step:  Lambda=-1.24251677D-08 EMin= 2.30000000D-03
 Linear search not attempted -- first point.
 Iteration  1 RMS(Cart)=  0.00011492 RMS(Int)=  0.00000002
 Iteration  2 RMS(Cart)=  0.00000002 RMS(Int)=  0.00000000
 Variable       Old X    -DE/DX   Delta X   Delta X   Delta X     New X
                                 (Linear)    (Quad)   (Total)
    R1        2.06278   0.00000   0.00000   0.00000   0.00000   2.06278
    R2        2.88900  -0.00001   0.00000  -0.00003  -0.00003   2.88897
    R3        2.93638   0.00000   0.00000   0.00001   0.00001   2.93639
    R4        2.75737   0.00000   0.00000   0.00000   0.00000   2.75737
    R5        2.27812   0.00001   0.00000   0.00001   0.00001   2.27813
    R6        2.56900   0.00000   0.00000  -0.00001  -0.00001   2.56900
    R7        1.83126   0.00000   0.00000   0.00000   0.00000   1.83126
    R8        2.06745   0.00000   0.00000   0.00000   0.00000   2.06745
    R9        2.06838   0.00000   0.00000   0.00000   0.00000   2.06838
   R10        2.85657   0.00000   0.00000   0.00002   0.00002   2.85659
   R11        2.64364   0.00000   0.00000   0.00001   0.00001   2.64364
   R12        2.64485   0.00000   0.00000  -0.00001  -0.00001   2.64484
   R13        2.63310   0.00000   0.00000   0.00000   0.00000   2.63309
   R14        2.04753   0.00000   0.00000   0.00000   0.00000   2.04753
   R15        2.63382   0.00000   0.00000   0.00000   0.00000   2.63383
   R16        2.05199   0.00000   0.00000   0.00000   0.00000   2.05199
   R17        2.63442   0.00000   0.00000   0.00000   0.00000   2.63442
   R18        2.04944   0.00000   0.00000   0.00000   0.00000   2.04944
   R19        2.63356   0.00000   0.00000   0.00000   0.00000   2.63355
   R20        2.04935   0.00000   0.00000   0.00000   0.00000   2.04935
   R21        2.04898   0.00000   0.00000   0.00000   0.00000   2.04898
   R22        1.91800   0.00000   0.00000   0.00000   0.00000   1.91800
   R23        1.91627   0.00000   0.00000   0.00000   0.00000   1.91627
    A1        1.84051   0.00000   0.00000   0.00001   0.00001   1.84052
    A2        1.89044   0.00000   0.00000  -0.00001  -0.00001   1.89043
    A3        1.89207   0.00000   0.00000   0.00000   0.00000   1.89207
    A4        1.89643   0.00000   0.00000   0.00000   0.00000   1.89644
    A5        2.00559   0.00000   0.00000   0.00000   0.00000   2.00559
    A6        1.93366   0.00000   0.00000   0.00000   0.00000   1.93367
    A7        2.19048   0.00000   0.00000   0.00000   0.00000   2.19048
    A8        1.95734  -0.00001   0.00000  -0.00003  -0.00003   1.95731
    A9        2.13516   0.00001   0.00000   0.00002   0.00002   2.13518
   A10        1.87330   0.00000   0.00000   0.00001   0.00001   1.87332
   A11        1.89337   0.00000   0.00000  -0.00002  -0.00002   1.89335
   A12        1.88741   0.00000   0.00000   0.00002   0.00002   1.88744
   A13        1.97677   0.00000   0.00000  -0.00002  -0.00002   1.97675
   A14        1.86611   0.00000   0.00000   0.00001   0.00001   1.86611
   A15        1.90580   0.00000   0.00000   0.00002   0.00002   1.90581
   A16        1.93081   0.00000   0.00000   0.00000   0.00000   1.93080
   A17        2.11895   0.00000   0.00000   0.00000   0.00000   2.11895
   A18        2.09693   0.00000   0.00000   0.00000   0.00000   2.09693
   A19        2.06726   0.00000   0.00000   0.00000   0.00000   2.06726
   A20        2.10769   0.00000   0.00000   0.00000   0.00000   2.10769
   A21        2.08404   0.00000   0.00000   0.00000   0.00000   2.08404
   A22        2.09141   0.00000   0.00000   0.00000   0.00000   2.09141
   A23        2.11117   0.00000   0.00000   0.00000   0.00000   2.11117
   A24        2.08564   0.00000   0.00000   0.00000   0.00000   2.08564
   A25        2.08636   0.00000   0.00000   0.00000   0.00000   2.08636
   A26        2.09895   0.00000   0.00000   0.00000   0.00000   2.09895
   A27        2.08936   0.00000   0.00000   0.00001   0.00001   2.08937
   A28        2.09487   0.00000   0.00000  -0.00001  -0.00001   2.09486
   A29        2.09508   0.00000   0.00000   0.00000   0.00000   2.09508
   A30        2.09107   0.00000   0.00000   0.00000   0.00000   2.09107
   A31        2.09702   0.00000   0.00000   0.00000   0.00000   2.09702
   A32        2.08622   0.00000   0.00000   0.00000   0.00000   2.08622
   A33        2.09871   0.00000   0.00000   0.00000   0.00000   2.09870
   A34        2.09826   0.00000   0.00000   0.00000   0.00000   2.09826
   A35        1.93651   0.00000   0.00000   0.00000   0.00000   1.93651
   A36        1.94498   0.00000   0.00000  -0.00001  -0.00001   1.94497
   A37        1.88172   0.00000   0.00000   0.00002   0.00002   1.88174
    D1       -0.29677   0.00000   0.00000  -0.00014  -0.00014  -0.29691
    D2        2.86646   0.00000   0.00000   0.00022   0.00022   2.86668
    D3        1.72678   0.00000   0.00000  -0.00015  -0.00015   1.72663
    D4       -1.39318   0.00000   0.00000   0.00022   0.00022  -1.39296
    D5       -2.37923   0.00000   0.00000  -0.00014  -0.00014  -2.37937
    D6        0.78400   0.00000   0.00000   0.00022   0.00022   0.78422
    D7        1.29112   0.00000   0.00000   0.00002   0.00002   1.29114
    D8       -2.97409   0.00000   0.00000   0.00003   0.00003  -2.97406
    D9       -0.82769   0.00000   0.00000   0.00003   0.00003  -0.82766
   D10       -0.69995   0.00000   0.00000   0.00001   0.00001  -0.69993
   D11        1.31803   0.00000   0.00000   0.00002   0.00002   1.31805
   D12       -2.81875   0.00000   0.00000   0.00002   0.00002  -2.81873
   D13       -2.91895   0.00000   0.00000   0.00001   0.00001  -2.91894
   D14       -0.90097   0.00000   0.00000   0.00002   0.00002  -0.90095
   D15        1.24543   0.00000   0.00000   0.00002   0.00002   1.24545
   D16       -2.93701   0.00000   0.00000  -0.00042  -0.00042  -2.93743
   D17       -0.83992   0.00000   0.00000  -0.00040  -0.00040  -0.84032
   D18       -0.88348   0.00000   0.00000  -0.00041  -0.00041  -0.88389
   D19        1.21360   0.00000   0.00000  -0.00039  -0.00039   1.21322
   D20        1.27404   0.00000   0.00000  -0.00040  -0.00040   1.27364
   D21       -2.91206   0.00000   0.00000  -0.00038  -0.00038  -2.91244
   D22        3.11316   0.00000   0.00000  -0.00022  -0.00022   3.11294
   D23       -0.00759   0.00000   0.00000   0.00013   0.00013  -0.00745
   D24       -1.48813   0.00000   0.00000   0.00000   0.00000  -1.48813
   D25        1.64210   0.00000   0.00000   0.00004   0.00004   1.64214
   D26        2.68324   0.00000   0.00000   0.00003   0.00003   2.68328
   D27       -0.46971   0.00000   0.00000   0.00007   0.00007  -0.46964
   D28        0.63410   0.00000   0.00000   0.00002   0.00002   0.63412
   D29       -2.51885   0.00000   0.00000   0.00006   0.00006  -2.51880
   D30        3.12930   0.00000   0.00000   0.00001   0.00001   3.12931
   D31       -0.00228   0.00000   0.00000   0.00003   0.00003  -0.00225
   D32       -0.00112   0.00000   0.00000  -0.00002  -0.00002  -0.00115
   D33       -3.13270   0.00000   0.00000  -0.00001  -0.00001  -3.13271
   D34       -3.12824   0.00000   0.00000  -0.00002  -0.00002  -3.12827
   D35        0.01880   0.00000   0.00000  -0.00004  -0.00004   0.01876
   D36        0.00232   0.00000   0.00000   0.00001   0.00001   0.00233
   D37       -3.13383   0.00000   0.00000   0.00000   0.00000  -3.13382
   D38       -0.00084   0.00000   0.00000   0.00002   0.00002  -0.00081
   D39        3.14079   0.00000   0.00000   0.00002   0.00002   3.14081
   D40        3.13070   0.00000   0.00000   0.00000   0.00000   3.13071
   D41       -0.01086   0.00000   0.00000   0.00000   0.00000  -0.01086
   D42       -0.00156   0.00000   0.00000   0.00000   0.00000  -0.00156
   D43       -3.13751   0.00000   0.00000  -0.00001  -0.00001  -3.13752
   D44        3.13458   0.00000   0.00000   0.00001   0.00001   3.13459
   D45       -0.00137   0.00000   0.00000   0.00000   0.00000  -0.00137
   D46        0.00162   0.00000   0.00000  -0.00001  -0.00001   0.00161
   D47        3.13946   0.00000   0.00000   0.00001   0.00001   3.13946
   D48       -3.14000   0.00000   0.00000  -0.00001  -0.00001  -3.14001
   D49       -0.00217   0.00000   0.00000   0.00001   0.00001  -0.00216
   D50       -0.00043   0.00000   0.00000   0.00000   0.00000  -0.00043
   D51       -3.13827   0.00000   0.00000  -0.00002  -0.00002  -3.13829
   D52        3.13550   0.00000   0.00000   0.00001   0.00001   3.13551
   D53       -0.00234   0.00000   0.00000  -0.00001  -0.00001  -0.00235
         Item               Value     Threshold  Converged?
 Maximum Force            0.000009     0.000450     YES
 RMS     Force            0.000002     0.000300     YES
 Maximum Displacement     0.000563     0.001800     YES
 RMS     Displacement     0.000115     0.001200     YES
 Predicted change in Energy=-6.212539D-09
 Optimization completed.
    -- Stationary point found.
                           ----------------------------
                           !   Optimized Parameters   !
                           ! (Angstroms and Degrees)  !
 --------------------------                            --------------------------
 ! Name  Definition              Value          Derivative Info.                !
 --------------------------------------------------------------------------------
 ! R1    R(1,2)                  1.0916         -DE/DX =    0.0                 !
 ! R2    R(1,3)                  1.5288         -DE/DX =    0.0                 !
 ! R3    R(1,7)                  1.5539         -DE/DX =    0.0                 !
 ! R4    R(1,21)                 1.4591         -DE/DX =    0.0                 !
 ! R5    R(3,4)                  1.2055         -DE/DX =    0.0                 !
 ! R6    R(3,5)                  1.3595         -DE/DX =    0.0                 !
 ! R7    R(5,6)                  0.9691         -DE/DX =    0.0                 !
 ! R8    R(7,8)                  1.094          -DE/DX =    0.0                 !
 ! R9    R(7,9)                  1.0945         -DE/DX =    0.0                 !
 ! R10   R(7,10)                 1.5116         -DE/DX =    0.0                 !
 ! R11   R(10,11)                1.399          -DE/DX =    0.0                 !
 ! R12   R(10,12)                1.3996         -DE/DX =    0.0                 !
 ! R13   R(11,13)                1.3934         -DE/DX =    0.0                 !
 ! R14   R(11,14)                1.0835         -DE/DX =    0.0                 !
 ! R15   R(12,15)                1.3938         -DE/DX =    0.0                 !
 ! R16   R(12,16)                1.0859         -DE/DX =    0.0                 !
 ! R17   R(13,17)                1.3941         -DE/DX =    0.0                 !
 ! R18   R(13,18)                1.0845         -DE/DX =    0.0                 !
 ! R19   R(15,17)                1.3936         -DE/DX =    0.0                 !
 ! R20   R(15,19)                1.0845         -DE/DX =    0.0                 !
 ! R21   R(17,20)                1.0843         -DE/DX =    0.0                 !
 ! R22   R(21,22)                1.015          -DE/DX =    0.0                 !
 ! R23   R(21,23)                1.014          -DE/DX =    0.0                 !
 ! A1    A(2,1,3)              105.4534         -DE/DX =    0.0                 !
 ! A2    A(2,1,7)              108.3143         -DE/DX =    0.0                 !
 ! A3    A(2,1,21)             108.4077         -DE/DX =    0.0                 !
 ! A4    A(3,1,7)              108.6577         -DE/DX =    0.0                 !
 ! A5    A(3,1,21)             114.9119         -DE/DX =    0.0                 !
 ! A6    A(7,1,21)             110.7906         -DE/DX =    0.0                 !
 ! A7    A(1,3,4)              125.5055         -DE/DX =    0.0                 !
 ! A8    A(1,3,5)              112.1471         -DE/DX =    0.0                 !
 ! A9    A(4,3,5)              122.3354         -DE/DX =    0.0                 !
 ! A10   A(3,5,6)              107.3324         -DE/DX =    0.0                 !
 ! A11   A(1,7,8)              108.4821         -DE/DX =    0.0                 !
 ! A12   A(1,7,9)              108.1408         -DE/DX =    0.0                 !
 ! A13   A(1,7,10)             113.2603         -DE/DX =    0.0                 !
 ! A14   A(8,7,9)              106.92           -DE/DX =    0.0                 !
 ! A15   A(8,7,10)             109.1941         -DE/DX =    0.0                 !
 ! A16   A(9,7,10)             110.627          -DE/DX =    0.0                 !
 ! A17   A(7,10,11)            121.4067         -DE/DX =    0.0                 !
 ! A18   A(7,10,12)            120.1451         -DE/DX =    0.0                 !
 ! A19   A(11,10,12)           118.4451         -DE/DX =    0.0                 !
 ! A20   A(10,11,13)           120.762          -DE/DX =    0.0                 !
 ! A21   A(10,11,14)           119.4068         -DE/DX =    0.0                 !
 ! A22   A(13,11,14)           119.8287         -DE/DX =    0.0                 !
 ! A23   A(10,12,15)           120.961          -DE/DX =    0.0                 !
 ! A24   A(10,12,16)           119.4985         -DE/DX =    0.0                 !
 ! A25   A(15,12,16)           119.5398         -DE/DX =    0.0                 !
 ! A26   A(11,13,17)           120.261          -DE/DX =    0.0                 !
 ! A27   A(11,13,18)           119.7117         -DE/DX =    0.0                 !
 ! A28   A(17,13,18)           120.0273         -DE/DX =    0.0                 !
 ! A29   A(12,15,17)           120.0393         -DE/DX =    0.0                 !
 ! A30   A(12,15,19)           119.8094         -DE/DX =    0.0                 !
 ! A31   A(17,15,19)           120.1505         -DE/DX =    0.0                 !
 ! A32   A(13,17,15)           119.5315         -DE/DX =    0.0                 !
 ! A33   A(13,17,20)           120.247          -DE/DX =    0.0                 !
 ! A34   A(15,17,20)           120.2212         -DE/DX =    0.0                 !
 ! A35   A(1,21,22)            110.9538         -DE/DX =    0.0                 !
 ! A36   A(1,21,23)            111.4392         -DE/DX =    0.0                 !
 ! A37   A(22,21,23)           107.8146         -DE/DX =    0.0                 !
 ! D1    D(2,1,3,4)            -17.0038         -DE/DX =    0.0                 !
 ! D2    D(2,1,3,5)            164.2358         -DE/DX =    0.0                 !
 ! D3    D(7,1,3,4)             98.9372         -DE/DX =    0.0                 !
 ! D4    D(7,1,3,5)            -79.8232         -DE/DX =    0.0                 !
 ! D5    D(21,1,3,4)          -136.3197         -DE/DX =    0.0                 !
 ! D6    D(21,1,3,5)            44.9199         -DE/DX =    0.0                 !
 ! D7    D(2,1,7,8)             73.9755         -DE/DX =    0.0                 !
 ! D8    D(2,1,7,9)           -170.4028         -DE/DX =    0.0                 !
 ! D9    D(2,1,7,10)           -47.4232         -DE/DX =    0.0                 !
 ! D10   D(3,1,7,8)            -40.1039         -DE/DX =    0.0                 !
 ! D11   D(3,1,7,9)             75.5177         -DE/DX =    0.0                 !
 ! D12   D(3,1,7,10)          -161.5027         -DE/DX =    0.0                 !
 ! D13   D(21,1,7,8)          -167.2433         -DE/DX =    0.0                 !
 ! D14   D(21,1,7,9)           -51.6217         -DE/DX =    0.0                 !
 ! D15   D(21,1,7,10)           71.3579         -DE/DX =    0.0                 !
 ! D16   D(2,1,21,22)         -168.2784         -DE/DX =    0.0                 !
 ! D17   D(2,1,21,23)          -48.1241         -DE/DX =    0.0                 !
 ! D18   D(3,1,21,22)          -50.6199         -DE/DX =    0.0                 !
 ! D19   D(3,1,21,23)           69.5344         -DE/DX =    0.0                 !
 ! D20   D(7,1,21,22)           72.997          -DE/DX =    0.0                 !
 ! D21   D(7,1,21,23)         -166.8487         -DE/DX =    0.0                 !
 ! D22   D(1,3,5,6)            178.3709         -DE/DX =    0.0                 !
 ! D23   D(4,3,5,6)             -0.4348         -DE/DX =    0.0                 !
 ! D24   D(1,7,10,11)          -85.2637         -DE/DX =    0.0                 !
 ! D25   D(1,7,10,12)           94.0852         -DE/DX =    0.0                 !
 ! D26   D(8,7,10,11)          153.7386         -DE/DX =    0.0                 !
 ! D27   D(8,7,10,12)          -26.9124         -DE/DX =    0.0                 !
 ! D28   D(9,7,10,11)           36.3313         -DE/DX =    0.0                 !
 ! D29   D(9,7,10,12)         -144.3197         -DE/DX =    0.0                 !
 ! D30   D(7,10,11,13)         179.2955         -DE/DX =    0.0                 !
 ! D31   D(7,10,11,14)          -0.1307         -DE/DX =    0.0                 !
 ! D32   D(12,10,11,13)         -0.0642         -DE/DX =    0.0                 !
 ! D33   D(12,10,11,14)       -179.4905         -DE/DX =    0.0                 !
 ! D34   D(7,10,12,15)        -179.2352         -DE/DX =    0.0                 !
 ! D35   D(7,10,12,16)           1.0769         -DE/DX =    0.0                 !
 ! D36   D(11,10,12,15)          0.1328         -DE/DX =    0.0                 !
 ! D37   D(11,10,12,16)       -179.555          -DE/DX =    0.0                 !
 ! D38   D(10,11,13,17)         -0.0479         -DE/DX =    0.0                 !
 ! D39   D(10,11,13,18)        179.9539         -DE/DX =    0.0                 !
 ! D40   D(14,11,13,17)        179.376          -DE/DX =    0.0                 !
 ! D41   D(14,11,13,18)         -0.6222         -DE/DX =    0.0                 !
 ! D42   D(10,12,15,17)         -0.0894         -DE/DX =    0.0                 !
 ! D43   D(10,12,15,19)       -179.7661         -DE/DX =    0.0                 !
 ! D44   D(16,12,15,17)        179.5983         -DE/DX =    0.0                 !
 ! D45   D(16,12,15,19)         -0.0784         -DE/DX =    0.0                 !
 ! D46   D(11,13,17,15)          0.0928         -DE/DX =    0.0                 !
 ! D47   D(11,13,17,20)        179.8775         -DE/DX =    0.0                 !
 ! D48   D(18,13,17,15)       -179.909          -DE/DX =    0.0                 !
 ! D49   D(18,13,17,20)         -0.1243         -DE/DX =    0.0                 !
 ! D50   D(12,15,17,13)         -0.0249         -DE/DX =    0.0                 !
 ! D51   D(12,15,17,20)       -179.8096         -DE/DX =    0.0                 !
 ! D52   D(19,15,17,13)        179.6507         -DE/DX =    0.0                 !
 ! D53   D(19,15,17,20)         -0.1341         -DE/DX =    0.0                 !
 --------------------------------------------------------------------------------
 GradGradGradGradGradGradGradGradGradGradGradGradGradGradGradGradGradGrad

                          Input orientation:                          
 ---------------------------------------------------------------------
 Center     Atomic      Atomic             Coordinates (Angstroms)
 Number     Number       Type             X           Y           Z
 ---------------------------------------------------------------------
      1          6           0        1.370873    0.121471   -0.449530
      2          1           0        1.031649   -0.510785   -1.272159
      3          6           0        2.777210   -0.372255   -0.109456
      4          8           0        3.246523   -1.431957   -0.441243
      5          8           0        3.463309    0.520150    0.652783
      6          1           0        4.328156    0.128730    0.847482
      7          6           0        0.446191   -0.130734    0.773521
      8          1           0        0.697048   -1.105252    1.202857
      9          1           0        0.675502    0.621374    1.534948
     10          6           0       -1.024566   -0.104792    0.425337
     11          6           0       -1.742160    1.095273    0.380958
     12          6           0       -1.696838   -1.295030    0.124918
     13          6           0       -3.094189    1.105141    0.044190
     14          1           0       -1.235146    2.026826    0.602618
     15          6           0       -3.048809   -1.289071   -0.213755
     16          1           0       -1.158175   -2.237168    0.161220
     17          6           0       -3.752291   -0.086759   -0.255349
     18          1           0       -3.634203    2.045219    0.015737
     19          1           0       -3.552168   -2.222766   -0.439412
     20          1           0       -4.804874   -0.079037   -0.515450
     21          7           0        1.295236    1.514383   -0.877501
     22          1           0        1.776877    2.121998   -0.222538
     23          1           0        1.717501    1.645181   -1.790121
 ---------------------------------------------------------------------
                    Distance matrix (angstroms):
                    1          2          3          4          5
     1  C    0.000000
     2  H    1.091576   0.000000
     3  C    1.528791   2.101917   0.000000
     4  O    2.435420   2.538631   1.205531   0.000000
     5  O    2.398401   3.268210   1.359458   2.248246   0.000000
     6  H    3.229213   3.970997   1.890013   2.294883   0.969061
     7  C    1.553866   2.161483   2.504323   3.318236   3.088888
     8  H    2.165473   2.567305   2.566423   3.051168   3.255259
     9  H    2.161388   3.047700   2.847550   3.838183   2.925804
    10  C    2.560218   2.697099   3.848512   4.555714   4.536883
    11  C    3.365854   3.606415   4.776908   5.652421   5.244193
    12  C    3.427435   3.164096   4.574226   4.977560   5.495510
    13  C    4.598711   4.622394   6.056371   6.846688   6.611609
    14  H    3.395398   3.884922   4.728810   5.756577   4.934376
    15  C    4.645300   4.286734   5.898638   6.301061   6.814092
    16  H    3.511734   3.135332   4.363304   4.518040   5.403938
    17  C    5.131069   4.909152   6.537367   7.129341   7.297802
    18  H    5.382199   5.473756   6.853180   7.722951   7.287409
    19  H    5.452695   4.963439   6.602597   6.844529   7.611399
    20  H    6.179353   5.901188   7.598606   8.164613   8.371777
    21  N    1.459138   2.080033   2.519036   3.560725   2.833868
    22  H    2.053892   2.930634   2.689749   3.852050   2.485187
    23  H    2.058890   2.320962   2.831549   3.691363   3.206450
                    6          7          8          9         10
     6  H    0.000000
     7  C    3.891329   0.000000
     8  H    3.851487   1.094049   0.000000
     9  H    3.749292   1.094541   1.758404   0.000000
    10  C    5.374419   1.511632   2.137618   2.156104   0.000000
    11  C    6.164462   2.538913   3.386378   2.720545   1.398952
    12  C    6.232956   2.523657   2.632234   3.359878   1.399595
    13  C    7.529267   3.820157   4.538922   4.082519   2.427457
    14  H    5.883286   2.740650   3.728749   2.548550   2.149318
    15  C    7.586567   3.812019   4.008993   4.536326   2.430744
    16  H    6.014005   2.717714   2.409999   3.663435   2.152821
    17  C    8.158204   4.322934   4.791691   4.828246   2.811430
    18  H    8.231883   4.686003   5.485841   4.786323   3.405954
    19  H    8.323769   4.672760   4.690599   5.464469   3.409161
    20  H    9.236503   5.407199   5.854643   5.893151   3.895699
    21  N    3.754226   2.480557   3.398265   2.646024   3.114578
    22  H    3.409851   2.799582   3.689570   2.560011   3.636815
    23  H    4.009002   3.367843   4.190957   3.631808   3.935682
                   11         12         13         14         15
    11  C    0.000000
    12  C    2.404403   0.000000
    13  C    1.393374   2.778475   0.000000
    14  H    1.083507   3.387636   2.148810   0.000000
    15  C    2.783184   1.393759   2.408494   3.866654   0.000000
    16  H    3.390352   1.085864   3.864308   4.287470   2.148021
    17  C    2.417170   2.414417   1.394076   3.396964   1.393618
    18  H    2.148397   3.862974   1.084515   2.469867   3.393058
    19  H    3.867624   2.149748   3.393904   4.951106   1.084471
    20  H    3.400407   3.398324   2.154511   4.292749   2.153826
    21  N    3.314385   4.224943   4.503780   2.975934   5.212547
    22  H    3.715104   4.885028   4.983214   3.124456   5.909545
    23  H    4.121315   4.895909   5.177711   3.819552   5.814850
                   16         17         18         19         20
    16  H    0.000000
    17  C    3.395177   0.000000
    18  H    4.948810   2.152385   0.000000
    19  H    2.468232   2.153243   4.292970   0.000000
    20  H    4.291134   1.084272   2.482961   2.484076   0.000000
    21  N    4.601337   5.331815   5.037760   6.136410   6.315173
    22  H    5.269168   5.954106   5.416868   6.879152   6.946208
    23  H    5.210555   5.939172   5.662322   6.674941   6.865791
                   21         22         23
    21  N    0.000000
    22  H    1.014964   0.000000
    23  H    1.014047   1.639572   0.000000
 Stoichiometry    C9H11NO2
 Framework group  C1[X(C9H11NO2)]
 Deg. of freedom    63
 Full point group                 C1      NOp   1
 Largest Abelian subgroup         C1      NOp   1
 Largest concise Abelian subgroup C1      NOp   1
                         Standard orientation:                         
 ---------------------------------------------------------------------
 Center     Atomic      Atomic             Coordinates (Angstroms)
 Number     Number       Type             X           Y           Z
 ---------------------------------------------------------------------
      1          6           0        1.370873   -0.121471    0.449530
      2          1           0        1.031649    0.510785    1.272159
      3          6           0        2.777210    0.372255    0.109456
      4          8           0        3.246523    1.431957    0.441243
      5          8           0        3.463309   -0.520150   -0.652783
      6          1           0        4.328156   -0.128730   -0.847482
      7          6           0        0.446191    0.130734   -0.773521
      8          1           0        0.697048    1.105252   -1.202857
      9          1           0        0.675502   -0.621374   -1.534948
     10          6           0       -1.024566    0.104792   -0.425337
     11          6           0       -1.742160   -1.095273   -0.380958
     12          6           0       -1.696838    1.295030   -0.124918
     13          6           0       -3.094189   -1.105141   -0.044190
     14          1           0       -1.235146   -2.026826   -0.602618
     15          6           0       -3.048809    1.289071    0.213755
     16          1           0       -1.158175    2.237168   -0.161220
     17          6           0       -3.752291    0.086759    0.255349
     18          1           0       -3.634203   -2.045219   -0.015737
     19          1           0       -3.552168    2.222766    0.439412
     20          1           0       -4.804874    0.079037    0.515450
     21          7           0        1.295236   -1.514383    0.877501
     22          1           0        1.776877   -2.121998    0.222538
     23          1           0        1.717501   -1.645181    1.790121
 ---------------------------------------------------------------------
 Rotational constants (GHZ):      2.3582077      0.4570246      0.4116528
 1\1\GINC-KALI\FOpt\RB3LYP\6-311++G(d,p)\C9H11N1O2\ROOT\29-Mar-2016\0\\
 # opt b3lyp/6-311++g(d,p)\\Phe-R-opt-6-311++g(d,p)\\0,1\C,1.37087301,0
 .12147123,-0.44953025\H,1.03164876,-0.51078455,-1.27215935\C,2.7772101
 8,-0.37225505,-0.10945588\O,3.24652282,-1.43195738,-0.44124264\O,3.463
 30868,0.52014983,0.6527827\H,4.32815614,0.12872962,0.84748245\C,0.4461
 9097,-0.13073369,0.77352148\H,0.69704757,-1.1052515,1.20285721\H,0.675
 50206,0.62137372,1.53494778\C,-1.02456632,-0.10479214,0.42533732\C,-1.
 74216,1.09527259,0.38095784\C,-1.69683755,-1.29502969,0.12491798\C,-3.
 09418851,1.10514064,0.04418959\H,-1.235146,2.02682567,0.60261824\C,-3.
 04880939,-1.28907133,-0.2137551\H,-1.15817487,-2.23716811,0.16122031\C
 ,-3.75229062,-0.08675909,-0.25534867\H,-3.63420284,2.04521895,0.015737
 11\H,-3.55216769,-2.22276648,-0.43941246\H,-4.80487434,-0.07903661,-0.
 51544978\N,1.29523578,1.51438279,-0.87750124\H,1.77687729,2.12199813,-
 0.22253794\H,1.71750069,1.64518122,-1.79012116\\Version=ES64L-G09RevD.
 01\State=1-A\HF=-554.9584839\RMSD=3.039e-09\RMSF=4.641e-06\Dipole=0.28
 96863,0.5749238,0.2043462\Quadrupole=3.4034985,-1.5152158,-1.8882826,5
 .4770649,3.0839941,-0.9413193\PG=C01 [X(C9H11N1O2)]\\@


 Discoveries are often made by not following instructions,
 by going off the main road, by trying the untried.
 -- Frank Tyger
 Job cpu time:       0 days  0 hours 14 minutes 38.8 seconds.
 File lengths (MBytes):  RWF=     63 Int=      0 D2E=      0 Chk=      9 Scr=      1
 Normal termination of Gaussian 09 at Tue Mar 29 10:57:05 2016.
