 Entering Gaussian System, Link 0=g09
 Input=Ala-S-opt-freq-tsa3-6-31g.com
 Output=Ala-S-opt-freq-tsa3-6-31g.log
 Initial command:
 /usr/local/gau/g09/l1.exe "/tmp/Gau-5417.inp" -scrdir="/tmp/"
 Entering Link 1 = /usr/local/gau/g09/l1.exe PID=      5419.
  
 Copyright (c) 1988,1990,1992,1993,1995,1998,2003,2009,2013,
            Gaussian, Inc.  All Rights Reserved.
  
 This is part of the Gaussian(R) 09 program.  It is based on
 the Gaussian(R) 03 system (copyright 2003, Gaussian, Inc.),
 the Gaussian(R) 98 system (copyright 1998, Gaussian, Inc.),
 the Gaussian(R) 94 system (copyright 1995, Gaussian, Inc.),
 the Gaussian 92(TM) system (copyright 1992, Gaussian, Inc.),
 the Gaussian 90(TM) system (copyright 1990, Gaussian, Inc.),
 the Gaussian 88(TM) system (copyright 1988, Gaussian, Inc.),
 the Gaussian 86(TM) system (copyright 1986, Carnegie Mellon
 University), and the Gaussian 82(TM) system (copyright 1983,
 Carnegie Mellon University). Gaussian is a federally registered
 trademark of Gaussian, Inc.
  
 This software contains proprietary and confidential information,
 including trade secrets, belonging to Gaussian, Inc.
  
 This software is provided under written license and may be
 used, copied, transmitted, or stored only in accord with that
 written license.
  
 The following legend is applicable only to US Government
 contracts under FAR:
  
                    RESTRICTED RIGHTS LEGEND
  
 Use, reproduction and disclosure by the US Government is
 subject to restrictions as set forth in subparagraphs (a)
 and (c) of the Commercial Computer Software - Restricted
 Rights clause in FAR 52.227-19.
  
 Gaussian, Inc.
 340 Quinnipiac St., Bldg. 40, Wallingford CT 06492
  
  
 ---------------------------------------------------------------
 Warning -- This program may not be used in any manner that
 competes with the business of Gaussian, Inc. or will provide
 assistance to any competitor of Gaussian, Inc.  The licensee
 of this program is prohibited from giving any competitor of
 Gaussian, Inc. access to this program.  By using this program,
 the user acknowledges that Gaussian, Inc. is engaged in the
 business of creating and licensing software in the field of
 computational chemistry and represents and warrants to the
 licensee that it is not a competitor of Gaussian, Inc. and that
 it will not use this program in any manner prohibited above.
 ---------------------------------------------------------------
  

 Cite this work as:
 Gaussian 09, Revision D.01,
 M. J. Frisch, G. W. Trucks, H. B. Schlegel, G. E. Scuseria, 
 M. A. Robb, J. R. Cheeseman, G. Scalmani, V. Barone, B. Mennucci, 
 G. A. Petersson, H. Nakatsuji, M. Caricato, X. Li, H. P. Hratchian, 
 A. F. Izmaylov, J. Bloino, G. Zheng, J. L. Sonnenberg, M. Hada, 
 M. Ehara, K. Toyota, R. Fukuda, J. Hasegawa, M. Ishida, T. Nakajima, 
 Y. Honda, O. Kitao, H. Nakai, T. Vreven, J. A. Montgomery, Jr., 
 J. E. Peralta, F. Ogliaro, M. Bearpark, J. J. Heyd, E. Brothers, 
 K. N. Kudin, V. N. Staroverov, T. Keith, R. Kobayashi, J. Normand, 
 K. Raghavachari, A. Rendell, J. C. Burant, S. S. Iyengar, J. Tomasi, 
 M. Cossi, N. Rega, J. M. Millam, M. Klene, J. E. Knox, J. B. Cross, 
 V. Bakken, C. Adamo, J. Jaramillo, R. Gomperts, R. E. Stratmann, 
 O. Yazyev, A. J. Austin, R. Cammi, C. Pomelli, J. W. Ochterski, 
 R. L. Martin, K. Morokuma, V. G. Zakrzewski, G. A. Voth, 
 P. Salvador, J. J. Dannenberg, S. Dapprich, A. D. Daniels, 
 O. Farkas, J. B. Foresman, J. V. Ortiz, J. Cioslowski, 
 and D. J. Fox, Gaussian, Inc., Wallingford CT, 2013.
 
 ******************************************
 Gaussian 09:  ES64L-G09RevD.01 24-Apr-2013
                12-Apr-2016 
 ******************************************
 %chk=Ala-S-opt-freq-tsa3-6-31g.chk
 ------------------------------------------------------------------
 #p opt=(calcfc,ts) freq rb3lyp/6-31g geom=connectivity iop(1/11=1)
 ------------------------------------------------------------------
 1/5=1,10=4,11=1,14=-1,18=20,26=3,38=1,57=2/1,3;
 2/9=110,12=2,17=6,18=5,40=1/2;
 3/5=1,6=6,11=2,16=1,25=1,30=1,71=2,74=-5,116=1,140=1/1,2,3;
 4//1;
 5/5=2,38=5/2;
 8/6=4,10=90,11=11/1;
 11/6=1,8=1,9=11,15=111,16=1/1,2,10;
 10/6=1,13=1/2;
 6/7=2,8=2,9=2,10=2,28=1/1;
 7/10=1,18=20,25=1/1,2,3,16;
 1/5=1,10=4,11=1,14=-1,18=20,26=3/3(2);
 2/9=110/2;
 99//99;
 2/9=110/2;
 3/5=1,6=6,11=2,16=1,25=1,30=1,71=1,74=-5,116=1/1,2,3;
 4/5=5,16=3,69=1/1;
 5/5=2,38=5/2;
 7//1,2,3,16;
 1/5=1,11=1,14=-1,18=20,26=3/3(-5);
 2/9=110/2;
 6/7=2,8=2,9=2,10=2,19=2,28=1/1;
 99/9=1/99;
 Leave Link    1 at Tue Apr 12 16:39:40 2016, MaxMem=           0 cpu:         0.0
 (Enter /usr/local/gau/g09/l101.exe)
 -------------------------
 Ala-S-opt-freq-tsa3-6-31g
 -------------------------
 Symbolic Z-matrix:
 Charge =  0 Multiplicity = 1
 N                     1.28271   1.35772   0.00366 
 H                     2.27994   1.43364  -0.0788 
 C                     0.66477   0.1093   -0.02157 
 H                    -2.06277  -1.38506  -0.72794 
 C                     1.5728   -1.08879  -0.02925 
 C                    -0.83051  -0.00945  -0.02879 
 H                     2.21831  -1.0917    0.8594 
 H                     0.99153  -2.0113   -0.03223 
 H                     2.22802  -1.08174  -0.91178 
 O                    -1.63979   1.14176  -0.1201 
 H                     0.72036   2.1855   -0.09306 
 O                    -1.52075  -1.22498   0.07531 
 H                    -0.01344   1.03664  -0.01853 
 
 Add virtual bond connecting atoms H13        and C3         Dist= 2.17D+00.
 NAtoms=     13 NQM=       13 NQMF=       0 NMMI=      0 NMMIF=      0
                NMic=       0 NMicF=      0.
                    Isotopes and Nuclear Properties:
 (Nuclear quadrupole moments (NQMom) in fm**2, nuclear magnetic moments (NMagM)
  in nuclear magnetons)

  Atom         1           2           3           4           5           6           7           8           9          10
 IAtWgt=          14           1          12           1          12          12           1           1           1          16
 AtmWgt=  14.0030740   1.0078250  12.0000000   1.0078250  12.0000000  12.0000000   1.0078250   1.0078250   1.0078250  15.9949146
 NucSpn=           2           1           0           1           0           0           1           1           1           0
 AtZEff=   0.0000000   0.0000000   0.0000000   0.0000000   0.0000000   0.0000000   0.0000000   0.0000000   0.0000000   0.0000000
 NQMom=    2.0440000   0.0000000   0.0000000   0.0000000   0.0000000   0.0000000   0.0000000   0.0000000   0.0000000   0.0000000
 NMagM=    0.4037610   2.7928460   0.0000000   2.7928460   0.0000000   0.0000000   2.7928460   2.7928460   2.7928460   0.0000000
 AtZNuc=   7.0000000   1.0000000   6.0000000   1.0000000   6.0000000   6.0000000   1.0000000   1.0000000   1.0000000   8.0000000

  Atom        11          12          13
 IAtWgt=           1          16           1
 AtmWgt=   1.0078250  15.9949146   1.0078250
 NucSpn=           1           0           1
 AtZEff=   0.0000000   0.0000000   0.0000000
 NQMom=    0.0000000   0.0000000   0.0000000
 NMagM=    2.7928460   0.0000000   2.7928460
 AtZNuc=   1.0000000   8.0000000   1.0000000
 Leave Link  101 at Tue Apr 12 16:39:40 2016, MaxMem=    33554432 cpu:         0.1
 (Enter /usr/local/gau/g09/l103.exe)

 GradGradGradGradGradGradGradGradGradGradGradGradGradGradGradGradGradGrad
 Berny optimization.
 Initialization pass.
                           ----------------------------
                           !    Initial Parameters    !
                           ! (Angstroms and Degrees)  !
 --------------------------                            --------------------------
 ! Name  Definition              Value          Derivative Info.                !
 --------------------------------------------------------------------------------
 ! R1    R(1,2)                  1.0035         calculate D2E/DX2 analytically  !
 ! R2    R(1,3)                  1.3932         calculate D2E/DX2 analytically  !
 ! R3    R(1,11)                 1.0054         calculate D2E/DX2 analytically  !
 ! R4    R(3,5)                  1.5033         calculate D2E/DX2 analytically  !
 ! R5    R(3,6)                  1.5            calculate D2E/DX2 analytically  !
 ! R6    R(3,13)                 1.1489         calculate D2E/DX2 analytically  !
 ! R7    R(4,12)                 0.9822         calculate D2E/DX2 analytically  !
 ! R8    R(5,7)                  1.0984         calculate D2E/DX2 analytically  !
 ! R9    R(5,8)                  1.0904         calculate D2E/DX2 analytically  !
 ! R10   R(5,9)                  1.0992         calculate D2E/DX2 analytically  !
 ! R11   R(6,10)                 1.4102         calculate D2E/DX2 analytically  !
 ! R12   R(6,12)                 1.4017         calculate D2E/DX2 analytically  !
 ! A1    A(2,1,3)              120.4689         calculate D2E/DX2 analytically  !
 ! A2    A(2,1,11)             119.0538         calculate D2E/DX2 analytically  !
 ! A3    A(3,1,11)             119.2059         calculate D2E/DX2 analytically  !
 ! A4    A(1,3,5)              116.508          calculate D2E/DX2 analytically  !
 ! A5    A(1,3,6)              120.8748         calculate D2E/DX2 analytically  !
 ! A6    A(1,3,13)              62.5158         calculate D2E/DX2 analytically  !
 ! A7    A(5,3,6)              122.6153         calculate D2E/DX2 analytically  !
 ! A8    A(6,3,13)              58.3625         calculate D2E/DX2 analytically  !
 ! A9    A(3,5,7)              110.6686         calculate D2E/DX2 analytically  !
 ! A10   A(3,5,8)              110.6273         calculate D2E/DX2 analytically  !
 ! A11   A(3,5,9)              111.0413         calculate D2E/DX2 analytically  !
 ! A12   A(7,5,8)              108.2564         calculate D2E/DX2 analytically  !
 ! A13   A(7,5,9)              107.4144         calculate D2E/DX2 analytically  !
 ! A14   A(8,5,9)              108.7238         calculate D2E/DX2 analytically  !
 ! A15   A(3,6,10)             120.5154         calculate D2E/DX2 analytically  !
 ! A16   A(3,6,12)             123.9986         calculate D2E/DX2 analytically  !
 ! A17   A(10,6,12)            115.4764         calculate D2E/DX2 analytically  !
 ! A18   A(4,12,6)             110.6311         calculate D2E/DX2 analytically  !
 ! A19   L(5,3,13,1,-1)        179.0238         calculate D2E/DX2 analytically  !
 ! A20   L(5,3,13,1,-2)        179.8214         calculate D2E/DX2 analytically  !
 ! D1    D(2,1,3,5)              6.2762         calculate D2E/DX2 analytically  !
 ! D2    D(2,1,3,6)           -174.2135         calculate D2E/DX2 analytically  !
 ! D3    D(2,1,3,13)          -173.5452         calculate D2E/DX2 analytically  !
 ! D4    D(11,1,3,5)           173.2777         calculate D2E/DX2 analytically  !
 ! D5    D(11,1,3,6)            -7.2119         calculate D2E/DX2 analytically  !
 ! D6    D(11,1,3,13)           -6.5437         calculate D2E/DX2 analytically  !
 ! D7    D(1,3,5,7)             59.0596         calculate D2E/DX2 analytically  !
 ! D8    D(1,3,5,8)            179.0434         calculate D2E/DX2 analytically  !
 ! D9    D(1,3,5,9)            -60.1392         calculate D2E/DX2 analytically  !
 ! D10   D(6,3,5,7)           -120.4415         calculate D2E/DX2 analytically  !
 ! D11   D(6,3,5,8)             -0.4577         calculate D2E/DX2 analytically  !
 ! D12   D(6,3,5,9)            120.3597         calculate D2E/DX2 analytically  !
 ! D13   D(1,3,6,10)             5.1914         calculate D2E/DX2 analytically  !
 ! D14   D(1,3,6,12)          -173.6291         calculate D2E/DX2 analytically  !
 ! D15   D(5,3,6,10)          -175.3288         calculate D2E/DX2 analytically  !
 ! D16   D(5,3,6,12)             5.8507         calculate D2E/DX2 analytically  !
 ! D17   D(13,3,6,10)            4.4951         calculate D2E/DX2 analytically  !
 ! D18   D(13,3,6,12)         -174.3254         calculate D2E/DX2 analytically  !
 ! D19   D(3,6,12,4)          -118.4765         calculate D2E/DX2 analytically  !
 ! D20   D(10,6,12,4)           62.649          calculate D2E/DX2 analytically  !
 --------------------------------------------------------------------------------
 Trust Radius=3.00D-01 FncErr=1.00D-07 GrdErr=1.00D-06
 Number of steps in this run=     62 maximum allowed number of steps=    100.
 Search for a saddle point of order  1.
 GradGradGradGradGradGradGradGradGradGradGradGradGradGradGradGradGradGrad

 Leave Link  103 at Tue Apr 12 16:39:40 2016, MaxMem=    33554432 cpu:         0.0
 (Enter /usr/local/gau/g09/l202.exe)
                          Input orientation:                          
 ---------------------------------------------------------------------
 Center     Atomic      Atomic             Coordinates (Angstroms)
 Number     Number       Type             X           Y           Z
 ---------------------------------------------------------------------
      1          7           0        1.282711    1.357715    0.003662
      2          1           0        2.279941    1.433641   -0.078802
      3          6           0        0.664770    0.109295   -0.021572
      4          1           0       -2.062765   -1.385059   -0.727943
      5          6           0        1.572796   -1.088789   -0.029252
      6          6           0       -0.830505   -0.009451   -0.028794
      7          1           0        2.218313   -1.091701    0.859404
      8          1           0        0.991529   -2.011297   -0.032232
      9          1           0        2.228021   -1.081739   -0.911781
     10          8           0       -1.639786    1.141756   -0.120096
     11          1           0        0.720363    2.185499   -0.093060
     12          8           0       -1.520753   -1.224982    0.075312
     13          1           0       -0.013436    1.036643   -0.018534
 ---------------------------------------------------------------------
                    Distance matrix (angstroms):
                    1          2          3          4          5
     1  N    0.000000
     2  H    1.003510   0.000000
     3  C    1.393212   2.089484   0.000000
     4  H    4.387513   5.217811   3.189279   0.000000
     5  C    2.463862   2.620145   1.503321   3.713926   0.000000
     6  C    2.517117   3.429270   1.500000   1.974733   2.634545
     7  H    2.758131   2.694695   2.152210   4.575299   1.098367
     8  H    3.381762   3.678284   2.145646   3.194511   1.090367
     9  H    2.771747   2.650224   2.157496   4.305420   1.099194
    10  O    2.933077   3.930797   2.527184   2.633094   3.912067
    11  H    1.005394   1.731409   2.078178   4.571407   3.384032
    12  O    3.812462   4.640830   2.562458   0.982151   3.098310
    13  H    1.335506   2.328265   1.148889   3.250792   2.652114
                    6          7          8          9         10
     6  C    0.000000
     7  H    3.354914   0.000000
     8  H    2.706881   1.773604   0.000000
     9  H    3.359174   1.771240   1.779493   0.000000
    10  O    1.410159   4.564283   4.107710   4.531073   0.000000
    11  H    2.688332   3.727074   4.205987   3.690282   2.580782
    12  O    1.401712   3.822719   2.634657   3.879198   2.377772
    13  H    1.327411   3.206451   3.209374   3.210851   1.632905
                   11         12         13
    11  H    0.000000
    12  O    4.084401   0.000000
    13  H    1.365242   2.719515   0.000000
 Stoichiometry    C3H7NO2
 Framework group  C1[X(C3H7NO2)]
 Deg. of freedom    33
 Full point group                 C1      NOp   1
 Largest Abelian subgroup         C1      NOp   1
 Largest concise Abelian subgroup C1      NOp   1
                         Standard orientation:                         
 ---------------------------------------------------------------------
 Center     Atomic      Atomic             Coordinates (Angstroms)
 Number     Number       Type             X           Y           Z
 ---------------------------------------------------------------------
      1          7           0        1.428167   -1.191495   -0.038084
      2          1           0        2.426764   -1.178438    0.060230
      3          6           0        0.699491   -0.004482   -0.005338
      4          1           0       -2.162772    1.226245    0.676034
      5          6           0        1.495165    1.270369    0.035094
      6          6           0       -0.800325   -0.021263   -0.021844
      7          1           0        2.151590    1.345660   -0.842315
      8          1           0        0.832843    2.136504    0.041508
      9          1           0        2.134458    1.308415    0.928450
     10          8           0       -1.503460   -1.242100    0.039039
     11          1           0        0.941575   -2.068075    0.037090
     12          8           0       -1.596004    1.128535   -0.120111
     13          1           0        0.108099   -0.989073   -0.033309
 ---------------------------------------------------------------------
 Rotational constants (GHZ):      4.9084834      2.9863193      1.8889863
 Leave Link  202 at Tue Apr 12 16:39:40 2016, MaxMem=    33554432 cpu:         0.0
 (Enter /usr/local/gau/g09/l301.exe)
 Standard basis: 6-31G (6D, 7F)
 Ernie: Thresh=  0.10000D-02 Tol=  0.10000D-05 Strict=F.
 There are    68 symmetry adapted cartesian basis functions of A   symmetry.
 There are    68 symmetry adapted basis functions of A   symmetry.
    68 basis functions,   160 primitive gaussians,    68 cartesian basis functions
    24 alpha electrons       24 beta electrons
       nuclear repulsion energy       242.8565835809 Hartrees.
 IExCor=  402 DFT=T Ex+Corr=B3LYP ExCW=0 ScaHFX=  0.200000
 ScaDFX=  0.800000  0.720000  1.000000  0.810000 ScalE2=  1.000000  1.000000
 IRadAn=      0 IRanWt=     -1 IRanGd=            0 ICorTp=0 IEmpDi=  4
 NAtoms=   13 NActive=   13 NUniq=   13 SFac= 1.00D+00 NAtFMM=   60 NAOKFM=F Big=F
 Integral buffers will be    131072 words long.
 Raffenetti 2 integral format.
 Two-electron integral symmetry is turned on.
 Leave Link  301 at Tue Apr 12 16:39:40 2016, MaxMem=    33554432 cpu:         0.0
 (Enter /usr/local/gau/g09/l302.exe)
 NPDir=0 NMtPBC=     1 NCelOv=     1 NCel=       1 NClECP=     1 NCelD=      1
         NCelK=      1 NCelE2=     1 NClLst=     1 CellRange=     0.0.
 One-electron integrals computed using PRISM.
 NBasis=    68 RedAO= T EigKep=  3.88D-03  NBF=    68
 NBsUse=    68 1.00D-06 EigRej= -1.00D+00 NBFU=    68
 Precomputing XC quadrature grid using
 IXCGrd= 4 IRadAn=           0 IRanWt=          -1 IRanGd=           0 AccXCQ= 0.00D+00.
 Generated NRdTot=       0 NPtTot=           0 NUsed=           0 NTot=          32
 NSgBfM=    68    68    68    68    68 MxSgAt=    13 MxSgA2=    13.
 Leave Link  302 at Tue Apr 12 16:39:41 2016, MaxMem=    33554432 cpu:         0.2
 (Enter /usr/local/gau/g09/l303.exe)
 DipDrv:  MaxL=1.
 Leave Link  303 at Tue Apr 12 16:39:41 2016, MaxMem=    33554432 cpu:         0.0
 (Enter /usr/local/gau/g09/l401.exe)
 ExpMin= 1.61D-01 ExpMax= 5.48D+03 ExpMxC= 8.25D+02 IAcc=1 IRadAn=         1 AccDes= 0.00D+00
 Harris functional with IExCor=  402 and IRadAn=       1 diagonalized for initial guess.
 HarFok:  IExCor=  402 AccDes= 0.00D+00 IRadAn=         1 IDoV= 1 UseB2=F ITyADJ=14
 ICtDFT=  3500011 ScaDFX=  1.000000  1.000000  1.000000  1.000000
 FoFCou: FMM=F IPFlag=           0 FMFlag=      100000 FMFlg1=           0
         NFxFlg=           0 DoJE=T BraDBF=F KetDBF=T FulRan=T
         wScrn=  0.000000 ICntrl=     500 IOpCl=  0 I1Cent=   200000004 NGrid=           0
         NMat0=    1 NMatS0=      1 NMatT0=    0 NMatD0=    1 NMtDS0=    0 NMtDT0=    0
 Petite list used in FoFCou.
 Harris En= -323.416619718787    
 JPrj=0 DoOrth=F DoCkMO=F.
 Leave Link  401 at Tue Apr 12 16:39:41 2016, MaxMem=    33554432 cpu:         0.6
 (Enter /usr/local/gau/g09/l502.exe)
 Closed shell SCF:
 Using DIIS extrapolation, IDIIS=  1040.
 Integral symmetry usage will be decided dynamically.
 Keep R1 ints in memory in canonical form, NReq=3676491.
 IVT=       33364 IEndB=       33364 NGot=    33554432 MDV=    30768038
 LenX=    30768038 LenY=    30762973
 Requested convergence on RMS density matrix=1.00D-08 within 128 cycles.
 Requested convergence on MAX density matrix=1.00D-06.
 Requested convergence on             energy=1.00D-06.
 No special actions if energy rises.
 FoFCou: FMM=F IPFlag=           0 FMFlag=           0 FMFlg1=           0
         NFxFlg=           0 DoJE=F BraDBF=F KetDBF=F FulRan=T
         wScrn=  0.000000 ICntrl=     600 IOpCl=  0 I1Cent=           0 NGrid=           0
         NMat0=    1 NMatS0=   2346 NMatT0=    0 NMatD0=    1 NMtDS0=    0 NMtDT0=    0
 Symmetry not used in FoFCou.
 Integral accuracy reduced to 1.0D-05 until final iterations.

 Cycle   1  Pass 0  IDiag  1:
 E= -323.136240419771    
 DIIS: error= 3.70D-02 at cycle   1 NSaved=   1.
 NSaved= 1 IEnMin= 1 EnMin= -323.136240419771     IErMin= 1 ErrMin= 3.70D-02
 ErrMax= 3.70D-02  0.00D+00 EMaxC= 1.00D-01 BMatC= 2.35D-01 BMatP= 2.35D-01
 IDIUse=3 WtCom= 6.30D-01 WtEn= 3.70D-01
 Coeff-Com:  0.100D+01
 Coeff-En:   0.100D+01
 Coeff:      0.100D+01
 Gap=     0.156 Goal=   None    Shift=    0.000
 GapD=    0.156 DampG=1.000 DampE=0.500 DampFc=0.5000 IDamp=-1.
 Damping current iteration by 5.00D-01
 RMSDP=3.00D-02 MaxDP=6.45D-01              OVMax= 4.27D-01

 Cycle   2  Pass 0  IDiag  1:
 E= -323.079711493087     Delta-E=        0.056528926684 Rises=F Damp=T
 DIIS: error= 3.39D-02 at cycle   2 NSaved=   2.
 NSaved= 2 IEnMin= 1 EnMin= -323.136240419771     IErMin= 2 ErrMin= 3.39D-02
 ErrMax= 3.39D-02  0.00D+00 EMaxC= 1.00D-01 BMatC= 1.14D-01 BMatP= 2.35D-01
 IDIUse=3 WtCom= 6.61D-01 WtEn= 3.39D-01
 Coeff-Com:  0.387D+00 0.613D+00
 Coeff-En:   0.582D+00 0.418D+00
 Coeff:      0.453D+00 0.547D+00
 Gap=     0.138 Goal=   None    Shift=    0.000
 RMSDP=1.19D-02 MaxDP=2.18D-01 DE= 5.65D-02 OVMax= 3.20D-01

 Cycle   3  Pass 0  IDiag  1:
 E= -323.237219584631     Delta-E=       -0.157508091544 Rises=F Damp=F
 DIIS: error= 4.04D-02 at cycle   3 NSaved=   3.
 NSaved= 3 IEnMin= 3 EnMin= -323.237219584631     IErMin= 2 ErrMin= 3.39D-02
 ErrMax= 4.04D-02  0.00D+00 EMaxC= 1.00D-01 BMatC= 1.14D-01 BMatP= 1.14D-01
 IDIUse=3 WtCom= 5.96D-01 WtEn= 4.04D-01
 EnCoef did     2 forward-backward iterations
 Coeff-Com:  0.231D+00 0.425D+00 0.343D+00
 Coeff-En:   0.201D+00 0.169D+00 0.630D+00
 Coeff:      0.219D+00 0.322D+00 0.459D+00
 Gap=     0.150 Goal=   None    Shift=    0.000
 RMSDP=9.40D-03 MaxDP=1.14D-01 DE=-1.58D-01 OVMax= 2.57D-01

 Cycle   4  Pass 0  IDiag  1:
 E= -323.301384631548     Delta-E=       -0.064165046917 Rises=F Damp=F
 DIIS: error= 3.30D-02 at cycle   4 NSaved=   4.
 NSaved= 4 IEnMin= 4 EnMin= -323.301384631548     IErMin= 4 ErrMin= 3.30D-02
 ErrMax= 3.30D-02  0.00D+00 EMaxC= 1.00D-01 BMatC= 5.10D-02 BMatP= 1.14D-01
 IDIUse=3 WtCom= 6.70D-01 WtEn= 3.30D-01
 Coeff-Com:  0.132D+00 0.110D+00 0.348D+00 0.411D+00
 Coeff-En:   0.000D+00 0.000D+00 0.351D+00 0.649D+00
 Coeff:      0.881D-01 0.734D-01 0.349D+00 0.489D+00
 Gap=     0.157 Goal=   None    Shift=    0.000
 RMSDP=5.14D-03 MaxDP=8.36D-02 DE=-6.42D-02 OVMax= 1.44D-01

 Cycle   5  Pass 0  IDiag  1:
 E= -323.346721761464     Delta-E=       -0.045337129916 Rises=F Damp=F
 DIIS: error= 9.50D-03 at cycle   5 NSaved=   5.
 NSaved= 5 IEnMin= 5 EnMin= -323.346721761464     IErMin= 5 ErrMin= 9.50D-03
 ErrMax= 9.50D-03  0.00D+00 EMaxC= 1.00D-01 BMatC= 3.43D-03 BMatP= 5.10D-02
 IDIUse=3 WtCom= 9.05D-01 WtEn= 9.50D-02
 Coeff-Com:  0.509D-02-0.176D-01 0.123D+00 0.309D+00 0.581D+00
 Coeff-En:   0.000D+00 0.000D+00 0.000D+00 0.981D-01 0.902D+00
 Coeff:      0.461D-02-0.159D-01 0.111D+00 0.289D+00 0.611D+00
 Gap=     0.155 Goal=   None    Shift=    0.000
 RMSDP=1.45D-03 MaxDP=2.25D-02 DE=-4.53D-02 OVMax= 4.36D-02

 Cycle   6  Pass 0  IDiag  1:
 E= -323.349829744126     Delta-E=       -0.003107982662 Rises=F Damp=F
 DIIS: error= 3.25D-03 at cycle   6 NSaved=   6.
 NSaved= 6 IEnMin= 6 EnMin= -323.349829744126     IErMin= 6 ErrMin= 3.25D-03
 ErrMax= 3.25D-03  0.00D+00 EMaxC= 1.00D-01 BMatC= 4.32D-04 BMatP= 3.43D-03
 IDIUse=3 WtCom= 9.68D-01 WtEn= 3.25D-02
 Coeff-Com: -0.940D-02-0.213D-01 0.321D-01 0.115D+00 0.387D+00 0.497D+00
 Coeff-En:   0.000D+00 0.000D+00 0.000D+00 0.000D+00 0.144D+00 0.856D+00
 Coeff:     -0.910D-02-0.206D-01 0.310D-01 0.112D+00 0.379D+00 0.508D+00
 Gap=     0.155 Goal=   None    Shift=    0.000
 RMSDP=3.53D-04 MaxDP=5.51D-03 DE=-3.11D-03 OVMax= 1.03D-02

 Cycle   7  Pass 0  IDiag  1:
 E= -323.350239965019     Delta-E=       -0.000410220893 Rises=F Damp=F
 DIIS: error= 6.24D-04 at cycle   7 NSaved=   7.
 NSaved= 7 IEnMin= 7 EnMin= -323.350239965019     IErMin= 7 ErrMin= 6.24D-04
 ErrMax= 6.24D-04  0.00D+00 EMaxC= 1.00D-01 BMatC= 2.19D-05 BMatP= 4.32D-04
 IDIUse=3 WtCom= 9.94D-01 WtEn= 6.24D-03
 Coeff-Com: -0.179D-02-0.469D-02 0.275D-02 0.588D-02 0.945D-01 0.260D+00
 Coeff-Com:  0.643D+00
 Coeff-En:   0.000D+00 0.000D+00 0.000D+00 0.000D+00 0.000D+00 0.000D+00
 Coeff-En:   0.100D+01
 Coeff:     -0.177D-02-0.466D-02 0.273D-02 0.585D-02 0.939D-01 0.258D+00
 Coeff:      0.646D+00
 Gap=     0.155 Goal=   None    Shift=    0.000
 RMSDP=7.97D-05 MaxDP=7.47D-04 DE=-4.10D-04 OVMax= 1.29D-03

 Cycle   8  Pass 0  IDiag  1:
 E= -323.350258578117     Delta-E=       -0.000018613097 Rises=F Damp=F
 DIIS: error= 9.46D-05 at cycle   8 NSaved=   8.
 NSaved= 8 IEnMin= 8 EnMin= -323.350258578117     IErMin= 8 ErrMin= 9.46D-05
 ErrMax= 9.46D-05  0.00D+00 EMaxC= 1.00D-01 BMatC= 5.76D-07 BMatP= 2.19D-05
 IDIUse=1 WtCom= 1.00D+00 WtEn= 0.00D+00
 Coeff-Com: -0.227D-03-0.813D-03 0.235D-04-0.291D-02 0.257D-01 0.964D-01
 Coeff-Com:  0.296D+00 0.586D+00
 Coeff:     -0.227D-03-0.813D-03 0.235D-04-0.291D-02 0.257D-01 0.964D-01
 Coeff:      0.296D+00 0.586D+00
 Gap=     0.155 Goal=   None    Shift=    0.000
 RMSDP=1.59D-05 MaxDP=2.25D-04 DE=-1.86D-05 OVMax= 1.83D-04

 Cycle   9  Pass 0  IDiag  1:
 E= -323.350259138095     Delta-E=       -0.000000559979 Rises=F Damp=F
 DIIS: error= 1.78D-05 at cycle   9 NSaved=   9.
 NSaved= 9 IEnMin= 9 EnMin= -323.350259138095     IErMin= 9 ErrMin= 1.78D-05
 ErrMax= 1.78D-05  0.00D+00 EMaxC= 1.00D-01 BMatC= 2.85D-08 BMatP= 5.76D-07
 IDIUse=1 WtCom= 1.00D+00 WtEn= 0.00D+00
 Coeff-Com: -0.480D-04 0.176D-03-0.362D-03-0.108D-02 0.613D-03 0.719D-02
 Coeff-Com:  0.353D-01 0.167D+00 0.791D+00
 Coeff:     -0.480D-04 0.176D-03-0.362D-03-0.108D-02 0.613D-03 0.719D-02
 Coeff:      0.353D-01 0.167D+00 0.791D+00
 Gap=     0.155 Goal=   None    Shift=    0.000
 RMSDP=4.04D-06 MaxDP=3.11D-05 DE=-5.60D-07 OVMax= 7.32D-05

 Initial convergence to 1.0D-05 achieved.  Increase integral accuracy.
 Cycle  10  Pass 1  IDiag  1:
 E= -323.350298927604     Delta-E=       -0.000039789508 Rises=F Damp=F
 DIIS: error= 7.64D-06 at cycle   1 NSaved=   1.
 NSaved= 1 IEnMin= 1 EnMin= -323.350298927604     IErMin= 1 ErrMin= 7.64D-06
 ErrMax= 7.64D-06  0.00D+00 EMaxC= 1.00D-01 BMatC= 9.89D-09 BMatP= 9.89D-09
 IDIUse=1 WtCom= 1.00D+00 WtEn= 0.00D+00
 Coeff-Com:  0.100D+01
 Coeff:      0.100D+01
 Gap=     0.155 Goal=   None    Shift=    0.000
 RMSDP=4.04D-06 MaxDP=3.11D-05 DE=-3.98D-05 OVMax= 8.43D-05

 Cycle  11  Pass 1  IDiag  1:
 E= -323.350298924673     Delta-E=        0.000000002931 Rises=F Damp=F
 DIIS: error= 1.61D-05 at cycle   2 NSaved=   2.
 NSaved= 2 IEnMin= 1 EnMin= -323.350298927604     IErMin= 1 ErrMin= 7.64D-06
 ErrMax= 1.61D-05  0.00D+00 EMaxC= 1.00D-01 BMatC= 2.26D-08 BMatP= 9.89D-09
 IDIUse=1 WtCom= 1.00D+00 WtEn= 0.00D+00
 Coeff-Com:  0.634D+00 0.366D+00
 Coeff:      0.634D+00 0.366D+00
 Gap=     0.155 Goal=   None    Shift=    0.000
 RMSDP=4.17D-06 MaxDP=7.00D-05 DE= 2.93D-09 OVMax= 8.57D-05

 Cycle  12  Pass 1  IDiag  1:
 E= -323.350298939961     Delta-E=       -0.000000015288 Rises=F Damp=F
 DIIS: error= 9.46D-06 at cycle   3 NSaved=   3.
 NSaved= 3 IEnMin= 3 EnMin= -323.350298939961     IErMin= 1 ErrMin= 7.64D-06
 ErrMax= 9.46D-06  0.00D+00 EMaxC= 1.00D-01 BMatC= 5.48D-09 BMatP= 9.89D-09
 IDIUse=1 WtCom= 1.00D+00 WtEn= 0.00D+00
 Coeff-Com:  0.511D-01 0.320D+00 0.629D+00
 Coeff:      0.511D-01 0.320D+00 0.629D+00
 Gap=     0.155 Goal=   None    Shift=    0.000
 RMSDP=1.40D-06 MaxDP=1.77D-05 DE=-1.53D-08 OVMax= 4.00D-05

 Cycle  13  Pass 1  IDiag  1:
 E= -323.350298944319     Delta-E=       -0.000000004358 Rises=F Damp=F
 DIIS: error= 2.80D-06 at cycle   4 NSaved=   4.
 NSaved= 4 IEnMin= 4 EnMin= -323.350298944319     IErMin= 4 ErrMin= 2.80D-06
 ErrMax= 2.80D-06  0.00D+00 EMaxC= 1.00D-01 BMatC= 6.20D-10 BMatP= 5.48D-09
 IDIUse=1 WtCom= 1.00D+00 WtEn= 0.00D+00
 Coeff-Com: -0.206D-01 0.180D+00 0.405D+00 0.435D+00
 Coeff:     -0.206D-01 0.180D+00 0.405D+00 0.435D+00
 Gap=     0.155 Goal=   None    Shift=    0.000
 RMSDP=4.02D-07 MaxDP=6.77D-06 DE=-4.36D-09 OVMax= 1.34D-05

 Cycle  14  Pass 1  IDiag  1:
 E= -323.350298944855     Delta-E=       -0.000000000536 Rises=F Damp=F
 DIIS: error= 9.92D-07 at cycle   5 NSaved=   5.
 NSaved= 5 IEnMin= 5 EnMin= -323.350298944855     IErMin= 5 ErrMin= 9.92D-07
 ErrMax= 9.92D-07  0.00D+00 EMaxC= 1.00D-01 BMatC= 3.53D-11 BMatP= 6.20D-10
 IDIUse=1 WtCom= 1.00D+00 WtEn= 0.00D+00
 Coeff-Com: -0.146D-01 0.851D-01 0.180D+00 0.253D+00 0.497D+00
 Coeff:     -0.146D-01 0.851D-01 0.180D+00 0.253D+00 0.497D+00
 Gap=     0.155 Goal=   None    Shift=    0.000
 RMSDP=1.32D-07 MaxDP=2.43D-06 DE=-5.36D-10 OVMax= 3.90D-06

 Cycle  15  Pass 1  IDiag  1:
 E= -323.350298944897     Delta-E=       -0.000000000041 Rises=F Damp=F
 DIIS: error= 2.63D-07 at cycle   6 NSaved=   6.
 NSaved= 6 IEnMin= 6 EnMin= -323.350298944897     IErMin= 6 ErrMin= 2.63D-07
 ErrMax= 2.63D-07  0.00D+00 EMaxC= 1.00D-01 BMatC= 4.02D-12 BMatP= 3.53D-11
 IDIUse=1 WtCom= 1.00D+00 WtEn= 0.00D+00
 Coeff-Com: -0.525D-02 0.225D-01 0.373D-01 0.769D-01 0.290D+00 0.578D+00
 Coeff:     -0.525D-02 0.225D-01 0.373D-01 0.769D-01 0.290D+00 0.578D+00
 Gap=     0.155 Goal=   None    Shift=    0.000
 RMSDP=4.10D-08 MaxDP=4.56D-07 DE=-4.14D-11 OVMax= 7.13D-07

 Cycle  16  Pass 1  IDiag  1:
 E= -323.350298944898     Delta-E=       -0.000000000002 Rises=F Damp=F
 DIIS: error= 5.15D-08 at cycle   7 NSaved=   7.
 NSaved= 7 IEnMin= 7 EnMin= -323.350298944898     IErMin= 7 ErrMin= 5.15D-08
 ErrMax= 5.15D-08  0.00D+00 EMaxC= 1.00D-01 BMatC= 3.59D-13 BMatP= 4.02D-12
 IDIUse=1 WtCom= 1.00D+00 WtEn= 0.00D+00
 Coeff-Com: -0.937D-03 0.216D-02-0.227D-02 0.108D-01 0.105D+00 0.311D+00
 Coeff-Com:  0.574D+00
 Coeff:     -0.937D-03 0.216D-02-0.227D-02 0.108D-01 0.105D+00 0.311D+00
 Coeff:      0.574D+00
 Gap=     0.155 Goal=   None    Shift=    0.000
 RMSDP=1.65D-08 MaxDP=1.38D-07 DE=-1.82D-12 OVMax= 3.55D-07

 Cycle  17  Pass 1  IDiag  1:
 E= -323.350298944898     Delta-E=        0.000000000000 Rises=F Damp=F
 DIIS: error= 1.18D-08 at cycle   8 NSaved=   8.
 NSaved= 8 IEnMin= 7 EnMin= -323.350298944898     IErMin= 8 ErrMin= 1.18D-08
 ErrMax= 1.18D-08  0.00D+00 EMaxC= 1.00D-01 BMatC= 2.07D-14 BMatP= 3.59D-13
 IDIUse=1 WtCom= 1.00D+00 WtEn= 0.00D+00
 Coeff-Com:  0.300D-03-0.236D-02-0.514D-02-0.614D-02-0.329D-02 0.177D-01
 Coeff-Com:  0.194D+00 0.805D+00
 Coeff:      0.300D-03-0.236D-02-0.514D-02-0.614D-02-0.329D-02 0.177D-01
 Coeff:      0.194D+00 0.805D+00
 Gap=     0.155 Goal=   None    Shift=    0.000
 RMSDP=7.90D-09 MaxDP=6.87D-08 DE= 4.55D-13 OVMax= 2.05D-07

 SCF Done:  E(RB3LYP) =  -323.350298945     A.U. after   17 cycles
            NFock= 17  Conv=0.79D-08     -V/T= 2.0053
 KE= 3.216319247467D+02 PE=-1.242585017210D+03 EE= 3.547462099374D+02
 Leave Link  502 at Tue Apr 12 16:40:00 2016, MaxMem=    33554432 cpu:        15.2
 (Enter /usr/local/gau/g09/l801.exe)
 DoSCS=F DFT=T ScalE2(SS,OS)=  1.000000  1.000000
 Range of M.O.s used for correlation:     1    68
 NBasis=    68 NAE=    24 NBE=    24 NFC=     0 NFV=     0
 NROrb=     68 NOA=    24 NOB=    24 NVA=    44 NVB=    44
 Leave Link  801 at Tue Apr 12 16:40:00 2016, MaxMem=    33554432 cpu:         0.0
 (Enter /usr/local/gau/g09/l1101.exe)
 Using compressed storage, NAtomX=    13.
 Will process     14 centers per pass.
 Leave Link 1101 at Tue Apr 12 16:40:00 2016, MaxMem=    33554432 cpu:         0.1
 (Enter /usr/local/gau/g09/l1102.exe)
 Symmetrizing basis deriv contribution to polar:
 IMax=3 JMax=2 DiffMx= 0.00D+00
 Leave Link 1102 at Tue Apr 12 16:40:00 2016, MaxMem=    33554432 cpu:         0.0
 (Enter /usr/local/gau/g09/l1110.exe)
 Forming Gx(P) for the SCF density, NAtomX=    13.
 Integral derivatives from FoFJK, PRISM(SPDF).
 Do as many integral derivatives as possible in FoFJK.
 G2DrvN: MDV=      33554224.
 G2DrvN: will do    14 centers at a time, making    1 passes.
 Calling FoFCou, ICntrl=  3107 FMM=F I1Cent=   0 AccDes= 0.00D+00.
 FoFJK:  IHMeth= 1 ICntrl=    3107 DoSepK=F KAlg= 0 I1Cent=   0 FoldK=F
 IRaf=         0 NMat=   1 IRICut=       1 DoRegI=T DoRafI=F ISym2E= 0.
 FoFCou: FMM=F IPFlag=           0 FMFlag=      100000 FMFlg1=           0
         NFxFlg=           0 DoJE=F BraDBF=F KetDBF=F FulRan=T
         wScrn=  0.000000 ICntrl=    3107 IOpCl=  0 I1Cent=           0 NGrid=           0
         NMat0=    1 NMatS0=      1 NMatT0=    0 NMatD0=    1 NMtDS0=    0 NMtDT0=    0
 Symmetry not used in FoFCou.
 End of G2Drv F.D. properties file   721 does not exist.
 End of G2Drv F.D. properties file   722 does not exist.
 End of G2Drv F.D. properties file   788 does not exist.
 Leave Link 1110 at Tue Apr 12 16:40:43 2016, MaxMem=    33554432 cpu:        26.6
 (Enter /usr/local/gau/g09/l1002.exe)
 Minotr:  Closed shell wavefunction.
          IDoAtm=1111111111111
          Direct CPHF calculation.
          Differentiating once with respect to nuclear coordinates.
          Requested convergence is 1.0D-08 RMS, and 1.0D-07 maximum.
          Secondary convergence is 1.0D-12 RMS, and 1.0D-12 maximum.
          NewPWx=T KeepS1=F KeepF1=F KeepIn=T MapXYZ=F SortEE=F KeepMc=T.
          MDV=      33554230 using IRadAn=       2.
 Generate precomputed XC quadrature information.
 Keep R1 ints in memory in canonical form, NReq=3645297.
 FoFCou: FMM=F IPFlag=           0 FMFlag=           0 FMFlg1=           0
         NFxFlg=           0 DoJE=F BraDBF=F KetDBF=F FulRan=T
         wScrn=  0.000000 ICntrl=     600 IOpCl=  0 I1Cent=           0 NGrid=           0
         NMat0=    1 NMatS0=   2346 NMatT0=    0 NMatD0=    1 NMtDS0=    0 NMtDT0=    0
 Symmetry not used in FoFCou.
          Solving linear equations simultaneously, MaxMat=       0.
          There are    42 degrees of freedom in the 1st order CPHF.  IDoFFX=6 NUNeed=     0.
     36 vectors produced by pass  0 Test12= 2.51D-15 2.38D-09 XBig12= 2.06D-01 1.50D-01.
 AX will form    36 AO Fock derivatives at one time.
     36 vectors produced by pass  1 Test12= 2.51D-15 2.38D-09 XBig12= 2.59D-02 4.73D-02.
     36 vectors produced by pass  2 Test12= 2.51D-15 2.38D-09 XBig12= 9.98D-05 1.74D-03.
     36 vectors produced by pass  3 Test12= 2.51D-15 2.38D-09 XBig12= 1.98D-07 8.34D-05.
     36 vectors produced by pass  4 Test12= 2.51D-15 2.38D-09 XBig12= 1.93D-10 2.20D-06.
     19 vectors produced by pass  5 Test12= 2.51D-15 2.38D-09 XBig12= 1.37D-13 5.20D-08.
 InvSVY:  IOpt=1 It=  1 EMax= 2.00D-15
 Solved reduced A of dimension   199 with    36 vectors.
 End of Minotr F.D. properties file   721 does not exist.
 End of Minotr F.D. properties file   722 does not exist.
 End of Minotr F.D. properties file   788 does not exist.
 Leave Link 1002 at Tue Apr 12 16:41:25 2016, MaxMem=    33554432 cpu:        18.4
 (Enter /usr/local/gau/g09/l601.exe)
 Copying SCF densities to generalized density rwf, IOpCl= 0 IROHF=0.

 **********************************************************************

            Population analysis using the SCF density.

 **********************************************************************

 Orbital symmetries:
       Occupied  (A) (A) (A) (A) (A) (A) (A) (A) (A) (A) (A) (A)
                 (A) (A) (A) (A) (A) (A) (A) (A) (A) (A) (A) (A)
       Virtual   (A) (A) (A) (A) (A) (A) (A) (A) (A) (A) (A) (A)
                 (A) (A) (A) (A) (A) (A) (A) (A) (A) (A) (A) (A)
                 (A) (A) (A) (A) (A) (A) (A) (A) (A) (A) (A) (A)
                 (A) (A) (A) (A) (A) (A) (A) (A)
 The electronic state is 1-A.
 Alpha  occ. eigenvalues --  -19.17175 -19.11115 -14.38106 -10.31265 -10.25400
 Alpha  occ. eigenvalues --  -10.20758  -1.06525  -1.02525  -0.93737  -0.77908
 Alpha  occ. eigenvalues --   -0.73692  -0.61426  -0.59709  -0.52913  -0.46716
 Alpha  occ. eigenvalues --   -0.45121  -0.42695  -0.41089  -0.38929  -0.35824
 Alpha  occ. eigenvalues --   -0.31860  -0.28425  -0.25923  -0.16986
 Alpha virt. eigenvalues --   -0.01492   0.02017   0.06074   0.09328   0.09937
 Alpha virt. eigenvalues --    0.14903   0.15749   0.16403   0.18380   0.22668
 Alpha virt. eigenvalues --    0.26628   0.32474   0.39520   0.52107   0.52300
 Alpha virt. eigenvalues --    0.54425   0.60537   0.61922   0.63632   0.65256
 Alpha virt. eigenvalues --    0.73034   0.74091   0.75442   0.82014   0.83608
 Alpha virt. eigenvalues --    0.84761   0.87954   0.90781   0.92538   0.93018
 Alpha virt. eigenvalues --    0.96492   0.97112   0.98944   1.01342   1.06382
 Alpha virt. eigenvalues --    1.08404   1.14485   1.22693   1.25776   1.41843
 Alpha virt. eigenvalues --    1.43617   1.51502   1.86565   1.97809
          Condensed to atoms (all electrons):
               1          2          3          4          5          6
     1  N    7.339595   0.327581   0.107078  -0.000009  -0.054747  -0.131640
     2  H    0.327581   0.335375  -0.018496   0.000002  -0.005062   0.003778
     3  C    0.107078  -0.018496   5.960101   0.002491   0.335156   0.302979
     4  H   -0.000009   0.000002   0.002491   0.410474   0.000172  -0.032959
     5  C   -0.054747  -0.005062   0.335156   0.000172   5.043967   0.007570
     6  C   -0.131640   0.003778   0.302979  -0.032959   0.007570   4.977798
     7  H    0.001858   0.001059  -0.052563  -0.000056   0.372712  -0.001814
     8  H    0.003455   0.000024  -0.029716  -0.000307   0.373206  -0.002181
     9  H    0.001666   0.002311  -0.053884   0.000119   0.370083  -0.000249
    10  O   -0.011113   0.000090  -0.164385   0.004325   0.001423   0.271550
    11  H    0.300000  -0.013701  -0.045567   0.000000   0.003370  -0.002503
    12  O    0.001262   0.000003  -0.094761   0.234757  -0.006789   0.193336
    13  H   -0.037828   0.003253  -0.312991  -0.001879  -0.003421   0.038925
               7          8          9         10         11         12
     1  N    0.001858   0.003455   0.001666  -0.011113   0.300000   0.001262
     2  H    0.001059   0.000024   0.002311   0.000090  -0.013701   0.000003
     3  C   -0.052563  -0.029716  -0.053884  -0.164385  -0.045567  -0.094761
     4  H   -0.000056  -0.000307   0.000119   0.004325   0.000000   0.234757
     5  C    0.372712   0.373206   0.370083   0.001423   0.003370  -0.006789
     6  C   -0.001814  -0.002181  -0.000249   0.271550  -0.002503   0.193336
     7  H    0.592272  -0.022809  -0.049131  -0.000023  -0.000131   0.000132
     8  H   -0.022809   0.503010  -0.023361   0.000132  -0.000183   0.008467
     9  H   -0.049131  -0.023361   0.604712   0.000002   0.000012   0.000280
    10  O   -0.000023   0.000132   0.000002   8.352912   0.005561  -0.084544
    11  H   -0.000131  -0.000183   0.000012   0.005561   0.347245   0.000105
    12  O    0.000132   0.008467   0.000280  -0.084544   0.000105   8.313778
    13  H   -0.000020  -0.000145  -0.001155   0.169339   0.026539   0.024512
              13
     1  N   -0.037828
     2  H    0.003253
     3  C   -0.312991
     4  H   -0.001879
     5  C   -0.003421
     6  C    0.038925
     7  H   -0.000020
     8  H   -0.000145
     9  H   -0.001155
    10  O    0.169339
    11  H    0.026539
    12  O    0.024512
    13  H    0.737651
 Mulliken charges:
               1
     1  N   -0.847159
     2  H    0.363783
     3  C    0.064558
     4  H    0.382870
     5  C   -0.437641
     6  C    0.375411
     7  H    0.158514
     8  H    0.190407
     9  H    0.148594
    10  O   -0.545269
    11  H    0.379251
    12  O   -0.590538
    13  H    0.357219
 Sum of Mulliken charges =   0.00000
 Mulliken charges with hydrogens summed into heavy atoms:
               1
     1  N   -0.104125
     3  C    0.421777
     5  C    0.059874
     6  C    0.375411
    10  O   -0.545269
    12  O   -0.207669
 APT charges:
               1
     1  N   -1.366401
     2  H    0.798897
     3  C    0.197198
     4  H    0.674353
     5  C   -1.236582
     6  C   -0.026527
     7  H    0.446604
     8  H    0.374649
     9  H    0.441777
    10  O   -0.377495
    11  H    0.547368
    12  O   -0.705032
    13  H    0.231190
 Sum of APT charges =   0.00000
 APT charges with hydrogens summed into heavy atoms:
               1
     1  N   -0.020136
     3  C    0.428389
     5  C    0.026448
     6  C   -0.026527
    10  O   -0.377495
    12  O   -0.030679
 Electronic spatial extent (au):  <R**2>=            632.2222
 Charge=              0.0000 electrons
 Dipole moment (field-independent basis, Debye):
    X=              4.5613    Y=              0.6541    Z=              1.8973  Tot=              4.9833
 Quadrupole moment (field-independent basis, Debye-Ang):
   XX=            -33.0246   YY=            -35.3493   ZZ=            -38.2169
   XY=             -7.2142   XZ=             -2.9375   YZ=              1.8736
 Traceless Quadrupole moment (field-independent basis, Debye-Ang):
   XX=              2.5057   YY=              0.1809   ZZ=             -2.6866
   XY=             -7.2142   XZ=             -2.9375   YZ=              1.8736
 Octapole moment (field-independent basis, Debye-Ang**2):
  XXX=              9.3681  YYY=             -5.9285  ZZZ=              1.3608  XYY=             10.2200
  XXY=              6.0642  XXZ=              9.3877  XZZ=             -4.9966  YZZ=              2.1689
  YYZ=              3.7985  XYZ=             -6.1042
 Hexadecapole moment (field-independent basis, Debye-Ang**3):
 XXXX=           -379.9488 YYYY=           -263.3183 ZZZZ=            -43.9364 XXXY=            -49.7916
 XXXZ=            -15.1804 YYYX=            -27.6488 YYYZ=              2.6376 ZZZX=             -2.2388
 ZZZY=              0.8593 XXYY=           -116.1838 XXZZ=            -78.8559 YYZZ=            -56.5371
 XXYZ=              8.2515 YYXZ=             -4.7474 ZZXY=             -2.4918
 N-N= 2.428565835809D+02 E-N=-1.242585017507D+03  KE= 3.216319247467D+02
  Exact polarizability:   0.000   0.000   0.000   0.000   0.000   0.000
 Approx polarizability: 142.387   9.693  75.250  -2.820  -0.922  32.974
 No NMR shielding tensors so no spin-rotation constants.
 Leave Link  601 at Tue Apr 12 16:41:25 2016, MaxMem=    33554432 cpu:         0.1
 (Enter /usr/local/gau/g09/l701.exe)
 Compute integral second derivatives.
 ... and contract with generalized density number  0.
 Leave Link  701 at Tue Apr 12 16:41:25 2016, MaxMem=    33554432 cpu:         0.1
 (Enter /usr/local/gau/g09/l702.exe)
 L702 exits ... SP integral derivatives will be done elsewhere.
 Leave Link  702 at Tue Apr 12 16:41:25 2016, MaxMem=    33554432 cpu:         0.0
 (Enter /usr/local/gau/g09/l703.exe)
 Compute integral second derivatives, UseDBF=F ICtDFT=           0.
 Integral derivatives from FoFJK, PRISM(SPDF).
 Calling FoFJK, ICntrl=    100147 FMM=F ISym2X=0 I1Cent= 0 IOpClX= 0 NMat=1 NMatS=1 NMatT=0.
 FoFJK:  IHMeth= 1 ICntrl=  100147 DoSepK=F KAlg= 0 I1Cent=   0 FoldK=F
 IRaf=         0 NMat=   1 IRICut=       1 DoRegI=T DoRafI=F ISym2E= 0.
 FoFCou: FMM=F IPFlag=           0 FMFlag=      100000 FMFlg1=         800
         NFxFlg=           0 DoJE=F BraDBF=F KetDBF=F FulRan=T
         wScrn=  0.000000 ICntrl=  100147 IOpCl=  0 I1Cent=           0 NGrid=           0
         NMat0=    1 NMatS0=      1 NMatT0=    0 NMatD0=    1 NMtDS0=    0 NMtDT0=    0
 Symmetry not used in FoFCou.
 Leave Link  703 at Tue Apr 12 16:42:02 2016, MaxMem=    33554432 cpu:        28.0
 (Enter /usr/local/gau/g09/l716.exe)
 Dipole        = 1.79453952D+00 2.57359763D-01 7.46472121D-01
 Polarizability= 0.00000000D+00 0.00000000D+00 0.00000000D+00
                 0.00000000D+00 0.00000000D+00 0.00000000D+00
 ***** Axes restored to original set *****
 -------------------------------------------------------------------
 Center     Atomic                   Forces (Hartrees/Bohr)
 Number     Number              X              Y              Z
 -------------------------------------------------------------------
      1        7           0.036228687    0.052149670    0.002280866
      2        1           0.000768854   -0.002127500    0.000522396
      3        6          -0.041493421   -0.125955195   -0.003089872
      4        1          -0.000750797    0.004712526    0.000634388
      5        6          -0.002066303    0.000624955    0.001935203
      6        6          -0.000335603    0.023742243   -0.002811642
      7        1           0.000008492   -0.000175732    0.001449984
      8        1          -0.001418192    0.001127747    0.000016898
      9        1          -0.000551290    0.000467810   -0.001476239
     10        8           0.063832407   -0.029301138    0.004211200
     11        1           0.011346490    0.023641902   -0.001953329
     12        8           0.026411019   -0.004315225    0.000426468
     13        1          -0.091980344    0.055407937   -0.002146321
 -------------------------------------------------------------------
 Cartesian Forces:  Max     0.125955195 RMS     0.032083149
 Force constants in Cartesian coordinates: 
                1             2             3             4             5 
      1  0.893196D+00
      2  0.171339D-01  0.702939D+00
      3 -0.143282D-01 -0.395083D-01 -0.257952D-01
      4 -0.476484D+00 -0.240990D-01  0.330461D-01  0.487670D+00
      5 -0.219395D-01 -0.567136D-01  0.596783D-02  0.294383D-01  0.644227D-01
      6  0.457346D-01  0.707516D-02  0.535457D-02 -0.369108D-01 -0.524008D-02
      7 -0.169165D+00 -0.752857D-01 -0.721566D-03 -0.692499D-02 -0.449898D-01
      8 -0.169046D+00 -0.294596D+00 -0.128174D-02 -0.348461D-02 -0.634338D-02
      9 -0.551091D-02 -0.888666D-02  0.426301D-03  0.172145D-02  0.226848D-02
     10 -0.122600D-02  0.229300D-02  0.345548D-02 -0.204316D-03 -0.533635D-03
     11  0.543765D-03 -0.367669D-03  0.165712D-02  0.361106D-03 -0.892837D-04
     12  0.271910D-02 -0.251098D-02 -0.295445D-03  0.452442D-03  0.546798D-03
     13  0.100554D-01 -0.227457D-01  0.345904D-03  0.247493D-02 -0.896004D-03
     14  0.262602D-01 -0.411715D-01  0.835837D-04  0.210327D-02  0.339801D-02
     15  0.715643D-03 -0.793073D-03  0.607813D-02 -0.211800D-03  0.443227D-03
     16 -0.182020D-01  0.219509D-01  0.571658D-02 -0.250049D-03  0.199427D-02
     17 -0.386293D-01 -0.148986D-01  0.505062D-03  0.735258D-02 -0.740776D-02
     18 -0.285571D-02  0.142240D-02 -0.250960D-01 -0.805988D-04  0.114588D-03
     19  0.283747D-02 -0.994635D-03  0.246503D-02  0.282320D-03  0.374451D-03
     20 -0.169845D-02  0.384790D-02 -0.247035D-02 -0.607782D-03 -0.642078D-03
     21  0.121640D-02  0.921536D-03 -0.267747D-03 -0.481774D-03  0.941591D-03
     22 -0.341454D-02  0.441188D-02 -0.230789D-03 -0.499850D-03  0.291674D-03
     23  0.425352D-02 -0.376962D-02  0.224836D-03  0.651534D-03  0.427229D-03
     24  0.116752D-03 -0.783265D-04  0.131436D-02 -0.945549D-04 -0.235515D-04
     25  0.273318D-02 -0.100324D-02 -0.222838D-02  0.360582D-03  0.440578D-03
     26 -0.117723D-02  0.384711D-02  0.225334D-02 -0.916742D-03 -0.617990D-03
     27 -0.131065D-02 -0.827335D-03 -0.168955D-03  0.506714D-03 -0.110825D-02
     28  0.319589D-02 -0.591130D-02 -0.231347D-03  0.985473D-03  0.185129D-02
     29 -0.579958D-02  0.260095D-01  0.349915D-02 -0.304797D-02  0.134447D-02
     30 -0.516141D-04 -0.723114D-03  0.959372D-03 -0.863609D-04  0.178578D-04
     31 -0.189253D+00  0.169754D+00 -0.186400D-01 -0.866463D-02  0.304581D-01
     32  0.177999D+00 -0.337312D+00  0.327422D-01 -0.640422D-02  0.864760D-02
     33 -0.279156D-01  0.414252D-01 -0.108519D-01  0.324831D-02 -0.297424D-02
     34 -0.462121D-02 -0.411960D-02 -0.356490D-02  0.160763D-02 -0.142815D-02
     35 -0.480764D-02 -0.543397D-02 -0.321208D-02 -0.755043D-04  0.180971D-03
     36 -0.311019D-02  0.362261D-02  0.129560D-01 -0.288518D-03 -0.944832D-03
     37 -0.496516D-01 -0.813845D-01 -0.508386D-02 -0.353234D-03  0.493838D-02
     38  0.169073D-01  0.176198D-01 -0.460662D-03 -0.127099D-02 -0.660688D-02
     39  0.458041D-02 -0.113918D-02  0.353866D-01 -0.820581D-03 -0.941380D-05
                6             7             8             9            10 
      6 -0.104953D-01
      7 -0.369154D-02  0.503732D+00
      8 -0.374189D-02 -0.116989D+00  0.696767D+00
      9  0.490515D-03  0.939727D-02  0.210719D-02  0.126654D-01
     10  0.147354D-02 -0.117787D-02 -0.461603D-02 -0.217036D-02  0.154464D+00
     11  0.101548D-02  0.229808D-02 -0.163096D-02 -0.136457D-02  0.630956D-01
     12  0.301716D-03  0.447316D-02  0.565046D-02 -0.562242D-03  0.200906D+00
     13  0.410406D-04 -0.115352D+00  0.739458D-01  0.782166D-03 -0.290113D-03
     14  0.274657D-03  0.498609D-01 -0.149579D+00 -0.107904D-03 -0.311966D-03
     15  0.912492D-02 -0.116281D-02  0.276042D-02 -0.432159D-01 -0.236606D-02
     16  0.706689D-03 -0.152856D+00  0.579742D-03 -0.566755D-02 -0.177511D-01
     17  0.862394D-03 -0.215203D-01 -0.116050D+00 -0.609913D-03 -0.104046D-01
     18 -0.181158D-01 -0.683842D-02 -0.730545D-02 -0.455043D-01 -0.109273D-01
     19  0.100754D-03 -0.203570D-01  0.760733D-02 -0.132118D-01 -0.107905D-03
     20 -0.137084D-03  0.238771D-01 -0.875138D-02  0.193829D-01  0.209272D-03
     21 -0.958419D-03 -0.103841D-02  0.265716D-03  0.658273D-02  0.252015D-03
     22 -0.969218D-04  0.834683D-02  0.195586D-01 -0.430866D-04 -0.106351D-03
     23  0.642311D-04 -0.115477D-01 -0.218048D-01 -0.949083D-05  0.119972D-03
     24 -0.876327D-03 -0.138113D-04 -0.120142D-03 -0.225087D-02 -0.418071D-03
     25 -0.107260D-04 -0.197746D-01  0.651571D-02  0.125991D-01  0.253324D-03
     26  0.458491D-03  0.228339D-01 -0.756807D-02 -0.189189D-01 -0.149114D-03
     27 -0.890123D-03  0.898582D-03 -0.500776D-03  0.641099D-02  0.908383D-05
     28 -0.419123D-03 -0.195624D-01  0.475834D-01 -0.113697D-02  0.173010D-03
     29 -0.128183D-03 -0.233464D-02 -0.151491D-01 -0.149131D-03  0.249183D-02
     30  0.164130D-02  0.825073D-03  0.204965D-02  0.118601D-02 -0.177996D-03
     31 -0.576376D-02  0.168098D-01 -0.154653D-01  0.182115D-02  0.213921D-03
     32  0.673130D-03  0.156180D-01 -0.177557D-01  0.229035D-02 -0.808023D-04
     33  0.967451D-02  0.298709D-02 -0.146728D-02 -0.837759D-02 -0.118972D-02
     34 -0.124374D-02 -0.159257D-01 -0.265277D-01  0.302093D-02 -0.135259D+00
     35 -0.103641D-02 -0.671838D-02  0.289938D-02  0.304687D-02 -0.536333D-01
     36  0.598439D-02 -0.275021D-02 -0.577178D-02 -0.989634D-03 -0.184644D+00
     37  0.799906D-04 -0.779300D-02  0.180339D+00 -0.160144D-02  0.101880D-02
     38 -0.139901D-03  0.164898D+00 -0.604375D-01  0.950751D-03  0.151978D-02
     39 -0.123596D-02 -0.236441D-02  0.735562D-02  0.731386D-01 -0.420246D-02
               11            12            13            14            15 
     11  0.472665D-01
     12  0.502260D-01  0.305838D+00
     13  0.427550D-03  0.290335D-04  0.527884D+00
     14  0.361912D-03  0.199490D-03  0.708112D-01  0.533220D+00
     15 -0.141120D-02 -0.133220D-03  0.503193D-03 -0.683952D-03  0.521499D+00
     16 -0.346909D-01  0.594114D-02 -0.278991D-01  0.150954D-01 -0.867576D-03
     17 -0.190407D-01  0.108200D-01  0.260088D-01  0.826079D-02 -0.904271D-03
     18 -0.258395D-01  0.524378D-02 -0.533915D-03  0.445127D-03  0.218130D-01
     19  0.264081D-04 -0.233989D-04 -0.129216D+00 -0.569747D-02 -0.119311D+00
     20  0.121933D-03 -0.140783D-03 -0.484371D-02 -0.477739D-01 -0.571238D-03
     21  0.921647D-04 -0.102220D-03 -0.117885D+00 -0.441573D-02 -0.218308D+00
     22 -0.239877D-03 -0.749300D-04 -0.130289D+00 -0.131783D+00 -0.497696D-03
     23  0.269244D-03 -0.509878D-04 -0.124878D+00 -0.245825D+00 -0.105779D-02
     24  0.290366D-03  0.984345D-04 -0.277865D-03 -0.648767D-03 -0.482452D-01
     25  0.243187D-03  0.121709D-03 -0.130796D+00 -0.722407D-02  0.119226D+00
     26 -0.296451D-03  0.106943D-03 -0.602715D-02 -0.483207D-01  0.207117D-02
     27  0.148560D-04  0.604112D-04  0.117454D+00  0.653433D-02 -0.214297D+00
     28  0.582451D-02  0.126646D-02 -0.332933D-03 -0.732947D-02 -0.727203D-03
     29  0.496374D-03 -0.914528D-04 -0.333065D-02  0.340426D-02 -0.302456D-03
     30  0.306674D-02 -0.104165D-02  0.106713D-03 -0.416693D-03  0.789011D-02
     31 -0.221651D-03 -0.495606D-03 -0.314954D-02 -0.167296D-02  0.651019D-03
     32 -0.399728D-03 -0.285455D-03 -0.416066D-02 -0.254157D-02  0.107168D-03
     33 -0.546745D-03  0.575601D-04 -0.402251D-03 -0.726859D-03 -0.288899D-02
     34 -0.354693D-01 -0.212483D+00  0.290719D-02 -0.158543D-02  0.218266D-02
     35 -0.302911D-01 -0.623933D-01  0.194455D-02 -0.460526D-02  0.121829D-02
     36 -0.244633D-01 -0.310044D+00 -0.187725D-03 -0.369861D-03 -0.907940D-02
     37 -0.219847D-02 -0.283267D-02 -0.599532D-02 -0.852712D-02  0.186593D-02
     38  0.359997D-02 -0.207675D-02 -0.625569D-02 -0.882848D-02 -0.876287D-03
     39 -0.273736D-02  0.579713D-03  0.251584D-04 -0.167416D-03 -0.302385D-01
               16            17            18            19            20 
     16  0.404977D+00
     17  0.127871D+00  0.473071D+00
     18  0.315602D-01  0.299535D-02  0.515826D-01
     19  0.311145D-02  0.259668D-02  0.126933D-03  0.145650D+00
     20 -0.189768D-02 -0.309400D-02 -0.227636D-02 -0.202099D-02  0.513751D-01
     21  0.236389D-02 -0.522167D-03 -0.132183D-02  0.131823D+00  0.298120D-02
     22  0.148124D-02  0.102953D-02  0.162275D-03 -0.968871D-02 -0.158023D-01
     23 -0.257473D-02 -0.121225D-02  0.201988D-03  0.529709D-03  0.845284D-03
     24 -0.135690D-04  0.879205D-04  0.513344D-03 -0.154955D-01 -0.244807D-01
     25  0.289729D-02  0.247383D-02  0.227566D-03  0.111337D-01  0.102315D-03
     26 -0.194040D-02 -0.331629D-02  0.220172D-02 -0.248851D-03  0.102409D-02
     27 -0.211848D-02  0.764592D-03 -0.157168D-02  0.170956D-01  0.211150D-02
     28 -0.140669D+00  0.112894D+00 -0.929963D-02 -0.207063D-02  0.182878D-02
     29  0.383264D-01 -0.145941D+00  0.911892D-02  0.136340D-02 -0.587910D-03
     30 -0.571181D-02  0.814461D-02 -0.483230D-01  0.136700D-02 -0.145401D-02
     31  0.591279D-02 -0.272580D-02 -0.573433D-03 -0.125905D-03 -0.457349D-04
     32  0.471297D-02 -0.390854D-02  0.172309D-02 -0.156121D-03  0.227391D-03
     33 -0.268740D-02  0.174056D-03  0.110353D-01 -0.405341D-03  0.122134D-03
     34 -0.102530D+00 -0.900164D-01 -0.173583D-02 -0.414017D-03 -0.111507D-03
     35 -0.529947D-01 -0.182838D+00  0.224452D-01 -0.877903D-03  0.107438D-02
     36 -0.251606D-01 -0.140637D-01 -0.339907D-01 -0.651382D-03  0.137288D-02
     37  0.417773D-01 -0.116929D+00  0.767779D-03 -0.103440D-02  0.101072D-02
     38 -0.116432D+00  0.163756D-01 -0.524700D-02 -0.250202D-02  0.233322D-02
     39 -0.406154D-02 -0.825397D-02  0.837354D-01 -0.387994D-02  0.555993D-02
               21            22            23            24            25 
     21  0.237548D+00
     22  0.139529D-02  0.141023D+00
     23  0.813042D-03  0.136609D+00  0.269524D+00
     24  0.294747D-03  0.874431D-03  0.938110D-03  0.487807D-01
     25 -0.164346D-01 -0.952022D-02  0.642273D-03  0.152343D-01  0.147177D+00
     26 -0.162476D-02 -0.153614D-01  0.918646D-03  0.242959D-01 -0.255505D-03
     27 -0.247442D-01 -0.165649D-02 -0.783195D-03  0.530921D-03 -0.131825D+00
     28 -0.595823D-04  0.990600D-04  0.172517D-03  0.277672D-04 -0.177702D-02
     29  0.996385D-03 -0.160982D-03  0.142597D-03 -0.130188D-05  0.143975D-02
     30 -0.136208D-03  0.227977D-04 -0.606923D-05 -0.182567D-03 -0.158610D-02
     31  0.835736D-04  0.929903D-03 -0.854787D-03 -0.317306D-04 -0.191899D-03
     32  0.970207D-04  0.125073D-02 -0.695691D-03  0.294900D-04 -0.110023D-03
     33  0.907498D-04  0.139531D-03 -0.260676D-03  0.814781D-03  0.314375D-03
     34 -0.378939D-03 -0.577946D-03 -0.787219D-03  0.911463D-04 -0.972830D-03
     35 -0.375087D-03 -0.107534D-02  0.209788D-02 -0.297805D-03 -0.861242D-03
     36  0.501421D-03 -0.166591D-03  0.673395D-04 -0.651471D-03  0.786308D-03
     37 -0.856170D-03  0.221747D-02 -0.233619D-02  0.000000D+00 -0.152287D-02
     38 -0.170905D-03  0.127054D-02 -0.917227D-03  0.881813D-05 -0.240357D-02
     39  0.821148D-03  0.172175D-03 -0.141333D-03 -0.140835D-03  0.357511D-02
               26            27            28            29            30 
     26  0.513039D-01
     27 -0.546315D-02  0.233463D+00
     28  0.166356D-02  0.912885D-04  0.148096D+00
     29 -0.705155D-03 -0.105758D-02 -0.104607D+00  0.209938D+00
     30  0.161145D-02 -0.102429D-03  0.437924D-02 -0.136320D-01  0.436202D-01
     31  0.227638D-03 -0.133053D-03 -0.263219D-02  0.657528D-02 -0.327409D-03
     32  0.209513D-03 -0.589553D-04  0.267838D-02  0.418603D-02 -0.787232D-05
     33 -0.223114D-03  0.692327D-04  0.816694D-03 -0.176288D-02 -0.377077D-02
     34 -0.260353D-03  0.147299D-03  0.211203D-01  0.142349D-01  0.146083D-02
     35  0.146114D-02  0.158010D-03 -0.206410D-01 -0.505738D-01  0.451294D-02
     36 -0.129689D-02  0.279345D-03  0.323558D-02  0.514785D-02  0.111238D-01
     37  0.161164D-02  0.841216D-03 -0.662593D-02  0.548498D-01 -0.220372D-03
     38  0.206018D-02  0.215954D-03 -0.360070D-01 -0.325647D-01 -0.316346D-02
     39 -0.547222D-02  0.960487D-03  0.205682D-02 -0.163728D-02 -0.128641D-01
               31            32            33            34            35 
     31  0.183485D+00
     32 -0.169894D+00  0.380210D+00
     33  0.215236D-01 -0.393113D-01 -0.128590D-01
     34 -0.752364D-03 -0.145019D-03  0.140948D-02  0.245866D+00
     35  0.542789D-03  0.175773D-02  0.112584D-02  0.134066D+00  0.276513D+00
     36  0.605798D-03 -0.339180D-03 -0.349318D-02  0.208663D+00  0.308868D-01
     37 -0.258179D-02 -0.213084D-01  0.216121D-02 -0.104478D-01  0.513156D-02
     38 -0.166773D-01 -0.326255D-01  0.442586D-02  0.121496D-01 -0.122419D-01
     39  0.127984D-02  0.234034D-02  0.204993D-01  0.243039D-02  0.392070D-02
               36            37            38            39 
     36  0.347591D+00
     37  0.366864D-02  0.409923D-01
     38  0.615200D-02 -0.151969D-01  0.112233D+00
     39 -0.201875D-01  0.120902D-02  0.381573D-03 -0.150454D+00
 FormGI is forming the generalized inverse of G from B-inverse, IUseBI=4.
 Leave Link  716 at Tue Apr 12 16:42:02 2016, MaxMem=    33554432 cpu:         0.0
 (Enter /usr/local/gau/g09/l103.exe)

 GradGradGradGradGradGradGradGradGradGradGradGradGradGradGradGradGradGrad
 Berny optimization.
 Red2BG is reusing G-inverse.
 Internal  Forces:  Max     0.099014922 RMS     0.027295625
 Search for a saddle point.
 Step number   1 out of a maximum of   62
 All quantities printed in internal units (Hartrees-Bohrs-Radians)
 Swapping is turned off.
 Second derivative matrix not updated -- analytic derivatives used.
 ITU=  0
     Eigenvalues ---   -0.13321  -0.09824  -0.02435  -0.00140   0.00125
     Eigenvalues ---    0.00308   0.00567   0.01758   0.02355   0.03361
     Eigenvalues ---    0.06344   0.06413   0.10626   0.12012   0.13183
     Eigenvalues ---    0.13313   0.16009   0.16425   0.17443   0.18843
     Eigenvalues ---    0.19835   0.23474   0.29598   0.32084   0.32733
     Eigenvalues ---    0.34254   0.35787   0.36143   0.45245   0.46179
     Eigenvalues ---    0.47481   0.49351   0.58971
 Eigenvectors required to have negative eigenvalues:
                          R6        A15       A16       R5        R11
   1                   -0.62944   0.47582  -0.39420   0.35678  -0.21822
                          R2        A6        A17       A4        A5
   1                    0.12184  -0.08130  -0.08104   0.05933  -0.05891
 Eigenvalue     2 is  -9.82D-02 should be greater than     0.000000 Eigenvector:
                          D18       A20       D6        D17       D3
   1                   -0.47057  -0.43349   0.39452  -0.33141   0.30719
                          D2        D13       D5        D1        D15
   1                   -0.24705   0.24613  -0.15973  -0.12629   0.11787
 Eigenvalue     3 is  -2.44D-02 should be greater than     0.000000 Eigenvector:
                          D5        D6        D4        D2        D3
   1                   -0.43832  -0.42409  -0.40862  -0.38393  -0.36970
                          D1        D16       D18       D20       D14
   1                   -0.35423  -0.12183  -0.10501  -0.09562  -0.09035
 Eigenvalue     4 is  -1.40D-03 should be greater than     0.000000 Eigenvector:
                          D19       D20       A19       D1        A6
   1                    0.68490   0.67904   0.08372  -0.07865   0.07196
                          D3        D2        A18       R5        D11
   1                   -0.07083  -0.06834   0.06739   0.06462  -0.06328
 RFO step:  Lambda0=5.407655659D-02 Lambda=-9.84685153D-02.
 Linear search not attempted -- option 19 set.
 Maximum step size (   0.300) exceeded in Quadratic search.
    -- Step size scaled by   0.409
 Iteration  1 RMS(Cart)=  0.09484643 RMS(Int)=  0.00568467
 Iteration  2 RMS(Cart)=  0.00654379 RMS(Int)=  0.00141476
 Iteration  3 RMS(Cart)=  0.00002517 RMS(Int)=  0.00141463
 Iteration  4 RMS(Cart)=  0.00000001 RMS(Int)=  0.00141463
 ITry= 1 IFail=0 DXMaxC= 2.43D-01 DCOld= 1.00D+10 DXMaxT= 3.00D-01 DXLimC= 3.00D+00 Rises=F
 Variable       Old X    -DE/DX   Delta X   Delta X   Delta X     New X
                                 (Linear)    (Quad)   (Total)
    R1        1.89636   0.00056   0.00000  -0.00211  -0.00211   1.89425
    R2        2.63279   0.08747   0.00000   0.08927   0.08927   2.72206
    R3        1.89992   0.01331   0.00000   0.00304   0.00304   1.90296
    R4        2.84087  -0.00407   0.00000  -0.01244  -0.01244   2.82842
    R5        2.83459  -0.08848   0.00000   0.02114   0.02114   2.85573
    R6        2.17109   0.09901   0.00000  -0.08245  -0.08245   2.08864
    R7        1.85600  -0.00087   0.00000   0.00160   0.00160   1.85759
    R8        2.07561   0.00118   0.00000   0.00178   0.00178   2.07739
    R9        2.06050  -0.00020   0.00000  -0.00147  -0.00147   2.05903
   R10        2.07718   0.00086   0.00000   0.00159   0.00159   2.07876
   R11        2.66481  -0.06082   0.00000  -0.13695  -0.13695   2.52787
   R12        2.64885  -0.01290   0.00000   0.00796   0.00796   2.65681
    A1        2.10258  -0.01672   0.00000  -0.03152  -0.03151   2.07107
    A2        2.07788  -0.01300   0.00000  -0.00568  -0.00566   2.07222
    A3        2.08053   0.03019   0.00000   0.03760   0.03761   2.11815
    A4        2.03345  -0.01651   0.00000   0.00133   0.00103   2.03448
    A5        2.10966   0.01717   0.00000   0.00353  -0.00021   2.10946
    A6        1.09111   0.04130   0.00000  -0.00430  -0.00069   1.09041
    A7        2.14004  -0.00067   0.00000  -0.00524  -0.00228   2.13776
    A8        1.01862  -0.02412   0.00000   0.00967   0.01628   1.03490
    A9        1.93153   0.00049   0.00000  -0.01381  -0.01385   1.91768
   A10        1.93081  -0.00268   0.00000  -0.01069  -0.01074   1.92007
   A11        1.93804  -0.00093   0.00000   0.01529   0.01533   1.95336
   A12        1.88943   0.00079   0.00000   0.00368   0.00355   1.89298
   A13        1.87473   0.00133   0.00000   0.00378   0.00382   1.87856
   A14        1.89759   0.00117   0.00000   0.00215   0.00218   1.89977
   A15        2.10339  -0.04488   0.00000   0.11515   0.11419   2.21758
   A16        2.16418  -0.00450   0.00000  -0.14349  -0.14438   2.01981
   A17        2.01544   0.04935   0.00000   0.02965   0.02881   2.04426
   A18        1.93088  -0.00667   0.00000  -0.00900  -0.00900   1.92187
   A19        3.12455   0.02479   0.00000  -0.00297   0.00034   3.12489
   A20        3.13848  -0.00005   0.00000  -0.12832  -0.12869   3.00979
    D1        0.10954  -0.00093   0.00000  -0.09944  -0.09957   0.00997
    D2       -3.04060  -0.00188   0.00000  -0.14822  -0.14831   3.09427
    D3       -3.02894  -0.00088   0.00000   0.02888   0.02911  -2.99982
    D4        3.02427  -0.00017   0.00000  -0.09803  -0.09817   2.92610
    D5       -0.12587  -0.00113   0.00000  -0.14681  -0.14691  -0.27278
    D6       -0.11421  -0.00012   0.00000   0.03029   0.03052  -0.08369
    D7        1.03078   0.00013   0.00000  -0.01636  -0.01640   1.01439
    D8        3.12490  -0.00030   0.00000  -0.02773  -0.02763   3.09726
    D9       -1.04963  -0.00124   0.00000  -0.02199  -0.02195  -1.07158
   D10       -2.10210   0.00101   0.00000   0.03329   0.03319  -2.06891
   D11       -0.00799   0.00058   0.00000   0.02192   0.02195   0.01397
   D12        2.10067  -0.00036   0.00000   0.02767   0.02764   2.12831
   D13        0.09061  -0.00105   0.00000   0.10111   0.10110   0.19171
   D14       -3.03040  -0.00010   0.00000   0.01978   0.01873  -3.01168
   D15       -3.06006  -0.00214   0.00000   0.04932   0.04943  -3.01063
   D16        0.10211  -0.00118   0.00000  -0.03200  -0.03294   0.06917
   D17        0.07845  -0.00255   0.00000  -0.08333  -0.08185  -0.00340
   D18       -3.04255  -0.00159   0.00000  -0.16465  -0.16423   3.07641
   D19       -2.06781  -0.00363   0.00000  -0.04492  -0.04673  -2.11454
   D20        1.09343  -0.00173   0.00000  -0.12358  -0.12177   0.97166
         Item               Value     Threshold  Converged?
 Maximum Force            0.099015     0.000450     NO 
 RMS     Force            0.027296     0.000300     NO 
 Maximum Displacement     0.243499     0.001800     NO 
 RMS     Displacement     0.092858     0.001200     NO 
 Predicted change in Energy=-1.006805D-02
 Lowest energy point so far.  Saving SCF results.
 GradGradGradGradGradGradGradGradGradGradGradGradGradGradGradGradGradGrad

 Leave Link  103 at Tue Apr 12 16:42:02 2016, MaxMem=    33554432 cpu:         0.0
 (Enter /usr/local/gau/g09/l202.exe)
                          Input orientation:                          
 ---------------------------------------------------------------------
 Center     Atomic      Atomic             Coordinates (Angstroms)
 Number     Number       Type             X           Y           Z
 ---------------------------------------------------------------------
      1          7           0        1.312077    1.402542    0.033016
      2          1           0        2.314179    1.419740    0.050052
      3          6           0        0.643917    0.128071   -0.031681
      4          1           0       -1.983297   -1.437859   -0.672738
      5          6           0        1.518904   -1.086037   -0.055360
      6          6           0       -0.864390    0.040960    0.001517
      7          1           0        2.158144   -1.103520    0.838815
      8          1           0        0.906327   -1.987113   -0.059205
      9          1           0        2.177634   -1.100362   -0.936237
     10          8           0       -1.732983    1.051584   -0.115095
     11          1           0        0.815916    2.263318   -0.131134
     12          8           0       -1.398839   -1.255950    0.096417
     13          1           0        0.023606    1.036161   -0.142059
 ---------------------------------------------------------------------
                    Distance matrix (angstroms):
                    1          2          3          4          5
     1  N    0.000000
     2  H    1.002395   0.000000
     3  C    1.440450   2.113022   0.000000
     4  H    4.407432   5.211200   3.124956   0.000000
     5  C    2.498722   2.631063   1.496737   3.573563   0.000000
     6  C    2.567471   3.465068   1.511186   1.973190   2.636939
     7  H    2.765048   2.648270   2.137163   4.421325   1.099310
     8  H    3.415099   3.687904   2.131577   3.004668   1.089590
     9  H    2.820136   2.709672   2.163228   4.182905   1.100035
    10  O    3.068794   4.067227   2.551370   2.563386   3.892012
    11  H    1.007004   1.728944   2.144471   4.672006   3.423173
    12  O    3.797455   4.576896   2.470785   0.982997   2.926625
    13  H    1.350941   2.330400   1.105259   3.229560   2.597529
                    6          7          8          9         10
     6  C    0.000000
     7  H    3.338655   0.000000
     8  H    2.692992   1.776014   0.000000
     9  H    3.381702   1.775162   1.780937   0.000000
    10  O    1.337689   4.549207   4.025265   4.538510   0.000000
    11  H    2.789247   3.752063   4.252002   3.717097   2.822311
    12  O    1.405923   3.636829   2.423346   3.725822   2.341176
    13  H    1.341483   3.177515   3.150595   3.136126   1.756864
                   11         12         13
    11  H    0.000000
    12  O    4.164393   0.000000
    13  H    1.460749   2.708135   0.000000
 Stoichiometry    C3H7NO2
 Framework group  C1[X(C3H7NO2)]
 Deg. of freedom    33
 Full point group                 C1      NOp   1
 RotChk:  IX=0 Diff= 4.71D-02
 Largest Abelian subgroup         C1      NOp   1
 Largest concise Abelian subgroup C1      NOp   1
                         Standard orientation:                         
 ---------------------------------------------------------------------
 Center     Atomic      Atomic             Coordinates (Angstroms)
 Number     Number       Type             X           Y           Z
 ---------------------------------------------------------------------
      1          7           0        1.504931   -1.189498   -0.056787
      2          1           0        2.501701   -1.083519   -0.060382
      3          6           0        0.684642   -0.007269    0.009219
      4          1           0       -2.122686    1.218368    0.627339
      5          6           0        1.403630    1.304682    0.054630
      6          6           0       -0.822422   -0.105450   -0.043704
      7          1           0        2.046973    1.409126   -0.830628
      8          1           0        0.685086    2.123762    0.057507
      9          1           0        2.044603    1.391096    0.944441
     10          8           0       -1.561787   -1.216043    0.052900
     11          1           0        1.116168   -2.106177    0.093615
     12          8           0       -1.510790    1.117000   -0.135281
     13          1           0        0.179154   -0.985602    0.103789
 ---------------------------------------------------------------------
 Rotational constants (GHZ):      4.9062908      3.0143787      1.9014379
 Leave Link  202 at Tue Apr 12 16:42:02 2016, MaxMem=    33554432 cpu:         0.0
 (Enter /usr/local/gau/g09/l301.exe)
 Standard basis: 6-31G (6D, 7F)
 Ernie: Thresh=  0.10000D-02 Tol=  0.10000D-05 Strict=F.
 There are    68 symmetry adapted cartesian basis functions of A   symmetry.
 There are    68 symmetry adapted basis functions of A   symmetry.
    68 basis functions,   160 primitive gaussians,    68 cartesian basis functions
    24 alpha electrons       24 beta electrons
       nuclear repulsion energy       243.4190943121 Hartrees.
 IExCor=  402 DFT=T Ex+Corr=B3LYP ExCW=0 ScaHFX=  0.200000
 ScaDFX=  0.800000  0.720000  1.000000  0.810000 ScalE2=  1.000000  1.000000
 IRadAn=      0 IRanWt=     -1 IRanGd=            0 ICorTp=0 IEmpDi=  4
 NAtoms=   13 NActive=   13 NUniq=   13 SFac= 1.00D+00 NAtFMM=   60 NAOKFM=F Big=F
 Integral buffers will be    131072 words long.
 Raffenetti 2 integral format.
 Two-electron integral symmetry is turned on.
 Leave Link  301 at Tue Apr 12 16:42:02 2016, MaxMem=    33554432 cpu:         0.0
 (Enter /usr/local/gau/g09/l302.exe)
 NPDir=0 NMtPBC=     1 NCelOv=     1 NCel=       1 NClECP=     1 NCelD=      1
         NCelK=      1 NCelE2=     1 NClLst=     1 CellRange=     0.0.
 One-electron integrals computed using PRISM.
 NBasis=    68 RedAO= T EigKep=  4.23D-03  NBF=    68
 NBsUse=    68 1.00D-06 EigRej= -1.00D+00 NBFU=    68
 Precomputing XC quadrature grid using
 IXCGrd= 4 IRadAn=           0 IRanWt=          -1 IRanGd=           0 AccXCQ= 0.00D+00.
 Generated NRdTot=       0 NPtTot=           0 NUsed=           0 NTot=          32
 NSgBfM=    68    68    68    68    68 MxSgAt=    13 MxSgA2=    13.
 Leave Link  302 at Tue Apr 12 16:42:02 2016, MaxMem=    33554432 cpu:         0.2
 (Enter /usr/local/gau/g09/l303.exe)
 DipDrv:  MaxL=1.
 Leave Link  303 at Tue Apr 12 16:42:02 2016, MaxMem=    33554432 cpu:         0.0
 (Enter /usr/local/gau/g09/l401.exe)
 Initial guess from the checkpoint file:  "Ala-S-opt-freq-tsa3-6-31g.chk"
 B after Tr=     0.000000    0.000000    0.000000
         Rot=    0.999975    0.001033    0.001236   -0.006903 Ang=   0.81 deg.
 Guess basis will be translated and rotated to current coordinates.
 JPrj=2 DoOrth=T DoCkMO=T.
 Generating alternative initial guess.
 ExpMin= 1.61D-01 ExpMax= 5.48D+03 ExpMxC= 8.25D+02 IAcc=1 IRadAn=         1 AccDes= 0.00D+00
 Harris functional with IExCor=  402 and IRadAn=       1 diagonalized for initial guess.
 HarFok:  IExCor=  402 AccDes= 0.00D+00 IRadAn=         1 IDoV= 1 UseB2=F ITyADJ=14
 ICtDFT=  3500011 ScaDFX=  1.000000  1.000000  1.000000  1.000000
 FoFCou: FMM=F IPFlag=           0 FMFlag=      100000 FMFlg1=           0
         NFxFlg=           0 DoJE=T BraDBF=F KetDBF=T FulRan=T
         wScrn=  0.000000 ICntrl=     500 IOpCl=  0 I1Cent=   200000004 NGrid=           0
         NMat0=    1 NMatS0=      1 NMatT0=    0 NMatD0=    1 NMtDS0=    0 NMtDT0=    0
 Petite list used in FoFCou.
 Harris En= -323.427152045067    
 Leave Link  401 at Tue Apr 12 16:42:03 2016, MaxMem=    33554432 cpu:         0.5
 (Enter /usr/local/gau/g09/l502.exe)
 Closed shell SCF:
 Using DIIS extrapolation, IDIIS=  1040.
 Integral symmetry usage will be decided dynamically.
 Keep R1 ints in memory in canonical form, NReq=3676491.
 IVT=       33364 IEndB=       33364 NGot=    33554432 MDV=    30768038
 LenX=    30768038 LenY=    30762973
 Requested convergence on RMS density matrix=1.00D-08 within 128 cycles.
 Requested convergence on MAX density matrix=1.00D-06.
 Requested convergence on             energy=1.00D-06.
 No special actions if energy rises.
 FoFCou: FMM=F IPFlag=           0 FMFlag=           0 FMFlg1=           0
         NFxFlg=           0 DoJE=F BraDBF=F KetDBF=F FulRan=T
         wScrn=  0.000000 ICntrl=     600 IOpCl=  0 I1Cent=           0 NGrid=           0
         NMat0=    1 NMatS0=   2346 NMatT0=    0 NMatD0=    1 NMtDS0=    0 NMtDT0=    0
 Symmetry not used in FoFCou.
 Integral accuracy reduced to 1.0D-05 until final iterations.

 Cycle   1  Pass 0  IDiag  1:
 E= -323.330339778053    
 DIIS: error= 8.72D-03 at cycle   1 NSaved=   1.
 NSaved= 1 IEnMin= 1 EnMin= -323.330339778053     IErMin= 1 ErrMin= 8.72D-03
 ErrMax= 8.72D-03  0.00D+00 EMaxC= 1.00D-01 BMatC= 1.23D-02 BMatP= 1.23D-02
 IDIUse=3 WtCom= 9.13D-01 WtEn= 8.72D-02
 Coeff-Com:  0.100D+01
 Coeff-En:   0.100D+01
 Coeff:      0.100D+01
 Gap=     0.565 Goal=   None    Shift=    0.000
 GapD=    0.565 DampG=2.000 DampE=1.000 DampFc=2.0000 IDamp=-1.
 RMSDP=6.10D-03 MaxDP=4.64D-02              OVMax= 9.72D-02

 Cycle   2  Pass 0  IDiag  1:
 E= -323.359410965432     Delta-E=       -0.029071187379 Rises=F Damp=F
 DIIS: error= 5.49D-03 at cycle   2 NSaved=   2.
 NSaved= 2 IEnMin= 2 EnMin= -323.359410965432     IErMin= 2 ErrMin= 5.49D-03
 ErrMax= 5.49D-03  0.00D+00 EMaxC= 1.00D-01 BMatC= 1.46D-03 BMatP= 1.23D-02
 IDIUse=3 WtCom= 9.45D-01 WtEn= 5.49D-02
 Coeff-Com:  0.881D-01 0.912D+00
 Coeff-En:   0.000D+00 0.100D+01
 Coeff:      0.833D-01 0.917D+00
 Gap=     0.150 Goal=   None    Shift=    0.000
 RMSDP=1.62D-03 MaxDP=1.63D-02 DE=-2.91D-02 OVMax= 3.16D-02

 Cycle   3  Pass 0  IDiag  1:
 E= -323.358126660192     Delta-E=        0.001284305241 Rises=F Damp=F
 DIIS: error= 9.86D-03 at cycle   3 NSaved=   3.
 NSaved= 3 IEnMin= 2 EnMin= -323.359410965432     IErMin= 2 ErrMin= 5.49D-03
 ErrMax= 9.86D-03  0.00D+00 EMaxC= 1.00D-01 BMatC= 3.87D-03 BMatP= 1.46D-03
 IDIUse=3 WtCom= 9.15D-02 WtEn= 9.08D-01
 Coeff-Com: -0.424D-01 0.648D+00 0.394D+00
 Coeff-En:   0.000D+00 0.633D+00 0.367D+00
 Coeff:     -0.388D-02 0.635D+00 0.369D+00
 Gap=     0.154 Goal=   None    Shift=    0.000
 RMSDP=1.09D-03 MaxDP=1.14D-02 DE= 1.28D-03 OVMax= 1.90D-02

 Cycle   4  Pass 0  IDiag  1:
 E= -323.361053013253     Delta-E=       -0.002926353061 Rises=F Damp=F
 DIIS: error= 1.72D-03 at cycle   4 NSaved=   4.
 NSaved= 4 IEnMin= 4 EnMin= -323.361053013253     IErMin= 4 ErrMin= 1.72D-03
 ErrMax= 1.72D-03  0.00D+00 EMaxC= 1.00D-01 BMatC= 1.77D-04 BMatP= 1.46D-03
 IDIUse=3 WtCom= 9.83D-01 WtEn= 1.72D-02
 Coeff-Com: -0.301D-01 0.367D+00 0.254D+00 0.409D+00
 Coeff-En:   0.000D+00 0.000D+00 0.000D+00 0.100D+01
 Coeff:     -0.296D-01 0.361D+00 0.249D+00 0.419D+00
 Gap=     0.154 Goal=   None    Shift=    0.000
 RMSDP=3.53D-04 MaxDP=4.71D-03 DE=-2.93D-03 OVMax= 1.03D-02

 Cycle   5  Pass 0  IDiag  1:
 E= -323.361205617918     Delta-E=       -0.000152604665 Rises=F Damp=F
 DIIS: error= 7.56D-04 at cycle   5 NSaved=   5.
 NSaved= 5 IEnMin= 5 EnMin= -323.361205617918     IErMin= 5 ErrMin= 7.56D-04
 ErrMax= 7.56D-04  0.00D+00 EMaxC= 1.00D-01 BMatC= 3.65D-05 BMatP= 1.77D-04
 IDIUse=3 WtCom= 9.92D-01 WtEn= 7.56D-03
 Coeff-Com: -0.720D-02 0.257D-01 0.396D-01 0.313D+00 0.628D+00
 Coeff-En:   0.000D+00 0.000D+00 0.000D+00 0.169D+00 0.831D+00
 Coeff:     -0.714D-02 0.255D-01 0.393D-01 0.312D+00 0.630D+00
 Gap=     0.154 Goal=   None    Shift=    0.000
 RMSDP=2.00D-04 MaxDP=2.19D-03 DE=-1.53D-04 OVMax= 4.61D-03

 Cycle   6  Pass 0  IDiag  1:
 E= -323.361242143119     Delta-E=       -0.000036525202 Rises=F Damp=F
 DIIS: error= 3.12D-04 at cycle   6 NSaved=   6.
 NSaved= 6 IEnMin= 6 EnMin= -323.361242143119     IErMin= 6 ErrMin= 3.12D-04
 ErrMax= 3.12D-04  0.00D+00 EMaxC= 1.00D-01 BMatC= 5.39D-06 BMatP= 3.65D-05
 IDIUse=3 WtCom= 9.97D-01 WtEn= 3.12D-03
 Coeff-Com:  0.880D-03-0.381D-01-0.118D-01 0.149D+00 0.385D+00 0.514D+00
 Coeff-En:   0.000D+00 0.000D+00 0.000D+00 0.000D+00 0.000D+00 0.100D+01
 Coeff:      0.877D-03-0.380D-01-0.117D-01 0.149D+00 0.384D+00 0.516D+00
 Gap=     0.154 Goal=   None    Shift=    0.000
 RMSDP=7.25D-05 MaxDP=8.27D-04 DE=-3.65D-05 OVMax= 2.30D-03

 Cycle   7  Pass 0  IDiag  1:
 E= -323.361248254106     Delta-E=       -0.000006110987 Rises=F Damp=F
 DIIS: error= 1.20D-04 at cycle   7 NSaved=   7.
 NSaved= 7 IEnMin= 7 EnMin= -323.361248254106     IErMin= 7 ErrMin= 1.20D-04
 ErrMax= 1.20D-04  0.00D+00 EMaxC= 1.00D-01 BMatC= 7.21D-07 BMatP= 5.39D-06
 IDIUse=3 WtCom= 9.99D-01 WtEn= 1.20D-03
 Coeff-Com:  0.121D-02-0.221D-01-0.129D-01 0.232D-01 0.395D-01 0.269D+00
 Coeff-Com:  0.702D+00
 Coeff-En:   0.000D+00 0.000D+00 0.000D+00 0.000D+00 0.000D+00 0.000D+00
 Coeff-En:   0.100D+01
 Coeff:      0.121D-02-0.221D-01-0.128D-01 0.232D-01 0.395D-01 0.269D+00
 Coeff:      0.702D+00
 Gap=     0.154 Goal=   None    Shift=    0.000
 RMSDP=3.65D-05 MaxDP=3.12D-04 DE=-6.11D-06 OVMax= 8.78D-04

 Cycle   8  Pass 0  IDiag  1:
 E= -323.361249255205     Delta-E=       -0.000001001100 Rises=F Damp=F
 DIIS: error= 2.45D-05 at cycle   8 NSaved=   8.
 NSaved= 8 IEnMin= 8 EnMin= -323.361249255205     IErMin= 8 ErrMin= 2.45D-05
 ErrMax= 2.45D-05  0.00D+00 EMaxC= 1.00D-01 BMatC= 7.20D-08 BMatP= 7.21D-07
 IDIUse=1 WtCom= 1.00D+00 WtEn= 0.00D+00
 Coeff-Com:  0.584D-03-0.596D-02-0.535D-02-0.106D-01-0.418D-01 0.738D-01
 Coeff-Com:  0.386D+00 0.603D+00
 Coeff:      0.584D-03-0.596D-02-0.535D-02-0.106D-01-0.418D-01 0.738D-01
 Coeff:      0.386D+00 0.603D+00
 Gap=     0.154 Goal=   None    Shift=    0.000
 RMSDP=1.00D-05 MaxDP=8.36D-05 DE=-1.00D-06 OVMax= 2.28D-04

 Cycle   9  Pass 0  IDiag  1:
 E= -323.361249335394     Delta-E=       -0.000000080189 Rises=F Damp=F
 DIIS: error= 4.90D-06 at cycle   9 NSaved=   9.
 NSaved= 9 IEnMin= 9 EnMin= -323.361249335394     IErMin= 9 ErrMin= 4.90D-06
 ErrMax= 4.90D-06  0.00D+00 EMaxC= 1.00D-01 BMatC= 3.11D-09 BMatP= 7.20D-08
 IDIUse=1 WtCom= 1.00D+00 WtEn= 0.00D+00
 Coeff-Com:  0.987D-04-0.572D-03-0.992D-03-0.520D-02-0.147D-01 0.707D-02
 Coeff-Com:  0.947D-01 0.218D+00 0.702D+00
 Coeff:      0.987D-04-0.572D-03-0.992D-03-0.520D-02-0.147D-01 0.707D-02
 Coeff:      0.947D-01 0.218D+00 0.702D+00
 Gap=     0.154 Goal=   None    Shift=    0.000
[...]
    A8        0.55867   0.00001   0.00000   0.00002   0.00002   0.55869
    A9        1.92419   0.00000   0.00000  -0.00001  -0.00001   1.92418
   A10        1.92536   0.00000   0.00000   0.00001   0.00001   1.92536
   A11        1.95090   0.00000   0.00000   0.00001   0.00001   1.95090
   A12        1.88668   0.00000   0.00000  -0.00002  -0.00002   1.88665
   A13        1.87444   0.00000   0.00000   0.00001   0.00001   1.87445
   A14        1.90042   0.00000   0.00000   0.00001   0.00001   1.90044
   A15        2.08737   0.00001   0.00000   0.00003   0.00003   2.08741
   A16        2.05680  -0.00001   0.00000  -0.00002  -0.00002   2.05679
   A17        2.04440   0.00000   0.00000  -0.00001  -0.00001   2.04439
   A18        1.87727   0.00000   0.00000   0.00000   0.00000   1.87727
   A19        3.79253   0.00000   0.00000  -0.00003  -0.00003   3.79250
   A20        2.63055   0.00000   0.00000   0.00022   0.00022   2.63077
    D1        0.16855   0.00000   0.00000   0.00031   0.00031   0.16886
    D2       -2.92967   0.00000   0.00000   0.00009   0.00009  -2.92959
    D3       -2.46200   0.00000   0.00000   0.00009   0.00009  -2.46192
    D4       -3.00443   0.00000   0.00000   0.00019   0.00019  -3.00424
    D5        0.18053   0.00000   0.00000  -0.00003  -0.00003   0.18049
    D6        0.64820   0.00000   0.00000  -0.00003  -0.00003   0.64817
    D7        1.16255   0.00000   0.00000   0.00067   0.00067   1.16321
    D8       -3.03816   0.00000   0.00000   0.00063   0.00063  -3.03753
    D9       -0.92099   0.00000   0.00000   0.00066   0.00066  -0.92033
   D10       -2.02537   0.00000   0.00000   0.00090   0.00090  -2.02447
   D11        0.05710   0.00000   0.00000   0.00087   0.00087   0.05797
   D12        2.17428   0.00000   0.00000   0.00090   0.00090   2.17517
   D13       -0.13294   0.00000   0.00000   0.00004   0.00004  -0.13290
   D14       -2.80838   0.00001   0.00000   0.00002   0.00002  -2.80836
   D15        3.05355  -0.00001   0.00000  -0.00019  -0.00019   3.05336
   D16        0.37811   0.00000   0.00000  -0.00021  -0.00021   0.37790
   D17       -1.13697  -0.00001   0.00000   0.00009   0.00009  -1.13687
   D18        2.47078   0.00000   0.00000   0.00008   0.00008   2.47086
   D19        3.03428   0.00000   0.00000  -0.00013  -0.00013   3.03415
   D20        0.34733   0.00000   0.00000  -0.00016  -0.00016   0.34717
         Item               Value     Threshold  Converged?
 Maximum Force            0.000021     0.000450     YES
 RMS     Force            0.000005     0.000300     YES
 Maximum Displacement     0.001211     0.001800     YES
 RMS     Displacement     0.000358     0.001200     YES
 Predicted change in Energy=-2.178854D-09
 Optimization completed.
    -- Stationary point found.
                           ----------------------------
                           !   Optimized Parameters   !
                           ! (Angstroms and Degrees)  !
 --------------------------                            --------------------------
 ! Name  Definition              Value          Derivative Info.                !
 --------------------------------------------------------------------------------
 ! R1    R(1,2)                  1.0057         -DE/DX =    0.0                 !
 ! R2    R(1,3)                  1.3599         -DE/DX =    0.0                 !
 ! R3    R(1,11)                 1.0126         -DE/DX =    0.0                 !
 ! R4    R(3,5)                  1.4962         -DE/DX =    0.0                 !
 ! R5    R(3,6)                  1.397          -DE/DX =    0.0                 !
 ! R6    R(3,13)                 2.1527         -DE/DX =    0.0                 !
 ! R7    R(4,12)                 0.9772         -DE/DX =    0.0                 !
 ! R8    R(5,7)                  1.0985         -DE/DX =    0.0                 !
 ! R9    R(5,8)                  1.0901         -DE/DX =    0.0                 !
 ! R10   R(5,9)                  1.099          -DE/DX =    0.0                 !
 ! R11   R(6,10)                 1.4713         -DE/DX =    0.0                 !
 ! R12   R(6,12)                 1.4111         -DE/DX =    0.0                 !
 ! A1    A(2,1,3)              122.5181         -DE/DX =    0.0                 !
 ! A2    A(2,1,11)             120.5012         -DE/DX =    0.0                 !
 ! A3    A(3,1,11)             116.956          -DE/DX =    0.0                 !
 ! A4    A(1,3,5)              120.0185         -DE/DX =    0.0                 !
 ! A5    A(1,3,6)              116.6946         -DE/DX =    0.0                 !
 ! A6    A(1,3,13)              97.2774         -DE/DX =    0.0                 !
 ! A7    A(5,3,6)              123.237          -DE/DX =    0.0                 !
 ! A8    A(6,3,13)              32.0094         -DE/DX =    0.0                 !
 ! A9    A(3,5,7)              110.2482         -DE/DX =    0.0                 !
 ! A10   A(3,5,8)              110.3147         -DE/DX =    0.0                 !
 ! A11   A(3,5,9)              111.7782         -DE/DX =    0.0                 !
 ! A12   A(7,5,8)              108.0987         -DE/DX =    0.0                 !
 ! A13   A(7,5,9)              107.3975         -DE/DX =    0.0                 !
 ! A14   A(8,5,9)              108.8863         -DE/DX =    0.0                 !
 ! A15   A(3,6,10)             119.5977         -DE/DX =    0.0                 !
 ! A16   A(3,6,12)             117.8462         -DE/DX =    0.0                 !
 ! A17   A(10,6,12)            117.1354         -DE/DX =    0.0                 !
 ! A18   A(4,12,6)             107.5596         -DE/DX =    0.0                 !
 ! A19   L(5,3,13,1,-1)        217.2959         -DE/DX =    0.0                 !
 ! A20   L(5,3,13,1,-2)        150.7195         -DE/DX =    0.0                 !
 ! D1    D(2,1,3,5)              9.6572         -DE/DX =    0.0                 !
 ! D2    D(2,1,3,6)           -167.858          -DE/DX =    0.0                 !
 ! D3    D(2,1,3,13)          -141.0624         -DE/DX =    0.0                 !
 ! D4    D(11,1,3,5)          -172.1414         -DE/DX =    0.0                 !
 ! D5    D(11,1,3,6)            10.3435         -DE/DX =    0.0                 !
 ! D6    D(11,1,3,13)           37.1391         -DE/DX =    0.0                 !
 ! D7    D(1,3,5,7)             66.609          -DE/DX =    0.0                 !
 ! D8    D(1,3,5,8)           -174.074          -DE/DX =    0.0                 !
 ! D9    D(1,3,5,9)            -52.7689         -DE/DX =    0.0                 !
 ! D10   D(6,3,5,7)           -116.0453         -DE/DX =    0.0                 !
 ! D11   D(6,3,5,8)              3.2717         -DE/DX =    0.0                 !
 ! D12   D(6,3,5,9)            124.5768         -DE/DX =    0.0                 !
 ! D13   D(1,3,6,10)            -7.617          -DE/DX =    0.0                 !
 ! D14   D(1,3,6,12)          -160.9084         -DE/DX =    0.0                 !
 ! D15   D(5,3,6,10)           174.9554         -DE/DX =    0.0                 !
 ! D16   D(5,3,6,12)            21.664          -DE/DX =    0.0                 !
 ! D17   D(13,3,6,10)          -65.1434         -DE/DX =    0.0                 !
 ! D18   D(13,3,6,12)          141.5652         -DE/DX =    0.0                 !
 ! D19   D(3,6,12,4)           173.8516         -DE/DX =    0.0                 !
 ! D20   D(10,6,12,4)           19.9007         -DE/DX =    0.0                 !
 --------------------------------------------------------------------------------
 GradGradGradGradGradGradGradGradGradGradGradGradGradGradGradGradGradGrad

 Leave Link  103 at Tue Apr 12 17:06:53 2016, MaxMem=    33554432 cpu:         0.0
 (Enter /usr/local/gau/g09/l9999.exe)

 Test job not archived.
 1\1\GINC-KALI\Freq\RB3LYP\6-31G\C3H7N1O2\ROOT\12-Apr-2016\0\\#P Geom=A
 llCheck Guess=TCheck SCRF=Check Test GenChk RB3LYP/6-31G Freq\\Ala-S-o
 pt-freq-tsa3-6-31g\\0,1\N,1.2949277354,1.3353497771,0.1706071524\H,2.2
 85686559,1.5076708704,0.1571139279\C,0.7659919796,0.0958160915,-0.0110
 05298\H,-2.2144447204,-1.066522782,-0.1139468622\C,1.6592812281,-1.104
 3962724,-0.02577697\C,-0.6119902066,0.0274663459,-0.2303301244\H,2.103
 9814051,-1.259557041,0.9665893223\H,1.0896289968,-1.9970015043,-0.2849
 319631\H,2.4852252287,-0.9891864539,-0.7416340423\O,-1.4315601995,1.24
 10221143,-0.0879240274\H,0.6420397409,2.0992782105,0.2951463082\O,-1.2
 530597653,-1.2110333755,-0.0149787091\H,-0.9245123118,0.6926283792,-1.
 2026204043\\Version=ES64L-G09RevD.01\State=1-A\HF=-323.5135361\RMSD=3.
 514e-09\RMSF=6.096e-06\ZeroPoint=0.1013232\Thermal=0.1085866\Dipole=1.
 342786,-0.0248629,-0.3252906\DipoleDeriv=-0.6112073,-0.1528936,-0.1381
 677,-0.8633457,-0.7335518,-0.1603988,-0.1484173,-0.0024999,-0.7729206,
 0.1870128,0.0152804,0.0194696,-0.0005166,0.2233047,-0.0357726,0.076045
 8,-0.0269361,0.3925867,0.9089172,0.0362137,0.296224,0.7418434,0.568930
 7,0.1928118,0.4179792,0.1417673,0.2497161,0.2302711,0.0599092,-0.02234
 2,0.1952185,0.3029975,0.0479024,-0.0530794,0.0359131,0.3811944,0.07391
 2,0.075145,-0.0346333,-0.0592027,-0.0706134,-0.0239935,-0.12395,0.0271
 613,0.0947665,-0.0124758,0.2957018,-0.1878704,0.7873949,0.7251337,-0.1
 014152,-1.2696025,-0.0928801,-0.1740255,-0.0042097,0.057619,-0.076106,
 0.0615109,0.0509869,-0.0011111,-0.0946599,0.0247802,-0.07423,0.0743804
 ,-0.0722752,-0.0204878,-0.0167836,0.0042165,-0.0234335,-0.0117674,-0.0
 422728,0.0970335,-0.1034783,0.0257563,0.1015099,-0.0124281,0.0391633,0
 .0496498,0.1424584,0.0012071,0.0008391,-0.9229491,0.1496995,-0.1201667
 ,0.5259969,-0.7358203,0.1929618,0.8051891,-0.1860091,-0.2381727,0.1045
 048,0.0560942,-0.0161574,0.0221678,0.2294887,-0.005443,-0.0520271,-0.0
 057144,0.3700982,-0.4964085,-0.3423503,0.1101286,-0.6482662,-0.8657043
 ,0.0024374,0.34393,0.0361053,-0.4519851,0.5717304,-0.2039001,0.0885992
 ,-0.7335895,0.2614678,-0.1341953,-0.0320989,0.0893782,0.1250995\Polar=
 72.5187055,-2.2620468,49.8400295,5.6849078,0.1732517,28.6261814\PG=C01
  [X(C3H7N1O2)]\NImag=1\\0.89215063,0.00351285,0.75591766,-0.00973880,0
 .10750201,0.06647807,-0.45906823,-0.06026488,0.00586653,0.47550206,-0.
 05910294,-0.08421606,-0.01113658,0.07113954,0.07798012,0.00862584,-0.0
 1062685,-0.00868456,-0.00610626,0.00938010,0.00966811,-0.17633608,-0.0
 8204483,-0.01257178,-0.00992704,-0.03954229,-0.00273186,0.74383083,-0.
 09467168,-0.34484264,-0.04136911,0.00104503,-0.00167222,0.00049168,0.0
 2617562,0.70339677,-0.01820256,-0.03346240,-0.04916728,-0.00103512,0.0
 0023330,-0.00272197,0.04888157,0.04221261,0.17456425,0.00069936,0.0027
 2527,0.00076925,-0.00001719,-0.00012373,-0.00036303,-0.00141093,-0.003
 60881,-0.00002098,0.47618730,-0.00104044,0.00179825,0.00001854,-0.0002
 3578,-0.00047434,-0.00030924,-0.00210905,-0.00870593,0.00052699,-0.043
 83209,0.05387649,-0.00019965,-0.00004883,0.00112306,-0.00008109,-0.000
 19413,0.00069822,-0.00146638,-0.00071854,-0.00052058,0.04295505,-0.015
 82984,0.00975983,0.01397092,-0.01245808,0.00055332,0.00134275,0.000204
 64,-0.00099306,-0.14358251,0.06354810,-0.00259117,0.00034814,0.0005287
 5,0.00046400,0.54692880,0.02428650,-0.03662433,-0.00186034,0.00091958,
 0.00243530,-0.00000379,0.05661664,-0.17491485,-0.00468825,0.00014401,-
 0.00037867,0.00010560,0.05240021,0.54589320,0.00413026,-0.00443734,0.0
 0314999,-0.00043245,0.00094069,-0.00116741,0.00709702,-0.00505923,-0.0
 7281161,0.00014760,-0.00001306,-0.00052956,0.00603778,0.01287421,0.536
 27184,-0.03516320,-0.03405369,-0.01230550,0.00264178,0.00139794,-0.002
 17964,-0.34123645,-0.00790644,-0.02826188,-0.02599847,-0.05163397,0.00
 791667,-0.01585446,0.00973248,-0.01347396,0.63852307,-0.03971161,0.002
 60964,-0.00661005,-0.00125164,-0.00574452,-0.00280024,-0.04148736,-0.0
 9799515,-0.01485085,0.00546812,-0.00799625,-0.00002440,0.02561534,0.00
 379524,0.00804505,0.11175263,0.42415924,-0.02784210,-0.05215767,-0.001
 44122,0.00573966,-0.00009128,0.00637754,0.02306332,0.02853908,-0.04839
 271,-0.00056355,0.00143180,-0.00106480,0.00070730,0.00060959,0.0039459
 0,-0.01300793,-0.00970275,0.16553489,0.00089301,-0.00159994,0.00093716
 ,0.00029985,0.00000988,-0.00037670,-0.01283199,0.00591463,-0.01983104,
 0.00008787,0.00012869,-0.00010531,-0.08511827,0.01197940,-0.09365737,-
 0.00049077,0.00323196,-0.00050411,0.09509294,-0.00039547,0.00125418,-0
 .00189141,-0.00017596,-0.00071098,0.00108090,0.01446863,-0.00675359,0.
 02620023,-0.00011548,-0.00001559,-0.00014954,0.01257675,-0.05218508,0.
 03108134,0.00045837,-0.00297946,0.00082397,-0.01855931,0.05561978,0.00
 038675,-0.00038185,0.00081764,-0.00004365,0.00039781,-0.00048177,-0.00
 140029,-0.00034983,0.00361261,0.00006423,0.00008118,-0.00006144,-0.092
 09833,0.02945834,-0.25726273,0.00153343,0.00020333,-0.00078360,0.10356
 202,-0.03417977,0.28262315,-0.00371960,0.00354222,-0.00009268,-0.00017
 262,0.00012153,0.00016469,0.01348750,0.02033963,0.00654007,0.00010463,
 -0.00036416,0.00001288,-0.12778928,-0.12375095,-0.03596103,0.00012636,
 0.00205463,-0.00139239,-0.00651720,-0.01034841,-0.00182505,0.13752806,
 0.00520233,-0.00245430,-0.00011162,0.00030406,0.00043489,-0.00012344,-
 0.01762896,-0.02447235,-0.00762518,-0.00022457,0.00055421,0.00000756,-
 0.11601154,-0.23380348,-0.05377353,-0.00057709,-0.00178222,0.00170846,
 0.00331334,0.00475868,0.00215459,0.12795591,0.25762541,-0.00003506,0.0
 0005767,0.00153169,0.00002428,-0.00001223,-0.00063250,-0.00053463,0.00
 154278,-0.00131930,-0.00016381,0.00025326,-0.00001658,-0.03389453,-0.0
 5502806,-0.06559303,0.00002457,-0.00075183,0.00055121,-0.01670901,-0.0
 2618030,-0.00709195,0.03904224,0.05951879,0.06718463,0.00185336,-0.001
 42066,-0.00154146,0.00029684,0.00060624,0.00098085,-0.02263660,0.00056
 278,0.01136571,0.00008742,0.00028781,0.00020196,-0.18588438,-0.0244474
 4,0.12388470,0.00362861,0.00143838,0.00159246,0.00962515,0.00130670,-0
 .00952352,-0.01227415,-0.00062160,0.01264291,0.20788378,-0.00033024,0.
 00217441,0.00123099,-0.00075437,-0.00055944,-0.00053778,0.02759161,0.0
 0126813,-0.01922866,-0.00018162,0.00016936,0.00008856,-0.02266195,-0.0
 5380844,0.01761813,-0.00280418,-0.00307151,-0.00019682,-0.00359404,-0.
 00030028,0.00227377,-0.01953630,-0.00176253,0.01995448,0.02106257,0.05
 602136,-0.00034728,-0.00054006,0.00040804,0.00032223,-0.00087469,-0.00
 028089,-0.00180793,0.00091059,0.00253008,-0.00012698,0.00000535,0.0000
 5648,0.12427486,0.01876482,-0.15571532,-0.00077582,-0.00018656,0.00025
 132,0.02447474,0.00481394,-0.02149385,-0.00720235,-0.00110586,0.005716
 83,-0.13849141,-0.02186552,0.16923733,-0.00408252,-0.00504744,-0.00085
 091,0.00018475,0.00207171,-0.00143778,-0.01332015,0.03910034,0.0132908
 3,0.00315535,0.00520137,-0.00036766,-0.00200368,-0.00352869,-0.0006732
 9,-0.12622118,0.07256677,-0.01052078,-0.00113672,0.00085098,-0.0000984
 9,-0.00008098,0.00013090,0.00026728,-0.00126630,0.00156526,0.00026869,
 0.13250099,0.00202562,0.02024077,0.00362787,-0.00295553,0.00193236,-0.
 00140150,-0.01084245,-0.02808635,-0.00602152,0.00179944,0.00350384,0.0
 0051336,-0.00125405,0.00349334,-0.00359712,0.08498160,-0.15137463,0.02
 684765,0.00008264,0.00032599,0.00041055,-0.00009358,0.00003707,0.00003
 817,0.00172138,-0.00131272,-0.00056515,-0.09726334,0.17670775,0.012783
 02,0.02763820,0.00201232,-0.00305256,0.00160184,-0.00178463,-0.0582080
 9,-0.00978024,-0.00346967,-0.00194761,-0.00451825,-0.00240055,-0.00206
 685,-0.00138468,0.00595325,0.10779272,-0.09799353,0.05137033,0.0008267
 7,-0.00075250,-0.00022781,0.00062233,-0.00048410,-0.00034890,-0.000884
 46,0.00092013,-0.00057883,-0.01491494,0.01205423,-0.00829924,-0.228511
 94,0.17500063,0.02938382,-0.00991734,0.02429750,0.00429697,0.02283367,
 -0.00541354,0.00112396,0.00022408,-0.00034801,-0.00004418,-0.00121772,
 -0.00354941,-0.00022109,-0.00551462,-0.00277418,-0.01285931,-0.0003288
 7,0.00012899,-0.00008290,0.00052783,-0.00077425,-0.00005887,-0.0004838
 6,0.00016302,0.00003990,0.00071501,0.01049441,0.01077635,0.21758456,0.
 17785059,-0.28371343,-0.04163634,-0.01118152,0.01134589,0.00192897,0.0
 2216558,-0.02997500,-0.00485859,-0.00019143,-0.00014518,-0.00001124,-0
 .00447147,-0.00207168,-0.00216978,0.00197360,-0.00455074,0.00141278,-0
 .00011283,0.00035002,0.00018631,0.00110432,-0.00091464,0.00004904,0.00
 011690,0.00020799,-0.00011138,0.00253969,0.00118863,0.00065248,-0.1900
 6249,0.30670902,0.03035280,-0.04127795,-0.02302791,-0.00061728,0.00071
 333,-0.00136441,0.00049545,-0.00496628,0.00373169,0.00013351,0.0000764
 2,-0.00022894,-0.00015908,0.00032484,0.00360827,0.00211490,-0.00085412
 ,-0.00389848,0.00025303,-0.00064500,-0.00001822,-0.00014610,0.00020871
 ,0.00062469,-0.00039100,0.00052359,0.00005451,0.00095859,0.00402564,-0
 .00074471,-0.03229381,0.04526425,0.02305448,-0.00722700,-0.00042896,-0
 .00207014,-0.00002837,-0.00158218,-0.00068919,-0.02097825,-0.04193664,
 0.01126860,-0.45269961,0.09669288,-0.04994983,-0.00040024,-0.00058383,
 0.00070506,-0.13687931,-0.10096819,0.02264678,-0.00016935,0.00019482,-
 0.00036232,-0.00144088,-0.00099212,-0.00034031,-0.00059621,-0.00063534
 ,-0.00026180,0.01820402,0.01297749,-0.01690757,-0.00027570,0.00050493,
 0.00061461,0.61191397,-0.00402084,-0.00853457,-0.00175651,0.00091384,-
 0.00013140,0.00181269,0.00100425,0.00201728,0.00882136,0.03678942,-0.0
 4556310,0.01446279,0.00133376,-0.00221696,-0.00118401,-0.05397638,-0.1
 8600043,0.01991783,-0.00080151,0.00089092,-0.00029071,-0.00054271,0.00
 136064,0.00024540,-0.00074336,0.00088052,0.00037631,-0.00396727,-0.037
 33045,0.00911078,0.00040853,0.00095572,-0.00028409,0.03018029,0.292422
 65,0.00243853,0.00988672,0.00530905,-0.00103519,-0.00050966,-0.0001712
 2,-0.01477109,-0.00998688,-0.00070599,-0.04069586,0.01637573,-0.007677
 87,-0.00028696,0.00030525,-0.00083095,0.02306114,0.03149849,-0.0388446
 2,0.00057104,0.00022864,0.00019394,0.00018604,-0.00026283,-0.00060626,
 -0.00007653,-0.00056682,-0.00012427,-0.00866947,-0.00387797,0.00404192
 ,0.00250099,-0.00028836,-0.00008915,0.02763652,-0.05557512,0.03621741,
 0.00454128,0.01253752,0.00166121,-0.00113724,0.00050217,0.00080917,-0.
 03789198,-0.00314902,-0.02252798,-0.00076793,-0.00327601,0.00066353,-0
 .00074005,-0.00021850,0.00241678,0.04243864,-0.03593484,0.01294065,0.0
 0059436,-0.00039061,-0.00011188,0.00022032,-0.00007641,-0.00026505,-0.
 00023366,0.00011558,-0.00036687,-0.00664859,-0.00167364,-0.03481912,0.
 00436490,-0.00023587,-0.00131563,-0.00942307,-0.00657802,0.00914085,0.
 00468301,-0.01360467,-0.02360960,-0.00600746,0.00249764,-0.00061961,0.
 00110850,0.04563261,0.01073588,0.01274097,0.00135148,0.00337691,0.0017
 9864,0.00064954,0.00038640,-0.00032537,-0.05934486,0.03093079,-0.01914
 265,0.00000708,-0.00025459,0.00003626,-0.00048214,0.00041859,0.0003128
 3,0.00013029,0.00009314,0.00037822,-0.01422027,0.01067440,0.06293565,-
 0.00757120,0.00061340,-0.00310934,0.00657685,-0.01875082,0.01277282,0.
 03837766,-0.01399491,-0.00235175,-0.00215164,0.00149112,0.00045088,-0.
 00044851,0.00054548,0.01395470,-0.00146664,-0.00532952,-0.00018782,0.0
 0190110,0.00086273,0.00005272,0.00052248,0.00098136,-0.07243871,0.0940
 2745,-0.13360577,0.00055881,-0.00043050,0.00017402,0.00005134,-0.00011
 156,-0.00000054,0.00023979,-0.00021405,-0.00006144,0.02274793,-0.03205
 421,-0.04552349,-0.00256183,-0.00041814,-0.00170183,0.00770961,0.00434
 328,0.00328800,0.03177433,-0.06349906,0.17887988\\-0.00000584,-0.00000
 737,-0.00000288,0.00000031,0.00000272,0.00000238,-0.00000873,0.0000068
 4,0.00001225,0.00000122,-0.00000346,-0.00000199,-0.00000060,0.00000305
 ,-0.00000846,0.00001720,-0.00001074,0.00001172,0.00000137,0.00000074,-
 0.00000198,0.00000231,0.00000065,-0.00000240,0.00000107,0.00000313,-0.
 00000284,0.00000708,-0.00000577,-0.00000747,-0.00000047,0.00000233,0.0
 0000335,-0.00000218,0.00000169,-0.00000374,-0.00001274,0.00000620,0.00
 000206\\\@


 THE NUMBERS ARE MEANINGLESS, BUT THE TRENDS ARE IMPORTANT.
     -- LARRY BURGGRAF
 Job cpu time:       0 days  0 hours  1 minutes 15.8 seconds.
 File lengths (MBytes):  RWF=     12 Int=      0 D2E=      0 Chk=      2 Scr=      1
 Normal termination of Gaussian 09 at Tue Apr 12 17:06:53 2016.
