 Entering Link 1 = c:\G03W05\l1.exe PID=      1884.
  
 Copyright (c) 1988,1990,1992,1993,1995,1998,2003,2004,2007, Gaussian, Inc.
                  All Rights Reserved.
  
 This is the Gaussian(R) 03 program.  It is based on the
 the Gaussian(R) 98 system (copyright 1998, Gaussian, Inc.),
 the Gaussian(R) 94 system (copyright 1995, Gaussian, Inc.),
 the Gaussian 92(TM) system (copyright 1992, Gaussian, Inc.),
 the Gaussian 90(TM) system (copyright 1990, Gaussian, Inc.),
 the Gaussian 88(TM) system (copyright 1988, Gaussian, Inc.),
 the Gaussian 86(TM) system (copyright 1986, Carnegie Mellon
 University), and the Gaussian 82(TM) system (copyright 1983,
 Carnegie Mellon University). Gaussian is a federally registered
 trademark of Gaussian, Inc.
  
 This software contains proprietary and confidential information,
 including trade secrets, belonging to Gaussian, Inc.
  
 This software is provided under written license and may be
 used, copied, transmitted, or stored only in accord with that
 written license.
  
 The following legend is applicable only to US Government
 contracts under FAR:
  
                    RESTRICTED RIGHTS LEGEND
  
 Use, reproduction and disclosure by the US Government is
 subject to restrictions as set forth in subparagraphs (a)
 and (c) of the Commercial Computer Software - Restricted
 Rights clause in FAR 52.227-19.
  
 Gaussian, Inc.
 340 Quinnipiac St., Bldg. 40, Wallingford CT 06492
  
  
 ---------------------------------------------------------------
 Warning -- This program may not be used in any manner that
 competes with the business of Gaussian, Inc. or will provide
 assistance to any competitor of Gaussian, Inc.  The licensee
 of this program is prohibited from giving any competitor of
 Gaussian, Inc. access to this program.  By using this program,
 the user acknowledges that Gaussian, Inc. is engaged in the
 business of creating and licensing software in the field of
 computational chemistry and represents and warrants to the
 licensee that it is not a competitor of Gaussian, Inc. and that
 it will not use this program in any manner prohibited above.
 ---------------------------------------------------------------
  

 Cite this work as:
 Gaussian 03, Revision E.01,
 M. J. Frisch, G. W. Trucks, H. B. Schlegel, G. E. Scuseria, 
 M. A. Robb, J. R. Cheeseman, J. A. Montgomery, Jr., T. Vreven, 
 K. N. Kudin, J. C. Burant, J. M. Millam, S. S. Iyengar, J. Tomasi, 
 V. Barone, B. Mennucci, M. Cossi, G. Scalmani, N. Rega, 
 G. A. Petersson, H. Nakatsuji, M. Hada, M. Ehara, K. Toyota, 
 R. Fukuda, J. Hasegawa, M. Ishida, T. Nakajima, Y. Honda, O. Kitao, 
 H. Nakai, M. Klene, X. Li, J. E. Knox, H. P. Hratchian, J. B. Cross, 
 V. Bakken, C. Adamo, J. Jaramillo, R. Gomperts, R. E. Stratmann, 
 O. Yazyev, A. J. Austin, R. Cammi, C. Pomelli, J. W. Ochterski, 
 P. Y. Ayala, K. Morokuma, G. A. Voth, P. Salvador, J. J. Dannenberg, 
 V. G. Zakrzewski, S. Dapprich, A. D. Daniels, M. C. Strain, 
 O. Farkas, D. K. Malick, A. D. Rabuck, K. Raghavachari, 
 J. B. Foresman, J. V. Ortiz, Q. Cui, A. G. Baboul, S. Clifford, 
 J. Cioslowski, B. B. Stefanov, G. Liu, A. Liashenko, P. Piskorz, 
 I. Komaromi, R. L. Martin, D. J. Fox, T. Keith, M. A. Al-Laham, 
 C. Y. Peng, A. Nanayakkara, M. Challacombe, P. M. W. Gill, 
 B. Johnson, W. Chen, M. W. Wong, C. Gonzalez, and J. A. Pople, 
 Gaussian, Inc., Wallingford CT, 2004.
 
 ******************************************
 Gaussian 03:  IA32W-G03RevE.01 11-Sep-2007
                01-Apr-2016 
 ******************************************
 %chk=E:\YangJ\Amiano\Ala\ts1\s\Ala-S-opt-freq-ts1-6-31g.chk
 -----------------------------------------------
 # opt=(calcfc,ts) freq rb3lyp/6-31g iop(1/11=1)
 -----------------------------------------------
 1/5=1,10=4,11=1,14=-1,18=20,26=3,38=1/1,3;
 2/9=110,17=6,18=5,40=1/2;
 3/5=1,6=6,11=2,16=1,25=1,30=1,74=-5/1,2,3;
 4/7=1/1;
 5/5=2,38=5/2;
 8/6=4,10=90,11=11/1;
 11/6=1,8=1,9=11,15=111,16=1/1,2,10;
 10/6=1,7=6/2;
 6/7=2,8=2,9=2,10=2,28=1/1;
 7/10=1,18=20,25=1/1,2,3,16;
 1/5=1,10=4,11=1,14=-1,18=20/3(3);
 2/9=110/2;
 6/7=2,8=2,9=2,10=2,19=2,28=1/1;
 99//99;
 2/9=110/2;
 3/5=1,6=6,11=2,16=1,25=1,30=1,74=-5/1,2,3;
 4/5=5,7=1,16=3/1;
 5/5=2,38=5/2;
 7//1,2,3,16;
 1/5=1,11=1,14=-1,18=20/3(-5);
 2/9=110/2;
 6/7=2,8=2,9=2,10=2,19=2,28=1/1;
 99/9=1/99;
 ------------------------
 Ala-S-opt-freq-ts1-6-31g
 ------------------------
 Symbolic Z-matrix:
 Charge =  0 Multiplicity = 1
 N                    -1.4154   -1.08583  -0.44262 
 H                    -1.19265  -1.65818   0.36615 
 C                    -0.65428   0.15825  -0.41023 
 H                    -0.62225   0.58029  -1.41926 
 C                    -1.19819   1.24034   0.5508 
 C                     0.77484  -0.16839  -0.01081 
 H                    -1.20807   0.87075   1.57986 
 H                    -0.59753   2.15253   0.50767 
 H                    -2.22277   1.49583   0.26783 
 O                     1.10736  -1.09809   0.68048 
 H                    -2.41238  -0.90276  -0.44587 
 O                     1.6536    0.74711  -0.48099 
 H                     2.47694  -0.33396   0.36363 
 

 GradGradGradGradGradGradGradGradGradGradGradGradGradGradGradGradGradGrad
 Berny optimization.
 Initialization pass.
                           ----------------------------
                           !    Initial Parameters    !
                           ! (Angstroms and Degrees)  !
 --------------------------                            --------------------------
 ! Name  Definition              Value          Derivative Info.                !
 --------------------------------------------------------------------------------
 ! R1    R(1,2)                  1.0155         calculate D2E/DX2 analytically  !
 ! R2    R(1,3)                  1.4588         calculate D2E/DX2 analytically  !
 ! R3    R(1,11)                 1.0137         calculate D2E/DX2 analytically  !
 ! R4    R(3,4)                  1.0942         calculate D2E/DX2 analytically  !
 ! R5    R(3,5)                  1.5461         calculate D2E/DX2 analytically  !
 ! R6    R(3,6)                  1.5194         calculate D2E/DX2 analytically  !
 ! R7    R(5,7)                  1.0935         calculate D2E/DX2 analytically  !
 ! R8    R(5,8)                  1.093          calculate D2E/DX2 analytically  !
 ! R9    R(5,9)                  1.0932         calculate D2E/DX2 analytically  !
 ! R10   R(6,10)                 1.2053         calculate D2E/DX2 analytically  !
 ! R11   R(6,12)                 1.3533         calculate D2E/DX2 analytically  !
 ! R12   R(6,13)                 1.7506         calculate D2E/DX2 analytically  !
 ! R13   R(10,13)                1.6            calculate D2E/DX2 analytically  !
 ! R14   R(12,13)                1.6            calculate D2E/DX2 analytically  !
 ! A1    A(2,1,3)              110.397          calculate D2E/DX2 analytically  !
 ! A2    A(2,1,11)             108.6676         calculate D2E/DX2 analytically  !
 ! A3    A(3,1,11)             111.0515         calculate D2E/DX2 analytically  !
 ! A4    A(1,3,4)              108.8891         calculate D2E/DX2 analytically  !
 ! A5    A(1,3,5)              115.2856         calculate D2E/DX2 analytically  !
 ! A6    A(1,3,6)              108.2548         calculate D2E/DX2 analytically  !
 ! A7    A(4,3,5)              108.2732         calculate D2E/DX2 analytically  !
 ! A8    A(4,3,6)              107.3259         calculate D2E/DX2 analytically  !
 ! A9    A(5,3,6)              108.5388         calculate D2E/DX2 analytically  !
 ! A10   A(3,5,7)              110.5846         calculate D2E/DX2 analytically  !
 ! A11   A(3,5,8)              111.4838         calculate D2E/DX2 analytically  !
 ! A12   A(3,5,9)              109.4138         calculate D2E/DX2 analytically  !
 ! A13   A(7,5,8)              108.9163         calculate D2E/DX2 analytically  !
 ! A14   A(7,5,9)              108.308          calculate D2E/DX2 analytically  !
 ! A15   A(8,5,9)              108.0458         calculate D2E/DX2 analytically  !
 ! A16   A(3,6,10)             125.1745         calculate D2E/DX2 analytically  !
 ! A17   A(3,6,12)             111.962          calculate D2E/DX2 analytically  !
 ! A18   A(3,6,13)             172.3288         calculate D2E/DX2 analytically  !
 ! A19   A(10,6,12)            122.815          calculate D2E/DX2 analytically  !
 ! A20   A(10,13,12)            89.2406         calculate D2E/DX2 analytically  !
 ! D1    D(2,1,3,4)            159.8487         calculate D2E/DX2 analytically  !
 ! D2    D(2,1,3,5)            -78.2711         calculate D2E/DX2 analytically  !
 ! D3    D(2,1,3,6)             43.4703         calculate D2E/DX2 analytically  !
 ! D4    D(11,1,3,4)           -79.5522         calculate D2E/DX2 analytically  !
 ! D5    D(11,1,3,5)            42.328          calculate D2E/DX2 analytically  !
 ! D6    D(11,1,3,6)           164.0694         calculate D2E/DX2 analytically  !
 ! D7    D(1,3,5,7)             60.0762         calculate D2E/DX2 analytically  !
 ! D8    D(1,3,5,8)           -178.5935         calculate D2E/DX2 analytically  !
 ! D9    D(1,3,5,9)            -59.1421         calculate D2E/DX2 analytically  !
 ! D10   D(4,3,5,7)           -177.7128         calculate D2E/DX2 analytically  !
 ! D11   D(4,3,5,8)            -56.3825         calculate D2E/DX2 analytically  !
 ! D12   D(4,3,5,9)             63.0689         calculate D2E/DX2 analytically  !
 ! D13   D(6,3,5,7)            -61.5121         calculate D2E/DX2 analytically  !
 ! D14   D(6,3,5,8)             59.8182         calculate D2E/DX2 analytically  !
 ! D15   D(6,3,5,9)            179.2696         calculate D2E/DX2 analytically  !
 ! D16   D(1,3,6,10)           -28.5941         calculate D2E/DX2 analytically  !
 ! D17   D(1,3,6,12)           153.8859         calculate D2E/DX2 analytically  !
 ! D18   D(1,3,6,13)           162.5294         calculate D2E/DX2 analytically  !
 ! D19   D(4,3,6,10)          -145.9808         calculate D2E/DX2 analytically  !
 ! D20   D(4,3,6,12)            36.4992         calculate D2E/DX2 analytically  !
 ! D21   D(4,3,6,13)            45.1426         calculate D2E/DX2 analytically  !
 ! D22   D(5,3,6,10)            97.2085         calculate D2E/DX2 analytically  !
 ! D23   D(5,3,6,12)           -80.3115         calculate D2E/DX2 analytically  !
 ! D24   D(5,3,6,13)           -71.668          calculate D2E/DX2 analytically  !
 --------------------------------------------------------------------------------
 Trust Radius=3.00D-01 FncErr=1.00D-07 GrdErr=1.00D-06
 Number of steps in this run=  68 maximum allowed number of steps= 100.
 Search for a saddle point of order  1.
 GradGradGradGradGradGradGradGradGradGradGradGradGradGradGradGradGradGrad

                          Input orientation:                          
 ---------------------------------------------------------------------
 Center     Atomic     Atomic              Coordinates (Angstroms)
 Number     Number      Type              X           Y           Z
 ---------------------------------------------------------------------
    1          7             0       -1.415396   -1.085834   -0.442616
    2          1             0       -1.192651   -1.658179    0.366148
    3          6             0       -0.654278    0.158246   -0.410232
    4          1             0       -0.622252    0.580291   -1.419262
    5          6             0       -1.198191    1.240344    0.550805
    6          6             0        0.774843   -0.168385   -0.010805
    7          1             0       -1.208070    0.870747    1.579857
    8          1             0       -0.597533    2.152533    0.507669
    9          1             0       -2.222774    1.495835    0.267832
   10          8             0        1.107364   -1.098090    0.680482
   11          1             0       -2.412379   -0.902758   -0.445869
   12          8             0        1.653597    0.747112   -0.480992
   13          1             0        2.476939   -0.333965    0.363627
 ---------------------------------------------------------------------
                    Distance matrix (angstroms):
                    1          2          3          4          5
     1  N    0.000000
     2  H    1.015526   0.000000
     3  C    1.458796   2.047440   0.000000
     4  H    2.087795   2.919553   1.094207   0.000000
     5  C    2.538733   2.904404   1.546082   2.156047   0.000000
     6  C    2.413570   2.496520   1.519413   2.120411   2.488531
     7  H    2.821629   2.805137   2.185131   3.069570   1.093457
     8  H    3.472602   3.859497   2.196120   2.487090   1.093041
     9  H    2.796714   3.319431   2.170045   2.499235   1.093215
    10  O    2.761488   2.388006   2.423101   3.196476   3.286438
    11  H    1.013658   1.648566   2.053757   2.520215   2.657160
    12  O    3.574896   3.821544   2.382867   2.467320   3.072552
    13  H    4.045443   3.901210   3.262767   3.690466   4.002507
                    6          7          8          9         10
     6  C    0.000000
     7  H    2.746260   0.000000
     8  H    2.745704   1.779134   0.000000
     9  H    3.439909   1.772504   1.769232   0.000000
    10  O    1.205321   3.169610   3.674655   4.241291   0.000000
    11  H    3.299541   2.949448   3.679362   2.509695   3.700731
    12  O    1.353299   3.528671   2.832004   4.018405   2.247702
    13  H    1.750642   4.063230   3.956741   5.044268   1.600006
                   11         12         13
    11  H    0.000000
    12  O    4.388105   0.000000
    13  H    4.988410   1.600000   0.000000
 Stoichiometry    C3H7NO2
 Framework group  C1[X(C3H7NO2)]
 Deg. of freedom    33
 Full point group                 C1
 Largest Abelian subgroup         C1      NOp   1
 Largest concise Abelian subgroup C1      NOp   1
                         Standard orientation:                         
 ---------------------------------------------------------------------
 Center     Atomic     Atomic              Coordinates (Angstroms)
 Number     Number      Type              X           Y           Z
 ---------------------------------------------------------------------
    1          7             0       -1.360557   -1.146503   -0.425699
    2          1             0       -1.090717   -1.704631    0.378647
    3          6             0       -0.669655    0.138185   -0.407957
    4          1             0       -0.680611    0.560262   -1.417422
    5          6             0       -1.254652    1.189256    0.563331
    6          6             0        0.782877   -0.107669   -0.036042
    7          1             0       -1.224134    0.820804    1.592389
    8          1             0       -0.706835    2.133526    0.508654
    9          1             0       -2.297146    1.386806    0.300082
   10          8             0        1.180015   -1.016594    0.648747
   11          1             0       -2.366090   -1.019409   -0.409809
   12          8             0        1.599932    0.854974   -0.523031
   13          1             0        2.498431   -0.177502    0.305638
 ---------------------------------------------------------------------
 Rotational constants (GHZ):      5.0461244      3.0421278      2.3307085
 Standard basis: 6-31G (6D, 7F)
 There are    68 symmetry adapted basis functions of A   symmetry.
 Integral buffers will be    262144 words long.
 Raffenetti 2 integral format.
 Two-electron integral symmetry is turned on.
    68 basis functions,   160 primitive gaussians,    68 cartesian basis functions
    24 alpha electrons       24 beta electrons
       nuclear repulsion energy       248.3920298993 Hartrees.
 NAtoms=   13 NActive=   13 NUniq=   13 SFac= 7.50D-01 NAtFMM=   80 NAOKFM=F Big=F
 One-electron integrals computed using PRISM.
 NBasis=    68 RedAO= T  NBF=    68
 NBsUse=    68 1.00D-06 NBFU=    68
 Harris functional with IExCor=  402 diagonalized for initial guess.
 ExpMin= 1.61D-01 ExpMax= 5.48D+03 ExpMxC= 8.25D+02 IAcc=1 IRadAn=         1 AccDes= 1.00D-06
 HarFok:  IExCor= 402 AccDes= 1.00D-06 IRadAn=         1 IDoV=1
 ScaDFX=  1.000000  1.000000  1.000000  1.000000
 Initial guess orbital symmetries:
       Occupied  (A) (A) (A) (A) (A) (A) (A) (A) (A) (A) (A) (A)
                 (A) (A) (A) (A) (A) (A) (A) (A) (A) (A) (A) (A)
       Virtual   (A) (A) (A) (A) (A) (A) (A) (A) (A) (A) (A) (A)
                 (A) (A) (A) (A) (A) (A) (A) (A) (A) (A) (A) (A)
                 (A) (A) (A) (A) (A) (A) (A) (A) (A) (A) (A) (A)
                 (A) (A) (A) (A) (A) (A) (A) (A)
 The electronic state of the initial guess is 1-A.
 Requested convergence on RMS density matrix=1.00D-08 within 128 cycles.
 Requested convergence on MAX density matrix=1.00D-06.
 Requested convergence on             energy=1.00D-06.
 No special actions if energy rises.
 Keep R1 integrals in memory in canonical form, NReq=     4577267.
 Integral accuracy reduced to 1.0D-05 until final iterations.
 Initial convergence to 1.0D-05 achieved.  Increase integral accuracy.
 SCF Done:  E(RB+HF-LYP) =  -323.535826364     A.U. after   16 cycles
             Convg  =    0.5937D-08             -V/T =  2.0056
             S**2   =   0.0000
 Range of M.O.s used for correlation:     1    68
 NBasis=    68 NAE=    24 NBE=    24 NFC=     0 NFV=     0
 NROrb=     68 NOA=    24 NOB=    24 NVA=    44 NVB=    44
 Symmetrizing basis deriv contribution to polar:
 IMax=3 JMax=2 DiffMx= 0.00D+00
 G2DrvN: will do   14 centers at a time, making    1 passes doing MaxLOS=1.
 FoFDir/FoFCou used for L=0 through L=1.
 DoAtom=TTTTTTTTTTTTT
          Differentiating once with respect to electric field.
                with respect to dipole field.
          Differentiating once with respect to nuclear coordinates.
          Store integrals in memory, NReq=     3553621.
          There are  42 degrees of freedom in the 1st order CPHF.
    39 vectors were produced by pass  0.
 AX will form  39 AO Fock derivatives at one time.
    39 vectors were produced by pass  1.
    39 vectors were produced by pass  2.
    38 vectors were produced by pass  3.
     9 vectors were produced by pass  4.
     3 vectors were produced by pass  5.
 Inv2:  IOpt= 1 Iter= 1 AM= 2.24D-15 Conv= 1.00D-12.
 Inverted reduced A of dimension  167 with in-core refinement.
 Isotropic polarizability for W=    0.000000       46.09 Bohr**3.
 End of Minotr Frequency-dependent properties file   721 does not exist.

 **********************************************************************

            Population analysis using the SCF density.

 **********************************************************************

 Orbital symmetries:
       Occupied  (A) (A) (A) (A) (A) (A) (A) (A) (A) (A) (A) (A)
                 (A) (A) (A) (A) (A) (A) (A) (A) (A) (A) (A) (A)
       Virtual   (A) (A) (A) (A) (A) (A) (A) (A) (A) (A) (A) (A)
                 (A) (A) (A) (A) (A) (A) (A) (A) (A) (A) (A) (A)
                 (A) (A) (A) (A) (A) (A) (A) (A) (A) (A) (A) (A)
                 (A) (A) (A) (A) (A) (A) (A) (A)
 The electronic state is 1-A.
 Alpha  occ. eigenvalues --  -19.20527 -19.18798 -14.31825 -10.34142 -10.24390
 Alpha  occ. eigenvalues --  -10.19085  -1.15494  -1.01461  -0.91110  -0.76284
 Alpha  occ. eigenvalues --   -0.67190  -0.56143  -0.52381  -0.49298  -0.48370
 Alpha  occ. eigenvalues --   -0.47128  -0.44275  -0.41716  -0.41532  -0.37772
 Alpha  occ. eigenvalues --   -0.35103  -0.31730  -0.31387  -0.23613
 Alpha virt. eigenvalues --   -0.07578  -0.01510   0.07519   0.12789   0.13178
 Alpha virt. eigenvalues --    0.14745   0.16364   0.17291   0.19770   0.21469
 Alpha virt. eigenvalues --    0.25365   0.30038   0.37203   0.51712   0.55338
 Alpha virt. eigenvalues --    0.55816   0.58033   0.59651   0.61724   0.65495
 Alpha virt. eigenvalues --    0.70138   0.74414   0.75429   0.76979   0.81771
 Alpha virt. eigenvalues --    0.83872   0.89581   0.90555   0.92344   0.92876
 Alpha virt. eigenvalues --    0.94699   0.96868   0.98631   1.00124   1.05196
 Alpha virt. eigenvalues --    1.06606   1.08022   1.13880   1.16005   1.34064
 Alpha virt. eigenvalues --    1.42516   1.65445   1.82696   1.91698
          Condensed to atoms (all electrons):
              1          2          3          4          5          6
     1  N    6.931667   0.316938   0.266852  -0.051900  -0.082142  -0.043913
     2  H    0.316938   0.461995  -0.044706   0.005988   0.001003  -0.012412
     3  C    0.266852  -0.044706   5.267170   0.381752   0.295254   0.177454
     4  H   -0.051900   0.005988   0.381752   0.566750  -0.055771  -0.036707
     5  C   -0.082142   0.001003   0.295254  -0.055771   5.232597  -0.047277
     6  C   -0.043913  -0.012412   0.177454  -0.036707  -0.047277   4.847881
     7  H    0.001821   0.003164  -0.036930   0.005501   0.363457  -0.007399
     8  H    0.005920  -0.000094  -0.023703   0.001563   0.336443  -0.000441
     9  H   -0.003034  -0.000383  -0.034930  -0.005050   0.374907   0.005361
    10  O   -0.002231   0.011874  -0.092436   0.002434  -0.002371   0.342232
    11  H    0.318760  -0.035598  -0.043753  -0.001385  -0.002494   0.007450
    12  O    0.002219   0.000329  -0.092456   0.000338   0.000119   0.257756
    13  H   -0.000766  -0.000095   0.021444  -0.000301  -0.000891   0.014903
              7          8          9         10         11         12
     1  N    0.001821   0.005920  -0.003034  -0.002231   0.318760   0.002219
     2  H    0.003164  -0.000094  -0.000383   0.011874  -0.035598   0.000329
     3  C   -0.036930  -0.023703  -0.034930  -0.092436  -0.043753  -0.092456
     4  H    0.005501   0.001563  -0.005050   0.002434  -0.001385   0.000338
     5  C    0.363457   0.336443   0.374907  -0.002371  -0.002494   0.000119
     6  C   -0.007399  -0.000441   0.005361   0.342232   0.007450   0.257756
     7  H    0.581038  -0.024416  -0.031864   0.001862  -0.000214  -0.000190
     8  H   -0.024416   0.561594  -0.026539   0.000067   0.000058   0.004184
     9  H   -0.031864  -0.026539   0.571108  -0.000063   0.004334   0.000002
    10  O    0.001862   0.000067  -0.000063   8.246030   0.000134  -0.139243
    11  H   -0.000214   0.000058   0.004334   0.000134   0.476395  -0.000111
    12  O   -0.000190   0.004184   0.000002  -0.139243  -0.000111   8.362278
    13  H   -0.000065  -0.000064   0.000020   0.043423   0.000025   0.091304
             13
     1  N   -0.000766
     2  H   -0.000095
     3  C    0.021444
     4  H   -0.000301
     5  C   -0.000891
     6  C    0.014903
     7  H   -0.000065
     8  H   -0.000064
     9  H    0.000020
    10  O    0.043423
    11  H    0.000025
    12  O    0.091304
    13  H    0.524869
 Mulliken atomic charges:
              1
     1  N   -0.660192
     2  H    0.291999
     3  C   -0.041013
     4  H    0.186789
     5  C   -0.412835
     6  C    0.495112
     7  H    0.144235
     8  H    0.165427
     9  H    0.146130
    10  O   -0.411712
    11  H    0.276399
    12  O   -0.486531
    13  H    0.306192
 Sum of Mulliken charges=   0.00000
 Atomic charges with hydrogens summed into heavy atoms:
              1
     1  N   -0.091794
     2  H    0.000000
     3  C    0.145776
     4  H    0.000000
     5  C    0.042957
     6  C    0.495112
     7  H    0.000000
     8  H    0.000000
     9  H    0.000000
    10  O   -0.411712
    11  H    0.000000
    12  O   -0.180339
    13  H    0.000000
 Sum of Mulliken charges=   0.00000
 APT atomic charges:
              1
     1  N   -0.504157
     2  H    0.176204
     3  C    0.350476
     4  H   -0.011385
     5  C   -0.015843
     6  C    0.658090
     7  H   -0.004602
     8  H    0.008278
     9  H   -0.012756
    10  O   -0.562037
    11  H    0.159250
    12  O   -0.531648
    13  H    0.290130
 Sum of APT charges=   0.00000
 APT Atomic charges with hydrogens summed into heavy atoms:
              1
     1  N   -0.168703
     2  H    0.000000
     3  C    0.339091
     4  H    0.000000
     5  C   -0.024923
     6  C    0.658090
     7  H    0.000000
     8  H    0.000000
     9  H    0.000000
    10  O   -0.562037
    11  H    0.000000
    12  O   -0.241517
    13  H    0.000000
 Sum of APT charges=   0.00000
 Electronic spatial extent (au):  <R**2>=   580.7226
 Charge=     0.0000 electrons
 Dipole moment (field-independent basis, Debye):
    X=    -1.7839    Y=     0.5989    Z=     1.4485  Tot=     2.3747
 Quadrupole moment (field-independent basis, Debye-Ang):
   XX=   -31.3188   YY=   -40.6419   ZZ=   -38.5276
   XY=    -1.9515   XZ=     0.1887   YZ=    -0.5208
 Traceless Quadrupole moment (field-independent basis, Debye-Ang):
   XX=     5.5106   YY=    -3.8125   ZZ=    -1.6981
   XY=    -1.9515   XZ=     0.1887   YZ=    -0.5208
 Octapole moment (field-independent basis, Debye-Ang**2):
  XXX=     4.1584  YYY=     0.0910  ZZZ=     1.1989  XYY=    -4.0210
  XXY=    -7.1621  XXZ=     4.2104  XZZ=     1.0199  YZZ=     2.0038
  YYZ=     4.4005  XYZ=     7.0253
 Hexadecapole moment (field-independent basis, Debye-Ang**3):
 XXXX=  -323.9563 YYYY=  -229.2196 ZZZZ=   -99.7420 XXXY=     1.0031
 XXXZ=    14.6136 YYYX=     3.4188 YYYZ=   -10.0145 ZZZX=    -0.6876
 ZZZY=    -6.9623 XXYY=  -109.1037 XXZZ=   -86.9938 YYZZ=   -60.3680
 XXYZ=     0.0940 YYXZ=    -5.7810 ZZXY=    -1.5838
 N-N= 2.483920298993D+02 E-N=-1.253846600873D+03  KE= 3.217409042956D+02
  Exact polarizability:  57.589   0.153  45.703   2.895  -6.160  34.966
 Approx polarizability:  74.977   2.487  79.903   4.883 -23.571  55.502
 ***** Axes restored to original set *****
 -------------------------------------------------------------------
 Center     Atomic                   Forces (Hartrees/Bohr)
 Number     Number              X              Y              Z
 -------------------------------------------------------------------
    1          7          -0.005727475    0.000850023    0.009077468
    2          1           0.001749225   -0.006323232    0.000385043
    3          6           0.002106027   -0.001975055   -0.000331680
    4          1           0.001170927   -0.000297764    0.000321028
    5          6          -0.000694693    0.001089626    0.000986628
    6          6          -0.043961756    0.112285017   -0.085508109
    7          1          -0.000002966   -0.000342248    0.002049747
    8          1           0.001013451    0.000415206   -0.000093400
    9          1          -0.001936110    0.000174604   -0.000539267
   10          8           0.054380504   -0.059657600    0.049218451
   11          1          -0.004798783   -0.001815861   -0.005785020
   12          8           0.018834426   -0.066332108    0.046821288
   13          1          -0.022132774    0.021929393   -0.016602177
 -------------------------------------------------------------------
 Cartesian Forces:  Max     0.112285017 RMS     0.031714022

 GradGradGradGradGradGradGradGradGradGradGradGradGradGradGradGradGradGrad
 Berny optimization.
 Internal  Forces:  Max     0.086668543 RMS     0.015649552
 Search for a saddle point.
 Step number   1 out of a maximum of  68
 All quantities printed in internal units (Hartrees-Bohrs-Radians)
 Swaping is turned off.
 Second derivative matrix not updated -- analytic derivatives used.
     Eigenvalues ---   -0.08787   0.00011   0.00082   0.00272   0.00298
     Eigenvalues ---    0.02141   0.02840   0.04407   0.04862   0.04931
     Eigenvalues ---    0.05056   0.05224   0.11474   0.12553   0.12874
     Eigenvalues ---    0.13834   0.14698   0.15481   0.16912   0.17141
     Eigenvalues ---    0.18507   0.19710   0.28020   0.29832   0.33646
     Eigenvalues ---    0.34521   0.34685   0.34816   0.35126   0.39414
     Eigenvalues ---    0.45562   0.46274   0.823181000.000001000.00000
     Eigenvalues --- 1000.000001000.000001000.000001000.000001000.00000
     Eigenvalues --- 1000.000001000.000001000.000001000.000001000.00000
     Eigenvalues --- 1000.000001000.000001000.000001000.000001000.00000
     Eigenvalues --- 1000.000001000.000001000.000001000.000001000.00000
     Eigenvalues --- 1000.000001000.000001000.00000
 Eigenvectors required to have negative eigenvalues:
                          R1        R2        R3        R4        R5
         1             -0.00018   0.00782   0.00055  -0.00396  -0.00180
                          R6        R7        R8        R9        R10
         1              0.00365   0.00008  -0.00092   0.00032   0.06649
                          R11       R12       R13       R14       A1
         1             -0.11471  -0.02018  -0.63985   0.68781   0.00551
                          A2        A3        A4        A5        A6
         1             -0.00447   0.00030  -0.00068  -0.00607   0.01368
                          A7        A8        A9        A10       A11
         1              0.00457  -0.01295   0.00060   0.00236  -0.00332
                          A12       A13       A14       A15       A16
         1             -0.00098   0.00081  -0.00051   0.00171  -0.01485
                          A17       A18       A19       A20       D1
         1              0.00409   0.31048   0.01158  -0.03038   0.00145
                          D2        D3        D4        D5        D6
         1              0.00266   0.00970  -0.00031   0.00091   0.00795
                          D7        D8        D9        D10       D11
         1              0.00501   0.00542   0.00481   0.00345   0.00385
                          D12       D13       D14       D15       D16
         1              0.00325  -0.00908  -0.00868  -0.00928   0.01153
                          D17       D18       D19       D20       D21
         1             -0.01011  -0.00017   0.01209  -0.00954   0.00039
                          D22       D23       D24
         1              0.01332  -0.00832   0.00161
 RFO step:  Lambda0=1.381055100D-03 Lambda=-4.62669228D-02.
 Linear search not attempted -- option 19 set.
 Maximum step size (   0.300) exceeded in Quadratic search.
    -- Step size scaled by   0.501
 Iteration  1 RMS(Cart)=  0.02937315 RMS(Int)=  0.00119233
 Iteration  2 RMS(Cart)=  0.00120398 RMS(Int)=  0.00018794
 Iteration  3 RMS(Cart)=  0.00000122 RMS(Int)=  0.00018788
 Iteration  4 RMS(Cart)=  0.00000000 RMS(Int)=  0.00018788
 Variable       Old X    -DE/DX   Delta X   Delta X   Delta X     New X
                                 (Linear)    (Quad)   (Total)
    R1        1.91907   0.00426   0.00000   0.00167   0.00167   1.92074
    R2        2.75672   0.01071   0.00000   0.00801   0.00801   2.76473
    R3        1.91554   0.00441   0.00000   0.00215   0.00215   1.91768
    R4        2.06775  -0.00038   0.00000   0.00063   0.00063   2.06838
    R5        2.92167   0.00300   0.00000   0.00601   0.00601   2.92768
    R6        2.87127   0.00333   0.00000  -0.02029  -0.02029   2.85099
    R7        2.06633   0.00205   0.00000   0.00177   0.00177   2.06810
    R8        2.06555   0.00091   0.00000   0.00161   0.00161   2.06716
    R9        2.06588   0.00199   0.00000   0.00192   0.00192   2.06780
   R10        2.27773   0.08667   0.00000   0.06749   0.06723   2.34495
   R11        2.55737  -0.04055   0.00000  -0.05805  -0.05835   2.49901
   R12        3.30823   0.01646   0.00000  -0.06276  -0.06224   3.24600
   R13        3.02357  -0.00967   0.00000  -0.18628  -0.18646   2.83712
   R14        3.02356  -0.04316   0.00000  -0.12597  -0.12591   2.89765
    A1        1.92679   0.00572   0.00000   0.01696   0.01671   1.94350
    A2        1.89661  -0.00076   0.00000   0.01274   0.01229   1.90890
    A3        1.93821   0.00493   0.00000   0.01350   0.01325   1.95146
    A4        1.90047   0.00012   0.00000   0.00105   0.00106   1.90153
    A5        2.01211  -0.00194   0.00000  -0.00250  -0.00252   2.00960
    A6        1.88940   0.00243   0.00000   0.00578   0.00578   1.89518
    A7        1.88972   0.00097   0.00000   0.00089   0.00089   1.89061
    A8        1.87319  -0.00167   0.00000  -0.00728  -0.00728   1.86591
    A9        1.89436   0.00004   0.00000   0.00155   0.00155   1.89591
   A10        1.93007   0.00061   0.00000  -0.00027  -0.00027   1.92980
   A11        1.94576  -0.00078   0.00000  -0.00131  -0.00131   1.94445
   A12        1.90963  -0.00019   0.00000  -0.00172  -0.00172   1.90791
   A13        1.90095  -0.00007   0.00000   0.00015   0.00015   1.90110
   A14        1.89033  -0.00010   0.00000   0.00139   0.00139   1.89172
   A15        1.88575   0.00054   0.00000   0.00188   0.00188   1.88764
   A16        2.18471   0.01010   0.00000   0.00975   0.00939   2.19410
   A17        1.95411   0.02673   0.00000   0.08829   0.08842   2.04252
   A18        3.00770   0.00964   0.00000   0.06205   0.06157   3.06928
   A19        2.14353  -0.03679   0.00000  -0.09775  -0.09755   2.04597
   A20        1.55754   0.01546   0.00000   0.05254   0.05341   1.61096
    D1        2.78989  -0.00272   0.00000  -0.01641  -0.01652   2.77337
    D2       -1.36609  -0.00271   0.00000  -0.01619  -0.01630  -1.38239
    D3        0.75870  -0.00213   0.00000  -0.01149  -0.01161   0.74709
    D4       -1.38845   0.00340   0.00000   0.01983   0.01995  -1.36850
    D5        0.73876   0.00341   0.00000   0.02006   0.02017   0.75893
    D6        2.86355   0.00399   0.00000   0.02475   0.02486   2.88842
    D7        1.04853   0.00087   0.00000   0.00242   0.00242   1.05095
    D8       -3.11704   0.00068   0.00000   0.00154   0.00154  -3.11550
    D9       -1.03222   0.00074   0.00000   0.00195   0.00195  -1.03028
   D10       -3.10167   0.00044   0.00000   0.00275   0.00275  -3.09893
   D11       -0.98406   0.00025   0.00000   0.00187   0.00187  -0.98219
   D12        1.10076   0.00031   0.00000   0.00227   0.00227   1.10303
   D13       -1.07359  -0.00099   0.00000  -0.00456  -0.00455  -1.07814
   D14        1.04402  -0.00118   0.00000  -0.00544  -0.00544   1.03859
   D15        3.12885  -0.00113   0.00000  -0.00503  -0.00503   3.12382
   D16       -0.49906   0.00060   0.00000   0.00393   0.00392  -0.49514
   D17        2.68582   0.00041   0.00000  -0.00115  -0.00115   2.68467
   D18        2.83667   0.00065   0.00000   0.00056   0.00055   2.83722
   D19       -2.54785   0.00008   0.00000   0.00356   0.00357  -2.54428
   D20        0.63703  -0.00011   0.00000  -0.00151  -0.00150   0.63553
   D21        0.78789   0.00013   0.00000   0.00019   0.00020   0.78808
   D22        1.69661  -0.00019   0.00000   0.00560   0.00560   1.70221
   D23       -1.40170  -0.00038   0.00000   0.00052   0.00053  -1.40117
   D24       -1.25084  -0.00014   0.00000   0.00223   0.00223  -1.24861
         Item               Value     Threshold  Converged?
 Maximum Force            0.086669     0.000450     NO 
 RMS     Force            0.015650     0.000300     NO 
 Maximum Displacement     0.093248     0.001800     NO 
 RMS     Displacement     0.029092     0.001200     NO 
 Predicted change in Energy=-1.884723D-02
 GradGradGradGradGradGradGradGradGradGradGradGradGradGradGradGradGradGrad

                          Input orientation:                          
 ---------------------------------------------------------------------
 Center     Atomic     Atomic              Coordinates (Angstroms)
 Number     Number      Type              X           Y           Z
 ---------------------------------------------------------------------
    1          7             0       -1.410588   -1.084269   -0.434066
    2          1             0       -1.177032   -1.670988    0.362363
    3          6             0       -0.656871    0.169472   -0.411376
    4          1             0       -0.634343    0.588995   -1.422073
    5          6             0       -1.206571    1.250581    0.552597
    6          6             0        0.770932   -0.134646   -0.030588
    7          1             0       -1.204257    0.883485    1.583580
    8          1             0       -0.614678    2.169101    0.501720
    9          1             0       -2.236814    1.493066    0.274848
   10          8             0        1.145889   -1.084015    0.675052
   11          1             0       -2.412165   -0.921830   -0.450264
   12          8             0        1.698122    0.708389   -0.452969
   13          1             0        2.427594   -0.369447    0.357814
 ---------------------------------------------------------------------
                    Distance matrix (angstroms):
                    1          2          3          4          5
     1  N    0.000000
     2  H    1.016409   0.000000
     3  C    1.463035   2.063137   0.000000
     4  H    2.092492   2.930230   1.094539   0.000000
     5  C    2.542961   2.927905   1.549261   2.159737   0.000000
     6  C    2.413215   2.511837   1.508678   2.105869   2.483844
     7  H    2.825867   2.831510   2.188446   3.073349   1.094391
     8  H    3.477583   3.883549   2.198645   2.489599   1.093895
     9  H    2.797832   3.337969   2.172332   2.502959   1.094232
    10  O    2.786703   2.416252   2.449796   3.219646   3.316535
    11  H    1.014794   1.657454   2.067247   2.527381   2.679282
    12  O    3.588601   3.820042   2.416227   2.528598   3.121278
    13  H    3.983677   3.832410   3.224285   3.669069   3.983666
                    6          7          8          9         10
     6  C    0.000000
     7  H    2.746543   0.000000
     8  H    2.740533   1.780683   0.000000
     9  H    3.433552   1.774977   1.771954   0.000000
    10  O    1.240896   3.196821   3.703027   4.271322   0.000000
    11  H    3.305737   2.975689   3.700147   2.527500   3.735290
    12  O    1.322420   3.549929   2.897267   4.077886   2.188632
    13  H    1.717707   4.032702   3.964891   5.023201   1.501338
                   11         12         13
    11  H    0.000000
    12  O    4.421774   0.000000
    13  H    4.937751   1.533373   0.000000
 Stoichiometry    C3H7NO2
 Framework group  C1[X(C3H7NO2)]
 Deg. of freedom    33
 Full point group                 C1
 Largest Abelian subgroup         C1      NOp   1
 Largest concise Abelian subgroup C1      NOp   1
                         Standard orientation:                         
 ---------------------------------------------------------------------
 Center     Atomic     Atomic              Coordinates (Angstroms)
 Number     Number      Type              X           Y           Z
 ---------------------------------------------------------------------
    1          7             0       -1.351848   -1.171802   -0.400404
    2          1             0       -1.062448   -1.727796    0.399724
    3          6             0       -0.686175    0.130965   -0.412657
    4          1             0       -0.712902    0.534220   -1.429852
    5          6             0       -1.289784    1.187593    0.546198
    6          6             0        0.766554   -0.067979   -0.057536
    7          1             0       -1.241491    0.838676    1.582352
    8          1             0       -0.763848    2.143638    0.468906
    9          1             0       -2.339663    1.354081    0.286621
   10          8             0        1.220206   -0.977507    0.654349
   11          1             0       -2.362373   -1.078851   -0.397910
   12          8             0        1.624691    0.829645   -0.512143
   13          1             0        2.442916   -0.181929    0.299313
 ---------------------------------------------------------------------
 Rotational constants (GHZ):      5.1304027      2.9886966      2.3049895
 Standard basis: 6-31G (6D, 7F)
 There are    68 symmetry adapted basis functions of A   symmetry.
 Integral buffers will be    262144 words long.
 Raffenetti 2 integral format.
 Two-electron integral symmetry is turned on.
    68 basis functions,   160 primitive gaussians,    68 cartesian basis functions
    24 alpha electrons       24 beta electrons
       nuclear repulsion energy       248.1707440889 Hartrees.
 NAtoms=   13 NActive=   13 NUniq=   13 SFac= 7.50D-01 NAtFMM=   80 NAOKFM=F Big=F
 One-electron integrals computed using PRISM.
 NBasis=    68 RedAO= T  NBF=    68
 NBsUse=    68 1.00D-06 NBFU=    68
 Initial guess read from the read-write file:
 Initial guess orbital symmetries:
       Occupied  (A) (A) (A) (A) (A) (A) (A) (A) (A) (A) (A) (A)
                 (A) (A) (A) (A) (A) (A) (A) (A) (A) (A) (A) (A)
       Virtual   (A) (A) (A) (A) (A) (A) (A) (A) (A) (A) (A) (A)
                 (A) (A) (A) (A) (A) (A) (A) (A) (A) (A) (A) (A)
                 (A) (A) (A) (A) (A) (A) (A) (A) (A) (A) (A) (A)
                 (A) (A) (A) (A) (A) (A) (A) (A)
 Harris functional with IExCor=  402 diagonalized for initial guess.
 ExpMin= 1.61D-01 ExpMax= 5.48D+03 ExpMxC= 8.25D+02 IAcc=1 IRadAn=         1 AccDes= 1.00D-06
 HarFok:  IExCor= 402 AccDes= 1.00D-06 IRadAn=         1 IDoV=1
 ScaDFX=  1.000000  1.000000  1.000000  1.000000
 Requested convergence on RMS density matrix=1.00D-08 within 128 cycles.
 Requested convergence on MAX density matrix=1.00D-06.
 Requested convergence on             energy=1.00D-06.
 No special actions if energy rises.
 Keep R1 integrals in memory in canonical form, NReq=     4577267.
 Integral accuracy reduced to 1.0D-05 until final iterations.
 Initial convergence to 1.0D-05 achieved.  Increase integral accuracy.
 SCF Done:  E(RB+HF-LYP) =  -323.554602078     A.U. after   14 cycles
             Convg  =    0.7756D-08             -V/T =  2.0057
             S**2   =   0.0000
 ***** Axes restored to original set *****
 -------------------------------------------------------------------
 Center     Atomic                   Forces (Hartrees/Bohr)
 Number     Number              X              Y              Z
 -------------------------------------------------------------------
    1          7          -0.004287288    0.001508912    0.008328687
    2          1           0.001828408   -0.004087364   -0.000663641
    3          6           0.000840462   -0.002795434    0.001148930
    4          1           0.000665425   -0.000069668    0.000113794
    5          6          -0.000495452    0.000887726    0.000571791
    6          6          -0.024141070    0.065491565   -0.050896154
    7          1           0.000054332   -0.000205247    0.001111163
    8          1           0.000608016    0.000219044   -0.000026995
    9          1          -0.001055770    0.000045948   -0.000336907
   10          8           0.038175508   -0.034718290    0.028596153
   11          1          -0.002460690   -0.001156572   -0.004930774
   12          8           0.013630327   -0.038032150    0.026660762
   13          1          -0.023362207    0.012911531   -0.009676810
 -------------------------------------------------------------------
 Cartesian Forces:  Max     0.065491565 RMS     0.019114233

 GradGradGradGradGradGradGradGradGradGradGradGradGradGradGradGradGradGrad
 Berny optimization.
 Internal  Forces:  Max     0.052255209 RMS     0.009399866
 Search for a saddle point.
 Step number   2 out of a maximum of  68
 All quantities printed in internal units (Hartrees-Bohrs-Radians)
 Swaping is turned off.
 Update second derivatives using D2CorX and points  1  2
     Eigenvalues ---   -0.08991   0.00011   0.00083   0.00273   0.00298
     Eigenvalues ---    0.02604   0.02814   0.04407   0.04862   0.04930
     Eigenvalues ---    0.05056   0.05224   0.11463   0.12552   0.12874
     Eigenvalues ---    0.13856   0.14698   0.15476   0.17111   0.17151
     Eigenvalues ---    0.18507   0.19712   0.28053   0.29955   0.33668
     Eigenvalues ---    0.34524   0.34708   0.35070   0.35221   0.39398
     Eigenvalues ---    0.45560   0.46274   0.818201000.000001000.00000
     Eigenvalues --- 1000.000001000.000001000.000001000.000001000.00000
     Eigenvalues --- 1000.000001000.000001000.000001000.000001000.00000
     Eigenvalues --- 1000.000001000.000001000.000001000.000001000.00000
     Eigenvalues --- 1000.000001000.000001000.000001000.000001000.00000
     Eigenvalues --- 1000.000001000.000001000.00000
 Eigenvectors required to have negative eigenvalues:
                          R1        R2        R3        R4        R5
         1             -0.00039   0.00748   0.00033  -0.00372  -0.00122
                          R6        R7        R8        R9        R10
         1              0.00217   0.00012  -0.00085   0.00035   0.07360
                          R11       R12       R13       R14       A1
         1             -0.11127  -0.02725  -0.65941   0.66827   0.00755
                          A2        A3        A4        A5        A6
         1             -0.00212   0.00194  -0.00050  -0.00601   0.01371
                          A7        A8        A9        A10       A11
         1              0.00428  -0.01317   0.00084   0.00222  -0.00335
                          A12       A13       A14       A15       A16
         1             -0.00120   0.00084  -0.00033   0.00189  -0.01897
                          A17       A18       A19       A20       D1
         1              0.00830   0.31178   0.01137  -0.01783  -0.00103
                          D2        D3        D4        D5        D6
         1             -0.00001   0.00740   0.00311   0.00414   0.01154
                          D7        D8        D9        D10       D11
         1              0.00508   0.00540   0.00487   0.00357   0.00389
                          D12       D13       D14       D15       D16
         1              0.00336  -0.00926  -0.00894  -0.00947   0.01226
                          D17       D18       D19       D20       D21
         1             -0.01052  -0.00028   0.01283  -0.00996   0.00029
                          D22       D23       D24
         1              0.01437  -0.00842   0.00183
 RFO step:  Lambda0=9.986279294D-05 Lambda=-2.49484417D-02.
 Linear search not attempted -- option 19 set.
 Maximum step size (   0.300) exceeded in Quadratic search.
    -- Step size scaled by   0.532
 Iteration  1 RMS(Cart)=  0.02623906 RMS(Int)=  0.00160236
 Iteration  2 RMS(Cart)=  0.00087110 RMS(Int)=  0.00044615
 Iteration  3 RMS(Cart)=  0.00000187 RMS(Int)=  0.00044516
 Iteration  4 RMS(Cart)=  0.00000000 RMS(Int)=  0.00044516
 Variable       Old X    -DE/DX   Delta X   Delta X   Delta X     New X
                                 (Linear)    (Quad)   (Total)
    R1        1.92074   0.00226   0.00000  -0.00053  -0.00053   1.92021
    R2        2.76473   0.00569   0.00000   0.00180   0.00180   2.76653
    R3        1.91768   0.00232   0.00000  -0.00031  -0.00031   1.91737
    R4        2.06838  -0.00012   0.00000   0.00137   0.00137   2.06975
    R5        2.92768   0.00180   0.00000   0.00550   0.00550   2.93318
    R6        2.85099   0.00159   0.00000  -0.01914  -0.01914   2.83185
    R7        2.06810   0.00112   0.00000   0.00095   0.00095   2.06904
    R8        2.06716   0.00052   0.00000   0.00109   0.00109   2.06825
    R9        2.06780   0.00109   0.00000   0.00099   0.00099   2.06878
   R10        2.34495   0.05226   0.00000   0.04968   0.04860   2.39355
   R11        2.49901  -0.02000   0.00000  -0.02110  -0.02220   2.47682
   R12        3.24600   0.00570   0.00000  -0.10458  -0.10405   3.14195
   R13        2.83712  -0.01066   0.00000  -0.16194  -0.16129   2.67583
   R14        2.89765  -0.02667   0.00000  -0.16184  -0.16115   2.73650
    A1        1.94350   0.00363   0.00000   0.01718   0.01683   1.96033
    A2        1.90890   0.00005   0.00000   0.01825   0.01766   1.92656
    A3        1.95146   0.00307   0.00000   0.01409   0.01374   1.96520
    A4        1.90153   0.00010   0.00000   0.00161   0.00161   1.90314
    A5        2.00960  -0.00103   0.00000  -0.00084  -0.00085   2.00875
    A6        1.89518   0.00133   0.00000   0.00323   0.00323   1.89842
    A7        1.89061   0.00047   0.00000  -0.00143  -0.00143   1.88918
    A8        1.86591  -0.00103   0.00000  -0.00468  -0.00468   1.86123
    A9        1.89591   0.00013   0.00000   0.00173   0.00173   1.89764
   A10        1.92980   0.00029   0.00000  -0.00085  -0.00085   1.92894
   A11        1.94445  -0.00044   0.00000  -0.00064  -0.00064   1.94381
   A12        1.90791  -0.00017   0.00000  -0.00172  -0.00173   1.90619
   A13        1.90110  -0.00003   0.00000   0.00025   0.00025   1.90135
   A14        1.89172   0.00001   0.00000   0.00140   0.00140   1.89312
   A15        1.88764   0.00035   0.00000   0.00169   0.00169   1.88932
   A16        2.19410   0.00497   0.00000   0.00841   0.00871   2.20280
   A17        2.04252   0.01704   0.00000   0.07071   0.07105   2.11357
   A18        3.06928   0.00676   0.00000   0.03556   0.03553   3.10481
   A19        2.04597  -0.02199   0.00000  -0.07888  -0.07955   1.96643
   A20        1.61096   0.01316   0.00000   0.07944   0.08201   1.69297
    D1        2.77337  -0.00218   0.00000  -0.01927  -0.01941   2.75395
    D2       -1.38239  -0.00220   0.00000  -0.02049  -0.02063  -1.40302
    D3        0.74709  -0.00173   0.00000  -0.01634  -0.01649   0.73060
    D4       -1.36850   0.00274   0.00000   0.02703   0.02718  -1.34132
    D5        0.75893   0.00272   0.00000   0.02581   0.02595   0.78489
    D6        2.88842   0.00319   0.00000   0.02995   0.03010   2.91851
    D7        1.05095   0.00051   0.00000   0.00140   0.00140   1.05235
    D8       -3.11550   0.00037   0.00000   0.00070   0.00070  -3.11480
    D9       -1.03028   0.00043   0.00000   0.00128   0.00128  -1.02900
   D10       -3.09893   0.00029   0.00000   0.00182   0.00182  -3.09710
   D11       -0.98219   0.00016   0.00000   0.00112   0.00112  -0.98107
   D12        1.10303   0.00021   0.00000   0.00170   0.00170   1.10473
   D13       -1.07814  -0.00060   0.00000  -0.00355  -0.00355  -1.08170
   D14        1.03859  -0.00074   0.00000  -0.00425  -0.00425   1.03434
   D15        3.12382  -0.00069   0.00000  -0.00368  -0.00368   3.12014
   D16       -0.49514   0.00054   0.00000   0.00680   0.00679  -0.48835
   D17        2.68467   0.00002   0.00000   0.00060   0.00061   2.68527
   D18        2.83722   0.00033   0.00000  -0.00024  -0.00024   2.83698
   D19       -2.54428   0.00029   0.00000   0.00575   0.00574  -2.53854
   D20        0.63553  -0.00023   0.00000  -0.00045  -0.00044   0.63509
   D21        0.78808   0.00009   0.00000  -0.00129  -0.00129   0.78680
   D22        1.70221   0.00022   0.00000   0.00903   0.00902   1.71123
   D23       -1.40117  -0.00030   0.00000   0.00283   0.00284  -1.39833
   D24       -1.24861   0.00001   0.00000   0.00199   0.00199  -1.24662
         Item               Value     Threshold  Converged?
 Maximum Force            0.052255     0.000450     NO 
 RMS     Force            0.009400     0.000300     NO 
 Maximum Displacement     0.124288     0.001800     NO 
 RMS     Displacement     0.026208     0.001200     NO 
 Predicted change in Energy=-1.081791D-02
 GradGradGradGradGradGradGradGradGradGradGradGradGradGradGradGradGradGrad

                          Input orientation:                          
 ---------------------------------------------------------------------
 Center     Atomic     Atomic              Coordinates (Angstroms)
 Number     Number      Type              X           Y           Z
 ---------------------------------------------------------------------
    1          7             0       -1.405343   -1.082467   -0.423319
    2          1             0       -1.162305   -1.684631    0.358253
    3          6             0       -0.657303    0.175903   -0.409230
    4          1             0       -0.641485    0.593568   -1.421606
    5          6             0       -1.210078    1.259523    0.554850
    6          6             0        0.766462   -0.113552   -0.042136
    7          1             0       -1.199736    0.895813    1.587514
    8          1             0       -0.623258    2.181574    0.497089
    9          1             0       -2.243642    1.493130    0.279790
   10          8             0        1.174196   -1.077897    0.670674
   11          1             0       -2.409098   -0.938957   -0.460085
   12          8             0        1.738984    0.675841   -0.428045
   13          1             0        2.361824   -0.379954    0.342890
 ---------------------------------------------------------------------
                    Distance matrix (angstroms):
                    1          2          3          4          5
     1  N    0.000000
     2  H    1.016131   0.000000
     3  C    1.463987   2.075004   0.000000
     4  H    2.095030   2.937573   1.095262   0.000000
     5  C    2.545557   2.951097   1.552173   2.161751   0.000000
     6  C    2.408492   2.519670   1.498549   2.094103   2.479604
     7  H    2.828306   2.858526   2.190774   3.075353   1.094891
     8  H    3.480341   3.906070   2.201202   2.490680   1.094473
     9  H    2.798358   3.357619   2.174007   2.504170   1.094754
    10  O    2.801940   2.434126   2.468319   3.235448   3.340914
    11  H    1.014628   1.667393   2.077085   2.529349   2.702047
    12  O    3.602563   3.821984   2.447955   2.580807   3.162867
    13  H    3.907959   3.757911   3.160663   3.616774   3.935898
                    6          7          8          9         10
     6  C    0.000000
     7  H    2.745999   0.000000
     8  H    2.736729   1.781722   0.000000
     9  H    3.427213   1.776702   1.773928   0.000000
    10  O    1.266612   3.220509   3.726275   4.294716   0.000000
    11  H    3.307590   3.003598   3.720634   2.547516   3.760042
    12  O    1.310674   3.570286   2.950134   4.126778   2.145172
    13  H    1.662647   3.982634   3.936485   4.972197   1.415989
                   11         12         13
    11  H    0.000000
    12  O    4.451424   0.000000
    13  H    4.870210   1.448093   0.000000
 Stoichiometry    C3H7NO2
 Framework group  C1[X(C3H7NO2)]
 Deg. of freedom    33
 Full point group                 C1
 Largest Abelian subgroup         C1      NOp   1
 Largest concise Abelian subgroup C1      NOp   1
                         Standard orientation:                         
 ---------------------------------------------------------------------
 Center     Atomic     Atomic              Coordinates (Angstroms)
 Number     Number      Type              X           Y           Z
 ---------------------------------------------------------------------
    1          7             0       -1.345400   -1.187608   -0.379136
    2          1             0       -1.040250   -1.746577    0.412671
    3          6             0       -0.698244    0.125075   -0.415333
    4          1             0       -0.735544    0.513779   -1.438621
    5          6             0       -1.314871    1.189312    0.531457
    6          6             0        0.750914   -0.042105   -0.072346
    7          1             0       -1.255323    0.856990    1.572996
    8          1             0       -0.803465    2.152239    0.436031
    9          1             0       -2.368883    1.333830    0.273274
   10          8             0        1.247252   -0.951139    0.656770
   11          1             0       -2.357854   -1.123787   -0.397422
   12          8             0        1.650582    0.809331   -0.500742
   13          1             0        2.369658   -0.172441    0.284133
 ---------------------------------------------------------------------
 Rotational constants (GHZ):      5.1943058      2.9510290      2.2838293
 Standard basis: 6-31G (6D, 7F)
 There are    68 symmetry adapted basis functions of A   symmetry.
 Integral buffers will be    262144 words long.
 Raffenetti 2 integral format.
 Two-electron integral symmetry is turned on.
    68 basis functions,   160 primitive gaussians,    68 cartesian basis functions
    24 alpha electrons       24 beta electrons
       nuclear repulsion energy       248.1119582425 Hartrees.
 NAtoms=   13 NActive=   13 NUniq=   13 SFac= 7.50D-01 NAtFMM=   80 NAOKFM=F Big=F
 One-electron integrals computed using PRISM.
 NBasis=    68 RedAO= T  NBF=    68
 NBsUse=    68 1.00D-06 NBFU=    68
 Initial guess read from the read-write file:
 Initial guess orbital symmetries:
       Occupied  (A) (A) (A) (A) (A) (A) (A) (A) (A) (A) (A) (A)
                 (A) (A) (A) (A) (A) (A) (A) (A) (A) (A) (A) (A)
       Virtual   (A) (A) (A) (A) (A) (A) (A) (A) (A) (A) (A) (A)
                 (A) (A) (A) (A) (A) (A) (A) (A) (A) (A) (A) (A)
                 (A) (A) (A) (A) (A) (A) (A) (A) (A) (A) (A) (A)
                 (A) (A) (A) (A) (A) (A) (A) (A)
 Harris functional with IExCor=  402 diagonalized for initial guess.
 ExpMin= 1.61D-01 ExpMax= 5.48D+03 ExpMxC= 8.25D+02 IAcc=1 IRadAn=         1 AccDes= 1.00D-06
 HarFok:  IExCor= 402 AccDes= 1.00D-06 IRadAn=         1 IDoV=1
 ScaDFX=  1.000000  1.000000  1.000000  1.000000
 Requested convergence on RMS density matrix=1.00D-08 within 128 cycles.
 Requested convergence on MAX density matrix=1.00D-06.
 Requested convergence on             energy=1.00D-06.
 No special actions if energy rises.
 Keep R1 integrals in memory in canonical form, NReq=     4577267.
 Integral accuracy reduced to 1.0D-05 until final iterations.
 Initial convergence to 1.0D-05 achieved.  Increase integral accuracy.
 SCF Done:  E(RB+HF-LYP) =  -323.565006448     A.U. after   13 cycles
             Convg  =    0.5364D-08             -V/T =  2.0056
             S**2   =   0.0000
 ***** Axes restored to original set *****
 -------------------------------------------------------------------
 Center     Atomic                   Forces (Hartrees/Bohr)
 Number     Number              X              Y              Z
 -------------------------------------------------------------------
    1          7          -0.002985613    0.001667970    0.006936428
    2          1           0.001617556   -0.002558944   -0.000985374
    3          6          -0.000568665   -0.001832195    0.001050213
    4          1           0.000134967    0.000047910    0.000022372
    5          6          -0.000224971    0.000664519    0.000321375
    6          6          -0.011602572    0.036034602   -0.029410967
    7          1           0.000039176   -0.000116948    0.000546345
    8          1           0.000326522    0.000085544    0.000007986
    9          1          -0.000518328   -0.000025841   -0.000202450
   10          8           0.021770017   -0.022814260    0.017651332
   11          1          -0.001110364   -0.000734224   -0.003913235
   12          8           0.007960934   -0.017654245    0.012234619
   13          1          -0.014838657    0.007236111   -0.004258644
 -------------------------------------------------------------------
 Cartesian Forces:  Max     0.036034602 RMS     0.010756867

 GradGradGradGradGradGradGradGradGradGradGradGradGradGradGradGradGradGrad
 Berny optimization.
 Internal  Forces:  Max     0.031828710 RMS     0.005330063
 Search for a saddle point.
 Step number   3 out of a maximum of  68
 All quantities printed in internal units (Hartrees-Bohrs-Radians)
 Swaping is turned off.
 Update second derivatives using D2CorX and points  1  2  3
     Eigenvalues ---   -0.09043   0.00011   0.00084   0.00273   0.00298
     Eigenvalues ---    0.02725   0.03922   0.04407   0.04863   0.04928
     Eigenvalues ---    0.05056   0.05224   0.11445   0.12545   0.12874
     Eigenvalues ---    0.13826   0.14691   0.15456   0.17137   0.17399
     Eigenvalues ---    0.18502   0.19715   0.28065   0.29996   0.33675
     Eigenvalues ---    0.34524   0.34710   0.35097   0.35435   0.39384
     Eigenvalues ---    0.45558   0.46273   0.821081000.000001000.00000
     Eigenvalues --- 1000.000001000.000001000.000001000.000001000.00000
     Eigenvalues --- 1000.000001000.000001000.000001000.000001000.00000
     Eigenvalues --- 1000.000001000.000001000.000001000.000001000.00000
     Eigenvalues --- 1000.000001000.000001000.000001000.000001000.00000
     Eigenvalues --- 1000.000001000.000001000.00000
 Eigenvectors required to have negative eigenvalues:
                          R1        R2        R3        R4        R5
         1              0.00060  -0.00706  -0.00013   0.00357   0.00090
                          R6        R7        R8        R9        R10
         1             -0.00160  -0.00012   0.00081  -0.00036  -0.07593
                          R11       R12       R13       R14       A1
         1              0.11131   0.03177   0.66909  -0.65769  -0.00880
                          A2        A3        A4        A5        A6
         1              0.00052  -0.00303   0.00033   0.00590  -0.01367
                          A7        A8        A9        A10       A11
         1             -0.00403   0.01328  -0.00092  -0.00213   0.00335
                          A12       A13       A14       A15       A16
         1              0.00137  -0.00086   0.00022  -0.00201   0.02130
                          A17       A18       A19       A20       D1
         1             -0.01084  -0.31253  -0.01102   0.00889   0.00289
                          D2        D3        D4        D5        D6
         1              0.00199  -0.00560  -0.00589  -0.00679  -0.01438
                          D7        D8        D9        D10       D11
         1             -0.00504  -0.00533  -0.00486  -0.00363  -0.00392
                          D12       D13       D14       D15       D16
         1             -0.00346   0.00940   0.00911   0.00958  -0.01286
                          D17       D18       D19       D20       D21
         1              0.01054   0.00035  -0.01338   0.01002  -0.00017
                          D22       D23       D24
         1             -0.01521   0.00819  -0.00200
 RFO step:  Lambda0=6.366396666D-07 Lambda=-8.79113857D-03.
 Linear search not attempted -- option 19 set.
 Maximum step size (   0.300) exceeded in Quadratic search.
    -- Step size scaled by   0.809
 Iteration  1 RMS(Cart)=  0.02423772 RMS(Int)=  0.00858984
 Iteration  2 RMS(Cart)=  0.00246098 RMS(Int)=  0.00119712
 Iteration  3 RMS(Cart)=  0.00068786 RMS(Int)=  0.00063979
 Iteration  4 RMS(Cart)=  0.00000110 RMS(Int)=  0.00063978
 Iteration  5 RMS(Cart)=  0.00000000 RMS(Int)=  0.00063978
 Variable       Old X    -DE/DX   Delta X   Delta X   Delta X     New X
                                 (Linear)    (Quad)   (Total)
    R1        1.92021   0.00114   0.00000  -0.00346  -0.00346   1.91675
    R2        2.76653   0.00264   0.00000  -0.00543  -0.00543   2.76110
    R3        1.91737   0.00114   0.00000  -0.00328  -0.00328   1.91409
    R4        2.06975   0.00000   0.00000   0.00214   0.00214   2.07189
    R5        2.93318   0.00098   0.00000   0.00635   0.00635   2.93953
    R6        2.83185   0.00166   0.00000  -0.01144  -0.01144   2.82041
    R7        2.06904   0.00055   0.00000   0.00061   0.00061   2.06966
    R8        2.06825   0.00025   0.00000   0.00088   0.00088   2.06913
    R9        2.06878   0.00053   0.00000   0.00067   0.00067   2.06945
   R10        2.39355   0.03183   0.00000   0.04904   0.04765   2.44120
   R11        2.47682  -0.00839   0.00000  -0.00815  -0.00953   2.46728
   R12        3.14195   0.00133   0.00000  -0.11166  -0.11106   3.03089
   R13        2.67583  -0.00536   0.00000  -0.12892  -0.12794   2.54789
   R14        2.73650  -0.01286   0.00000  -0.15676  -0.15580   2.58070
    A1        1.96033   0.00219   0.00000   0.02619   0.02500   1.98534
    A2        1.92656   0.00037   0.00000   0.03562   0.03381   1.96037
    A3        1.96520   0.00188   0.00000   0.02326   0.02208   1.98728
    A4        1.90314   0.00007   0.00000   0.00292   0.00293   1.90607
    A5        2.00875  -0.00040   0.00000   0.00127   0.00127   2.01002
    A6        1.89842   0.00050   0.00000   0.00070   0.00070   1.89911
    A7        1.88918   0.00013   0.00000  -0.00373  -0.00373   1.88545
    A8        1.86123  -0.00044   0.00000  -0.00247  -0.00248   1.85875
    A9        1.89764   0.00013   0.00000   0.00099   0.00098   1.89862
   A10        1.92894   0.00013   0.00000  -0.00136  -0.00136   1.92758
   A11        1.94381  -0.00021   0.00000  -0.00022  -0.00022   1.94359
   A12        1.90619  -0.00016   0.00000  -0.00262  -0.00262   1.90357
   A13        1.90135  -0.00001   0.00000   0.00075   0.00075   1.90210
   A14        1.89312   0.00004   0.00000   0.00117   0.00117   1.89429
   A15        1.88932   0.00022   0.00000   0.00240   0.00240   1.89173
   A16        2.20280   0.00177   0.00000  -0.00054  -0.00002   2.20279
   A17        2.11357   0.00896   0.00000   0.06315   0.06360   2.17717
   A18        3.10481   0.00421   0.00000   0.02926   0.02933   3.13415
   A19        1.96643  -0.01071   0.00000  -0.06233  -0.06336   1.90307
   A20        1.69297   0.01032   0.00000   0.09131   0.09430   1.78727
    D1        2.75395  -0.00161   0.00000  -0.02839  -0.02881   2.72515
    D2       -1.40302  -0.00167   0.00000  -0.03014  -0.03056  -1.43358
    D3        0.73060  -0.00140   0.00000  -0.02743  -0.02784   0.70276
    D4       -1.34132   0.00214   0.00000   0.05912   0.05953  -1.28179
    D5        0.78489   0.00209   0.00000   0.05737   0.05778   0.84267
    D6        2.91851   0.00236   0.00000   0.06008   0.06050   2.97901
    D7        1.05235   0.00021   0.00000  -0.00114  -0.00113   1.05122
    D8       -3.11480   0.00014   0.00000  -0.00126  -0.00126  -3.11607
    D9       -1.02900   0.00018   0.00000  -0.00011  -0.00011  -1.02911
   D10       -3.09710   0.00012   0.00000   0.00069   0.00069  -3.09641
   D11       -0.98107   0.00005   0.00000   0.00057   0.00056  -0.98050
   D12        1.10473   0.00009   0.00000   0.00172   0.00172   1.10645
   D13       -1.08170  -0.00026   0.00000  -0.00369  -0.00369  -1.08539
   D14        1.03434  -0.00033   0.00000  -0.00382  -0.00382   1.03052
   D15        3.12014  -0.00029   0.00000  -0.00267  -0.00267   3.11747
   D16       -0.48835   0.00047   0.00000   0.01744   0.01744  -0.47092
   D17        2.68527  -0.00014   0.00000   0.00670   0.00671   2.69198
   D18        2.83698   0.00014   0.00000  -0.00272  -0.00272   2.83426
   D19       -2.53854   0.00037   0.00000   0.01498   0.01497  -2.52356
   D20        0.63509  -0.00023   0.00000   0.00424   0.00425   0.63934
   D21        0.78680   0.00004   0.00000  -0.00518  -0.00518   0.78162
   D22        1.71123   0.00039   0.00000   0.02016   0.02015   1.73138
   D23       -1.39833  -0.00022   0.00000   0.00941   0.00942  -1.38891
   D24       -1.24662   0.00006   0.00000   0.00000  -0.00001  -1.24663
         Item               Value     Threshold  Converged?
 Maximum Force            0.031829     0.000450     NO 
 RMS     Force            0.005330     0.000300     NO 
 Maximum Displacement     0.124644     0.001800     NO 
 RMS     Displacement     0.027263     0.001200     NO 
 Predicted change in Energy=-4.634071D-03
 GradGradGradGradGradGradGradGradGradGradGradGradGradGradGradGradGradGrad

                          Input orientation:                          
 ---------------------------------------------------------------------
 Center     Atomic     Atomic              Coordinates (Angstroms)
 Number     Number      Type              X           Y           Z
 ---------------------------------------------------------------------
    1          7             0       -1.399587   -1.078607   -0.403644
    2          1             0       -1.144446   -1.702132    0.354596
    3          6             0       -0.659896    0.181434   -0.403597
    4          1             0       -0.653426    0.595985   -1.418579
    5          6             0       -1.211523    1.272253    0.558437
    6          6             0        0.763316   -0.096002   -0.049983
    7          1             0       -1.192166    0.914696    1.593461
    8          1             0       -0.628242    2.196362    0.489900
    9          1             0       -2.248375    1.497268    0.287203
   10          8             0        1.193913   -1.083008    0.663616
   11          1             0       -2.402602   -0.964944   -0.487275
   12          8             0        1.776388    0.648088   -0.403086
   13          1             0        2.295865   -0.383499    0.325592
 ---------------------------------------------------------------------
                    Distance matrix (angstroms):
                    1          2          3          4          5
     1  N    0.000000
     2  H    1.014301   0.000000
     3  C    1.461112   2.087455   0.000000
     4  H    2.095497   2.943908   1.096396   0.000000
     5  C    2.547060   2.982116   1.555535   2.162731   0.000000
     6  C    2.401820   2.526439   1.492497   2.087836   2.478364
     7  H    2.829260   2.895661   2.192995   3.076395   1.095216
     8  H    3.481209   3.934848   2.204375   2.490810   1.094939
     9  H    2.798722   3.385168   2.175291   2.503172   1.095108
    10  O    2.804514   2.438592   2.484826   3.250725   3.368151
    11  H    1.012893   1.683790   2.087633   2.522586   2.741757
    12  O    3.615010   3.824774   2.480574   2.633996   3.200269
    13  H    3.830316   3.684478   3.096351   3.563683   3.885551
                    6          7          8          9         10
     6  C    0.000000
     7  H    2.747059   0.000000
     8  H    2.735478   1.782842   0.000000
     9  H    3.423812   1.777999   1.776133   0.000000
    10  O    1.291827   3.247892   3.755621   4.318432   0.000000
    11  H    3.311997   3.054122   3.754607   2.585747   3.778016
    12  O    1.305629   3.587422   2.996135   4.170890   2.115142
    13  H    1.603876   3.931815   3.902958   4.918219   1.348285
                   11         12         13
    11  H    0.000000
    12  O    4.480281   0.000000
    13  H    4.803584   1.365650   0.000000
 Stoichiometry    C3H7NO2
 Framework group  C1[X(C3H7NO2)]
 Deg. of freedom    33
 Full point group                 C1
 Largest Abelian subgroup         C1      NOp   1
 Largest concise Abelian subgroup C1      NOp   1
                         Standard orientation:                         
 ---------------------------------------------------------------------
 Center     Atomic     Atomic              Coordinates (Angstroms)
 Number     Number      Type              X           Y           Z
 ---------------------------------------------------------------------
    1          7             0       -1.334884   -1.200406   -0.355892
    2          1             0       -1.010920   -1.770481    0.417975
    3          6             0       -0.710570    0.119219   -0.416466
    4          1             0       -0.760234    0.494912   -1.445287
    5          6             0       -1.338964    1.191829    0.518583
    6          6             0        0.738125   -0.018078   -0.084837
    7          1             0       -1.268283    0.875890    1.564854
    8          1             0       -0.841764    2.160706    0.404744
    9          1             0       -2.396679    1.314139    0.262572
   10          8             0        1.268368   -0.936104    0.653327
   11          1             0       -2.345437   -1.179009   -0.421295
   12          8             0        1.674001    0.799077   -0.486161
   13          1             0        2.297013   -0.154913    0.266673
 ---------------------------------------------------------------------
 Rotational constants (GHZ):      5.2335790      2.9247159      2.2614579
 Standard basis: 6-31G (6D, 7F)
 There are    68 symmetry adapted basis functions of A   symmetry.
 Integral buffers will be    262144 words long.
 Raffenetti 2 integral format.
 Two-electron integral symmetry is turned on.
    68 basis functions,   160 primitive gaussians,    68 cartesian basis functions
    24 alpha electrons       24 beta electrons
       nuclear repulsion energy       247.9803083294 Hartrees.
 NAtoms=   13 NActive=   13 NUniq=   13 SFac= 7.50D-01 NAtFMM=   80 NAOKFM=F Big=F
 One-electron integrals computed using PRISM.
 NBasis=    68 RedAO= T  NBF=    68
 NBsUse=    68 1.00D-06 NBFU=    68
 Initial guess read from the read-write file:
 Initial guess orbital symmetries:
       Occupied  (A) (A) (A) (A) (A) (A) (A) (A) (A) (A) (A) (A)
                 (A) (A) (A) (A) (A) (A) (A) (A) (A) (A) (A) (A)
       Virtual   (A) (A) (A) (A) (A) (A) (A) (A) (A) (A) (A) (A)
                 (A) (A) (A) (A) (A) (A) (A) (A) (A) (A) (A) (A)
                 (A) (A) (A) (A) (A) (A) (A) (A) (A) (A) (A) (A)
                 (A) (A) (A) (A) (A) (A) (A) (A)
 Harris functional with IExCor=  402 diagonalized for initial guess.
 ExpMin= 1.61D-01 ExpMax= 5.48D+03 ExpMxC= 8.25D+02 IAcc=1 IRadAn=         1 AccDes= 1.00D-06
 HarFok:  IExCor= 402 AccDes= 1.00D-06 IRadAn=         1 IDoV=1
 ScaDFX=  1.000000  1.000000  1.000000  1.000000
 Requested convergence on RMS density matrix=1.00D-08 within 128 cycles.
 Requested convergence on MAX density matrix=1.00D-06.
 Requested convergence on             energy=1.00D-06.
 No special actions if energy rises.
 Keep R1 integrals in memory in canonical form, NReq=     4577267.
 Integral accuracy reduced to 1.0D-05 until final iterations.
 Initial convergence to 1.0D-05 achieved.  Increase integral accuracy.
 SCF Done:  E(RB+HF-LYP) =  -323.569227425     A.U. after   13 cycles
             Convg  =    0.5054D-08             -V/T =  2.0055
             S**2   =   0.0000
 ***** Axes restored to original set *****
 -------------------------------------------------------------------
 Center     Atomic                   Forces (Hartrees/Bohr)
 Number     Number              X              Y              Z
 -------------------------------------------------------------------
    1          7          -0.001426970    0.001453420    0.004160797
    2          1           0.000914849   -0.001231494   -0.000667597
    3          6          -0.000871478    0.000143314    0.000766542
    4          1          -0.000183240    0.000064871    0.000019563
    5          6           0.000076056    0.000206360    0.000109530
    6          6          -0.004156834    0.010932507   -0.012302973
    7          1          -0.000010590   -0.000039724    0.000110004
    8          1           0.000076899   -0.000005363    0.000010828
    9          1          -0.000095986   -0.000039457   -0.000057972
   10          8           0.003714990   -0.012176903    0.008312791
   11          1          -0.000293146   -0.000512480   -0.002243507
   12          8           0.001638051   -0.000801916    0.000808357
   13          1           0.000617400    0.002006865    0.000973637
 -------------------------------------------------------------------
 Cartesian Forces:  Max     0.012302973 RMS     0.003788719

 GradGradGradGradGradGradGradGradGradGradGradGradGradGradGradGradGradGrad
 Berny optimization.
 Internal  Forces:  Max     0.013012718 RMS     0.001910944
 Search for a saddle point.
 Step number   4 out of a maximum of  68
 All quantities printed in internal units (Hartrees-Bohrs-Radians)
 Swaping is turned off.
 Update second derivatives using D2CorX and points  2  3  4
     Eigenvalues ---   -0.09040   0.00011   0.00083   0.00253   0.00298
     Eigenvalues ---    0.02427   0.04406   0.04861   0.04920   0.05055
     Eigenvalues ---    0.05221   0.05826   0.11431   0.12538   0.12875
     Eigenvalues ---    0.13783   0.14685   0.15380   0.17137   0.17514
     Eigenvalues ---    0.18480   0.19714   0.28067   0.30018   0.33673
     Eigenvalues ---    0.34524   0.34710   0.35099   0.35520   0.39355
     Eigenvalues ---    0.45556   0.46273   0.825241000.000001000.00000
     Eigenvalues --- 1000.000001000.000001000.000001000.000001000.00000
     Eigenvalues --- 1000.000001000.000001000.000001000.000001000.00000
     Eigenvalues --- 1000.000001000.000001000.000001000.000001000.00000
     Eigenvalues --- 1000.000001000.000001000.000001000.000001000.00000
     Eigenvalues --- 1000.000001000.000001000.00000
 Eigenvectors required to have negative eigenvalues:
                          R1        R2        R3        R4        R5
         1              0.00053  -0.00713  -0.00019   0.00359   0.00097
                          R6        R7        R8        R9        R10
         1             -0.00197  -0.00012   0.00081  -0.00036  -0.07512
                          R11       R12       R13       R14       A1
         1              0.11251   0.02600   0.66700  -0.66029  -0.00840
                          A2        A3        A4        A5        A6
         1              0.00135  -0.00271   0.00035   0.00592  -0.01363
                          A7        A8        A9        A10       A11
         1             -0.00408   0.01325  -0.00088  -0.00214   0.00335
                          A12       A13       A14       A15       A16
         1              0.00136  -0.00086   0.00022  -0.00200   0.02303
                          A17       A18       A19       A20       D1
         1             -0.00970  -0.31174  -0.01367   0.00649   0.00298
                          D2        D3        D4        D5        D6
         1              0.00206  -0.00547  -0.00568  -0.00660  -0.01413
                          D7        D8        D9        D10       D11
         1             -0.00502  -0.00532  -0.00484  -0.00363  -0.00393
                          D12       D13       D14       D15       D16
         1             -0.00345   0.00935   0.00905   0.00953  -0.01260
                          D17       D18       D19       D20       D21
         1              0.01063   0.00029  -0.01316   0.01006  -0.00028
                          D22       D23       D24
         1             -0.01492   0.00831  -0.00203
 RFO step:  Lambda0=7.230645743D-07 Lambda=-8.39605236D-04.
 Linear search not attempted -- option 19 set.
 Iteration  1 RMS(Cart)=  0.00291462 RMS(Int)=  0.03010322
 Iteration  2 RMS(Cart)=  0.00018157 RMS(Int)=  0.02989478
 Iteration  3 RMS(Cart)=  0.00017868 RMS(Int)=  0.02968966
 Iteration  4 RMS(Cart)=  0.00017587 RMS(Int)=  0.02948778
 Iteration  5 RMS(Cart)=  0.00017312 RMS(Int)=  0.02928905
 Iteration  6 RMS(Cart)=  0.00017044 RMS(Int)=  0.02909339
 Iteration  7 RMS(Cart)=  0.00016783 RMS(Int)=  0.02890073
 Iteration  8 RMS(Cart)=  0.00016529 RMS(Int)=  0.02871099
 Iteration  9 RMS(Cart)=  0.00016280 RMS(Int)=  0.02852410
 Iteration 10 RMS(Cart)=  0.00016038 RMS(Int)=  0.02833999
 Iteration 11 RMS(Cart)=  0.00015802 RMS(Int)=  0.02815861
 Iteration 12 RMS(Cart)=  0.00015571 RMS(Int)=  0.02797987
 Iteration 13 RMS(Cart)=  0.00015345 RMS(Int)=  0.02780372
 Iteration 14 RMS(Cart)=  0.00015125 RMS(Int)=  0.02763011
 Iteration 15 RMS(Cart)=  0.00014909 RMS(Int)=  0.02745896
 Iteration 16 RMS(Cart)=  0.00014699 RMS(Int)=  0.02729023
 Iteration 17 RMS(Cart)=  0.00014494 RMS(Int)=  0.02712386
 Iteration 18 RMS(Cart)=  0.00014293 RMS(Int)=  0.02695980
 Iteration 19 RMS(Cart)=  0.00014096 RMS(Int)=  0.02679799
 Iteration 20 RMS(Cart)=  0.00013904 RMS(Int)=  0.02663839
 Iteration 21 RMS(Cart)=  0.00013716 RMS(Int)=  0.02648095
 Iteration 22 RMS(Cart)=  0.00013532 RMS(Int)=  0.02632563
 Iteration 23 RMS(Cart)=  0.00013352 RMS(Int)=  0.02617236
 Iteration 24 RMS(Cart)=  0.00013176 RMS(Int)=  0.02602113
[...]
    D1        2.72828   0.00000   0.00000  -0.00012  -0.00012   2.72816
    D2       -1.43249   0.00000   0.00000  -0.00010  -0.00010  -1.43259
    D3        0.69805   0.00000   0.00000  -0.00008  -0.00008   0.69796
    D4       -1.08522   0.00000   0.00000  -0.00008  -0.00008  -1.08531
    D5        1.03719   0.00000   0.00000  -0.00006  -0.00006   1.03713
    D6       -3.11546   0.00000   0.00000  -0.00004  -0.00004  -3.11550
    D7        1.04334   0.00000   0.00000   0.00102   0.00102   1.04436
    D8       -3.12300   0.00000   0.00000   0.00103   0.00103  -3.12197
    D9       -1.03200   0.00000   0.00000   0.00103   0.00103  -1.03097
   D10       -3.10310   0.00000   0.00000   0.00105   0.00105  -3.10205
   D11       -0.98625   0.00000   0.00000   0.00107   0.00107  -0.98519
   D12        1.10475   0.00000   0.00000   0.00106   0.00106   1.10581
   D13       -1.09394   0.00000   0.00000   0.00100   0.00100  -1.09293
   D14        1.02291   0.00000   0.00000   0.00102   0.00102   1.02393
   D15        3.11391   0.00000   0.00000   0.00101   0.00101   3.11492
   D16       -0.44059  -0.00002   0.00000   0.00025   0.00025  -0.44033
   D17        2.77985   0.00001   0.00000   0.00000   0.00000   2.77986
   D18       -1.87885   0.00000   0.00000   0.00169   0.00169  -1.87716
   D19       -2.49923  -0.00001   0.00000   0.00026   0.00026  -2.49897
   D20        0.72121   0.00002   0.00000   0.00000   0.00000   0.72122
   D21        2.34570   0.00000   0.00000   0.00169   0.00169   2.34739
   D22        1.76305  -0.00001   0.00000   0.00028   0.00028   1.76332
   D23       -1.29970   0.00002   0.00000   0.00002   0.00002  -1.29967
   D24        0.32478   0.00000   0.00000   0.00171   0.00171   0.32650
         Item               Value     Threshold  Converged?
 Maximum Force            0.000107     0.000450     YES
 RMS     Force            0.000016     0.000300     YES
 Maximum Displacement     0.001417     0.001800     YES
 RMS     Displacement     0.000443     0.001200     YES
 Predicted change in Energy=-2.107000D-08
 Optimization completed.
    -- Stationary point found.
                           ----------------------------
                           !   Optimized Parameters   !
                           ! (Angstroms and Degrees)  !
 --------------------------                            --------------------------
 ! Name  Definition              Value          Derivative Info.                !
 --------------------------------------------------------------------------------
 ! R1    R(1,2)                  1.0105         -DE/DX =    0.0                 !
 ! R2    R(1,3)                  1.4519         -DE/DX =    0.0                 !
 ! R3    R(1,11)                 1.0089         -DE/DX =    0.0                 !
 ! R4    R(3,4)                  1.0973         -DE/DX =    0.0                 !
 ! R5    R(3,5)                  1.5584         -DE/DX =    0.0                 !
 ! R6    R(3,6)                  1.4942         -DE/DX =    0.0                 !
 ! R7    R(5,7)                  1.0952         -DE/DX =    0.0                 !
 ! R8    R(5,8)                  1.0949         -DE/DX =    0.0                 !
 ! R9    R(5,9)                  1.095          -DE/DX =    0.0                 !
 ! R10   R(6,10)                 1.3073         -DE/DX =    0.0                 !
 ! R11   R(6,12)                 1.3052         -DE/DX =    0.0                 !
 ! R12   R(6,13)                 1.6076         -DE/DX =    0.0                 !
 ! R13   R(10,13)                1.3524         -DE/DX =    0.0                 !
 ! R14   R(12,13)                1.3592         -DE/DX =    0.0                 !
 ! A1    A(2,1,3)              116.281          -DE/DX =    0.0                 !
 ! A2    A(2,1,11)             115.5004         -DE/DX =    0.0                 !
 ! A3    A(3,1,11)             116.4937         -DE/DX =    0.0                 !
 ! A4    A(1,3,4)              109.3015         -DE/DX =    0.0                 !
 ! A5    A(1,3,5)              115.3809         -DE/DX =    0.0                 !
 ! A6    A(1,3,6)              109.0151         -DE/DX =    0.0                 !
 ! A7    A(4,3,5)              107.7694         -DE/DX =    0.0                 !
 ! A8    A(4,3,6)              106.7375         -DE/DX =    0.0                 !
 ! A9    A(5,3,6)              108.2934         -DE/DX =    0.0                 !
 ! A10   A(3,5,7)              110.2755         -DE/DX =    0.0                 !
 ! A11   A(3,5,8)              111.391          -DE/DX =    0.0                 !
 ! A12   A(3,5,9)              108.8738         -DE/DX =    0.0                 !
 ! A13   A(7,5,8)              109.0981         -DE/DX =    0.0                 !
 ! A14   A(7,5,9)              108.48           -DE/DX =    0.0                 !
 ! A15   A(8,5,9)              108.6598         -DE/DX =    0.0                 !
 ! A16   A(3,6,10)             125.5683         -DE/DX =    0.0                 !
 ! A17   A(3,6,12)             125.7624         -DE/DX =    0.0                 !
 ! A18   A(3,6,13)             177.1661         -DE/DX =    0.0001              !
 ! A19   A(10,6,12)            108.5453         -DE/DX =    0.0                 !
 ! A20   A(10,13,12)           102.9094         -DE/DX =    0.0                 !
 ! D1    D(2,1,3,4)            156.3192         -DE/DX =    0.0                 !
 ! D2    D(2,1,3,5)            -82.0756         -DE/DX =    0.0                 !
 ! D3    D(2,1,3,6)             39.9952         -DE/DX =    0.0                 !
 ! D4    D(11,1,3,4)           -62.1788         -DE/DX =    0.0                 !
 ! D5    D(11,1,3,5)            59.4265         -DE/DX =    0.0                 !
 ! D6    D(11,1,3,6)          -178.5027         -DE/DX =    0.0                 !
 ! D7    D(1,3,5,7)             59.7788         -DE/DX =    0.0                 !
 ! D8    D(1,3,5,8)           -178.935          -DE/DX =    0.0                 !
 ! D9    D(1,3,5,9)            -59.1294         -DE/DX =    0.0                 !
 ! D10   D(4,3,5,7)           -177.7944         -DE/DX =    0.0                 !
 ! D11   D(4,3,5,8)            -56.5081         -DE/DX =    0.0                 !
 ! D12   D(4,3,5,9)             63.2975         -DE/DX =    0.0                 !
 ! D13   D(6,3,5,7)            -62.678          -DE/DX =    0.0                 !
 ! D14   D(6,3,5,8)             58.6083         -DE/DX =    0.0                 !
 ! D15   D(6,3,5,9)            178.4139         -DE/DX =    0.0                 !
 ! D16   D(1,3,6,10)           -25.2437         -DE/DX =    0.0                 !
 ! D17   D(1,3,6,12)           159.2739         -DE/DX =    0.0                 !
 ! D18   D(1,3,6,13)          -107.6502         -DE/DX =    0.0                 !
 ! D19   D(4,3,6,10)          -143.1951         -DE/DX =    0.0                 !
 ! D20   D(4,3,6,12)            41.3225         -DE/DX =    0.0                 !
 ! D21   D(4,3,6,13)           134.3984         -DE/DX =    0.0                 !
 ! D22   D(5,3,6,10)           101.0152         -DE/DX =    0.0                 !
 ! D23   D(5,3,6,12)           -74.4672         -DE/DX =    0.0                 !
 ! D24   D(5,3,6,13)            18.6087         -DE/DX =    0.0                 !
 --------------------------------------------------------------------------------
 GradGradGradGradGradGradGradGradGradGradGradGradGradGradGradGradGradGrad


 Test job not archived.
 1|1|UNPC-UNK|Freq|RB3LYP|6-31G|C3H7N1O2|PCUSER|01-Apr-2016|0||#N Geom=
 AllCheck Guess=Read SCRF=Check Test GenChk RB3LYP/6-31G Freq||Ala-S-op
 t-freq-ts1-6-31g||0,1|N,-1.4127918781,-1.0738331354,-0.3625905812|H,-1
 .1714193974,-1.7156327179,0.3796875497|C,-0.6737877156,0.1754516621,-0
 .397915484|H,-0.6941840903,0.5802232895,-1.4176478504|C,-1.1922494739,
 1.2856785319,0.5649214119|C,0.7586852564,-0.0968869055,-0.0716194934|H
 ,-1.1520742899,0.9373532508,1.6024497875|H,-0.6014797603,2.2028649051,
 0.4718116256|H,-2.2338479044,1.5130005463,0.3152113445|O,1.1996454332,
 -1.1067289796,0.6317362517|H,-2.3942704861,-1.0227727859,-0.5906027057
 |O,1.7687071041,0.6744908302,-0.3688880651|H,2.2882855622,-0.355314471
 5,0.3500855589||Version=IA32W-G03RevE.01|State=1-A|HF=-323.5699863|RMS
 D=3.269e-009|RMSF=1.623e-005|ZeroPoint=0.1024751|Thermal=0.1094484|Dip
 ole=-1.0280927,0.29975,0.2238302|DipoleDeriv=-0.3886311,-0.0763253,0.1
 560563,-0.0480845,-0.7770907,-0.2996794,0.1137084,-0.3213499,-0.636366
 7,0.2296081,-0.060355,-0.0700452,-0.0452885,0.2609059,0.0600398,-0.061
 2513,0.1472955,0.1762718,0.1842163,0.2571368,-0.0398206,0.2707087,0.54
 24995,0.1316059,-0.0413792,0.0728433,0.3420047,0.0320465,-0.0129754,0.
 0213748,-0.0420265,-0.0141162,0.0458025,0.0092257,0.0502896,-0.0785762
 ,-0.0095422,0.0293494,0.0259877,-0.0993617,-0.041516,-0.06659,-0.07553
 29,-0.0502108,0.0343583,1.0167471,-0.0569404,-0.0208055,0.0532652,0.81
 72862,-0.3246852,0.0769039,-0.4008357,0.4435132,0.0756111,0.0172257,-0
 .013985,0.0111009,0.0324642,0.0821577,0.0159912,0.0201663,-0.1072557,0
 .032421,-0.1003135,0.0159131,-0.0767329,-0.088198,-0.0216559,0.0172473
 ,0.0027112,0.0575504,-0.1359105,0.0619341,-0.0371942,0.0549953,0.05600
 05,-0.0160549,-0.0332952,-0.0142445,0.0487216,-0.620341,0.0515128,-0.0
 285899,-0.0254122,-0.8016398,0.2242728,-0.026092,0.2828651,-0.5158248,
 0.0361525,-0.0195405,-0.0663632,0.0386274,0.2103509,0.100003,0.0244216
 ,0.1330551,0.3521959,-0.7406953,-0.1583013,0.1077154,-0.1637163,-0.698
 12,0.181493,0.046246,0.1743859,-0.4777346,0.2883176,0.0675926,-0.05024
 37,0.0719252,0.5011734,-0.0967093,-0.0661934,-0.0969711,0.3611422|Pola
 r=51.0893243,0.4706936,45.2143286,2.2882731,-4.9138103,33.7607362|PG=C
 01 [X(C3H7N1O2)]|NImag=1||0.67160254,0.04215243,0.50841229,0.21343751,
 -0.26718268,0.34752839,-0.08138020,0.04336925,-0.08259409,0.08247317,0
 .04595674,-0.19902873,0.19054627,-0.04852012,0.21999500,-0.09918346,0.
 22148998,-0.24132908,0.09045449,-0.21278317,0.24960660,-0.13071110,-0.
 05395781,-0.00794415,0.00483317,0.00592706,0.00123971,0.51531261,-0.07
 451882,-0.19043171,0.04537079,-0.01330619,-0.02023309,-0.00965865,0.02
 849013,0.47400742,-0.02889994,0.01632271,-0.07755681,0.01867314,0.0249
 5716,-0.00376945,0.03207944,-0.09735470,0.55249932,0.00230525,-0.01598
 251,0.01633897,-0.00293653,-0.00149826,0.00142718,-0.05309703,0.003302
 16,-0.01076524,0.05895244,-0.00090133,-0.02539012,0.02604774,-0.005432
 63,-0.00160462,0.00234235,0.00218051,-0.07432976,0.08321647,-0.0015401
 9,0.09987435,0.00085982,0.00276643,0.00561173,0.00073986,-0.00192268,0
 .00053915,-0.01270593,0.08705272,-0.27131443,0.00969623,-0.09194099,0.
 29503571,0.00603263,-0.02189257,-0.01073464,-0.00061473,-0.00019710,-0
 .00117790,-0.08985675,0.02400549,0.02503429,0.00221226,0.00120046,-0.0
 0035296,0.57062193,0.00122825,-0.03891075,-0.02045735,0.00012033,-0.00
 013904,-0.00165266,0.01016919,-0.09432993,-0.02476691,-0.00165172,0.00
 514507,0.00368148,0.03967469,0.50662125,-0.00205994,-0.00352461,0.0051
 8933,-0.00044996,0.00110669,0.00147493,0.01530035,-0.02233214,-0.10945
 314,0.01519982,-0.02533055,-0.02364781,0.02842707,-0.07090402,0.524996
 43,-0.03436148,-0.00540070,-0.00584531,0.00161726,-0.00075696,-0.00065
 167,-0.20212492,0.01133636,-0.03351991,-0.00361873,0.00333304,0.000072
 86,-0.01850165,0.02116273,0.00688490,0.78745188,-0.03757632,-0.0026567
 7,-0.01139163,-0.00516082,-0.00012636,0.00258751,0.02849476,-0.0768338
 2,0.00971888,0.01391764,-0.00400847,0.00500550,0.02775320,-0.00999281,
 0.00121891,0.00809775,0.52312878,-0.00153346,0.00049777,-0.00121787,0.
 00342344,0.00185693,0.00067042,-0.03345463,0.00216704,-0.09159839,-0.0
 3627103,0.00868175,-0.00858904,0.02335936,-0.00442685,0.00636039,0.087
 72726,-0.18368567,0.33342713,-0.00058122,-0.00028584,-0.00093281,0.000
 36933,0.00003472,-0.00028633,-0.00106541,-0.00350031,0.01324922,-0.000
 24318,0.00195857,0.00161433,-0.05095808,0.00341978,-0.01192616,0.00116
 331,-0.00090688,0.00249657,0.05140168,-0.00026381,0.00340424,0.0023727
 0,0.00031417,-0.00061113,-0.00007309,0.00146341,0.00511035,-0.02646037
 ,0.00203530,-0.00302581,-0.00346712,0.00216758,-0.07869800,0.08434398,
 -0.00133799,0.00111104,-0.00117449,-0.00581636,0.08306661,-0.00110612,
 0.00059243,0.00395606,-0.00002419,-0.00096602,-0.00042576,0.00166195,0
 .00758710,-0.02134863,0.00190068,-0.00316039,-0.00093033,-0.01208747,0
 .08248982,-0.28432355,-0.00207107,0.00118914,-0.00145773,0.01049556,-0
 .08894780,0.31207505,0.00083623,0.00229015,0.00120829,0.00004452,0.000
 08368,0.00009483,0.00548584,0.01113496,-0.00129716,0.00034327,-0.00056
 297,-0.00050735,-0.12937322,-0.12187702,0.01326882,0.00048638,0.001091
 02,-0.00019618,0.00093464,0.00282944,-0.00109384,0.13766011,0.00129908
 ,-0.00517747,-0.00464546,-0.00019305,0.00022886,-0.00040051,-0.0132325
 1,-0.01688230,0.00579363,0.00001653,0.00082251,-0.00025288,-0.11925593
 ,-0.23303118,0.02011210,-0.00212418,-0.00225035,0.00050457,-0.00563141
 ,-0.00798865,-0.00053540,0.13251668,0.25543388,0.00121883,-0.00472214,
 -0.00102883,0.00012208,-0.00073868,-0.00083030,-0.01257652,-0.01629451
 ,0.00268994,-0.00044048,0.00080469,0.00024313,0.01400159,0.02160956,-0
 .05401761,-0.00022280,-0.00020451,0.00054490,0.01812465,0.02714794,-0.
 00148244,-0.01534973,-0.02097780,0.05348683,0.00246924,-0.00080675,-0.
 00010964,-0.00005251,-0.00000581,-0.00001676,-0.01266364,0.00131647,-0
 .00351243,0.00041068,-0.00021440,0.00032291,-0.28893679,0.05030425,-0.
 06053502,0.00105427,0.00016935,0.00209947,-0.00083545,-0.00076134,0.00
 129548,-0.01619314,0.00530671,-0.00485210,0.31480129,-0.00075505,0.002
 92168,0.00184914,0.00021911,-0.00018172,-0.00008790,0.02628757,-0.0089
 8226,0.00202015,-0.00103202,0.00088698,0.00070744,0.04938992,-0.058114
 24,0.01511665,-0.00124696,-0.00327402,-0.00390992,0.01074215,-0.002299
 87,0.00257942,-0.02778382,0.00661986,-0.00724788,-0.05664745,0.0623392
 0,0.00000227,0.00260468,0.00032134,-0.00001052,-0.00003026,0.00006639,
 0.02388949,-0.00886789,0.00208944,-0.00010951,0.00089391,0.00125082,-0
 .06154926,0.01427170,-0.06295647,-0.00064030,-0.00326408,-0.00378108,-
 0.03155125,0.00603263,-0.00692093,0.00335923,-0.00015213,0.00035468,0.
 06550052,-0.01169635,0.06764907,-0.00068278,0.00221317,-0.00167218,0.0
 0246738,0.00162616,-0.00025672,-0.00518601,0.02538874,-0.02132909,-0.0
 0615972,0.00116545,-0.00103110,-0.00160119,-0.00103778,-0.00215190,-0.
 15518548,0.03328749,-0.03342929,0.00031976,-0.00054604,0.00016942,-0.0
 0012810,0.00092982,0.00024630,-0.00004735,0.00081133,0.00076516,0.0910
 5084,-0.00256449,0.00267748,-0.00006470,0.00282834,-0.00003090,-0.0016
 0088,0.00215760,-0.00642540,0.00803652,0.00079681,0.00138390,-0.002130
 75,-0.00070822,0.00181226,0.00135831,0.07633401,-0.29016326,0.14825343
 ,0.00003153,-0.00001882,-0.00062703,-0.00028550,0.00088754,0.00028004,
 0.00031409,0.00004308,-0.00018472,-0.05555277,0.41180607,0.00010406,0.
 00083794,0.00070233,-0.00067003,-0.00089170,-0.00107882,-0.00327640,0.
 01031989,0.00448112,0.00047043,-0.00033504,0.00056514,-0.00169908,-0.0
 0086083,-0.00347325,-0.06173678,0.14078267,-0.16785085,-0.00072420,0.0
 0038723,0.00099404,0.00023327,-0.00039714,-0.00001773,-0.00015646,0.00
 051963,0.00126441,0.04160554,-0.23172289,0.20040289,-0.43008508,0.0073
 2551,-0.11782085,-0.00521231,-0.00252970,0.00801877,-0.01423687,0.0090
 1776,-0.00029188,-0.00003150,-0.00012221,0.00029242,0.00170568,0.00109
 438,-0.00007375,0.00001324,-0.00228425,0.00086433,0.00006937,-0.000149
 22,-0.00001332,0.00000012,0.00034916,0.00025117,0.00030066,-0.00052089
 ,-0.00051621,-0.00001222,-0.00036183,0.00006552,0.44842738,0.02435765,
 -0.05448857,0.03713796,0.02500960,0.00164011,0.00011030,-0.03696530,-0
 .00064583,-0.01021307,0.00028828,0.00063794,0.00034138,-0.00073277,0.0
 0206201,0.00009136,-0.00124736,-0.00679362,0.00122028,0.00002144,-0.00
 021356,-0.00021479,0.00048953,0.00021304,0.00032846,0.00087110,-0.0008
 2932,-0.00006325,0.00172428,0.00113355,-0.00007485,-0.01165365,0.05673
 807,-0.08316785,0.03131120,-0.04319963,-0.02876695,-0.00089760,-0.0051
 9402,0.00026823,-0.00346141,0.00033369,0.00017358,-0.00007619,-0.00010
 407,-0.00008992,0.00111570,-0.00002677,0.00075460,0.00168964,-0.000056
 18,-0.00034130,-0.00029360,-0.00036261,0.00045056,0.00043474,0.0001496
 6,0.00012190,-0.00071151,0.00018298,-0.00034611,-0.00025312,0.00017700
 ,0.10949245,-0.02855588,0.04776502,-0.00558308,0.00079212,-0.00342426,
 -0.00039283,0.00029174,0.00016751,-0.01949433,-0.01893488,0.01036172,0
 .00134705,-0.00112389,0.00089687,-0.00098616,-0.00281684,-0.00202686,-
 0.28456262,-0.11531116,0.03419867,-0.00036441,-0.00002056,0.00063917,-
 0.00004405,0.00006478,-0.00047731,-0.00038726,0.00058849,0.00081868,0.
 07266674,-0.02209032,0.01857061,-0.00091639,-0.00155749,0.00114024,0.2
 8002600,0.00238517,0.00054944,0.00047339,0.00313372,0.00057434,-0.0004
 2250,0.00120071,0.01146974,0.00032427,-0.00097247,0.00051938,-0.001150
 00,-0.00060134,-0.00248751,-0.00103851,-0.15587453,-0.23033759,0.07059
 179,0.00009699,-0.00006494,-0.00018864,-0.00020350,0.00199663,0.000286
 02,0.00051509,0.00088172,0.00035332,-0.08526268,-0.09865835,0.07742887
 ,-0.00003088,0.00135292,-0.00053419,0.22494994,0.31606645,-0.00117335,
 -0.00134268,0.00098698,-0.00199329,-0.00058271,0.00038931,-0.00487076,
 -0.00101695,0.00800731,0.00259077,-0.00132038,0.00183928,-0.00155818,-
 0.00046293,0.00038615,0.05884046,0.07608420,-0.10754016,-0.00046800,0.
 00025423,0.00056307,-0.00004641,0.00003646,-0.00034363,-0.00016300,0.0
 0042183,0.00029296,0.05658407,0.08749279,0.00440332,-0.00037810,-0.000
 71887,0.00046481,-0.10050709,-0.12488382,0.10964496,0.00013904,0.00018
 354,0.00009316,-0.00121571,-0.00041215,0.00017033,0.00280445,-0.003731
 87,0.00021784,0.00051576,0.00005959,0.00010203,0.00025608,0.00020976,0
 .00014262,-0.09343146,0.04842822,-0.04928452,-0.00021034,0.00008543,0.
 00023375,-0.00005259,-0.00004565,-0.00004567,0.00007999,-0.00005237,0.
 00004169,0.00249813,-0.00089924,0.00721354,-0.00002208,-0.00060532,0.0
 0031058,-0.04130867,0.01066378,-0.00685713,0.12994739,-0.00079948,-0.0
 0188102,-0.00005618,-0.00238170,-0.00048274,0.00014923,-0.00221532,-0.
 00149341,0.00840525,0.00232043,-0.00091137,0.00130948,-0.00080341,0.00
 006285,-0.00021818,0.04772480,0.10219724,-0.04057662,-0.00016437,0.000
 22854,0.00020215,0.00027736,-0.00087237,-0.00027119,-0.00036130,-0.000
 01108,0.00010246,0.07525284,-0.02444717,0.00400620,-0.00013417,-0.0008
 0674,0.00023222,-0.06483194,-0.00186224,-0.03396118,-0.05388374,-0.069
 72049,0.00150163,0.00034896,0.00003606,0.00109601,0.00034577,-0.000119
 39,0.00038921,0.00648871,0.00494003,-0.00021139,0.00017662,-0.00049926
 ,-0.00157290,0.00036330,-0.00050862,-0.04959226,-0.03973057,0.04108844
 ,0.00024973,-0.00012224,-0.00033625,-0.00012434,0.00047983,0.00025141,
 0.00000514,0.00043930,0.00018638,-0.03915409,-0.00883701,-0.04056961,0
 .00010945,0.00061096,-0.00012987,0.03964205,-0.02123998,-0.01909436,0.
 04766177,0.06067634,0.01475505||-0.00000017,-0.00000012,0.00000193,-0.
 00000279,-0.00000129,0.00000334,-0.00000214,-0.00000348,0.00002003,-0.
 00000007,-0.00000331,-0.00000053,-0.00000125,0.00000078,-0.00000252,0.
 00002548,0.00001875,-0.00001175,-0.00000542,0.00000109,-0.00000224,0.0
 0000518,-0.00000174,0.00000061,0.00000246,0.00000623,-0.00000712,0.000
 02195,0.00002488,-0.00003494,-0.00000290,0.00000030,-0.00000074,-0.000
 01346,-0.00000821,-0.00002473,-0.00002689,-0.00003389,0.00005867|||@


 A leading authority is anyone who has guessed right more than once.
 -- Frank A. Clark
 Job cpu time:  0 days  0 hours  1 minutes 58.0 seconds.
 File lengths (MBytes):  RWF=     16 Int=      0 D2E=      0 Chk=      7 Scr=      1
 Normal termination of Gaussian 03 at Fri Apr 01 15:48:01 2016.
