 Entering Link 1 = c:\G09w02\l1.exe PID=      3828.
  
 Copyright (c) 1988,1990,1992,1993,1995,1998,2003,2009,2010,
            Gaussian, Inc.  All Rights Reserved.
  
 This is part of the Gaussian(R) 09 program.  It is based on
 the Gaussian(R) 03 system (copyright 2003, Gaussian, Inc.),
 the Gaussian(R) 98 system (copyright 1998, Gaussian, Inc.),
 the Gaussian(R) 94 system (copyright 1995, Gaussian, Inc.),
 the Gaussian 92(TM) system (copyright 1992, Gaussian, Inc.),
 the Gaussian 90(TM) system (copyright 1990, Gaussian, Inc.),
 the Gaussian 88(TM) system (copyright 1988, Gaussian, Inc.),
 the Gaussian 86(TM) system (copyright 1986, Carnegie Mellon
 University), and the Gaussian 82(TM) system (copyright 1983,
 Carnegie Mellon University). Gaussian is a federally registered
 trademark of Gaussian, Inc.
  
 This software contains proprietary and confidential information,
 including trade secrets, belonging to Gaussian, Inc.
  
 This software is provided under written license and may be
 used, copied, transmitted, or stored only in accord with that
 written license.
  
 The following legend is applicable only to US Government
 contracts under FAR:
  
                    RESTRICTED RIGHTS LEGEND
  
 Use, reproduction and disclosure by the US Government is
 subject to restrictions as set forth in subparagraphs (a)
 and (c) of the Commercial Computer Software - Restricted
 Rights clause in FAR 52.227-19.
  
 Gaussian, Inc.
 340 Quinnipiac St., Bldg. 40, Wallingford CT 06492
  
  
 ---------------------------------------------------------------
 Warning -- This program may not be used in any manner that
 competes with the business of Gaussian, Inc. or will provide
 assistance to any competitor of Gaussian, Inc.  The licensee
 of this program is prohibited from giving any competitor of
 Gaussian, Inc. access to this program.  By using this program,
 the user acknowledges that Gaussian, Inc. is engaged in the
 business of creating and licensing software in the field of
 computational chemistry and represents and warrants to the
 licensee that it is not a competitor of Gaussian, Inc. and that
 it will not use this program in any manner prohibited above.
 ---------------------------------------------------------------
  

 Cite this work as:
 Gaussian 09, Revision B.01,
 M. J. Frisch, G. W. Trucks, H. B. Schlegel, G. E. Scuseria, 
 M. A. Robb, J. R. Cheeseman, G. Scalmani, V. Barone, B. Mennucci, 
 G. A. Petersson, H. Nakatsuji, M. Caricato, X. Li, H. P. Hratchian, 
 A. F. Izmaylov, J. Bloino, G. Zheng, J. L. Sonnenberg, M. Hada, 
 M. Ehara, K. Toyota, R. Fukuda, J. Hasegawa, M. Ishida, T. Nakajima, 
 Y. Honda, O. Kitao, H. Nakai, T. Vreven, J. A. Montgomery, Jr., 
 J. E. Peralta, F. Ogliaro, M. Bearpark, J. J. Heyd, E. Brothers, 
 K. N. Kudin, V. N. Staroverov, T. Keith, R. Kobayashi, J. Normand, 
 K. Raghavachari, A. Rendell, J. C. Burant, S. S. Iyengar, J. Tomasi, 
 M. Cossi, N. Rega, J. M. Millam, M. Klene, J. E. Knox, J. B. Cross, 
 V. Bakken, C. Adamo, J. Jaramillo, R. Gomperts, R. E. Stratmann, 
 O. Yazyev, A. J. Austin, R. Cammi, C. Pomelli, J. W. Ochterski, 
 R. L. Martin, K. Morokuma, V. G. Zakrzewski, G. A. Voth, 
 P. Salvador, J. J. Dannenberg, S. Dapprich, A. D. Daniels, 
 O. Farkas, J. B. Foresman, J. V. Ortiz, J. Cioslowski, 
 and D. J. Fox, Gaussian, Inc., Wallingford CT, 2010.
 
 ******************************************
 Gaussian 09:  IA32W-G09RevB.01 12-Aug-2010
                07-Apr-2016 
 ******************************************
 %chk=E:\YangJ\Amiano\Asp\ts1\s\Asp-S-ts1-p-6-31++gdp-cpcm.chk
 ---------------------------------------------------------
 # opt freq rb3lyp/6-311++g(d,p) scrf=(cpcm,solvent=water)
 ---------------------------------------------------------
 1/14=-1,18=20,19=15,26=3,38=1/1,3;
 2/9=110,12=2,17=6,18=5,40=1/2;
 3/5=4,6=6,7=1111,11=2,16=1,25=1,30=1,70=2101,71=1,72=1,74=-5,116=1/1,2,3;
 4//1;
 5/5=2,38=5,53=1/2;
 6/7=2,8=2,9=2,10=2,28=1/1;
 7//1,2,3,16;
 1/14=-1,18=20,19=15/3(2);
 2/9=110/2;
 99//99;
 2/9=110/2;
 3/5=4,6=6,7=1111,11=2,16=1,25=1,30=1,70=2105,71=1,72=1,74=-5,116=1/1,2,3;
 4/5=5,16=3/1;
 5/5=2,38=5,53=1/2;
 7//1,2,3,16;
 1/14=-1,18=20,19=15/3(-5);
 2/9=110/2;
 6/7=2,8=2,9=2,10=2,19=2,28=1/1;
 99/9=1/99;
 ----------------------------
 Asp-S-opt-freq-ts1-6-31++gdp
 ----------------------------
 Symbolic Z-matrix:
 Charge =  0 Multiplicity = 1
 N                    -1.55813   1.80006  -0.10029 
 H                    -1.76221   1.89173   0.89098 
 C                    -0.70975   0.6337   -0.36877 
 H                    -0.61413   0.53148  -1.45029 
 C                     0.66975   0.8469    0.25406 
 C                    -1.37208  -0.62909   0.13716 
 H                     1.07562   1.79606  -0.10396 
 H                     0.59987   0.92809   1.34318 
 C                     1.64687  -0.25323  -0.07616 
 O                    -2.15621  -1.36849  -0.54655 
 O                     1.38571  -1.25029  -0.71215 
 H                    -2.44274   1.72935  -0.59314 
 O                    -1.314    -1.06666   1.33676 
 H                    -1.81485  -1.964     1.72912 
 O                     2.86904  -0.00128   0.42421 
 H                     3.45786  -0.73642   0.18864 
 

 GradGradGradGradGradGradGradGradGradGradGradGradGradGradGradGradGradGrad
 Berny optimization.
 Initialization pass.
                           ----------------------------
                           !    Initial Parameters    !
                           ! (Angstroms and Degrees)  !
 --------------------------                            --------------------------
 ! Name  Definition              Value          Derivative Info.                !
 --------------------------------------------------------------------------------
 ! R1    R(1,2)                  1.0162         estimate D2E/DX2                !
 ! R2    R(1,3)                  1.467          estimate D2E/DX2                !
 ! R3    R(1,12)                 1.0151         estimate D2E/DX2                !
 ! R4    R(3,4)                  1.0905         estimate D2E/DX2                !
 ! R5    R(3,5)                  1.5285         estimate D2E/DX2                !
 ! R6    R(3,6)                  1.513          estimate D2E/DX2                !
 ! R7    R(5,7)                  1.0926         estimate D2E/DX2                !
 ! R8    R(5,8)                  1.0944         estimate D2E/DX2                !
 ! R9    R(5,9)                  1.508          estimate D2E/DX2                !
 ! R10   R(6,10)                 1.2763         estimate D2E/DX2                !
 ! R11   R(6,13)                 1.2782         estimate D2E/DX2                !
 ! R12   R(9,11)                 1.2111         estimate D2E/DX2                !
 ! R13   R(9,15)                 1.3445         estimate D2E/DX2                !
 ! R14   R(13,14)                1.1            estimate D2E/DX2                !
 ! R15   R(15,16)                0.9709         estimate D2E/DX2                !
 ! A1    A(2,1,3)              111.4917         estimate D2E/DX2                !
 ! A2    A(2,1,12)             107.7507         estimate D2E/DX2                !
 ! A3    A(3,1,12)             111.0826         estimate D2E/DX2                !
 ! A4    A(1,3,4)              107.8617         estimate D2E/DX2                !
 ! A5    A(1,3,5)              109.6607         estimate D2E/DX2                !
 ! A6    A(1,3,6)              110.4388         estimate D2E/DX2                !
 ! A7    A(4,3,5)              109.7574         estimate D2E/DX2                !
 ! A8    A(4,3,6)              106.9639         estimate D2E/DX2                !
 ! A9    A(5,3,6)              112.0384         estimate D2E/DX2                !
 ! A10   A(3,5,7)              108.8383         estimate D2E/DX2                !
 ! A11   A(3,5,8)              110.992          estimate D2E/DX2                !
 ! A12   A(3,5,9)              113.1915         estimate D2E/DX2                !
 ! A13   A(7,5,8)              106.5803         estimate D2E/DX2                !
 ! A14   A(7,5,9)              108.7412         estimate D2E/DX2                !
 ! A15   A(8,5,9)              108.2655         estimate D2E/DX2                !
 ! A16   A(3,6,10)             124.9813         estimate D2E/DX2                !
 ! A17   A(3,6,13)             125.4243         estimate D2E/DX2                !
 ! A18   A(10,6,13)            109.4105         estimate D2E/DX2                !
 ! A19   A(5,9,11)             125.1593         estimate D2E/DX2                !
 ! A20   A(5,9,15)             111.766          estimate D2E/DX2                !
 ! A21   A(11,9,15)            123.0747         estimate D2E/DX2                !
 ! A22   A(6,13,14)            126.3924         estimate D2E/DX2                !
 ! A23   A(9,15,16)            108.6093         estimate D2E/DX2                !
 ! D1    D(2,1,3,4)            174.2005         estimate D2E/DX2                !
 ! D2    D(2,1,3,5)            -66.3091         estimate D2E/DX2                !
 ! D3    D(2,1,3,6)             57.6342         estimate D2E/DX2                !
 ! D4    D(12,1,3,4)            54.0045         estimate D2E/DX2                !
 ! D5    D(12,1,3,5)           173.4949         estimate D2E/DX2                !
 ! D6    D(12,1,3,6)           -62.5617         estimate D2E/DX2                !
 ! D7    D(1,3,5,7)            -53.9487         estimate D2E/DX2                !
 ! D8    D(1,3,5,8)             63.0426         estimate D2E/DX2                !
 ! D9    D(1,3,5,9)           -174.9789         estimate D2E/DX2                !
 ! D10   D(4,3,5,7)             64.3723         estimate D2E/DX2                !
 ! D11   D(4,3,5,8)           -178.6365         estimate D2E/DX2                !
 ! D12   D(4,3,5,9)            -56.6579         estimate D2E/DX2                !
 ! D13   D(6,3,5,7)           -176.9518         estimate D2E/DX2                !
 ! D14   D(6,3,5,8)            -59.9605         estimate D2E/DX2                !
 ! D15   D(6,3,5,9)             62.018          estimate D2E/DX2                !
 ! D16   D(1,3,6,10)            90.2335         estimate D2E/DX2                !
 ! D17   D(1,3,6,13)           -84.3091         estimate D2E/DX2                !
 ! D18   D(4,3,6,10)           -26.8891         estimate D2E/DX2                !
 ! D19   D(4,3,6,13)           158.5683         estimate D2E/DX2                !
 ! D20   D(5,3,6,10)          -147.2043         estimate D2E/DX2                !
 ! D21   D(5,3,6,13)            38.2531         estimate D2E/DX2                !
 ! D22   D(3,5,9,11)            -3.3844         estimate D2E/DX2                !
 ! D23   D(3,5,9,15)           176.622          estimate D2E/DX2                !
 ! D24   D(7,5,9,11)          -124.4695         estimate D2E/DX2                !
 ! D25   D(7,5,9,15)            55.5369         estimate D2E/DX2                !
 ! D26   D(8,5,9,11)           120.107          estimate D2E/DX2                !
 ! D27   D(8,5,9,15)           -59.8866         estimate D2E/DX2                !
 ! D28   D(3,6,13,14)          177.9063         estimate D2E/DX2                !
 ! D29   D(10,6,13,14)           2.6454         estimate D2E/DX2                !
 ! D30   D(5,9,15,16)          179.7933         estimate D2E/DX2                !
 ! D31   D(11,9,15,16)          -0.2005         estimate D2E/DX2                !
 --------------------------------------------------------------------------------
 Trust Radius=3.00D-01 FncErr=1.00D-07 GrdErr=1.00D-06
 Number of steps in this run=     79 maximum allowed number of steps=    100.
 GradGradGradGradGradGradGradGradGradGradGradGradGradGradGradGradGradGrad

                          Input orientation:                          
 ---------------------------------------------------------------------
 Center     Atomic      Atomic             Coordinates (Angstroms)
 Number     Number       Type             X           Y           Z
 ---------------------------------------------------------------------
      1          7           0       -1.558130    1.800064   -0.100291
      2          1           0       -1.762212    1.891727    0.890984
      3          6           0       -0.709752    0.633701   -0.368770
      4          1           0       -0.614130    0.531481   -1.450291
      5          6           0        0.669747    0.846895    0.254057
      6          6           0       -1.372083   -0.629092    0.137163
      7          1           0        1.075619    1.796060   -0.103961
      8          1           0        0.599873    0.928092    1.343181
      9          6           0        1.646867   -0.253226   -0.076158
     10          8           0       -2.156213   -1.368488   -0.546551
     11          8           0        1.385713   -1.250287   -0.712154
     12          1           0       -2.442741    1.729350   -0.593140
     13          8           0       -1.314002   -1.066664    1.336764
     14          1           0       -1.814846   -1.963999    1.729122
     15          8           0        2.869044   -0.001276    0.424208
     16          1           0        3.457859   -0.736417    0.188637
 ---------------------------------------------------------------------
                    Distance matrix (angstroms):
                    1          2          3          4          5
     1  N    0.000000
     2  H    1.016208   0.000000
     3  C    1.467048   2.068159   0.000000
     4  H    2.079168   2.941076   1.090541   0.000000
     5  C    2.448985   2.722457   1.528523   2.156995   0.000000
     6  C    2.447815   2.659883   1.513042   2.107471   2.522156
     7  H    2.633755   3.008713   2.146800   2.503401   1.092622
     8  H    2.738781   2.590853   2.175445   3.071578   1.094379
     9  C    3.806388   4.142222   2.534939   2.759731   1.508003
    10  O    3.255238   3.584794   2.476412   2.608572   3.678987
    11  O    4.283133   4.727762   2.838714   2.778294   2.417508
    12  H    1.015105   1.640765   2.062532   2.348066   3.344256
    13  O    3.216031   3.025176   2.482983   3.288094   2.961287
    14  H    4.192950   3.946121   3.517162   4.216374   4.031147
    15  O    4.808305   5.024925   3.720187   3.991250   2.363314
    16  H    5.628264   5.886389   4.422319   4.568889   3.206981
                    6          7          8          9         10
     6  C    0.000000
     7  H    3.454091   0.000000
     8  H    2.787097   1.753261   0.000000
     9  C    3.049728   2.127597   2.122789   0.000000
    10  O    1.276335   4.544776   4.054797   3.991052   0.000000
    11  O    2.951722   3.121904   3.096334   1.211125   3.547765
    12  H    2.691078   3.552830   3.694435   4.574142   3.111410
    13  O    1.278235   3.997645   2.764419   3.380056   2.085016
    14  H    2.124229   5.084587   3.787349   4.262539   2.376942
    15  O    4.296941   2.593406   2.618659   1.344456   5.297627
    16  H    4.831408   3.489143   3.503091   1.892956   5.697176
                   11         12         13         14         15
    11  O    0.000000
    12  H    4.852779   0.000000
    13  O    3.394148   3.579983   0.000000
    14  H    4.088128   4.407718   1.100000   0.000000
    15  O    2.247580   5.678479   4.411993   5.243464   0.000000
    16  H    2.317170   6.442691   4.919138   5.628630   0.970891
                   16
    16  H    0.000000
 Stoichiometry    C4H7NO4
 Framework group  C1[X(C4H7NO4)]
 Deg. of freedom    42
 Full point group                 C1      NOp   1
 Largest Abelian subgroup         C1      NOp   1
 Largest concise Abelian subgroup C1      NOp   1
                         Standard orientation:                         
 ---------------------------------------------------------------------
 Center     Atomic      Atomic             Coordinates (Angstroms)
 Number     Number       Type             X           Y           Z
 ---------------------------------------------------------------------
      1          7           0       -1.493558    1.932704   -0.110260
      2          1           0       -1.707137    1.985154    0.881864
      3          6           0       -0.639942    0.779422   -0.416052
      4          1           0       -0.533948    0.719732   -1.499787
      5          6           0        0.733151    0.970874    0.227643
      6          6           0       -1.303993   -0.503499    0.033891
      7          1           0        1.140112    1.934113   -0.089179
      8          1           0        0.652882    1.009311    1.318397
      9          6           0        1.715925   -0.113547   -0.136031
     10          8           0       -2.079929   -1.217180   -0.685562
     11          8           0        1.463103   -1.085515   -0.812923
     12          1           0       -2.373342    1.879533   -0.613838
     13          8           0       -1.256120   -0.987494    1.215983
     14          1           0       -1.758493   -1.900475    1.568244
     15          8           0        2.932759    0.121102    0.385328
     16          1           0        3.525495   -0.603094    0.126804
 ---------------------------------------------------------------------
 Rotational constants (GHZ):      2.4778119      1.1337508      0.9357636
 Standard basis: 6-311++G(d,p) (5D, 7F)
 There are   247 symmetry adapted basis functions of A   symmetry.
 Integral buffers will be    262144 words long.
 Raffenetti 2 integral format.
 Two-electron integral symmetry is turned on.
   247 basis functions,   387 primitive gaussians,   256 cartesian basis functions
    35 alpha electrons       35 beta electrons
       nuclear repulsion energy       469.8585064756 Hartrees.
 NAtoms=   16 NActive=   16 NUniq=   16 SFac= 1.00D+00 NAtFMM=   50 NAOKFM=F Big=F
 ------------------------------------------------------------------------------
 Polarizable Continuum Model (PCM)
 =================================
 Model                : C-PCM.
 Atomic radii         : UFF (Universal Force Field).
 Polarization charges : Total charges.
 Charge compensation  : None.
 Solution method      : Matrix inversion.
 Cavity type          : Scaled VdW (van der Waals Surface) (Alpha=1.100).
 Cavity algorithm     : GePol (No added spheres)
                        Default sphere list used, NSphG=   16.
                        Lebedev-Laikov grids with approx.  5.0 points / Ang**2.
                        Smoothing algorithm: Karplus/York (Gamma=1.0000).
                        Polarization charges: spherical gaussians, with
                                              point-specific exponents (IZeta= 3).
                        Self-potential: point-specific (ISelfS= 7).
                        Self-field    : sphere-specific E.n sum rule (ISelfD= 2).
 1st derivatives      : Analytical E(r).r(x)/FMM algorithm (CHGder, D1EAlg=3).
                        Cavity 1st derivative terms included.
 Solvent              : Water, Eps=  78.355300 Eps(inf)=   1.777849
 ------------------------------------------------------------------------------
 Spheres list:
 ISph  on   Nord    Re0     Alpha      Xe            Ye            Ze
    1   N      1    1.830   1.100     -1.493558      1.932704     -0.110260
    2   H      2    1.443   1.100     -1.707137      1.985154      0.881864
    3   C      3    1.926   1.100     -0.639942      0.779422     -0.416052
    4   H      4    1.443   1.100     -0.533948      0.719732     -1.499787
    5   C      5    1.926   1.100      0.733151      0.970874      0.227643
    6   C      6    1.926   1.100     -1.303993     -0.503499      0.033891
    7   H      7    1.443   1.100      1.140112      1.934113     -0.089179
    8   H      8    1.443   1.100      0.652882      1.009311      1.318397
    9   C      9    1.926   1.100      1.715925     -0.113547     -0.136031
   10   O     10    1.750   1.100     -2.079929     -1.217180     -0.685562
   11   O     11    1.750   1.100      1.463103     -1.085515     -0.812923
   12   H     12    1.443   1.100     -2.373342      1.879533     -0.613838
   13   O     13    1.750   1.100     -1.256120     -0.987494      1.215983
   14   H     14    1.443   1.100     -1.758493     -1.900475      1.568244
   15   O     15    1.750   1.100      2.932759      0.121102      0.385328
   16   H     16    1.443   1.100      3.525495     -0.603094      0.126804
 ------------------------------------------------------------------------------
 One-electron integrals computed using PRISM.
 NBasis=   247 RedAO= T  NBF=   247
 NBsUse=   247 1.00D-06 NBFU=   247
 Harris functional with IExCor=  402 diagonalized for initial guess.
 ExpMin= 3.60D-02 ExpMax= 8.59D+03 ExpMxC= 1.30D+03 IAcc=3 IRadAn=         0 AccDes= 0.00D+00
 HarFok:  IExCor=  402 AccDes= 0.00D+00 IRadAn=         0 IDoV= 1
 ScaDFX=  1.000000  1.000000  1.000000  1.000000
 FoFCou: FMM=F IPFlag=           0 FMFlag=      100000 FMFlg1=           0
         NFxFlg=           0 DoJE=T BraDBF=F KetDBF=T FulRan=T
         Omega=  0.000000  0.000000  1.000000  0.000000  0.000000 ICntrl=     500 IOpCl=  0
         NMat0=    1 NMatS0=    1 NMatT0=    0 NMatD0=    1 NMtDS0=    0 NMtDT0=    0
         I1Cent=           4 NGrid=           0.
 Petite list used in FoFCou.
 Initial guess orbital symmetries:
       Occupied  (A) (A) (A) (A) (A) (A) (A) (A) (A) (A) (A) (A)
                 (A) (A) (A) (A) (A) (A) (A) (A) (A) (A) (A) (A)
                 (A) (A) (A) (A) (A) (A) (A) (A) (A) (A) (A)
       Virtual   (A) (A) (A) (A) (A) (A) (A) (A) (A) (A) (A) (A)
                 (A) (A) (A) (A) (A) (A) (A) (A) (A) (A) (A) (A)
                 (A) (A) (A) (A) (A) (A) (A) (A) (A) (A) (A) (A)
                 (A) (A) (A) (A) (A) (A) (A) (A) (A) (A) (A) (A)
                 (A) (A) (A) (A) (A) (A) (A) (A) (A) (A) (A) (A)
                 (A) (A) (A) (A) (A) (A) (A) (A) (A) (A) (A) (A)
                 (A) (A) (A) (A) (A) (A) (A) (A) (A) (A) (A) (A)
                 (A) (A) (A) (A) (A) (A) (A) (A) (A) (A) (A) (A)
                 (A) (A) (A) (A) (A) (A) (A) (A) (A) (A) (A) (A)
                 (A) (A) (A) (A) (A) (A) (A) (A) (A) (A) (A) (A)
                 (A) (A) (A) (A) (A) (A) (A) (A) (A) (A) (A) (A)
                 (A) (A) (A) (A) (A) (A) (A) (A) (A) (A) (A) (A)
                 (A) (A) (A) (A) (A) (A) (A) (A) (A) (A) (A) (A)
                 (A) (A) (A) (A) (A) (A) (A) (A) (A) (A) (A) (A)
                 (A) (A) (A) (A) (A) (A) (A) (A) (A) (A) (A) (A)
                 (A) (A) (A) (A) (A) (A) (A) (A) (A) (A) (A) (A)
                 (A) (A) (A) (A) (A) (A) (A) (A) (A) (A) (A) (A)
                 (A) (A) (A) (A) (A) (A) (A) (A)
 The electronic state of the initial guess is 1-A.
 Requested convergence on RMS density matrix=1.00D-08 within 128 cycles.
 Requested convergence on MAX density matrix=1.00D-06.
 Requested convergence on             energy=1.00D-06.
 No special actions if energy rises.
 Error on total polarization charges =  0.01234
 SCF Done:  E(RB3LYP) =  -512.457844912     A.U. after   13 cycles
             Convg  =    0.8898D-08             -V/T =  2.0039

 **********************************************************************

            Population analysis using the SCF density.

 **********************************************************************

 Orbital symmetries:
       Occupied  (A) (A) (A) (A) (A) (A) (A) (A) (A) (A) (A) (A)
                 (A) (A) (A) (A) (A) (A) (A) (A) (A) (A) (A) (A)
                 (A) (A) (A) (A) (A) (A) (A) (A) (A) (A) (A)
       Virtual   (A) (A) (A) (A) (A) (A) (A) (A) (A) (A) (A) (A)
                 (A) (A) (A) (A) (A) (A) (A) (A) (A) (A) (A) (A)
                 (A) (A) (A) (A) (A) (A) (A) (A) (A) (A) (A) (A)
                 (A) (A) (A) (A) (A) (A) (A) (A) (A) (A) (A) (A)
                 (A) (A) (A) (A) (A) (A) (A) (A) (A) (A) (A) (A)
                 (A) (A) (A) (A) (A) (A) (A) (A) (A) (A) (A) (A)
                 (A) (A) (A) (A) (A) (A) (A) (A) (A) (A) (A) (A)
                 (A) (A) (A) (A) (A) (A) (A) (A) (A) (A) (A) (A)
                 (A) (A) (A) (A) (A) (A) (A) (A) (A) (A) (A) (A)
                 (A) (A) (A) (A) (A) (A) (A) (A) (A) (A) (A) (A)
                 (A) (A) (A) (A) (A) (A) (A) (A) (A) (A) (A) (A)
                 (A) (A) (A) (A) (A) (A) (A) (A) (A) (A) (A) (A)
                 (A) (A) (A) (A) (A) (A) (A) (A) (A) (A) (A) (A)
                 (A) (A) (A) (A) (A) (A) (A) (A) (A) (A) (A) (A)
                 (A) (A) (A) (A) (A) (A) (A) (A) (A) (A) (A) (A)
                 (A) (A) (A) (A) (A) (A) (A) (A) (A) (A) (A) (A)
                 (A) (A) (A) (A) (A) (A) (A) (A) (A) (A) (A) (A)
                 (A) (A) (A) (A) (A) (A) (A) (A)
 The electronic state is 1-A.
 Alpha  occ. eigenvalues --  -19.18798 -19.18536 -19.13675 -19.10335 -14.32297
 Alpha  occ. eigenvalues --  -10.32942 -10.32073 -10.24614 -10.20420  -1.13226
 Alpha  occ. eigenvalues --   -1.12646  -1.04373  -0.98365  -0.92096  -0.79959
 Alpha  occ. eigenvalues --   -0.71398  -0.64980  -0.61724  -0.54035  -0.53375
 Alpha  occ. eigenvalues --   -0.51429  -0.49073  -0.48523  -0.47784  -0.47261
 Alpha  occ. eigenvalues --   -0.43460  -0.41905  -0.40888  -0.38722  -0.37976
 Alpha  occ. eigenvalues --   -0.34794  -0.31665  -0.30578  -0.28591  -0.26489
 Alpha virt. eigenvalues --   -0.02942  -0.02262  -0.02019  -0.00305   0.00632
 Alpha virt. eigenvalues --    0.01724   0.02599   0.04257   0.05249   0.05433
 Alpha virt. eigenvalues --    0.06877   0.07693   0.08275   0.08910   0.09178
 Alpha virt. eigenvalues --    0.10448   0.10696   0.10826   0.11938   0.12206
 Alpha virt. eigenvalues --    0.13231   0.13570   0.13776   0.15071   0.15627
 Alpha virt. eigenvalues --    0.16287   0.16504   0.17668   0.19059   0.19668
 Alpha virt. eigenvalues --    0.20156   0.21366   0.22276   0.22549   0.22828
 Alpha virt. eigenvalues --    0.23734   0.24925   0.25525   0.26196   0.26726
 Alpha virt. eigenvalues --    0.27694   0.27928   0.28987   0.29424   0.29881
 Alpha virt. eigenvalues --    0.30359   0.32112   0.32360   0.33062   0.34733
 Alpha virt. eigenvalues --    0.35180   0.36135   0.36434   0.38004   0.38576
 Alpha virt. eigenvalues --    0.39413   0.39822   0.41147   0.45851   0.46554
 Alpha virt. eigenvalues --    0.49487   0.51460   0.53216   0.54049   0.56586
 Alpha virt. eigenvalues --    0.57411   0.59091   0.61382   0.62967   0.65486
 Alpha virt. eigenvalues --    0.65753   0.67643   0.68228   0.70620   0.70916
 Alpha virt. eigenvalues --    0.73859   0.74331   0.74974   0.78116   0.83439
 Alpha virt. eigenvalues --    0.86203   0.86712   0.90354   0.92261   0.94111
 Alpha virt. eigenvalues --    0.98927   1.02852   1.04712   1.05638   1.08653
 Alpha virt. eigenvalues --    1.12680   1.12886   1.14240   1.15629   1.16520
 Alpha virt. eigenvalues --    1.17325   1.17792   1.19582   1.22048   1.25871
 Alpha virt. eigenvalues --    1.26833   1.30443   1.31743   1.33956   1.38972
 Alpha virt. eigenvalues --    1.41229   1.43222   1.47312   1.48942   1.49825
 Alpha virt. eigenvalues --    1.50400   1.52495   1.54281   1.56558   1.57096
 Alpha virt. eigenvalues --    1.59384   1.60372   1.61728   1.65689   1.69063
 Alpha virt. eigenvalues --    1.70384   1.72844   1.75666   1.78245   1.79936
 Alpha virt. eigenvalues --    1.83589   1.87167   1.88767   1.91359   1.93660
 Alpha virt. eigenvalues --    1.94802   1.96701   1.99075   2.03151   2.06881
 Alpha virt. eigenvalues --    2.10270   2.17278   2.24491   2.25947   2.30240
 Alpha virt. eigenvalues --    2.38910   2.45288   2.52623   2.54404   2.55748
 Alpha virt. eigenvalues --    2.56338   2.60179   2.61023   2.64952   2.66270
 Alpha virt. eigenvalues --    2.69165   2.73635   2.77195   2.80307   2.83161
 Alpha virt. eigenvalues --    2.85247   2.86906   2.88238   2.89535   2.91837
 Alpha virt. eigenvalues --    2.93246   2.97582   3.00184   3.02995   3.03397
 Alpha virt. eigenvalues --    3.04829   3.10046   3.11934   3.16302   3.20313
 Alpha virt. eigenvalues --    3.21464   3.23741   3.31497   3.33675   3.35099
 Alpha virt. eigenvalues --    3.45048   3.56388   3.58218   3.61632   3.69138
 Alpha virt. eigenvalues --    3.79424   3.80223   3.84948   4.03030   4.05623
 Alpha virt. eigenvalues --    4.07757   4.09565   4.14022   4.34123   4.71930
 Alpha virt. eigenvalues --    4.83066   4.95499   4.97694   5.02950   5.08602
 Alpha virt. eigenvalues --    5.12917   5.18501   5.30876   5.36629   5.54510
 Alpha virt. eigenvalues --    5.59331   5.83296   5.84321  23.75574  23.78177
 Alpha virt. eigenvalues --   23.80912  23.90059  35.58620  49.84675  49.86155
 Alpha virt. eigenvalues --   49.97767  50.00439
          Condensed to atoms (all electrons):
              1          2          3          4          5          6
     1  N    6.644545   0.384222   0.069834  -0.035451  -0.032937  -0.112204
     2  H    0.384222   0.432211  -0.039304   0.008642  -0.005737  -0.009033
     3  C    0.069834  -0.039304   8.046959   0.553127  -0.704132  -1.160774
     4  H   -0.035451   0.008642   0.553127   0.460930  -0.036671  -0.182767
     5  C   -0.032937  -0.005737  -0.704132  -0.036671   7.346435   0.029543
     6  C   -0.112204  -0.009033  -1.160774  -0.182767   0.029543   6.431038
     7  H    0.001849   0.000159  -0.041195  -0.005997   0.388204   0.002273
     8  H   -0.001671   0.000516   0.019683   0.008354   0.420097  -0.076420
     9  C    0.025455  -0.001621  -0.046006  -0.048551  -0.712602   0.187352
    10  O   -0.027433  -0.003233   0.017153  -0.002542   0.016038   0.420023
    11  O   -0.000903  -0.000140   0.055483  -0.004217  -0.155779   0.022010
    12  H    0.395258  -0.041259  -0.065033  -0.013666   0.015962   0.014035
    13  O   -0.003279   0.007044  -0.172775   0.006501  -0.001557   0.353178
    14  H    0.000505   0.001847  -0.062222  -0.002359   0.012391   0.022881
    15  O   -0.000135   0.000158   0.012790  -0.000507  -0.298093   0.007770
    16  H   -0.000124  -0.000157  -0.002657  -0.001624  -0.048293   0.002901
              7          8          9         10         11         12
     1  N    0.001849  -0.001671   0.025455  -0.027433  -0.000903   0.395258
     2  H    0.000159   0.000516  -0.001621  -0.003233  -0.000140  -0.041259
     3  C   -0.041195   0.019683  -0.046006   0.017153   0.055483  -0.065033
     4  H   -0.005997   0.008354  -0.048551  -0.002542  -0.004217  -0.013666
     5  C    0.388204   0.420097  -0.712602   0.016038  -0.155779   0.015962
     6  C    0.002273  -0.076420   0.187352   0.420023   0.022010   0.014035
     7  H    0.461354  -0.026189  -0.009792   0.000340   0.002029   0.000913
     8  H   -0.026189   0.443679  -0.053352  -0.001353   0.000589  -0.000198
     9  C   -0.009792  -0.053352   5.800857  -0.021585   0.465786   0.002618
    10  O    0.000340  -0.001353  -0.021585   8.271995  -0.004779  -0.000511
    11  O    0.002029   0.000589   0.465786  -0.004779   8.063620   0.000330
    12  H    0.000913  -0.000198   0.002618  -0.000511   0.000330   0.413028
    13  O   -0.000791  -0.003975  -0.011640  -0.218990  -0.004341  -0.001627
    14  H   -0.000659   0.000166  -0.000046  -0.006863   0.000499  -0.000027
    15  O   -0.002988  -0.002848   0.322952  -0.000215  -0.119494  -0.000089
    16  H    0.000983   0.001130   0.044336  -0.000360  -0.003865   0.000062
             13         14         15         16
     1  N   -0.003279   0.000505  -0.000135  -0.000124
     2  H    0.007044   0.001847   0.000158  -0.000157
     3  C   -0.172775  -0.062222   0.012790  -0.002657
     4  H    0.006501  -0.002359  -0.000507  -0.001624
     5  C   -0.001557   0.012391  -0.298093  -0.048293
     6  C    0.353178   0.022881   0.007770   0.002901
     7  H   -0.000791  -0.000659  -0.002988   0.000983
     8  H   -0.003975   0.000166  -0.002848   0.001130
     9  C   -0.011640  -0.000046   0.322952   0.044336
    10  O   -0.218990  -0.006863  -0.000215  -0.000360
    11  O   -0.004341   0.000499  -0.119494  -0.003865
    12  H   -0.001627  -0.000027  -0.000089   0.000062
    13  O    7.980650   0.269921   0.000934   0.000365
    14  H    0.269921   0.369628   0.000168  -0.000039
    15  O    0.000934   0.000168   7.995075   0.272618
    16  H    0.000365  -0.000039   0.272618   0.413398
 Mulliken atomic charges:
              1
     1  N   -0.307530
     2  H    0.265688
     3  C   -0.480932
     4  H    0.296799
     5  C   -0.232868
     6  C    0.048192
     7  H    0.229507
     8  H    0.271793
     9  C    0.055840
    10  O   -0.437682
    11  O   -0.316828
    12  H    0.280203
    13  O   -0.199618
    14  H    0.394207
    15  O   -0.188096
    16  H    0.321324
 Sum of Mulliken atomic charges =   0.00000
 Mulliken charges with hydrogens summed into heavy atoms:
              1
     1  N    0.238361
     3  C   -0.184133
     5  C    0.268432
     6  C    0.048192
     9  C    0.055840
    10  O   -0.437682
    11  O   -0.316828
    13  O    0.194590
    15  O    0.133228
 Sum of Mulliken charges with hydrogens summed into heavy atoms =   0.00000
 Electronic spatial extent (au):  <R**2>=           1267.1025
 Charge=              0.0000 electrons
 Dipole moment (field-independent basis, Debye):
    X=              1.5658    Y=              1.9520    Z=              4.0979  Tot=              4.8015
 Quadrupole moment (field-independent basis, Debye-Ang):
   XX=            -46.9069   YY=            -55.4353   ZZ=            -52.3297
   XY=             -4.8472   XZ=             -7.2755   YZ=             -8.0180
 Traceless Quadrupole moment (field-independent basis, Debye-Ang):
   XX=              4.6504   YY=             -3.8780   ZZ=             -0.7724
   XY=             -4.8472   XZ=             -7.2755   YZ=             -8.0180
 Octapole moment (field-independent basis, Debye-Ang**2):
  XXX=             38.5208  YYY=            -23.9008  ZZZ=              9.7648  XYY=             -2.8260
  XXY=             -1.6162  XXZ=             14.5406  XZZ=             -5.9449  YZZ=             -0.7843
  YYZ=             22.2640  XYZ=              8.4460
 Hexadecapole moment (field-independent basis, Debye-Ang**3):
 XXXX=           -801.7359 YYYY=           -458.2422 ZZZZ=           -174.7887 XXXY=           -103.8810
 XXXZ=            -47.1489 YYYX=             28.1405 YYYZ=            -23.8104 ZZZX=            -17.9653
 ZZZY=            -19.4040 XXYY=           -209.1453 XXZZ=           -187.6661 YYZZ=            -83.0135
 XXYZ=            -41.3411 YYXZ=            -29.5974 ZZXY=              8.0677
 N-N= 4.698585064756D+02 E-N=-2.142974851726D+03  KE= 5.104645378361D+02
 D1PCM: C-PCM CHGder 1st derivatives, ID1Alg=3 FixD1E=F DoIter=F DoCFld=F I1PDM=0.
 Calling FoFJK, ICntrl=      2127 FMM=F ISym2X=0 I1Cent= 0 IOpClX= 0 NMat=1 NMatS=1 NMatT=0.
 ***** Axes restored to original set *****
 -------------------------------------------------------------------
 Center     Atomic                   Forces (Hartrees/Bohr)
 Number     Number              X              Y              Z
 -------------------------------------------------------------------
      1        7           0.001017257    0.000894237   -0.000142517
      2        1           0.000047936    0.000372698   -0.000200469
      3        6           0.003602693    0.003762915    0.012895407
      4        1          -0.001637383   -0.003251671    0.001483120
      5        6           0.001078196    0.001826548   -0.000133297
      6        6          -0.088962053   -0.094303396   -0.060066932
      7        1           0.000420521    0.000050541    0.000219624
      8        1           0.000275594    0.000181127   -0.000034471
      9        6          -0.000317837   -0.000138442   -0.000267522
     10        8           0.029861435    0.047680767   -0.020596567
     11        8           0.000613259    0.000112747    0.000133862
     12        1           0.000110466   -0.000782309    0.000121843
     13        8           0.024175086   -0.023632287    0.118236804
     14        1           0.029438434    0.067206863   -0.051803688
     15        8           0.000306586    0.000030744    0.000156307
     16        1          -0.000030190   -0.000011081   -0.000001504
 -------------------------------------------------------------------
 Cartesian Forces:  Max     0.118236804 RMS     0.031428422

 GradGradGradGradGradGradGradGradGradGradGradGradGradGradGradGradGradGrad
 Berny optimization.
 Internal  Forces:  Max     0.088667693 RMS     0.019405019
 Search for a local minimum.
 Step number   1 out of a maximum of   79
 All quantities printed in internal units (Hartrees-Bohrs-Radians)
 Mixed Optimization -- RFO/linear search
 Second derivative matrix not updated -- first step.
 ITU=  0
     Eigenvalues ---    0.00389   0.00593   0.00660   0.00805   0.01086
     Eigenvalues ---    0.01157   0.02427   0.03302   0.03975   0.04042
     Eigenvalues ---    0.04493   0.05137   0.05375   0.06579   0.09528
     Eigenvalues ---    0.12917   0.16000   0.16000   0.16000   0.16000
     Eigenvalues ---    0.17463   0.18473   0.21947   0.24965   0.25000
     Eigenvalues ---    0.25000   0.25000   0.29560   0.31047   0.31552
     Eigenvalues ---    0.33682   0.34311   0.34511   0.34750   0.36096
     Eigenvalues ---    0.44949   0.45128   0.53195   0.56218   0.73619
     Eigenvalues ---    0.74218   0.99426
 RFO step:  Lambda=-7.18584113D-02 EMin= 3.88642470D-03
 Linear search not attempted -- first point.
 Maximum step size (   0.300) exceeded in Quadratic search.
    -- Step size scaled by   0.648
 Iteration  1 RMS(Cart)=  0.04994998 RMS(Int)=  0.00180896
 Iteration  2 RMS(Cart)=  0.00235380 RMS(Int)=  0.00004090
 Iteration  3 RMS(Cart)=  0.00000397 RMS(Int)=  0.00004081
 Iteration  4 RMS(Cart)=  0.00000000 RMS(Int)=  0.00004081
 Variable       Old X    -DE/DX   Delta X   Delta X   Delta X     New X
                                 (Linear)    (Quad)   (Total)
    R1        1.92035  -0.00017   0.00000  -0.00021  -0.00021   1.92014
    R2        2.77232  -0.00033   0.00000  -0.00050  -0.00050   2.77182
    R3        1.91827  -0.00010   0.00000  -0.00012  -0.00012   1.91815
    R4        2.06082  -0.00131   0.00000  -0.00202  -0.00202   2.05880
    R5        2.88849   0.00243   0.00000   0.00428   0.00428   2.89277
    R6        2.85924   0.00019   0.00000   0.00032   0.00032   2.85956
    R7        2.06476   0.00013   0.00000   0.00020   0.00020   2.06496
    R8        2.06808  -0.00004   0.00000  -0.00006  -0.00006   2.06802
    R9        2.84971   0.00037   0.00000   0.00062   0.00062   2.85033
   R10        2.41192  -0.03493   0.00000  -0.02779  -0.02779   2.38413
   R11        2.41551   0.04987   0.00000   0.03997   0.03997   2.45548
   R12        2.28869  -0.00030   0.00000  -0.00018  -0.00018   2.28851
   R13        2.54065   0.00031   0.00000   0.00032   0.00032   2.54097
   R14        2.07870  -0.08671   0.00000  -0.13741  -0.13741   1.94129
   R15        1.83472  -0.00001   0.00000  -0.00001  -0.00001   1.83471
    A1        1.94590   0.00068   0.00000   0.00174   0.00174   1.94764
    A2        1.88061   0.00014   0.00000   0.00010   0.00010   1.88070
    A3        1.93876  -0.00121   0.00000  -0.00355  -0.00355   1.93521
    A4        1.88254   0.00110   0.00000   0.00189   0.00189   1.88444
    A5        1.91394  -0.00276   0.00000  -0.00465  -0.00468   1.90926
    A6        1.92752   0.00062   0.00000   0.00256   0.00256   1.93008
    A7        1.91563   0.00077   0.00000   0.00283   0.00286   1.91849
    A8        1.86687  -0.00348   0.00000  -0.01347  -0.01347   1.85340
    A9        1.95544   0.00369   0.00000   0.01046   0.01047   1.96590
   A10        1.89959   0.00001   0.00000   0.00053   0.00053   1.90012
   A11        1.93718  -0.00026   0.00000  -0.00022  -0.00022   1.93696
   A12        1.97557   0.00135   0.00000   0.00323   0.00323   1.97879
   A13        1.86018  -0.00002   0.00000  -0.00086  -0.00086   1.85932
   A14        1.89789  -0.00073   0.00000  -0.00203  -0.00203   1.89586
   A15        1.88959  -0.00045   0.00000  -0.00095  -0.00095   1.88864
   A16        2.18133  -0.02855   0.00000  -0.05739  -0.05737   2.12397
   A17        2.18907  -0.06026   0.00000  -0.12105  -0.12104   2.06803
   A18        1.90957   0.08867   0.00000   0.17871   0.17871   2.08829
   A19        2.18444   0.00082   0.00000   0.00165   0.00165   2.18609
   A20        1.95068  -0.00036   0.00000  -0.00073  -0.00073   1.94995
   A21        2.14806  -0.00046   0.00000  -0.00092  -0.00092   2.14714
   A22        2.20596  -0.04865   0.00000  -0.13590  -0.13590   2.07007
   A23        1.89559  -0.00005   0.00000  -0.00015  -0.00015   1.89544
    D1        3.04037  -0.00097   0.00000  -0.00416  -0.00417   3.03621
    D2       -1.15731  -0.00096   0.00000  -0.00228  -0.00228  -1.15959
    D3        1.00591   0.00223   0.00000   0.00950   0.00950   1.01540
    D4        0.94256  -0.00078   0.00000  -0.00305  -0.00305   0.93950
    D5        3.02806  -0.00077   0.00000  -0.00117  -0.00117   3.02689
    D6       -1.09191   0.00242   0.00000   0.01061   0.01061  -1.08130
    D7       -0.94158   0.00049   0.00000   0.00263   0.00263  -0.93896
    D8        1.10030   0.00033   0.00000   0.00178   0.00178   1.10208
    D9       -3.05396   0.00053   0.00000   0.00271   0.00270  -3.05125
   D10        1.12351   0.00064   0.00000   0.00384   0.00383   1.12734
   D11       -3.11779   0.00048   0.00000   0.00299   0.00298  -3.11481
   D12       -0.98887   0.00067   0.00000   0.00392   0.00391  -0.98496
   D13       -3.08839  -0.00087   0.00000  -0.00454  -0.00453  -3.09292
   D14       -1.04651  -0.00103   0.00000  -0.00539  -0.00538  -1.05189
   D15        1.08242  -0.00083   0.00000  -0.00446  -0.00445   1.07797
   D16        1.57487   0.00094   0.00000   0.00168   0.00174   1.57661
   D17       -1.47147  -0.00140   0.00000  -0.01135  -0.01143  -1.48290
   D18       -0.46930   0.00129   0.00000   0.00580   0.00584  -0.46346
   D19        2.76754  -0.00105   0.00000  -0.00724  -0.00732   2.76022
   D20       -2.56920   0.00041   0.00000   0.00486   0.00496  -2.56424
   D21        0.66764  -0.00193   0.00000  -0.00817  -0.00820   0.65944
   D22       -0.05907   0.00010   0.00000   0.00050   0.00050  -0.05857
   D23        3.08264   0.00008   0.00000   0.00036   0.00036   3.08300
   D24       -2.17240  -0.00029   0.00000  -0.00086  -0.00086  -2.17327
   D25        0.96930  -0.00030   0.00000  -0.00100  -0.00100   0.96830
   D26        2.09626   0.00036   0.00000   0.00172   0.00172   2.09798
   D27       -1.04522   0.00034   0.00000   0.00159   0.00158  -1.04363
   D28        3.10505  -0.00201   0.00000  -0.00418  -0.00439   3.10066
   D29        0.04617   0.00021   0.00000  -0.00694  -0.00674   0.03943
   D30        3.13799   0.00000   0.00000   0.00003   0.00003   3.13802
   D31       -0.00350  -0.00001   0.00000  -0.00010  -0.00010  -0.00360
         Item               Value     Threshold  Converged?
 Maximum Force            0.088668     0.000450     NO 
 RMS     Force            0.019405     0.000300     NO 
 Maximum Displacement     0.235218     0.001800     NO 
 RMS     Displacement     0.050856     0.001200     NO 
 Predicted change in Energy=-3.472887D-02
 GradGradGradGradGradGradGradGradGradGradGradGradGradGradGradGradGradGrad

                          Input orientation:                          
 ---------------------------------------------------------------------
 Center     Atomic      Atomic             Coordinates (Angstroms)
 Number     Number       Type             X           Y           Z
 ---------------------------------------------------------------------
      1          7           0       -1.569623    1.780088   -0.087332
      2          1           0       -1.775506    1.866318    0.903944
      3          6           0       -0.724514    0.613504   -0.363601
      4          1           0       -0.630362    0.515071   -1.444522
      5          6           0        0.655893    0.826039    0.262991
      6          6           0       -1.394142   -0.654814    0.118877
      7          1           0        1.060234    1.778748   -0.087589
      8          1           0        0.584443    0.900135    1.352486
      9          6           0        1.639755   -0.267170   -0.071619
     10          8           0       -2.154389   -1.328798   -0.629102
     11          8           0        1.387432   -1.261868   -0.714662
     12          1           0       -2.453218    1.712041   -0.582239
     13          8           0       -1.246772   -0.998739    1.363225
     14          1           0       -1.730325   -1.839527    1.701714
     15          8           0        2.859028   -0.011391    0.434310
     16          1           0        3.452679   -0.741709    0.195917
 ---------------------------------------------------------------------
                    Distance matrix (angstroms):
                    1          2          3          4          5
     1  N    0.000000
     2  H    1.016096   0.000000
     3  C    1.466783   2.069008   0.000000
     4  H    2.079530   2.941516   1.089470   0.000000
     5  C    2.446601   2.721158   1.530788   2.160267   0.000000
     6  C    2.449911   2.667934   1.513213   2.096713   2.533049
     7  H    2.629858   3.005367   2.149257   2.509236   1.092728
     8  H    2.736310   2.589219   2.177265   3.073643   1.094347
     9  C    3.806786   4.143368   2.539805   2.765898   1.508328
    10  O    3.209460   3.564063   2.426431   2.527335   3.651963
    11  O    4.288498   4.733878   2.846152   2.785983   2.418741
    12  H    1.015039   1.640681   2.059856   2.345011   3.341555
    13  O    3.151227   2.949415   2.419506   3.248850   2.856653
    14  H    4.040807   3.791010   3.360734   4.080790   3.856060
    15  O    4.805669   5.022475   3.724101   3.997876   2.363142
    16  H    5.627007   5.885323   4.427032   4.576217   3.206921
                    6          7          8          9         10
     6  C    0.000000
     7  H    3.462487   0.000000
     8  H    2.802580   1.752757   0.000000
     9  C    3.064488   2.126472   2.122348   0.000000
    10  O    1.261627   4.503763   4.049202   3.979117   0.000000
    11  O    2.966556   3.121798   3.097119   1.211030   3.543487
    12  H    2.686114   3.548729   3.691847   4.574980   3.055846
    13  O    1.299386   3.891218   2.638027   3.305452   2.214063
    14  H    2.005476   4.907213   3.603590   4.120007   2.423505
    15  O    4.313113   2.590876   2.616804   1.344624   5.291575
    16  H    4.848212   3.486671   3.501440   1.893002   5.697767
                   11         12         13         14         15
    11  O    0.000000
    12  H    4.859245   0.000000
    13  O    3.365395   3.548052   0.000000
    14  H    3.986599   4.283999   1.027288   0.000000
    15  O    2.247092   5.676579   4.323810   5.100054   0.000000
    16  H    2.316239   6.442519   4.849074   5.507827   0.970885
                   16
    16  H    0.000000
 Stoichiometry    C4H7NO4
 Framework group  C1[X(C4H7NO4)]
 Deg. of freedom    42
 Full point group                 C1      NOp   1
 Largest Abelian subgroup         C1      NOp   1
 Largest concise Abelian subgroup C1      NOp   1
                         Standard orientation:                         
 ---------------------------------------------------------------------
 Center     Atomic      Atomic             Coordinates (Angstroms)
 Number     Number       Type             X           Y           Z
 ---------------------------------------------------------------------
      1          7           0       -1.547356    1.874589   -0.143816
      2          1           0       -1.751730    1.952953    0.848425
      3          6           0       -0.676490    0.728712   -0.426679
      4          1           0       -0.583846    0.635846   -1.508224
      5          6           0        0.700808    0.971142    0.195887
      6          6           0       -1.314961   -0.556237    0.054024
      7          1           0        1.081813    1.934028   -0.153025
      8          1           0        0.631452    1.040177    1.285850
      9          6           0        1.708492   -0.097991   -0.145555
     10          8           0       -2.062031   -1.245280   -0.693511
     11          8           0        1.476981   -1.096248   -0.790905
     12          1           0       -2.430858    1.787680   -0.635929
     13          8           0       -1.155363   -0.900535    1.296760
     14          1           0       -1.618186   -1.753322    1.634207
     15          8           0        2.923282    0.184323    0.357038
     16          1           0        3.532813   -0.531336    0.114297
 ---------------------------------------------------------------------
 Rotational constants (GHZ):      2.5096904      1.1344304      0.9505649
 Standard basis: 6-311++G(d,p) (5D, 7F)
 There are   247 symmetry adapted basis functions of A   symmetry.
 Integral buffers will be    262144 words long.
 Raffenetti 2 integral format.
 Two-electron integral symmetry is turned on.
   247 basis functions,   387 primitive gaussians,   256 cartesian basis functions
    35 alpha electrons       35 beta electrons
       nuclear repulsion energy       471.0365576866 Hartrees.
 NAtoms=   16 NActive=   16 NUniq=   16 SFac= 1.00D+00 NAtFMM=   50 NAOKFM=F Big=F
 ------------------------------------------------------------------------------
 Polarizable Continuum Model (PCM)
 =================================
 Model                : C-PCM.
 Atomic radii         : UFF (Universal Force Field).
 Polarization charges : Total charges.
 Charge compensation  : None.
 Solution method      : Matrix inversion.
 Cavity type          : Scaled VdW (van der Waals Surface) (Alpha=1.100).
 Cavity algorithm     : GePol (No added spheres)
                        Default sphere list used, NSphG=   16.
                        Lebedev-Laikov grids with approx.  5.0 points / Ang**2.
                        Smoothing algorithm: Karplus/York (Gamma=1.0000).
                        Polarization charges: spherical gaussians, with
                                              point-specific exponents (IZeta= 3).
                        Self-potential: point-specific (ISelfS= 7).
                        Self-field    : sphere-specific E.n sum rule (ISelfD= 2).
 1st derivatives      : Analytical E(r).r(x)/FMM algorithm (CHGder, D1EAlg=3).
                        Cavity 1st derivative terms included.
 Solvent              : Water, Eps=  78.355300 Eps(inf)=   1.777849
 ------------------------------------------------------------------------------
 Spheres list:
 ISph  on   Nord    Re0     Alpha      Xe            Ye            Ze
    1   N      1    1.830   1.100     -1.547356      1.874589     -0.143816
    2   H      2    1.443   1.100     -1.751730      1.952953      0.848425
    3   C      3    1.926   1.100     -0.676490      0.728712     -0.426679
    4   H      4    1.443   1.100     -0.583846      0.635846     -1.508224
    5   C      5    1.926   1.100      0.700808      0.971142      0.195887
    6   C      6    1.926   1.100     -1.314961     -0.556237      0.054024
    7   H      7    1.443   1.100      1.081813      1.934028     -0.153025
    8   H      8    1.443   1.100      0.631452      1.040177      1.285850
    9   C      9    1.926   1.100      1.708492     -0.097991     -0.145555
   10   O     10    1.750   1.100     -2.062031     -1.245280     -0.693511
   11   O     11    1.750   1.100      1.476981     -1.096248     -0.790905
   12   H     12    1.443   1.100     -2.430858      1.787680     -0.635929
   13   O     13    1.750   1.100     -1.155363     -0.900535      1.296760
   14   H     14    1.443   1.100     -1.618186     -1.753322      1.634207
   15   O     15    1.750   1.100      2.923282      0.184323      0.357038
   16   H     16    1.443   1.100      3.532813     -0.531336      0.114297
 ------------------------------------------------------------------------------
 One-electron integrals computed using PRISM.
 NBasis=   247 RedAO= T  NBF=   247
 NBsUse=   247 1.00D-06 NBFU=   247
 Initial guess read from the read-write file.
 B after Tr=     0.000000    0.000000    0.000000
         Rot=    1.000000    0.000000    0.000000    0.000000 Ang=   0.00 deg.
 Initial guess orbital symmetries:
       Occupied  (A) (A) (A) (A) (A) (A) (A) (A) (A) (A) (A) (A)
                 (A) (A) (A) (A) (A) (A) (A) (A) (A) (A) (A) (A)
                 (A) (A) (A) (A) (A) (A) (A) (A) (A) (A) (A)
       Virtual   (A) (A) (A) (A) (A) (A) (A) (A) (A) (A) (A) (A)
                 (A) (A) (A) (A) (A) (A) (A) (A) (A) (A) (A) (A)
                 (A) (A) (A) (A) (A) (A) (A) (A) (A) (A) (A) (A)
                 (A) (A) (A) (A) (A) (A) (A) (A) (A) (A) (A) (A)
                 (A) (A) (A) (A) (A) (A) (A) (A) (A) (A) (A) (A)
                 (A) (A) (A) (A) (A) (A) (A) (A) (A) (A) (A) (A)
                 (A) (A) (A) (A) (A) (A) (A) (A) (A) (A) (A) (A)
                 (A) (A) (A) (A) (A) (A) (A) (A) (A) (A) (A) (A)
                 (A) (A) (A) (A) (A) (A) (A) (A) (A) (A) (A) (A)
                 (A) (A) (A) (A) (A) (A) (A) (A) (A) (A) (A) (A)
                 (A) (A) (A) (A) (A) (A) (A) (A) (A) (A) (A) (A)
                 (A) (A) (A) (A) (A) (A) (A) (A) (A) (A) (A) (A)
                 (A) (A) (A) (A) (A) (A) (A) (A) (A) (A) (A) (A)
                 (A) (A) (A) (A) (A) (A) (A) (A) (A) (A) (A) (A)
                 (A) (A) (A) (A) (A) (A) (A) (A) (A) (A) (A) (A)
                 (A) (A) (A) (A) (A) (A) (A) (A) (A) (A) (A) (A)
                 (A) (A) (A) (A) (A) (A) (A) (A) (A) (A) (A) (A)
                 (A) (A) (A) (A) (A) (A) (A) (A)
 Harris functional with IExCor=  402 diagonalized for initial guess.
 ExpMin= 3.60D-02 ExpMax= 8.59D+03 ExpMxC= 1.30D+03 IAcc=3 IRadAn=         0 AccDes= 0.00D+00
 HarFok:  IExCor=  402 AccDes= 0.00D+00 IRadAn=         0 IDoV= 1
 ScaDFX=  1.000000  1.000000  1.000000  1.000000
 FoFCou: FMM=F IPFlag=           0 FMFlag=      100000 FMFlg1=           0
         NFxFlg=           0 DoJE=T BraDBF=F KetDBF=T FulRan=T
         Omega=  0.000000  0.000000  1.000000  0.000000  0.000000 ICntrl=     500 IOpCl=  0
         NMat0=    1 NMatS0=    1 NMatT0=    0 NMatD0=    1 NMtDS0=    0 NMtDT0=    0
         I1Cent=           4 NGrid=           0.
 Petite list used in FoFCou.
 Requested convergence on RMS density matrix=1.00D-08 within 128 cycles.
 Requested convergence on MAX density matrix=1.00D-06.
 Requested convergence on             energy=1.00D-06.
 No special actions if energy rises.
 Error on total polarization charges =  0.01209
 SCF Done:  E(RB3LYP) =  -512.490343430     A.U. after   12 cycles
             Convg  =    0.2682D-08             -V/T =  2.0039
 D1PCM: C-PCM CHGder 1st derivatives, ID1Alg=3 FixD1E=F DoIter=F DoCFld=F I1PDM=0.
 Calling FoFJK, ICntrl=      2127 FMM=F ISym2X=0 I1Cent= 0 IOpClX= 0 NMat=1 NMatS=1 NMatT=0.
 ***** Axes restored to original set *****
 -------------------------------------------------------------------
 Center     Atomic                   Forces (Hartrees/Bohr)
 Number     Number              X              Y              Z
 -------------------------------------------------------------------
      1        7           0.000299947    0.001886897   -0.000631744
      2        1          -0.000010984   -0.000012128    0.000001185
      3        6           0.005880187    0.003690807    0.008916969
      4        1          -0.000401221   -0.000903713    0.000335729
      5        6           0.000277432    0.001523642   -0.000964271
      6        6          -0.057296670   -0.051446754   -0.054778185
      7        1           0.000436398    0.000078727    0.000130117
      8        1           0.000251658    0.000197984   -0.000220139
      9        6          -0.001216469    0.000541942   -0.000057477
     10        8           0.030490013    0.029639353    0.021483649
     11        8           0.000529669   -0.000274430   -0.000053316
     12        1          -0.000106541   -0.000514439    0.000287515
     13        8           0.004121201   -0.021512346    0.053646845
     14        1           0.016016108    0.037180341   -0.028324077
     15        8           0.000777944   -0.000067082    0.000238320
     16        1          -0.000048672   -0.000008801   -0.000011120
 -------------------------------------------------------------------
 Cartesian Forces:  Max     0.057296670 RMS     0.018895882

 GradGradGradGradGradGradGradGradGradGradGradGradGradGradGradGradGradGrad
 Berny optimization.
 Using GEDIIS/GDIIS optimizer.
 Internal  Forces:  Max     0.047303808 RMS     0.009801514
 Search for a local minimum.
 Step number   2 out of a maximum of   79
 All quantities printed in internal units (Hartrees-Bohrs-Radians)
 Mixed Optimization -- RFO/linear search
 Update second derivatives using D2CorX and points    1    2
 DE= -3.25D-02 DEPred=-3.47D-02 R= 9.36D-01
 SS=  1.41D+00  RLast= 3.01D-01 DXNew= 5.0454D-01 9.0367D-01
 Trust test= 9.36D-01 RLast= 3.01D-01 DXMaxT set to 5.05D-01
 ITU=  1  0
 Use linear search instead of GDIIS.
     Eigenvalues ---    0.00389   0.00593   0.00660   0.00805   0.01084
     Eigenvalues ---    0.01271   0.02427   0.03302   0.03986   0.04023
     Eigenvalues ---    0.04428   0.05129   0.05368   0.06621   0.09560
     Eigenvalues ---    0.12937   0.15135   0.16000   0.16000   0.16001
     Eigenvalues ---    0.17516   0.18519   0.21948   0.24217   0.25000
     Eigenvalues ---    0.25000   0.29532   0.29594   0.31004   0.31551
     Eigenvalues ---    0.34310   0.34511   0.34742   0.35892   0.36539
     Eigenvalues ---    0.44949   0.45128   0.53195   0.56220   0.70339
     Eigenvalues ---    0.78253   0.99427
 RFO step:  Lambda=-1.15162219D-02 EMin= 3.88647715D-03
 Quartic linear search produced a step of  0.70834.
 Iteration  1 RMS(Cart)=  0.04292267 RMS(Int)=  0.00234396
 Iteration  2 RMS(Cart)=  0.00285445 RMS(Int)=  0.00005934
 Iteration  3 RMS(Cart)=  0.00000521 RMS(Int)=  0.00005923
 Iteration  4 RMS(Cart)=  0.00000000 RMS(Int)=  0.00005923
 Variable       Old X    -DE/DX   Delta X   Delta X   Delta X     New X
                                 (Linear)    (Quad)   (Total)
    R1        1.92014   0.00000  -0.00015   0.00018   0.00004   1.92018
    R2        2.77182   0.00091  -0.00035   0.00464   0.00428   2.77610
    R3        1.91815  -0.00001  -0.00009   0.00009   0.00000   1.91814
    R4        2.05880  -0.00028  -0.00143   0.00068  -0.00075   2.05805
    R5        2.89277   0.00081   0.00303   0.00008   0.00311   2.89588
    R6        2.85956   0.00556   0.00023   0.02901   0.02924   2.88880
    R7        2.06496   0.00019   0.00014   0.00070   0.00084   2.06580
    R8        2.06802  -0.00022  -0.00004  -0.00101  -0.00105   2.06696
    R9        2.85033  -0.00014   0.00044  -0.00136  -0.00092   2.84941
   R10        2.38413  -0.04694  -0.01969  -0.08044  -0.10013   2.28400
   R11        2.45548   0.02239   0.02831   0.01428   0.04259   2.49807
   R12        2.28851   0.00014  -0.00013   0.00040   0.00027   2.28879
   R13        2.54097   0.00074   0.00023   0.00189   0.00211   2.54308
   R14        1.94129  -0.04730  -0.09733  -0.09285  -0.19018   1.75111
   R15        1.83471  -0.00002  -0.00001  -0.00006  -0.00007   1.83464
    A1        1.94764   0.00002   0.00123  -0.00368  -0.00246   1.94518
    A2        1.88070   0.00004   0.00007  -0.00318  -0.00315   1.87756
    A3        1.93521  -0.00058  -0.00251  -0.00348  -0.00601   1.92920
    A4        1.88444   0.00062   0.00134  -0.00658  -0.00530   1.87913
    A5        1.90926  -0.00192  -0.00331  -0.00525  -0.00882   1.90045
    A6        1.93008   0.00003   0.00181   0.00324   0.00495   1.93502
    A7        1.91849  -0.00013   0.00202  -0.00781  -0.00572   1.91277
    A8        1.85340  -0.00180  -0.00954  -0.00704  -0.01652   1.83688
    A9        1.96590   0.00315   0.00741   0.02221   0.02963   1.99554
   A10        1.90012   0.00017   0.00038   0.00306   0.00344   1.90356
   A11        1.93696  -0.00007  -0.00015   0.00066   0.00051   1.93746
   A12        1.97879   0.00063   0.00229   0.00173   0.00401   1.98281
   A13        1.85932  -0.00009  -0.00061  -0.00216  -0.00278   1.85654
   A14        1.89586  -0.00043  -0.00144  -0.00190  -0.00335   1.89252
   A15        1.88864  -0.00027  -0.00067  -0.00171  -0.00239   1.88625
   A16        2.12397   0.00097  -0.04063   0.06720   0.02658   2.15055
   A17        2.06803  -0.02119  -0.08573  -0.00936  -0.09508   1.97295
   A18        2.08829   0.02021   0.12659  -0.05769   0.06890   2.15719
   A19        2.18609   0.00068   0.00117   0.00267   0.00383   2.18993
   A20        1.94995  -0.00002  -0.00052   0.00062   0.00010   1.95005
   A21        2.14714  -0.00065  -0.00065  -0.00329  -0.00394   2.14321
   A22        2.07007  -0.02763  -0.09626  -0.11435  -0.21061   1.85946
   A23        1.89544  -0.00008  -0.00010  -0.00058  -0.00069   1.89476
    D1        3.03621  -0.00032  -0.00295   0.00433   0.00136   3.03757
    D2       -1.15959  -0.00121  -0.00161  -0.01197  -0.01351  -1.17310
    D3        1.01540   0.00147   0.00673   0.01479   0.02149   1.03689
    D4        0.93950   0.00001  -0.00216   0.01319   0.01100   0.95050
    D5        3.02689  -0.00088  -0.00083  -0.00311  -0.00387   3.02302
    D6       -1.08130   0.00180   0.00751   0.02366   0.03112  -1.05018
    D7       -0.93896   0.00041   0.00186   0.00462   0.00648  -0.93248
    D8        1.10208   0.00036   0.00126   0.00422   0.00547   1.10755
    D9       -3.05125   0.00042   0.00192   0.00373   0.00563  -3.04562
   D10        1.12734  -0.00008   0.00271  -0.01122  -0.00850   1.11884
   D11       -3.11481  -0.00012   0.00211  -0.01162  -0.00951  -3.12432
   D12       -0.98496  -0.00007   0.00277  -0.01212  -0.00935  -0.99430
   D13       -3.09292  -0.00042  -0.00321  -0.01118  -0.01437  -3.10729
   D14       -1.05189  -0.00047  -0.00381  -0.01158  -0.01538  -1.06727
   D15        1.07797  -0.00041  -0.00315  -0.01207  -0.01522   1.06275
   D16        1.57661   0.00015   0.00123  -0.01361  -0.01243   1.56418
   D17       -1.48290  -0.00052  -0.00810  -0.01282  -0.02107  -1.50397
   D18       -0.46346   0.00043   0.00414  -0.00346   0.00066  -0.46280
   D19        2.76022  -0.00024  -0.00519  -0.00268  -0.00798   2.75224
   D20       -2.56424  -0.00007   0.00351  -0.00216   0.00157  -2.56267
   D21        0.65944  -0.00074  -0.00581  -0.00138  -0.00707   0.65237
   D22       -0.05857   0.00008   0.00035   0.00155   0.00190  -0.05668
   D23        3.08300   0.00010   0.00026   0.00356   0.00381   3.08681
   D24       -2.17327  -0.00024  -0.00061  -0.00213  -0.00273  -2.17600
   D25        0.96830  -0.00022  -0.00071  -0.00012  -0.00082   0.96749
   D26        2.09798   0.00023   0.00122   0.00231   0.00352   2.10150
   D27       -1.04363   0.00025   0.00112   0.00432   0.00543  -1.03820
   D28        3.10066  -0.00092  -0.00311  -0.01666  -0.01991   3.08075
   D29        0.03943  -0.00070  -0.00477  -0.02188  -0.02651   0.01293
   D30        3.13802  -0.00002   0.00002  -0.00142  -0.00140   3.13662
   D31       -0.00360   0.00000  -0.00007   0.00054   0.00046  -0.00314
         Item               Value     Threshold  Converged?
 Maximum Force            0.047304     0.000450     NO 
 RMS     Force            0.009802     0.000300     NO 
 Maximum Displacement     0.242460     0.001800     NO 
 RMS     Displacement     0.044844     0.001200     NO 
 Predicted change in Energy=-1.207843D-02
 GradGradGradGradGradGradGradGradGradGradGradGradGradGradGradGradGradGrad

                          Input orientation:                          
 ---------------------------------------------------------------------
 Center     Atomic      Atomic             Coordinates (Angstroms)
 Number     Number       Type             X           Y           Z
 ---------------------------------------------------------------------
      1          7           0       -1.570699    1.768602   -0.074249
      2          1           0       -1.775208    1.854627    0.917348
      3          6           0       -0.733621    0.593325   -0.350165
      4          1           0       -0.641731    0.499468   -1.431286
      5          6           0        0.651808    0.815365    0.265984
      6          6           0       -1.428189   -0.689397    0.107084
      7          1           0        1.052546    1.768010   -0.090255
      8          1           0        0.588388    0.895487    1.354990
      9          6           0        1.641764   -0.272397   -0.066199
     10          8           0       -2.163749   -1.333479   -0.603493
     11          8           0        1.398429   -1.273885   -0.702401
     12          1           0       -2.456464    1.697971   -0.564897
     13          8           0       -1.211334   -0.969445    1.380674
     14          1           0       -1.711448   -1.725365    1.573409
     15          8           0        2.861563   -0.006314    0.436107
     16          1           0        3.458556   -0.734646    0.200146
 ---------------------------------------------------------------------
                    Distance matrix (angstroms):
                    1          2          3          4          5
     1  N    0.000000
     2  H    1.016115   0.000000
     3  C    1.469049   2.069390   0.000000
     4  H    2.077313   2.938930   1.089071   0.000000
     5  C    2.442122   2.719329   1.532434   2.157258   0.000000
     6  C    2.468794   2.692398   1.528685   2.097260   2.572148
     7  H    2.623295   3.003159   2.153562   2.505622   1.093175
     8  H    2.732529   2.588063   2.178661   3.071378   1.093790
     9  C    3.806003   4.143343   2.544123   2.770124   1.507841
    10  O    3.202298   3.553581   2.412886   2.522196   3.647038
    11  O    4.297327   4.741640   2.855903   2.799698   2.420780
    12  H    1.015038   1.638810   2.057800   2.341003   3.336272
    13  O    3.121353   2.916849   2.380391   3.223239   2.810584
    14  H    3.865539   3.640168   3.167429   3.888749   3.708052
    15  O    4.801639   5.019397   3.728691   4.002004   2.363707
    16  H    5.624496   5.883112   4.431783   4.582245   3.206977
                    6          7          8          9         10
     6  C    0.000000
     7  H    3.497405   0.000000
     8  H    2.852317   1.750849   0.000000
     9  C    3.102987   2.123916   2.119748   0.000000
    10  O    1.208640   4.497467   4.046999   3.987042   0.000000
    11  O    2.997776   3.122096   3.097612   1.211174   3.564049
    12  H    2.684852   3.541658   3.687962   4.574551   3.045794
    13  O    1.321924   3.844795   2.591840   3.274063   2.230814
    14  H    1.817574   4.755114   3.493683   4.005429   2.257665
    15  O    4.356240   2.588015   2.612454   1.345742   5.300556
    16  H    4.887841   3.483749   3.496980   1.893502   5.710933
                   11         12         13         14         15
    11  O    0.000000
    12  H    4.869397   0.000000
    13  O    3.353021   3.528555   0.000000
    14  H    3.880010   4.104464   0.926647   0.000000
    15  O    2.245817   5.673447   4.290492   5.016076   0.000000
    16  H    2.312897   6.441302   4.822515   5.440250   0.970848
                   16
    16  H    0.000000
 Stoichiometry    C4H7NO4
 Framework group  C1[X(C4H7NO4)]
 Deg. of freedom    42
 Full point group                 C1      NOp   1
 Largest Abelian subgroup         C1      NOp   1
 Largest concise Abelian subgroup C1      NOp   1
                         Standard orientation:                         
 ---------------------------------------------------------------------
 Center     Atomic      Atomic             Coordinates (Angstroms)
 Number     Number       Type             X           Y           Z
 ---------------------------------------------------------------------
      1          7           0       -1.551676    1.862615   -0.167314
      2          1           0       -1.754095    1.956526    0.823997
      3          6           0       -0.687165    0.704690   -0.431767
      4          1           0       -0.597512    0.599026   -1.511986
      5          6           0        0.694957    0.968599    0.175231
      6          6           0       -1.348129   -0.588584    0.045143
      7          1           0        1.070705    1.926047   -0.195092
      8          1           0        0.634134    1.061334    1.263384
      9          6           0        1.709915   -0.098834   -0.147303
     10          8           0       -2.070619   -1.259692   -0.653736
     11          8           0        1.488579   -1.114189   -0.769404
     12          1           0       -2.437480    1.763927   -0.653024
     13          8           0       -1.119154   -0.846613    1.321261
     14          1           0       -1.599757   -1.611975    1.525998
     15          8           0        2.924902    0.203562    0.346037
     16          1           0        3.538601   -0.512949    0.116834
 ---------------------------------------------------------------------
 Rotational constants (GHZ):      2.5382519      1.1330339      0.9507473
 Standard basis: 6-311++G(d,p) (5D, 7F)
 There are   247 symmetry adapted basis functions of A   symmetry.
 Integral buffers will be    262144 words long.
 Raffenetti 2 integral format.
 Two-electron integral symmetry is turned on.
   247 basis functions,   387 primitive gaussians,   256 cartesian basis functions
    35 alpha electrons       35 beta electrons
       nuclear repulsion energy       472.4487721464 Hartrees.
 NAtoms=   16 NActive=   16 NUniq=   16 SFac= 1.00D+00 NAtFMM=   50 NAOKFM=F Big=F
 ------------------------------------------------------------------------------
 Polarizable Continuum Model (PCM)
 =================================
 Model                : C-PCM.
 Atomic radii         : UFF (Universal Force Field).
 Polarization charges : Total charges.
 Charge compensation  : None.
 Solution method      : Matrix inversion.
 Cavity type          : Scaled VdW (van der Waals Surface) (Alpha=1.100).
 Cavity algorithm     : GePol (No added spheres)
                        Default sphere list used, NSphG=   16.
                        Lebedev-Laikov grids with approx.  5.0 points / Ang**2.
                        Smoothing algorithm: Karplus/York (Gamma=1.0000).
                        Polarization charges: spherical gaussians, with
                                              point-specific exponents (IZeta= 3).
                        Self-potential: point-specific (ISelfS= 7).
                        Self-field    : sphere-specific E.n sum rule (ISelfD= 2).
 1st derivatives      : Analytical E(r).r(x)/FMM algorithm (CHGder, D1EAlg=3).
                        Cavity 1st derivative terms included.
 Solvent              : Water, Eps=  78.355300 Eps(inf)=   1.777849
 ------------------------------------------------------------------------------
 Spheres list:
 ISph  on   Nord    Re0     Alpha      Xe            Ye            Ze
    1   N      1    1.830   1.100     -1.551676      1.862615     -0.167314
    2   H      2    1.443   1.100     -1.754095      1.956526      0.823997
    3   C      3    1.926   1.100     -0.687165      0.704690     -0.431767
    4   H      4    1.443   1.100     -0.597512      0.599026     -1.511986
    5   C      5    1.926   1.100      0.694957      0.968599      0.175231
    6   C      6    1.926   1.100     -1.348129     -0.588584      0.045143
    7   H      7    1.443   1.100      1.070705      1.926047     -0.195092
    8   H      8    1.443   1.100      0.634134      1.061334      1.263384
    9   C      9    1.926   1.100      1.709915     -0.098834     -0.147303
   10   O     10    1.750   1.100     -2.070619     -1.259692     -0.653736
   11   O     11    1.750   1.100      1.488579     -1.114189     -0.769404
   12   H     12    1.443   1.100     -2.437480      1.763927     -0.653024
   13   O     13    1.750   1.100     -1.119154     -0.846613      1.321261
   14   H     14    1.443   1.100     -1.599757     -1.611975      1.525998
   15   O     15    1.750   1.100      2.924902      0.203562      0.346037
   16   H     16    1.443   1.100      3.538601     -0.512949      0.116834
 ------------------------------------------------------------------------------
 One-electron integrals computed using PRISM.
 NBasis=   247 RedAO= T  NBF=   247
 NBsUse=   247 1.00D-06 NBFU=   247
 Initial guess read from the read-write file.
 B after Tr=     0.000000    0.000000    0.000000
         Rot=    1.000000    0.000000    0.000000    0.000000 Ang=   0.00 deg.
 Initial guess orbital symmetries:
       Occupied  (A) (A) (A) (A) (A) (A) (A) (A) (A) (A) (A) (A)
                 (A) (A) (A) (A) (A) (A) (A) (A) (A) (A) (A) (A)
                 (A) (A) (A) (A) (A) (A) (A) (A) (A) (A) (A)
       Virtual   (A) (A) (A) (A) (A) (A) (A) (A) (A) (A) (A) (A)
                 (A) (A) (A) (A) (A) (A) (A) (A) (A) (A) (A) (A)
                 (A) (A) (A) (A) (A) (A) (A) (A) (A) (A) (A) (A)
                 (A) (A) (A) (A) (A) (A) (A) (A) (A) (A) (A) (A)
                 (A) (A) (A) (A) (A) (A) (A) (A) (A) (A) (A) (A)
                 (A) (A) (A) (A) (A) (A) (A) (A) (A) (A) (A) (A)
                 (A) (A) (A) (A) (A) (A) (A) (A) (A) (A) (A) (A)
                 (A) (A) (A) (A) (A) (A) (A) (A) (A) (A) (A) (A)
                 (A) (A) (A) (A) (A) (A) (A) (A) (A) (A) (A) (A)
                 (A) (A) (A) (A) (A) (A) (A) (A) (A) (A) (A) (A)
                 (A) (A) (A) (A) (A) (A) (A) (A) (A) (A) (A) (A)
                 (A) (A) (A) (A) (A) (A) (A) (A) (A) (A) (A) (A)
                 (A) (A) (A) (A) (A) (A) (A) (A) (A) (A) (A) (A)
                 (A) (A) (A) (A) (A) (A) (A) (A) (A) (A) (A) (A)
                 (A) (A) (A) (A) (A) (A) (A) (A) (A) (A) (A) (A)
                 (A) (A) (A) (A) (A) (A) (A) (A) (A) (A) (A) (A)
                 (A) (A) (A) (A) (A) (A) (A) (A) (A) (A) (A) (A)
                 (A) (A) (A) (A) (A) (A) (A) (A)
 Harris functional with IExCor=  402 diagonalized for initial guess.
 ExpMin= 3.60D-02 ExpMax= 8.59D+03 ExpMxC= 1.30D+03 IAcc=3 IRadAn=         0 AccDes= 0.00D+00
 HarFok:  IExCor=  402 AccDes= 0.00D+00 IRadAn=         0 IDoV= 1
 ScaDFX=  1.000000  1.000000  1.000000  1.000000
 FoFCou: FMM=F IPFlag=           0 FMFlag=      100000 FMFlg1=           0
         NFxFlg=           0 DoJE=T BraDBF=F KetDBF=T FulRan=T
         Omega=  0.000000  0.000000  1.000000  0.000000  0.000000 ICntrl=     500 IOpCl=  0
         NMat0=    1 NMatS0=    1 NMatT0=    0 NMatD0=    1 NMtDS0=    0 NMtDT0=    0
         I1Cent=           4 NGrid=           0.
 Petite list used in FoFCou.
 Requested convergence on RMS density matrix=1.00D-08 within 128 cycles.
 Requested convergence on MAX density matrix=1.00D-06.
 Requested convergence on             energy=1.00D-06.
 No special actions if energy rises.
 Error on total polarization charges =  0.01186
 SCF Done:  E(RB3LYP) =  -512.497978587     A.U. after   11 cycles
             Convg  =    0.9904D-08             -V/T =  2.0033
 D1PCM: C-PCM CHGder 1st derivatives, ID1Alg=3 FixD1E=F DoIter=F DoCFld=F I1PDM=0.
 Calling FoFJK, ICntrl=      2127 FMM=F ISym2X=0 I1Cent= 0 IOpClX= 0 NMat=1 NMatS=1 NMatT=0.
 ***** Axes restored to original set *****
 -------------------------------------------------------------------
 Center     Atomic                   Forces (Hartrees/Bohr)
 Number     Number              X              Y              Z
 -------------------------------------------------------------------
      1        7          -0.000248371    0.000380701   -0.000671538
      2        1          -0.000029370   -0.000232464    0.000258293
      3        6           0.002389846    0.001802993    0.000010502
      4        1           0.000548609    0.000898119   -0.001202599
      5        6          -0.001208822   -0.001252549   -0.000562342
      6        6           0.004715362    0.014252563   -0.016677056
      7        1          -0.000373591   -0.000092736   -0.000205241
      8        1           0.000183520    0.000193874    0.000162915
      9        6          -0.000736500   -0.000160985    0.000242337
     10        8          -0.004469759   -0.005703047   -0.002292969
     11        8          -0.000117632   -0.000053515   -0.000225307
     12        1          -0.000429724    0.000147519    0.000246017
     13        8           0.024856666    0.030478885    0.004239156
     14        1          -0.025517301   -0.040876985    0.016508618
     15        8           0.000545463    0.000195848    0.000215777
     16        1          -0.000108395    0.000021780   -0.000046562
 -------------------------------------------------------------------
 Cartesian Forces:  Max     0.040876985 RMS     0.009935129

 GradGradGradGradGradGradGradGradGradGradGradGradGradGradGradGradGradGrad
 Berny optimization.
 Using GEDIIS/GDIIS optimizer.
 Internal  Forces:  Max     0.050549767 RMS     0.006873121
 Search for a local minimum.
 Step number   3 out of a maximum of   79
 All quantities printed in internal units (Hartrees-Bohrs-Radians)
 Mixed Optimization -- RFO/linear search
 Update second derivatives using D2CorX and points    2    3
 DE= -7.64D-03 DEPred=-1.21D-02 R= 6.32D-01
 SS=  1.41D+00  RLast= 3.37D-01 DXNew= 8.4853D-01 1.0123D+00
 Trust test= 6.32D-01 RLast= 3.37D-01 DXMaxT set to 8.49D-01
 ITU=  1  1  0
 Use linear search instead of GDIIS.
     Eigenvalues ---    0.00389   0.00594   0.00660   0.00805   0.01081
     Eigenvalues ---    0.01294   0.02427   0.03299   0.03994   0.04054
     Eigenvalues ---    0.04230   0.05142   0.05349   0.06712   0.09610
     Eigenvalues ---    0.12964   0.15741   0.16000   0.16000   0.16016
     Eigenvalues ---    0.17692   0.18791   0.21948   0.23988   0.25000
     Eigenvalues ---    0.25000   0.29547   0.30260   0.31551   0.34302
     Eigenvalues ---    0.34491   0.34544   0.34801   0.36144   0.44945
     Eigenvalues ---    0.45124   0.46383   0.53195   0.56226   0.67309
     Eigenvalues ---    0.80646   0.99427
 RFO step:  Lambda=-2.48561634D-03 EMin= 3.88644806D-03
 Quartic linear search produced a step of -0.28166.
 Iteration  1 RMS(Cart)=  0.02390879 RMS(Int)=  0.00022509
 Iteration  2 RMS(Cart)=  0.00033102 RMS(Int)=  0.00001927
 Iteration  3 RMS(Cart)=  0.00000021 RMS(Int)=  0.00001927
 Variable       Old X    -DE/DX   Delta X   Delta X   Delta X     New X
                                 (Linear)    (Quad)   (Total)
    R1        1.92018   0.00023  -0.00001   0.00037   0.00036   1.92054
    R2        2.77610   0.00060  -0.00121   0.00250   0.00129   2.77739
    R3        1.91814   0.00025   0.00000   0.00039   0.00039   1.91853
    R4        2.05805   0.00116   0.00021   0.00208   0.00229   2.06033
    R5        2.89588  -0.00197  -0.00088  -0.00356  -0.00444   2.89144
    R6        2.88880   0.00227  -0.00823   0.01448   0.00625   2.89504
    R7        2.06580  -0.00015  -0.00024  -0.00004  -0.00028   2.06552
    R8        2.06696   0.00017   0.00030   0.00001   0.00031   2.06727
    R9        2.84941  -0.00032   0.00026  -0.00098  -0.00073   2.84868
   R10        2.28400   0.00711   0.02820  -0.02225   0.00595   2.28995
   R11        2.49807   0.02209  -0.01200   0.03451   0.02252   2.52059
   R12        2.28879   0.00019  -0.00008   0.00021   0.00013   2.28892
   R13        2.54308   0.00051  -0.00059   0.00127   0.00067   2.54376
   R14        1.75111   0.05055   0.05357   0.04208   0.09565   1.84676
   R15        1.83464  -0.00007   0.00002  -0.00012  -0.00010   1.83454
    A1        1.94518  -0.00051   0.00069  -0.00438  -0.00368   1.94150
    A2        1.87756  -0.00016   0.00089  -0.00448  -0.00359   1.87396
    A3        1.92920   0.00057   0.00169  -0.00133   0.00036   1.92957
    A4        1.87913  -0.00038   0.00149  -0.00625  -0.00474   1.87439
    A5        1.90045   0.00096   0.00248   0.00164   0.00418   1.90463
    A6        1.93502  -0.00004  -0.00139   0.00421   0.00283   1.93786
    A7        1.91277  -0.00023   0.00161  -0.00568  -0.00407   1.90869
    A8        1.83688   0.00089   0.00465  -0.00369   0.00095   1.83782
[...]
 ! D4    D(12,1,3,4)            55.3818         -DE/DX =    0.0                 !
 ! D5    D(12,1,3,5)           174.1596         -DE/DX =    0.0                 !
 ! D6    D(12,1,3,6)           -59.7737         -DE/DX =    0.0                 !
 ! D7    D(1,3,5,7)            -55.5516         -DE/DX =    0.0                 !
 ! D8    D(1,3,5,8)             61.2205         -DE/DX =    0.0                 !
 ! D9    D(1,3,5,9)           -176.3528         -DE/DX =    0.0                 !
 ! D10   D(4,3,5,7)             62.0398         -DE/DX =    0.0                 !
 ! D11   D(4,3,5,8)            178.8118         -DE/DX =    0.0                 !
 ! D12   D(4,3,5,9)            -58.7615         -DE/DX =    0.0                 !
 ! D13   D(6,3,5,7)           -179.8887         -DE/DX =    0.0                 !
 ! D14   D(6,3,5,8)            -63.1166         -DE/DX =    0.0                 !
 ! D15   D(6,3,5,9)             59.3101         -DE/DX =    0.0                 !
 ! D16   D(1,3,6,10)            92.6654         -DE/DX =    0.0                 !
 ! D17   D(1,3,6,13)           -83.1284         -DE/DX =    0.0                 !
 ! D18   D(4,3,6,10)           -23.7152         -DE/DX =    0.0                 !
 ! D19   D(4,3,6,13)           160.491          -DE/DX =    0.0                 !
 ! D20   D(5,3,6,10)          -143.985          -DE/DX =    0.0                 !
 ! D21   D(5,3,6,13)            40.2212         -DE/DX =    0.0                 !
 ! D22   D(3,5,9,11)            -1.3045         -DE/DX =    0.0                 !
 ! D23   D(3,5,9,15)           178.5705         -DE/DX =    0.0                 !
 ! D24   D(7,5,9,11)          -122.3632         -DE/DX =    0.0                 !
 ! D25   D(7,5,9,15)            57.5118         -DE/DX =    0.0                 !
 ! D26   D(8,5,9,11)           122.7229         -DE/DX =    0.0                 !
 ! D27   D(8,5,9,15)           -57.4021         -DE/DX =    0.0                 !
 ! D28   D(3,6,13,14)          175.4691         -DE/DX =    0.0                 !
 ! D29   D(10,6,13,14)          -0.3971         -DE/DX =    0.0                 !
 ! D30   D(5,9,15,16)         -179.9108         -DE/DX =    0.0                 !
 ! D31   D(11,9,15,16)          -0.0319         -DE/DX =    0.0                 !
 --------------------------------------------------------------------------------
 GradGradGradGradGradGradGradGradGradGradGradGradGradGradGradGradGradGrad

 1|1|UNPC-WIN-20150318OUM|Freq|RB3LYP|6-311++G(d,p)|C4H7N1O4|ADMINISTRA
 TOR|07-Apr-2016|0||#N Geom=AllCheck Guess=TCheck SCRF=Check GenChk RB3
 LYP/6-311++G(d,p) Freq||Asp-S-opt-freq-ts1-6-31++gdp||0,1|N,-1.5764387
 561,1.7709788582,-0.0608371307|H,-1.7656349942,1.8377851661,0.93560285
 2|C,-0.7315306895,0.6077620536,-0.3634627323|H,-0.643013341,0.53623516
 67,-1.4482106121|C,0.6524556114,0.8236566791,0.2498002841|C,-1.4100605
 353,-0.689502448,0.0829117027|H,1.0582837214,1.7688592859,-0.120724901
 5|H,0.5916208588,0.9201669539,1.3375482022|C,1.6352995541,-0.272876696
 2,-0.0721317786|O,-2.1096042916,-1.3743794203,-0.629062631|O,1.3949389
 3,-1.2621798918,-0.7280681148|H,-2.4707051628,1.6989518025,-0.53633139
 89|O,-1.2211446849,-0.9506649127,1.3916964117|H,-1.7319043848,-1.74162
 42265,1.6279188729|O,2.8469796161,-0.0272897944,0.4609840112|H,3.44107
 03483,-0.7579508059,0.2251653233||Version=IA32W-G09RevB.01|State=1-A|H
 F=-512.5008279|RMSD=4.360e-009|RMSF=4.590e-006|ZeroPoint=0.1227497|The
 rmal=0.1322183|Dipole=0.3338248,0.6793706,1.2685113|DipoleDeriv=-0.595
 4102,0.0319531,0.0629901,0.0295389,-0.9204833,0.0656584,0.0592864,0.07
 79281,-0.3402466,0.2135871,0.0847637,0.0242733,0.0572279,0.3195762,0.0
 925062,0.0305436,0.0157232,0.0735284,0.5358644,-0.205614,-0.0484651,-0
 .137188,0.3101181,0.0039769,-0.0605034,0.0146355,0.2303646,0.0289088,-
 0.0126259,0.0001491,-0.0039871,0.036421,-0.0227639,0.0129268,-0.022015
 7,-0.0924668,-0.0651585,0.1020171,0.0036991,0.194973,-0.2182833,-0.117
 0577,0.0622326,-0.083019,0.0627205,0.8735932,0.7046402,0.5377951,0.621
 4776,1.2651916,0.0182654,0.5235135,-0.0366881,2.1739097,0.0029551,-0.0
 418022,0.0263934,-0.0668687,0.0007019,0.034092,0.0117086,0.065902,0.11
 05851,0.0443546,0.0647166,0.0220204,0.0178252,0.1201872,0.0015793,-0.0
 241648,-0.0244772,-0.0417376,2.0724091,0.1011571,0.5679085,0.0611167,1
 .5305519,0.7103201,0.565948,0.7120001,0.9549348,-0.8801356,-0.4944286,
 -0.4676779,-0.482786,-1.0222933,-0.3888064,-0.2773911,-0.1636797,-1.09
 42269,-0.9300677,0.0336593,-0.1008602,-0.2119406,-1.2379319,-0.540233,
 -0.2379554,-0.4632148,-0.7965949,0.0683099,0.0285421,-0.0530777,-0.051
 8425,0.2892821,-0.1131631,-0.0097571,-0.1074816,0.230017,-0.4984375,-0
 .0647039,-0.0418835,0.0271987,-0.6058601,0.3907887,-0.2340144,0.237349
 2,-1.604616,0.3538433,-0.0810975,-0.030463,-0.0703464,0.3453506,-0.038
 3881,-0.0503572,-0.045269,0.3960527,-1.6334826,-0.2468631,-0.4992214,0
 .0044407,-0.4995433,-0.0276536,-0.3767207,-0.1043304,-0.6319591,0.4088
 667,-0.0043142,-0.0035801,0.0111607,0.2870148,-0.0691212,0.0047048,-0.
 0733627,0.369735|Polar=90.0092182,3.5356805,95.1009422,7.6065195,6.516
 1203,82.5856175|PG=C01 [X(C4H7N1O4)]|NImag=0||0.54986125,-0.10049669,0
 .23863727,0.08567156,0.09176770,0.64185228,-0.06633010,0.02650549,0.07
 487323,0.06529188,0.01690398,-0.02313034,0.00688992,-0.02414657,0.0360
 2962,0.05280348,-0.03554419,-0.41171012,-0.06198548,0.03135220,0.43130
 046,-0.11270459,0.04940712,0.00452767,-0.00390121,0.00702006,0.0013685
 6,0.46970242,0.07697303,-0.14311395,-0.03550875,-0.00278264,-0.0084946
 6,0.00299412,0.01515763,0.42626460,0.00115739,-0.02077890,-0.10130029,
 0.02336239,-0.03254704,-0.00607031,0.00607423,0.01528692,0.63868208,-0
 .00349934,0.00718831,0.02289581,-0.00226740,0.00316105,0.00079917,-0.0
 5169602,-0.00204070,0.01548694,0.06037813,0.00555770,-0.00721085,-0.03
 246962,0.00392845,-0.00341357,-0.00117093,-0.00172755,-0.04857296,-0.0
 1014905,-0.00214387,0.06240299,0.00267296,-0.00426232,-0.00493063,0.00
 070304,-0.00020346,0.00177625,0.02182810,-0.01044467,-0.31217194,-0.02
 316104,0.01591369,0.33608740,-0.02909712,0.00673139,-0.01171878,0.0009
 8900,-0.00118687,0.00021533,-0.15577583,-0.01809107,-0.03756552,0.0007
 0187,-0.00070889,-0.00179883,0.49870627,0.03425747,-0.00052202,0.01396
 425,-0.00024098,0.00093075,0.00024637,-0.02627418,-0.08104326,-0.00931
 047,-0.00163675,-0.00038072,-0.00019333,0.02539130,0.53113741,0.007070
 13,-0.00063917,0.00457692,0.00164689,0.00035271,0.00117588,-0.04161194
 ,-0.00711532,-0.10596933,-0.03110878,-0.00488399,-0.01109488,-0.003256
 49,-0.01155143,0.55399492,0.00464828,0.02958519,-0.00623906,0.00039053
 ,-0.00105263,-0.00107444,-0.10529031,-0.04047651,0.01955088,-0.0007990
 5,-0.00301525,-0.00103982,-0.01691543,-0.02555480,0.00795597,0.4849197
 1,0.00688719,-0.03416915,0.00056084,-0.00056333,-0.00072466,-0.0001711
 5,-0.03571023,-0.12341097,0.02893787,-0.00031683,0.00055090,-0.0010190
 7,-0.00962049,-0.00074997,-0.00624636,0.28315087,0.58915457,-0.0035408
 6,-0.01016505,0.00330774,-0.00016340,-0.00405425,0.00063472,0.01886681
 ,0.03261993,-0.09429599,0.01527678,0.02973684,-0.01347080,-0.00421956,
 -0.01316414,0.00622457,0.17532956,0.07595937,0.62800900,0.00254824,0.0
 0000517,0.00054975,-0.00018701,-0.00009245,0.00003706,-0.01413366,-0.0
 2621949,0.01090212,0.00126517,0.00027821,-0.00008638,-0.08217841,-0.08
 067687,0.03241171,-0.00331775,0.00390581,-0.00332151,0.09045497,0.0011
 7138,0.00112203,0.00032694,0.00004507,-0.00008181,-0.00005941,-0.00253
 065,-0.00442361,0.00102294,-0.00004759,0.00018818,-0.00017828,-0.08381
 336,-0.24181427,0.08187820,0.00088549,0.00076053,-0.00083595,0.0901057
 6,0.26384424,0.00126838,-0.00000824,0.00014729,0.00007973,0.00012827,-
 0.00001624,-0.00741042,-0.01315577,0.00434859,0.00053824,-0.00029467,0
 .00062747,0.03309190,0.08131159,-0.07317995,-0.00251274,0.00150281,-0.
 00190827,-0.03497646,-0.08615587,0.08000028,0.00244174,-0.00103228,0.0
 0047436,-0.00082975,0.00019736,0.00027282,0.00150978,-0.00213749,-0.03
 225344,-0.00546668,-0.00067628,-0.00167269,-0.05041808,0.00472767,0.01
 841070,0.00102606,0.00051955,-0.00123427,-0.00109226,0.00105706,0.0109
 7676,0.05441216,0.00022278,0.00007305,0.00084885,0.00012230,0.00027363
 ,-0.00000115,0.00019919,-0.00133501,-0.00519586,-0.00044805,0.00036121
 ,-0.00035194,0.00402541,-0.04259000,-0.02278002,-0.00014986,0.00019066
 ,-0.00166426,-0.00240189,0.00311951,0.02814072,-0.00418798,0.04813708,
 0.00047293,0.00009716,0.00126433,-0.00086699,0.00036635,-0.00013817,-0
 .00013775,-0.00127033,-0.01274863,-0.00200809,-0.00041984,0.00066651,0
 .01636831,-0.02273210,-0.30463429,-0.00010464,0.00105927,-0.00140769,0
 .00108950,-0.00068302,-0.01075567,-0.01689597,0.02522674,0.33212976,-0
 .00148989,-0.00224280,-0.00245214,-0.00017946,0.00006482,0.00010522,-0
 .02486048,0.02155864,0.00475238,0.00085641,0.00052737,0.00015071,-0.13
 563039,0.05030166,0.01688735,-0.00635799,-0.00488270,0.00066010,0.0113
 4548,-0.01001487,-0.00262009,0.00007690,0.00164333,0.00049316,0.545103
 55,-0.00488774,0.00022369,-0.00272020,0.00098291,-0.00040839,-0.000210
 23,0.00620799,0.00527813,0.00885887,-0.00104788,0.00011006,-0.00190010
 ,0.04848583,-0.13042287,-0.00623187,-0.00356093,0.00666920,0.00019535,
 0.01746032,-0.02388894,-0.00990379,-0.00366935,-0.00255895,-0.00260221
 ,-0.01537830,0.74875154,-0.00481380,-0.00036278,-0.00220676,-0.0001371
 3,0.00001130,0.00003892,-0.00284314,0.01287980,0.00327016,-0.00123895,
 0.00056669,-0.00082218,0.01552635,-0.00665974,-0.09190644,-0.00190656,
 0.00193332,0.00173677,-0.01201574,0.00874313,0.00202740,0.02349419,-0.
 02881828,-0.00796296,0.09126155,0.29829604,0.43526785,-0.00089547,-0.0
 0938194,0.00139990,0.00006707,0.00056009,0.00046074,0.00013454,-0.0171
 7504,-0.02025700,0.00052725,0.00159862,-0.00034326,0.00015287,-0.00217
 264,0.00152834,-0.28698902,-0.22218105,-0.18629591,-0.00125314,-0.0005
 9644,-0.00011567,0.00016861,0.00018604,-0.00002447,0.00227160,-0.00067
 771,0.00019682,0.28715699,-0.00124000,-0.00273672,0.00086129,0.0000963
 8,0.00030406,0.00027010,-0.03303971,-0.01294866,-0.02464896,0.00047306
 ,0.00112846,-0.00065384,-0.00001028,-0.00749896,0.00496793,-0.21498181
 ,-0.30367949,-0.17660491,-0.00323969,-0.00041658,-0.00121948,-0.000018
 82,0.00014059,-0.00031664,0.00337048,-0.00372805,-0.00123585,0.2562122
 7,0.29750875,-0.00022384,0.00038511,0.00125909,-0.00012391,0.00089686,
 0.00023207,-0.00226736,-0.00262095,0.00702832,-0.00065535,-0.00112806,
 0.00258998,0.00042195,0.00068757,0.00151422,-0.19897594,-0.19144094,-0
 .28142699,-0.00033645,-0.00000729,0.00023706,0.00059900,0.00046909,0.0
 0048590,0.00060564,-0.00091959,-0.00072082,0.25686928,0.22901723,0.351
 93892,-0.00049431,0.00111711,0.00062201,-0.00015459,0.00010570,-0.0001
 2119,0.00092081,-0.00022519,0.00074935,0.00015492,-0.00021859,0.000882
 57,0.01456154,0.01683830,0.00580650,0.00331963,0.00102799,-0.00204650,
 -0.00236362,0.00375031,0.00179433,-0.00078441,0.00223133,0.00139091,-0
 .12106538,-0.07475468,-0.05781582,-0.00211803,-0.00029925,0.00060758,0
 .12922163,0.00172214,0.00006751,0.00059403,-0.00049517,0.00005019,0.00
 015363,-0.00543666,-0.00027590,-0.00179130,0.00057625,0.00018205,0.000
 51851,-0.00194069,-0.03058083,-0.03374503,0.00134565,-0.00385157,0.000
 22990,0.00210431,-0.00090055,-0.00085913,0.00449467,-0.00532275,0.0004
 0922,-0.05823928,-0.49962021,-0.26614130,0.00006794,0.00211971,0.00046
 600,0.11235963,0.55202903,0.00103822,0.00001981,0.00101253,-0.00031391
 ,0.00015436,-0.00000328,-0.00248029,0.00051230,-0.00180807,0.00067488,
 -0.00016005,0.00106766,-0.00554579,-0.02730860,0.00831998,-0.00002956,
 -0.00085767,-0.00103794,0.00438882,-0.00231533,-0.00182952,-0.00104281
 ,0.00180625,0.00067819,-0.04810582,-0.27182384,-0.25178002,0.00022598,
 0.00087532,0.00058657,0.09722888,0.34130874,0.26149096,-0.34166398,-0.
 00358215,-0.16893146,0.00685329,-0.00194510,0.00732352,-0.01754008,-0.
 00738117,-0.00858549,0.00046484,-0.00044198,0.00027487,-0.00207908,0.0
 0473545,0.00204314,0.00090195,-0.00011392,-0.00070516,0.00043408,0.000
 13369,0.00012581,0.00024490,-0.00003460,0.00002022,-0.00011535,-0.0013
 6338,-0.00128546,0.00005974,0.00010049,0.00009735,0.00000534,0.0004678
 4,0.00034344,0.35336952,-0.03920839,-0.02850375,-0.04632007,-0.0033305
 4,-0.00232806,0.00204429,0.02957464,-0.00464102,0.01577897,-0.00063418
 ,0.00107685,-0.00017680,0.00119599,-0.00363667,-0.00152547,0.00249621,
 -0.00062884,0.00249473,0.00015494,0.00018030,-0.00016333,-0.00010822,-
 0.00012094,0.00003783,0.00089877,0.00087214,0.00018760,0.00001234,0.00
 086912,-0.00053200,-0.00019180,0.00005793,0.00013560,0.00893152,0.0372
 4368,-0.14421742,-0.02571023,-0.13320219,-0.03646193,-0.00342027,-0.01
 742484,0.00918543,0.00247169,0.00505548,0.00027192,0.00037278,0.000389
 02,0.00152696,-0.00227501,-0.00001239,0.00027181,0.00095536,-0.0005199
 9,-0.00018782,-0.00017734,-0.00016467,0.00019188,-0.00003358,0.0002647
 8,0.00006179,0.00034997,0.00095847,-0.00047025,-0.00047929,-0.00017709
 ,0.00018137,-0.00019671,-0.00018589,0.16900761,0.02851976,0.14478758,0
 .00092222,-0.00305177,0.00023850,0.00002105,0.00055506,-0.00015246,0.0
 0810439,-0.00331155,0.01468232,-0.00102623,-0.00321067,0.00178789,-0.0
 0022994,-0.00042303,0.00035511,-0.08500905,-0.03034164,-0.00994861,0.0
 0014343,-0.00004711,0.00065771,-0.00041549,-0.00023002,0.00104838,0.00
 148228,0.00018366,0.00053453,0.00715700,-0.00641875,-0.05514502,-0.001
 29399,-0.00050482,0.00059913,-0.00000585,-0.00021420,-0.00008336,0.224
 79111,-0.00023427,-0.00203935,0.00060012,0.00010320,0.00101774,0.00034
 648,-0.00157404,-0.00355070,0.03574845,-0.00295884,-0.00580355,0.00242
 237,-0.00005964,-0.00188741,0.00203025,-0.02399662,-0.11833292,0.05200
 815,-0.00080570,0.00005540,0.00018569,-0.00028508,-0.00033087,0.000714
 01,0.00166394,-0.00211773,-0.00060357,-0.00701038,0.02965149,-0.028583
 72,-0.00015991,0.00128084,-0.00001224,-0.00008013,-0.00003607,-0.00018
 440,0.24876736,0.43083023,0.00087782,0.00436676,-0.00067898,-0.0004012
 3,-0.00016130,0.00016683,-0.00283780,0.00598020,-0.01958395,0.00140952
 ,0.00295281,-0.00051430,-0.00097530,0.00077266,-0.00162141,-0.02013496
 ,0.04093831,-0.22470369,0.00063638,0.00002600,0.00041330,0.00051039,0.
 00029867,0.00059104,-0.00097858,0.00059117,-0.00035748,-0.05275623,-0.
 02593370,-0.09132239,0.00114247,-0.00019549,-0.00001637,0.00025056,-0.
 00055488,0.00027418,0.01500380,-0.12480327,0.39873417,0.00013034,-0.00
 153285,-0.00000738,0.00002154,-0.00006963,0.00002690,0.00307132,-0.000
 12538,-0.00256499,0.00041947,0.00044117,-0.00010104,0.00011743,0.00005
 145,-0.00007678,0.00673109,0.00477227,0.00260038,0.00004349,0.00004076
 ,0.00017751,0.00004878,0.00012744,0.00019072,0.00012632,-0.00031138,-0
 .00025508,-0.00481045,0.00096141,-0.00128645,0.00018012,0.00018553,0.0
 0002942,-0.00000280,0.00005166,-0.00004377,-0.15393933,-0.21231959,0.0
 5715583,0.14786252,0.00028669,0.00135330,-0.00056918,-0.00003634,-0.00
 010489,-0.00027309,-0.00153226,0.00347603,0.00243653,-0.00019666,-0.00
 052734,0.00009325,0.00022158,0.00023411,-0.00017060,-0.00507317,-0.009
 93875,0.01320769,0.00009264,0.00002997,-0.00012449,0.00001413,-0.00003
 509,-0.00008154,-0.00035612,-0.00013743,-0.00002287,0.00031668,-0.0017
 8407,-0.00695846,0.00021059,0.00011286,-0.00008045,0.00007725,-0.00009
 017,0.00009220,-0.20179998,-0.32921337,0.09594546,0.20766850,0.3366157
 3,-0.00030933,0.00060488,0.00046691,-0.00024089,0.00026355,0.00004879,
 -0.00216076,-0.00124402,-0.00593885,0.00054618,0.00118240,-0.00038153,
 -0.00063317,-0.00070315,0.00000224,0.02762425,0.04790767,-0.02063893,-
 0.00014280,-0.00002251,0.00023140,0.00033015,0.00026720,0.00038518,0.0
 0055457,-0.00004218,0.00006753,0.00012409,-0.00484027,0.00771934,-0.00
 034525,-0.00003738,0.00008218,-0.00003647,0.00006934,0.00002014,0.0307
 6595,0.06016420,-0.06165293,-0.05587960,-0.10357419,0.07969960,-0.0038
 4403,0.00079111,-0.00157399,0.00019934,-0.00007450,-0.00008166,0.00223
 805,0.00495958,0.00388543,0.00000385,-0.00021453,-0.00001017,-0.038975
 55,0.00412062,-0.01368851,0.00300236,0.00328113,-0.00128636,-0.0021633
 2,-0.00036739,-0.00099322,-0.00141536,-0.00091059,-0.00119271,-0.23078
 256,-0.00516473,-0.05666580,-0.00170866,-0.00189478,-0.00017359,-0.029
 55372,-0.05635195,-0.05151713,-0.00081796,0.00031397,0.00066647,-0.000
 78184,-0.00100756,0.00110711,0.00001330,0.00012030,-0.00022483,0.49777
 422,0.00218705,-0.00002948,0.00119459,-0.00018009,0.00009070,0.0000176
 3,0.00046599,-0.00368507,-0.00326383,0.00005873,-0.00008095,0.00042841
 ,0.03017860,0.00646616,0.00674045,0.00019130,-0.00183635,-0.00002974,-
 0.00017306,0.00184855,0.00060768,0.00125997,0.00027716,0.00055765,0.01
 100980,-0.10915534,-0.02325175,0.00027316,0.00105551,0.00027201,-0.059
 18727,-0.01089300,-0.04177140,0.00053641,-0.00033116,-0.00029069,0.000
 09634,0.00048583,-0.00024370,0.00005897,0.00000256,0.00001407,-0.16856
 819,0.41408700,0.00020880,0.00026880,0.00024460,0.00000964,-0.00001818
 ,-0.00000905,0.00038539,-0.00148059,0.00064498,0.00017694,-0.00008174,
 0.00015544,0.00144235,-0.00127797,0.01083927,0.00134607,-0.00012594,-0
 .00051131,0.00086355,-0.00090425,0.00004121,-0.00174854,0.00130177,0.0
 0077765,-0.04744862,-0.02845564,-0.09553606,-0.00054313,0.00001216,0.0
 0008664,-0.05332599,-0.04089739,-0.01261669,0.00008738,-0.00005498,-0.
 00004546,-0.00036877,-0.00001069,0.00028131,0.00003732,0.00007819,-0.0
 0011464,0.05007843,0.16644789,0.14983311,-0.00053324,-0.00001042,-0.00
 032997,0.00001581,-0.00000039,0.00000245,0.00022086,0.00131735,0.00062
 301,-0.00001718,0.00002609,-0.00008691,-0.00392914,-0.00344465,-0.0043
 7335,-0.00026101,0.00018539,0.00002850,0.00045431,0.00022788,-0.000081
 77,0.00049310,-0.00039485,0.00015648,-0.04078106,0.03749538,0.00796402
 ,0.00007910,-0.00007099,-0.00001288,0.00946407,-0.00035540,0.00450653,
 -0.00010858,0.00005729,0.00009930,0.00008024,-0.00004273,-0.00000980,-
 0.00001313,-0.00001381,0.00002790,-0.19318812,0.18179229,0.04879916,0.
 22802397,-0.00010233,-0.00002124,-0.00002071,-0.00000814,-0.00001030,0
 .00000531,-0.00020735,0.00047701,-0.00038514,0.00001396,-0.00001079,0.
 00000758,-0.00079882,0.00235854,-0.00108027,0.00020686,-0.00000320,0.0
 0006633,-0.00049802,0.00037704,0.00000800,-0.00015490,-0.00027928,-0.0
 0036255,0.00007527,0.01013314,0.00447827,-0.00003194,0.00001485,-0.000
 00286,-0.00260428,-0.00445532,-0.00048280,-0.00004021,0.00001666,0.000
 00578,-0.00004888,-0.00000955,0.00002029,-0.00000032,0.00000655,-0.000
 00962,0.22096752,-0.29830213,-0.09480144,-0.21676843,0.28970801,-0.000
 13642,-0.00003934,-0.00010272,0.00001995,-0.00001100,-0.00000191,-0.00
 048672,0.00009544,0.00085774,0.00009583,0.00003274,0.00002652,-0.00287
 971,-0.00180649,0.00177069,-0.00006082,0.00010632,0.00000878,0.0001882
 7,-0.00065796,-0.00021969,-0.00041253,0.00048579,0.00040407,-0.0139272
 2,0.01651824,0.00792563,0.00000075,-0.00007110,-0.00003080,0.00324877,
 0.00018370,-0.00396031,-0.00002986,0.00005942,-0.00001712,0.00002490,-
 0.00002184,-0.00000935,-0.00000301,0.00000157,0.00000358,0.07167051,-0
 .10742929,-0.05407099,-0.05731267,0.09255382,0.04741587||0.00000346,-0
 .00000079,-0.00000253,-0.00000180,0.00000118,-0.00000415,0.00000366,0.
 00000924,-0.00000253,0.00000070,-0.00000346,-0.00000123,-0.00000195,-0
 .00000321,-0.00000249,-0.00000852,-0.00001986,0.00000584,0.00000044,0.
 00000011,-0.00000026,-0.00000235,0.00000206,0.00000032,-0.00000612,0.0
 0000153,0.00000053,0.00000439,0.00000574,-0.00000491,0.00000347,-0.000
 00167,0.00000555,0.00000098,-0.00000069,-0.00000569,-0.00000033,0.0000
 0547,0.00000138,0.00000054,0.00000566,0.00000012,0.00000245,-0.0000006
 0,0.00000419,0.00000096,-0.00000072,0.00000585|||@


 The lyf so short, the craft so long to lerne.
                             -- Chaucer
 Job cpu time:  0 days  0 hours 45 minutes 14.0 seconds.
 File lengths (MBytes):  RWF=    123 Int=      0 D2E=      0 Chk=      8 Scr=      1
 Normal termination of Gaussian 09 at Thu Apr 07 16:34:27 2016.
