 Entering Gaussian System, Link 0=g09
 Input=Ala-S-opt-freq-tsb2-6-31g.com
 Output=Ala-S-opt-freq-tsb2-6-31g.log
 Initial command:
 /usr/local/gau/g09/l1.exe "/tmp/Gau-6326.inp" -scrdir="/tmp/"
 Entering Link 1 = /usr/local/gau/g09/l1.exe PID=      6329.
  
 Copyright (c) 1988,1990,1992,1993,1995,1998,2003,2009,2013,
            Gaussian, Inc.  All Rights Reserved.
  
 This is part of the Gaussian(R) 09 program.  It is based on
 the Gaussian(R) 03 system (copyright 2003, Gaussian, Inc.),
 the Gaussian(R) 98 system (copyright 1998, Gaussian, Inc.),
 the Gaussian(R) 94 system (copyright 1995, Gaussian, Inc.),
 the Gaussian 92(TM) system (copyright 1992, Gaussian, Inc.),
 the Gaussian 90(TM) system (copyright 1990, Gaussian, Inc.),
 the Gaussian 88(TM) system (copyright 1988, Gaussian, Inc.),
 the Gaussian 86(TM) system (copyright 1986, Carnegie Mellon
 University), and the Gaussian 82(TM) system (copyright 1983,
 Carnegie Mellon University). Gaussian is a federally registered
 trademark of Gaussian, Inc.
  
 This software contains proprietary and confidential information,
 including trade secrets, belonging to Gaussian, Inc.
  
 This software is provided under written license and may be
 used, copied, transmitted, or stored only in accord with that
 written license.
  
 The following legend is applicable only to US Government
 contracts under FAR:
  
                    RESTRICTED RIGHTS LEGEND
  
 Use, reproduction and disclosure by the US Government is
 subject to restrictions as set forth in subparagraphs (a)
 and (c) of the Commercial Computer Software - Restricted
 Rights clause in FAR 52.227-19.
  
 Gaussian, Inc.
 340 Quinnipiac St., Bldg. 40, Wallingford CT 06492
  
  
 ---------------------------------------------------------------
 Warning -- This program may not be used in any manner that
 competes with the business of Gaussian, Inc. or will provide
 assistance to any competitor of Gaussian, Inc.  The licensee
 of this program is prohibited from giving any competitor of
 Gaussian, Inc. access to this program.  By using this program,
 the user acknowledges that Gaussian, Inc. is engaged in the
 business of creating and licensing software in the field of
 computational chemistry and represents and warrants to the
 licensee that it is not a competitor of Gaussian, Inc. and that
 it will not use this program in any manner prohibited above.
 ---------------------------------------------------------------
  

 Cite this work as:
 Gaussian 09, Revision D.01,
 M. J. Frisch, G. W. Trucks, H. B. Schlegel, G. E. Scuseria, 
 M. A. Robb, J. R. Cheeseman, G. Scalmani, V. Barone, B. Mennucci, 
 G. A. Petersson, H. Nakatsuji, M. Caricato, X. Li, H. P. Hratchian, 
 A. F. Izmaylov, J. Bloino, G. Zheng, J. L. Sonnenberg, M. Hada, 
 M. Ehara, K. Toyota, R. Fukuda, J. Hasegawa, M. Ishida, T. Nakajima, 
 Y. Honda, O. Kitao, H. Nakai, T. Vreven, J. A. Montgomery, Jr., 
 J. E. Peralta, F. Ogliaro, M. Bearpark, J. J. Heyd, E. Brothers, 
 K. N. Kudin, V. N. Staroverov, T. Keith, R. Kobayashi, J. Normand, 
 K. Raghavachari, A. Rendell, J. C. Burant, S. S. Iyengar, J. Tomasi, 
 M. Cossi, N. Rega, J. M. Millam, M. Klene, J. E. Knox, J. B. Cross, 
 V. Bakken, C. Adamo, J. Jaramillo, R. Gomperts, R. E. Stratmann, 
 O. Yazyev, A. J. Austin, R. Cammi, C. Pomelli, J. W. Ochterski, 
 R. L. Martin, K. Morokuma, V. G. Zakrzewski, G. A. Voth, 
 P. Salvador, J. J. Dannenberg, S. Dapprich, A. D. Daniels, 
 O. Farkas, J. B. Foresman, J. V. Ortiz, J. Cioslowski, 
 and D. J. Fox, Gaussian, Inc., Wallingford CT, 2013.
 
 ******************************************
 Gaussian 09:  ES64L-G09RevD.01 24-Apr-2013
                10-Apr-2016 
 ******************************************
 %chk=Ala-S-opt-freq-tsb2-6-31g.chk
 -----------------------------------------------
 # opt=(calcfc,ts) freq rb3lyp/6-31g iop(1/11=1)
 -----------------------------------------------
 1/5=1,10=4,11=1,14=-1,18=20,26=3,38=1/1,3;
 2/9=110,12=2,17=6,18=5,40=1/2;
 3/5=1,6=6,11=2,16=1,25=1,30=1,71=2,74=-5,116=1,140=1/1,2,3;
 4//1;
 5/5=2,38=5/2;
 8/6=4,10=90,11=11/1;
 11/6=1,8=1,9=11,15=111,16=1/1,2,10;
 10/6=1,13=1/2;
 6/7=2,8=2,9=2,10=2,28=1/1;
 7/10=1,18=20,25=1/1,2,3,16;
 1/5=1,10=4,11=1,14=-1,18=20,26=3/3(2);
 2/9=110/2;
 99//99;
 2/9=110/2;
 3/5=1,6=6,11=2,16=1,25=1,30=1,71=1,74=-5,116=1/1,2,3;
 4/5=5,16=3,69=1/1;
 5/5=2,38=5/2;
 7//1,2,3,16;
 1/5=1,11=1,14=-1,18=20,26=3/3(-5);
 2/9=110/2;
 6/7=2,8=2,9=2,10=2,19=2,28=1/1;
 99/9=1/99;
 -------------------------
 Ala-S-opt-freq-tsb2-6-31g
 -------------------------
 Symbolic Z-matrix:
 Charge =  0 Multiplicity = 1
 N                    -0.80549   1.45331  -0.32521 
 H                     1.10047   1.58572  -0.0963 
 C                    -0.72784   0.23614   0.0781 
 H                     1.04858   0.50788   1.56403 
 C                    -1.83463  -0.76957   0.19506 
 C                     0.684    -0.23931   0.43762 
 H                    -2.79156  -0.36253  -0.14493 
 H                    -1.58228  -1.65626  -0.39616 
 H                    -1.94464  -1.09992   1.23618 
 O                     1.61391   0.81308   0.26565 
 H                    -1.74007   1.77515  -0.59805 
 O                     1.01052  -1.3691   -0.42129 
 H                     1.6154   -1.03178  -1.11525 
 
 Add virtual bond connecting atoms C6         and H4         Dist= 2.65D+00.
 Add virtual bond connecting atoms O10        and H4         Dist= 2.74D+00.

 GradGradGradGradGradGradGradGradGradGradGradGradGradGradGradGradGradGrad
 Berny optimization.
 Initialization pass.
                           ----------------------------
                           !    Initial Parameters    !
                           ! (Angstroms and Degrees)  !
 --------------------------                            --------------------------
 ! Name  Definition              Value          Derivative Info.                !
 --------------------------------------------------------------------------------
 ! R1    R(1,3)                  1.2846         calculate D2E/DX2 analytically  !
 ! R2    R(1,11)                 1.0254         calculate D2E/DX2 analytically  !
 ! R3    R(2,10)                 0.9958         calculate D2E/DX2 analytically  !
 ! R4    R(3,5)                  1.5            calculate D2E/DX2 analytically  !
 ! R5    R(3,6)                  1.5325         calculate D2E/DX2 analytically  !
 ! R6    R(4,6)                  1.4            calculate D2E/DX2 analytically  !
 ! R7    R(4,10)                 1.4486         calculate D2E/DX2 analytically  !
 ! R8    R(5,7)                  1.0941         calculate D2E/DX2 analytically  !
 ! R9    R(5,8)                  1.0952         calculate D2E/DX2 analytically  !
 ! R10   R(5,9)                  1.0978         calculate D2E/DX2 analytically  !
 ! R11   R(6,10)                 1.4149         calculate D2E/DX2 analytically  !
 ! R12   R(6,12)                 1.4563         calculate D2E/DX2 analytically  !
 ! R13   R(12,13)                0.9804         calculate D2E/DX2 analytically  !
 ! A1    A(3,1,11)             115.8494         calculate D2E/DX2 analytically  !
 ! A2    A(1,3,5)              127.9628         calculate D2E/DX2 analytically  !
 ! A3    A(1,3,6)              115.0423         calculate D2E/DX2 analytically  !
 ! A4    A(5,3,6)              116.9653         calculate D2E/DX2 analytically  !
 ! A5    A(3,5,7)              111.8195         calculate D2E/DX2 analytically  !
 ! A6    A(3,5,8)              109.3119         calculate D2E/DX2 analytically  !
 ! A7    A(3,5,9)              110.4653         calculate D2E/DX2 analytically  !
 ! A8    A(7,5,8)              109.572          calculate D2E/DX2 analytically  !
 ! A9    A(7,5,9)              108.6037         calculate D2E/DX2 analytically  !
 ! A10   A(8,5,9)              106.943          calculate D2E/DX2 analytically  !
 ! A11   A(3,6,4)              105.253          calculate D2E/DX2 analytically  !
 ! A12   A(3,6,10)             110.2565         calculate D2E/DX2 analytically  !
 ! A13   A(3,6,12)             107.9916         calculate D2E/DX2 analytically  !
 ! A14   A(4,6,12)             146.1189         calculate D2E/DX2 analytically  !
 ! A15   A(10,6,12)            110.9781         calculate D2E/DX2 analytically  !
 ! A16   A(2,10,4)             106.7401         calculate D2E/DX2 analytically  !
 ! A17   A(2,10,6)             106.4051         calculate D2E/DX2 analytically  !
 ! A18   A(6,12,13)            106.7902         calculate D2E/DX2 analytically  !
 ! D1    D(11,1,3,5)             0.1528         calculate D2E/DX2 analytically  !
 ! D2    D(11,1,3,6)           178.0937         calculate D2E/DX2 analytically  !
 ! D3    D(1,3,5,7)              1.7557         calculate D2E/DX2 analytically  !
 ! D4    D(1,3,5,8)            123.2662         calculate D2E/DX2 analytically  !
 ! D5    D(1,3,5,9)           -119.3223         calculate D2E/DX2 analytically  !
 ! D6    D(6,3,5,7)           -176.1512         calculate D2E/DX2 analytically  !
 ! D7    D(6,3,5,8)            -54.6407         calculate D2E/DX2 analytically  !
 ! D8    D(6,3,5,9)             62.7708         calculate D2E/DX2 analytically  !
 ! D9    D(1,3,6,4)             66.4879         calculate D2E/DX2 analytically  !
 ! D10   D(1,3,6,10)             1.2602         calculate D2E/DX2 analytically  !
 ! D11   D(1,3,6,12)          -120.1447         calculate D2E/DX2 analytically  !
 ! D12   D(5,3,6,4)           -115.3334         calculate D2E/DX2 analytically  !
 ! D13   D(5,3,6,10)           179.4389         calculate D2E/DX2 analytically  !
 ! D14   D(5,3,6,12)            58.034          calculate D2E/DX2 analytically  !
 ! D15   D(6,4,10,2)            99.3036         calculate D2E/DX2 analytically  !
 ! D16   D(3,6,10,2)            -2.9389         calculate D2E/DX2 analytically  !
 ! D17   D(12,6,10,2)          116.6724         calculate D2E/DX2 analytically  !
 ! D18   D(3,6,12,13)          103.0987         calculate D2E/DX2 analytically  !
 ! D19   D(4,6,12,13)          -88.4319         calculate D2E/DX2 analytically  !
 ! D20   D(10,6,12,13)         -17.8576         calculate D2E/DX2 analytically  !
 --------------------------------------------------------------------------------
 Trust Radius=3.00D-01 FncErr=1.00D-07 GrdErr=1.00D-06
 Number of steps in this run=     61 maximum allowed number of steps=    100.
 Search for a saddle point of order  1.
 GradGradGradGradGradGradGradGradGradGradGradGradGradGradGradGradGradGrad

                          Input orientation:                          
 ---------------------------------------------------------------------
 Center     Atomic      Atomic             Coordinates (Angstroms)
 Number     Number       Type             X           Y           Z
 ---------------------------------------------------------------------
      1          7           0       -0.805486    1.453315   -0.325208
      2          1           0        1.100465    1.585723   -0.096296
      3          6           0       -0.727842    0.236136    0.078096
      4          1           0        1.048575    0.507876    1.564029
      5          6           0       -1.834629   -0.769571    0.195060
      6          6           0        0.684002   -0.239305    0.437616
      7          1           0       -2.791565   -0.362526   -0.144931
      8          1           0       -1.582280   -1.656258   -0.396163
      9          1           0       -1.944637   -1.099924    1.236181
     10          8           0        1.613905    0.813078    0.265653
     11          1           0       -1.740070    1.775147   -0.598046
     12          8           0        1.010516   -1.369104   -0.421288
     13          1           0        1.615395   -1.031781   -1.115253
 ---------------------------------------------------------------------
                    Distance matrix (angstroms):
                    1          2          3          4          5
     1  N    0.000000
     2  H    1.924209   0.000000
     3  C    1.284604   2.279145   0.000000
     4  H    2.810803   1.980184   2.331844   0.000000
     5  C    2.504204   3.774530   1.500035   3.437850   0.000000
     6  C    2.380218   1.946595   1.532515   1.400000   2.585250
     7  H    2.697089   4.352693   2.160345   4.292414   1.094078
     8  H    3.205914   4.218706   2.129822   3.930296   1.095189
     9  H    3.202285   4.273271   2.146347   3.413477   1.097801
    10  O    2.571473   0.995795   2.419053   1.448630   3.795016
    11  H    1.025409   2.890722   1.962225   3.749278   2.667124
    12  O    3.357550   2.974006   2.418278   2.732396   2.972234
    13  H    3.558165   2.855653   2.919324   3.141717   3.699776
                    6          7          8          9         10
     6  C    0.000000
     7  H    3.526203   0.000000
     8  H    2.799817   1.788639   0.000000
     9  H    2.878908   1.780032   1.762202   0.000000
    10  O    1.414850   4.578077   4.092825   4.155084   0.000000
    11  H    3.317640   2.424995   3.440958   3.416470   3.594538
    12  O    1.456287   3.942765   2.608770   3.398910   2.365985
    13  H    1.976591   4.561877   3.336493   4.267050   2.304432
                   11         12         13
    11  H    0.000000
    12  O    4.181301   0.000000
    13  H    4.405167   0.980435   0.000000
 Stoichiometry    C3H7NO2
 Framework group  C1[X(C3H7NO2)]
 Deg. of freedom    33
 Full point group                 C1      NOp   1
 Largest Abelian subgroup         C1      NOp   1
 Largest concise Abelian subgroup C1      NOp   1
                         Standard orientation:                         
 ---------------------------------------------------------------------
 Center     Atomic      Atomic             Coordinates (Angstroms)
 Number     Number       Type             X           Y           Z
 ---------------------------------------------------------------------
      1          7           0       -0.757845    1.446135   -0.402863
      2          1           0        1.153280    1.526171   -0.193633
      3          6           0       -0.715641    0.244564    0.049523
      4          1           0        1.081391    0.519244    1.509910
      5          6           0       -1.852946   -0.719269    0.215858
      6          6           0        0.683357   -0.261140    0.417861
      7          1           0       -2.799301   -0.295759   -0.133509
      8          1           0       -1.634207   -1.637039   -0.340281
      9          1           0       -1.964410   -1.003118    1.270454
     10          8           0        1.644889    0.752772    0.195961
     11          1           0       -1.684001    1.786568   -0.681800
     12          8           0        0.966126   -1.435015   -0.396284
     13          1           0        1.575427   -1.146010   -1.107960
 ---------------------------------------------------------------------
 Rotational constants (GHZ):      4.8734485      3.2519005      2.1844521
 Standard basis: 6-31G (6D, 7F)
 There are    68 symmetry adapted cartesian basis functions of A   symmetry.
 There are    68 symmetry adapted basis functions of A   symmetry.
    68 basis functions,   160 primitive gaussians,    68 cartesian basis functions
    24 alpha electrons       24 beta electrons
       nuclear repulsion energy       246.9839920028 Hartrees.
 NAtoms=   13 NActive=   13 NUniq=   13 SFac= 1.00D+00 NAtFMM=   60 NAOKFM=F Big=F
 Integral buffers will be    131072 words long.
 Raffenetti 2 integral format.
 Two-electron integral symmetry is turned on.
 One-electron integrals computed using PRISM.
 NBasis=    68 RedAO= T EigKep=  4.03D-03  NBF=    68
 NBsUse=    68 1.00D-06 EigRej= -1.00D+00 NBFU=    68
 ExpMin= 1.61D-01 ExpMax= 5.48D+03 ExpMxC= 8.25D+02 IAcc=1 IRadAn=         1 AccDes= 0.00D+00
 Harris functional with IExCor=  402 and IRadAn=       1 diagonalized for initial guess.
 HarFok:  IExCor=  402 AccDes= 0.00D+00 IRadAn=         1 IDoV= 1 UseB2=F ITyADJ=14
 ICtDFT=  3500011 ScaDFX=  1.000000  1.000000  1.000000  1.000000
 FoFCou: FMM=F IPFlag=           0 FMFlag=      100000 FMFlg1=           0
         NFxFlg=           0 DoJE=T BraDBF=F KetDBF=T FulRan=T
         wScrn=  0.000000 ICntrl=     500 IOpCl=  0 I1Cent=   200000004 NGrid=           0
         NMat0=    1 NMatS0=      1 NMatT0=    0 NMatD0=    1 NMtDS0=    0 NMtDT0=    0
 Petite list used in FoFCou.
 Keep R1 ints in memory in canonical form, NReq=3676491.
 Requested convergence on RMS density matrix=1.00D-08 within 128 cycles.
 Requested convergence on MAX density matrix=1.00D-06.
 Requested convergence on             energy=1.00D-06.
 No special actions if energy rises.
 Integral accuracy reduced to 1.0D-05 until final iterations.
 Initial convergence to 1.0D-05 achieved.  Increase integral accuracy.
 SCF Done:  E(RB3LYP) =  -323.467645929     A.U. after   16 cycles
            NFock= 16  Conv=0.44D-08     -V/T= 2.0053
 DoSCS=F DFT=T ScalE2(SS,OS)=  1.000000  1.000000
 Range of M.O.s used for correlation:     1    68
 NBasis=    68 NAE=    24 NBE=    24 NFC=     0 NFV=     0
 NROrb=     68 NOA=    24 NOB=    24 NVA=    44 NVB=    44
 Symmetrizing basis deriv contribution to polar:
 IMax=3 JMax=2 DiffMx= 0.00D+00
 G2DrvN: will do    14 centers at a time, making    1 passes.
 Calling FoFCou, ICntrl=  3107 FMM=F I1Cent=   0 AccDes= 0.00D+00.
 End of G2Drv F.D. properties file   721 does not exist.
 End of G2Drv F.D. properties file   722 does not exist.
 End of G2Drv F.D. properties file   788 does not exist.
          IDoAtm=1111111111111
          Differentiating once with respect to nuclear coordinates.
 Keep R1 ints in memory in canonical form, NReq=3645290.
          There are    42 degrees of freedom in the 1st order CPHF.  IDoFFX=6 NUNeed=     0.
     36 vectors produced by pass  0 Test12= 2.51D-15 2.38D-09 XBig12= 1.12D-01 1.09D-01.
 AX will form    36 AO Fock derivatives at one time.
     36 vectors produced by pass  1 Test12= 2.51D-15 2.38D-09 XBig12= 3.54D-02 6.77D-02.
     36 vectors produced by pass  2 Test12= 2.51D-15 2.38D-09 XBig12= 1.55D-04 2.15D-03.
     36 vectors produced by pass  3 Test12= 2.51D-15 2.38D-09 XBig12= 2.94D-07 7.97D-05.
     36 vectors produced by pass  4 Test12= 2.51D-15 2.38D-09 XBig12= 2.29D-10 2.19D-06.
     18 vectors produced by pass  5 Test12= 2.51D-15 2.38D-09 XBig12= 1.30D-13 5.72D-08.
 InvSVY:  IOpt=1 It=  1 EMax= 1.78D-15
 Solved reduced A of dimension   198 with    36 vectors.
 End of Minotr F.D. properties file   721 does not exist.
 End of Minotr F.D. properties file   722 does not exist.
 End of Minotr F.D. properties file   788 does not exist.

 **********************************************************************

            Population analysis using the SCF density.

 **********************************************************************

 Orbital symmetries:
       Occupied  (A) (A) (A) (A) (A) (A) (A) (A) (A) (A) (A) (A)
                 (A) (A) (A) (A) (A) (A) (A) (A) (A) (A) (A) (A)
       Virtual   (A) (A) (A) (A) (A) (A) (A) (A) (A) (A) (A) (A)
                 (A) (A) (A) (A) (A) (A) (A) (A) (A) (A) (A) (A)
                 (A) (A) (A) (A) (A) (A) (A) (A) (A) (A) (A) (A)
                 (A) (A) (A) (A) (A) (A) (A) (A)
 The electronic state is 1-A.
 Alpha  occ. eigenvalues --  -19.16470 -19.15666 -14.33750 -10.29128 -10.25441
 Alpha  occ. eigenvalues --  -10.19299  -1.09003  -1.01082  -0.93006  -0.75159
 Alpha  occ. eigenvalues --   -0.67832  -0.59610  -0.54445  -0.48674  -0.48064
 Alpha  occ. eigenvalues --   -0.46177  -0.43377  -0.41930  -0.35727  -0.34405
 Alpha  occ. eigenvalues --   -0.32889  -0.30895  -0.27908  -0.21372
 Alpha virt. eigenvalues --   -0.01934   0.00483   0.07825   0.09696   0.12321
 Alpha virt. eigenvalues --    0.13536   0.15655   0.17277   0.21719   0.23248
 Alpha virt. eigenvalues --    0.24541   0.29169   0.39944   0.52587   0.55004
 Alpha virt. eigenvalues --    0.56921   0.58295   0.63474   0.64069   0.68101
 Alpha virt. eigenvalues --    0.70887   0.72613   0.75476   0.77264   0.79211
 Alpha virt. eigenvalues --    0.83897   0.85685   0.86726   0.91498   0.94672
 Alpha virt. eigenvalues --    0.95135   0.96245   0.98539   1.04694   1.08978
 Alpha virt. eigenvalues --    1.10856   1.15211   1.19770   1.28045   1.40584
 Alpha virt. eigenvalues --    1.45916   1.50471   1.73314   1.89619
          Condensed to atoms (all electrons):
               1          2          3          4          5          6
     1  N    6.873344   0.069189   0.545332   0.002320  -0.106722  -0.097151
     2  H    0.069189   0.390656  -0.003339   0.027777   0.002812  -0.055796
     3  C    0.545332  -0.003339   5.148605  -0.053551   0.271203   0.111817
     4  H    0.002320   0.027777  -0.053551   0.562456  -0.000771   0.297906
     5  C   -0.106722   0.002812   0.271203  -0.000771   5.328557  -0.100493
     6  C   -0.097151  -0.055796   0.111817   0.297906  -0.100493   5.474113
     7  H   -0.003189  -0.000019  -0.030803   0.000006   0.356724   0.004093
     8  H    0.002244  -0.000060  -0.030099   0.000203   0.355336   0.000456
     9  H    0.002203  -0.000044  -0.026689   0.000425   0.355272   0.002811
    10  O   -0.030514   0.185677  -0.016621  -0.096438   0.003686  -0.061627
    11  H    0.305758  -0.003674  -0.061635  -0.000821  -0.015260   0.010795
    12  O    0.000698   0.004024  -0.084273  -0.003444  -0.001958   0.220838
    13  H    0.000954   0.002700  -0.001365   0.004118  -0.000376  -0.030570
               7          8          9         10         11         12
     1  N   -0.003189   0.002244   0.002203  -0.030514   0.305758   0.000698
     2  H   -0.000019  -0.000060  -0.000044   0.185677  -0.003674   0.004024
     3  C   -0.030803  -0.030099  -0.026689  -0.016621  -0.061635  -0.084273
     4  H    0.000006   0.000203   0.000425  -0.096438  -0.000821  -0.003444
     5  C    0.356724   0.355336   0.355272   0.003686  -0.015260  -0.001958
     6  C    0.004093   0.000456   0.002811  -0.061627   0.010795   0.220838
     7  H    0.582180  -0.025220  -0.027747  -0.000072   0.005847   0.000042
     8  H   -0.025220   0.514735  -0.023671   0.000129  -0.000009   0.010515
     9  H   -0.027747  -0.023671   0.543232  -0.000063   0.000130  -0.000027
    10  O   -0.000072   0.000129  -0.000063   8.696577   0.000752  -0.067711
    11  H    0.005847  -0.000009   0.000130   0.000752   0.488269  -0.000257
    12  O    0.000042   0.010515  -0.000027  -0.067711  -0.000257   8.301212
    13  H    0.000005   0.000067   0.000030   0.006928  -0.000023   0.220591
              13
     1  N    0.000954
     2  H    0.002700
     3  C   -0.001365
     4  H    0.004118
     5  C   -0.000376
     6  C   -0.030570
     7  H    0.000005
     8  H    0.000067
     9  H    0.000030
    10  O    0.006928
    11  H   -0.000023
    12  O    0.220591
    13  H    0.435444
 Mulliken charges:
               1
     1  N   -0.564466
     2  H    0.380096
     3  C    0.231417
     4  H    0.259814
     5  C   -0.448011
     6  C    0.222809
     7  H    0.138154
     8  H    0.195375
     9  H    0.174139
    10  O   -0.620702
    11  H    0.270128
    12  O   -0.600250
    13  H    0.361497
 Sum of Mulliken charges =   0.00000
 Mulliken charges with hydrogens summed into heavy atoms:
               1
     1  N   -0.294338
     3  C    0.231417
     5  C    0.059657
     6  C    0.482623
    10  O   -0.240606
    12  O   -0.238753
 APT charges:
               1
     1  N   -0.758123
     2  H    0.395676
     3  C    0.059316
     4  H    0.375128
     5  C   -1.188401
     6  C   -0.003148
     7  H    0.480499
     8  H    0.371466
     9  H    0.426269
    10  O   -0.575576
    11  H    0.630081
    12  O   -0.759364
    13  H    0.546176
 Sum of APT charges =   0.00000
 APT charges with hydrogens summed into heavy atoms:
               1
     1  N   -0.128041
     3  C    0.059316
     5  C    0.089833
     6  C    0.371980
    10  O   -0.179901
    12  O   -0.213188
 Electronic spatial extent (au):  <R**2>=            588.0046
 Charge=              0.0000 electrons
 Dipole moment (field-independent basis, Debye):
    X=             -2.4760    Y=              0.9410    Z=             -0.6651  Tot=              2.7310
 Quadrupole moment (field-independent basis, Debye-Ang):
   XX=            -34.4629   YY=            -40.1254   ZZ=            -34.3096
   XY=             -0.3265   XZ=             -1.7161   YZ=              1.0946
 Traceless Quadrupole moment (field-independent basis, Debye-Ang):
   XX=              1.8364   YY=             -3.8261   ZZ=              1.9897
   XY=             -0.3265   XZ=             -1.7161   YZ=              1.0946
 Octapole moment (field-independent basis, Debye-Ang**2):
  XXX=             -7.2268  YYY=              6.3878  ZZZ=             -3.7479  XYY=             -2.0144
  XXY=              0.4649  XXZ=             -7.7634  XZZ=              5.8958  YZZ=             -1.1572
  YYZ=             -2.1611  XYZ=              4.8083
 Hexadecapole moment (field-independent basis, Debye-Ang**3):
 XXXX=           -400.0847 YYYY=           -265.1770 ZZZZ=            -72.2712 XXXY=            -23.3529
 XXXZ=             -6.4349 YYYX=              4.3131 YYYZ=              1.6265 ZZZX=             -5.1407
 ZZZY=              7.6763 XXYY=            -96.4815 XXZZ=            -70.1020 YYZZ=            -51.4168
 XXYZ=             -0.0971 YYXZ=             -0.4439 ZZXY=             -3.1773
 N-N= 2.469839920028D+02 E-N=-1.251495366041D+03  KE= 3.217536787243D+02
  Exact polarizability:   0.000   0.000   0.000   0.000   0.000   0.000
 Approx polarizability:  64.751   3.472  90.979   5.848  -0.612  55.737
 Calling FoFJK, ICntrl=    100147 FMM=F ISym2X=0 I1Cent= 0 IOpClX= 0 NMat=1 NMatS=1 NMatT=0.
 ***** Axes restored to original set *****
 -------------------------------------------------------------------
 Center     Atomic                   Forces (Hartrees/Bohr)
 Number     Number              X              Y              Z
 -------------------------------------------------------------------
      1        7           0.000946399    0.005617378   -0.000444316
      2        1          -0.000031934    0.007681163   -0.016383645
      3        6           0.009825406   -0.011447858   -0.000096155
      4        1          -0.023805437   -0.078100134   -0.006509138
      5        6           0.000498769   -0.000581049    0.000360379
      6        6          -0.035835910    0.008247068    0.040740879
      7        1           0.000027103    0.000264823   -0.000369113
      8        1          -0.000114080   -0.000227573   -0.000018430
      9        1           0.000605370    0.000350631   -0.000565677
     10        8           0.046163657    0.060242324   -0.045914467
     11        1           0.001181066    0.001057961    0.001688315
     12        8          -0.004940826    0.004119180    0.027168090
     13        1           0.005480416    0.002776087    0.000343279
 -------------------------------------------------------------------
 Cartesian Forces:  Max     0.078100134 RMS     0.022072889
 FormGI is forming the generalized inverse of G from B-inverse, IUseBI=4.

 GradGradGradGradGradGradGradGradGradGradGradGradGradGradGradGradGradGrad
 Berny optimization.
 Internal  Forces:  Max     0.070922673 RMS     0.017349914
 Search for a saddle point.
 Step number   1 out of a maximum of   61
 All quantities printed in internal units (Hartrees-Bohrs-Radians)
 Swapping is turned off.
 Second derivative matrix not updated -- analytic derivatives used.
 ITU=  0
     Eigenvalues ---   -0.06712  -0.00160   0.00117   0.00602   0.01877
     Eigenvalues ---    0.02906   0.03418   0.04194   0.05471   0.05894
     Eigenvalues ---    0.06132   0.07629   0.08953   0.12880   0.13195
     Eigenvalues ---    0.13768   0.14431   0.14527   0.16610   0.19618
     Eigenvalues ---    0.20743   0.24330   0.31085   0.32590   0.33851
     Eigenvalues ---    0.34496   0.34845   0.36225   0.41147   0.42713
     Eigenvalues ---    0.44987   0.47346   0.73286
 Eigenvectors required to have negative eigenvalues:
                          R7        R6        D19       D9        D12
   1                   -0.54759   0.45294   0.33116  -0.28382  -0.27719
                          D18       D20       D17       D16       D13
   1                   -0.24160  -0.21514  -0.13519  -0.13247   0.12862
 RFO step:  Lambda0=4.715367558D-02 Lambda=-5.09953611D-02.
 Linear search not attempted -- option 19 set.
 Maximum step size (   0.300) exceeded in Quadratic search.
    -- Step size scaled by   0.417
 Iteration  1 RMS(Cart)=  0.05282720 RMS(Int)=  0.01058999
 Iteration  2 RMS(Cart)=  0.01063903 RMS(Int)=  0.00196921
 Iteration  3 RMS(Cart)=  0.00017850 RMS(Int)=  0.00195664
 Iteration  4 RMS(Cart)=  0.00000037 RMS(Int)=  0.00195664
 Variable       Old X    -DE/DX   Delta X   Delta X   Delta X     New X
                                 (Linear)    (Quad)   (Total)
    R1        2.42755   0.00581   0.00000   0.00955   0.00955   2.43710
    R2        1.93774  -0.00119   0.00000  -0.00232  -0.00232   1.93542
    R3        1.88178   0.01193   0.00000   0.02223   0.02223   1.90401
    R4        2.83466  -0.00067   0.00000   0.00038   0.00038   2.83504
    R5        2.89603  -0.01361   0.00000  -0.02716  -0.02716   2.86888
    R6        2.64562  -0.07092   0.00000  -0.06385  -0.06297   2.58264
    R7        2.73751   0.04137   0.00000  -0.22673  -0.22803   2.50949
    R8        2.06751   0.00019   0.00000   0.00007   0.00007   2.06758
    R9        2.06961   0.00017   0.00000   0.00024   0.00024   2.06985
   R10        2.07454  -0.00070   0.00000  -0.00115  -0.00115   2.07339
   R11        2.67368   0.06368   0.00000   0.12035   0.12071   2.79439
   R12        2.75198  -0.02146   0.00000  -0.03079  -0.03079   2.72119
   R13        1.85275   0.00409   0.00000   0.00570   0.00570   1.85845
    A1        2.02195   0.00199   0.00000   0.00670   0.00670   2.02865
    A2        2.23337   0.00354   0.00000  -0.00649  -0.00650   2.22687
    A3        2.00787  -0.00553   0.00000   0.00602   0.00601   2.01387
    A4        2.04143   0.00203   0.00000   0.00074   0.00073   2.04216
    A5        1.95162  -0.00036   0.00000   0.00062   0.00062   1.95224
    A6        1.90785   0.00042   0.00000   0.00208   0.00208   1.90994
    A7        1.92798  -0.00070   0.00000  -0.00388  -0.00388   1.92411
    A8        1.91239  -0.00001   0.00000   0.00019   0.00019   1.91258
    A9        1.89549   0.00060   0.00000   0.00236   0.00236   1.89785
   A10        1.86651   0.00007   0.00000  -0.00147  -0.00147   1.86504
   A11        1.83701   0.00950   0.00000   0.04597   0.03980   1.87681
   A12        1.92434  -0.01643   0.00000  -0.05871  -0.05580   1.86854
   A13        1.88481   0.01324   0.00000   0.03512   0.03257   1.91738
   A14        2.55026  -0.02522   0.00000  -0.05840  -0.06126   2.48899
   A15        1.93693  -0.00345   0.00000   0.01501   0.01330   1.95024
   A16        1.86297   0.03088   0.00000   0.07182   0.07339   1.93636
   A17        1.85712   0.00932   0.00000  -0.01252  -0.01126   1.84586
   A18        1.86384  -0.00447   0.00000   0.01826   0.01826   1.88210
    D1        0.00267   0.00088   0.00000   0.00312   0.00312   0.00579
    D2        3.10832   0.00208   0.00000   0.01247   0.01246   3.12079
    D3        0.03064   0.00056   0.00000   0.01278   0.01276   0.04341
    D4        2.15140   0.00060   0.00000   0.01486   0.01484   2.16624
    D5       -2.08257   0.00053   0.00000   0.01204   0.01203  -2.07054
    D6       -3.07442  -0.00053   0.00000   0.00318   0.00320  -3.07122
    D7       -0.95366  -0.00048   0.00000   0.00526   0.00528  -0.94838
    D8        1.09556  -0.00056   0.00000   0.00245   0.00246   1.09802
    D9        1.16043   0.01043   0.00000  -0.10771  -0.11160   1.04883
   D10        0.02200  -0.01085   0.00000   0.00814   0.00855   0.03055
   D11       -2.09692  -0.00502   0.00000   0.00315   0.00657  -2.09035
   D12       -2.01295   0.01155   0.00000  -0.09961  -0.10346  -2.11641
   D13        3.13180  -0.00974   0.00000   0.01624   0.01669  -3.13470
   D14        1.01288  -0.00391   0.00000   0.01125   0.01471   1.02759
   D15        1.73317  -0.01710   0.00000  -0.05640  -0.05855   1.67463
   D16       -0.05129   0.00370   0.00000  -0.04378  -0.04116  -0.09246
   D17        2.03632   0.00733   0.00000  -0.02849  -0.02871   2.00760
   D18        1.79941   0.00401   0.00000  -0.26246  -0.25893   1.54048
   D19       -1.54343  -0.01491   0.00000  -0.04765  -0.05390  -1.59733
   D20       -0.31167   0.01785   0.00000  -0.22181  -0.21909  -0.53076
         Item               Value     Threshold  Converged?
 Maximum Force            0.070923     0.000450     NO 
 RMS     Force            0.017350     0.000300     NO 
 Maximum Displacement     0.242380     0.001800     NO 
 RMS     Displacement     0.060784     0.001200     NO 
 Predicted change in Energy=-3.069491D-03
 GradGradGradGradGradGradGradGradGradGradGradGradGradGradGradGradGradGrad

                          Input orientation:                          
 ---------------------------------------------------------------------
 Center     Atomic      Atomic             Coordinates (Angstroms)
 Number     Number       Type             X           Y           Z
 ---------------------------------------------------------------------
      1          7           0       -0.773009    1.439311   -0.312849
      2          1           0        1.048523    1.611521   -0.093432
      3          6           0       -0.709713    0.215140    0.087926
      4          1           0        1.117854    0.518330    1.498862
      5          6           0       -1.831788   -0.776237    0.181885
      6          6           0        0.674886   -0.272007    0.475657
      7          1           0       -2.775291   -0.359270   -0.182851
      8          1           0       -1.577397   -1.670472   -0.397209
      9          1           0       -1.967510   -1.098554    1.221847
     10          8           0        1.598497    0.871182    0.312285
     11          1           0       -1.698051    1.775803   -0.595722
     12          8           0        1.052218   -1.385595   -0.355683
     13          1           0        1.487133   -1.026348   -1.161265
 ---------------------------------------------------------------------
                    Distance matrix (angstroms):
                    1          2          3          4          5
     1  N    0.000000
     2  H    1.842764   0.000000
     3  C    1.289659   2.252590   0.000000
     4  H    2.775944   1.932685   2.328661   0.000000
     5  C    2.504881   3.751450   1.500237   3.480046   0.000000
     6  C    2.376290   2.002784   1.518144   1.366675   2.573706
     7  H    2.694610   4.302739   2.160990   4.330695   1.094116
     8  H    3.213239   4.214168   2.131611   3.956048   1.095318
     9  H    3.197324   4.262736   2.143274   3.494356   1.097191
    10  O    2.517460   1.007561   2.410096   1.327963   3.807605
    11  H    1.024181   2.796954   1.969735   3.727981   2.671229
    12  O    3.363537   3.008570   2.421475   2.658678   2.996296
    13  H    3.450729   2.879410   2.815653   3.098172   3.589129
                    6          7          8          9         10
     6  C    0.000000
     7  H    3.513540   0.000000
     8  H    2.791124   1.788896   0.000000
     9  H    2.867444   1.781074   1.760857   0.000000
    10  O    1.478726   4.570470   4.129127   4.174155   0.000000
    11  H    3.312433   2.426817   3.454095   3.411465   3.536955
    12  O    1.439994   3.966489   2.645326   3.419027   2.416122
    13  H    1.976940   4.423861   3.223356   4.197499   2.405073
                   11         12         13
    11  H    0.000000
    12  O    4.197146   0.000000
    13  H    4.279870   0.983449   0.000000
 Stoichiometry    C3H7NO2
 Framework group  C1[X(C3H7NO2)]
 Deg. of freedom    33
 Full point group                 C1      NOp   1
 Largest Abelian subgroup         C1      NOp   1
 Largest concise Abelian subgroup C1      NOp   1
                         Standard orientation:                         
 ---------------------------------------------------------------------
 Center     Atomic      Atomic             Coordinates (Angstroms)
 Number     Number       Type             X           Y           Z
 ---------------------------------------------------------------------
      1          7           0       -0.701060    1.455455   -0.391546
      2          1           0        1.132721    1.524878   -0.223592
      3          6           0       -0.699957    0.244418    0.051861
      4          1           0        1.179607    0.485690    1.405260
      5          6           0       -1.876088   -0.673495    0.209542
      6          6           0        0.663119   -0.311650    0.422768
      7          1           0       -2.802565   -0.213276   -0.146729
      8          1           0       -1.690965   -1.601113   -0.342706
      9          1           0       -2.002786   -0.950564    1.263586
     10          8           0        1.648374    0.767273    0.195114
     11          1           0       -1.611706    1.837135   -0.663558
     12          8           0        0.951104   -1.474308   -0.376528
     13          1           0        1.384844   -1.170298   -1.205153
 ---------------------------------------------------------------------
 Rotational constants (GHZ):      4.7985577      3.2885761      2.1768962
 Standard basis: 6-31G (6D, 7F)
 There are    68 symmetry adapted cartesian basis functions of A   symmetry.
 There are    68 symmetry adapted basis functions of A   symmetry.
    68 basis functions,   160 primitive gaussians,    68 cartesian basis functions
    24 alpha electrons       24 beta electrons
       nuclear repulsion energy       246.7463612386 Hartrees.
 NAtoms=   13 NActive=   13 NUniq=   13 SFac= 1.00D+00 NAtFMM=   60 NAOKFM=F Big=F
 Integral buffers will be    131072 words long.
 Raffenetti 2 integral format.
 Two-electron integral symmetry is turned on.
 One-electron integrals computed using PRISM.
 NBasis=    68 RedAO= T EigKep=  4.17D-03  NBF=    68
 NBsUse=    68 1.00D-06 EigRej= -1.00D+00 NBFU=    68
 Initial guess from the checkpoint file:  "Ala-S-opt-freq-tsb2-6-31g.chk"
 B after Tr=     0.000000    0.000000    0.000000
         Rot=    0.999941    0.000617   -0.001193    0.010790 Ang=   1.25 deg.
 ExpMin= 1.61D-01 ExpMax= 5.48D+03 ExpMxC= 8.25D+02 IAcc=1 IRadAn=         1 AccDes= 0.00D+00
 Harris functional with IExCor=  402 and IRadAn=       1 diagonalized for initial guess.
 HarFok:  IExCor=  402 AccDes= 0.00D+00 IRadAn=         1 IDoV= 1 UseB2=F ITyADJ=14
 ICtDFT=  3500011 ScaDFX=  1.000000  1.000000  1.000000  1.000000
 FoFCou: FMM=F IPFlag=           0 FMFlag=      100000 FMFlg1=           0
         NFxFlg=           0 DoJE=T BraDBF=F KetDBF=T FulRan=T
         wScrn=  0.000000 ICntrl=     500 IOpCl=  0 I1Cent=   200000004 NGrid=           0
         NMat0=    1 NMatS0=      1 NMatT0=    0 NMatD0=    1 NMtDS0=    0 NMtDT0=    0
 Petite list used in FoFCou.
 Keep R1 ints in memory in canonical form, NReq=3676491.
 Requested convergence on RMS density matrix=1.00D-08 within 128 cycles.
 Requested convergence on MAX density matrix=1.00D-06.
 Requested convergence on             energy=1.00D-06.
 No special actions if energy rises.
 Integral accuracy reduced to 1.0D-05 until final iterations.
 Initial convergence to 1.0D-05 achieved.  Increase integral accuracy.
 SCF Done:  E(RB3LYP) =  -323.470777935     A.U. after   14 cycles
            NFock= 14  Conv=0.91D-08     -V/T= 2.0054
 Calling FoFJK, ICntrl=      2127 FMM=F ISym2X=0 I1Cent= 0 IOpClX= 0 NMat=1 NMatS=1 NMatT=0.
 ***** Axes restored to original set *****
 -------------------------------------------------------------------
 Center     Atomic                   Forces (Hartrees/Bohr)
 Number     Number              X              Y              Z
 -------------------------------------------------------------------
      1        7          -0.000107868    0.003879762    0.000265349
      2        1          -0.001063152    0.003509260   -0.010788104
      3        6           0.006443461   -0.007362224   -0.000498635
      4        1          -0.014869570   -0.060261815   -0.002830066
      5        6           0.000311430   -0.000574957   -0.000328055
      6        6          -0.025612228    0.010408138    0.023465208
      7        1           0.000075281    0.000127978   -0.000304448
      8        1          -0.000147337   -0.000235758    0.000044882
      9        1           0.000382182    0.000219732   -0.000348210
     10        8           0.030801853    0.044975162   -0.030374810
     11        1           0.000652164    0.000698992    0.001384738
     12        8           0.001400388    0.002717978    0.021487221
     13        1           0.001733395    0.001897753   -0.001175073
 -------------------------------------------------------------------
 Cartesian Forces:  Max     0.060261815 RMS     0.015846640

 GradGradGradGradGradGradGradGradGradGradGradGradGradGradGradGradGradGrad
 Berny optimization.
 FormGI is forming the generalized inverse of G from B-inverse, IUseBI=4.
 Internal  Forces:  Max     0.050616097 RMS     0.012110408
 Search for a saddle point.
 Step number   2 out of a maximum of   61
 All quantities printed in internal units (Hartrees-Bohrs-Radians)
 Swapping is turned off.
 Update second derivatives using D2CorX and points    1    2
 ITU=  0  0
     Eigenvalues ---   -0.07428  -0.00229   0.00117   0.00610   0.01906
     Eigenvalues ---    0.02958   0.03704   0.04742   0.05405   0.05893
     Eigenvalues ---    0.06132   0.07574   0.08911   0.12879   0.13180
     Eigenvalues ---    0.13744   0.14398   0.14522   0.16608   0.19618
     Eigenvalues ---    0.20731   0.24236   0.31076   0.32561   0.33850
     Eigenvalues ---    0.34495   0.34844   0.36199   0.41089   0.42711
     Eigenvalues ---    0.44914   0.47345   0.73286
 Eigenvectors required to have negative eigenvalues:
                          R7        R6        D9        D19       D12
   1                   -0.56321   0.47595  -0.27867   0.27318  -0.27006
                          D18       D20       R11       D17       D13
   1                   -0.26134  -0.23363   0.12633  -0.11998   0.11548
 RFO step:  Lambda0=2.633272745D-02 Lambda=-3.11659655D-02.
 Linear search not attempted -- option 19 set.
 Maximum step size (   0.300) exceeded in Quadratic search.
    -- Step size scaled by   0.525
 Iteration  1 RMS(Cart)=  0.06291053 RMS(Int)=  0.01606181
 Iteration  2 RMS(Cart)=  0.01434527 RMS(Int)=  0.00200677
 Iteration  3 RMS(Cart)=  0.00042637 RMS(Int)=  0.00193685
 Iteration  4 RMS(Cart)=  0.00000084 RMS(Int)=  0.00193685
 Variable       Old X    -DE/DX   Delta X   Delta X   Delta X     New X
                                 (Linear)    (Quad)   (Total)
    R1        2.43710   0.00381   0.00000   0.00985   0.00985   2.44695
    R2        1.93542  -0.00074   0.00000  -0.00215  -0.00215   1.93327
    R3        1.90401   0.00750   0.00000   0.01989   0.01989   1.92391
    R4        2.83504  -0.00022   0.00000   0.00246   0.00246   2.83750
    R5        2.86888  -0.00804   0.00000  -0.03040  -0.03040   2.83847
    R6        2.58264  -0.05062   0.00000  -0.04117  -0.04036   2.54229
    R7        2.50949   0.02982   0.00000  -0.21088  -0.21160   2.29789
    R8        2.06758   0.00008   0.00000  -0.00012  -0.00012   2.06745
    R9        2.06985   0.00013   0.00000   0.00016   0.00016   2.07001
   R10        2.07339  -0.00044   0.00000  -0.00109  -0.00109   2.07230
   R11        2.79439   0.04198   0.00000   0.12908   0.12893   2.92331
   R12        2.72119  -0.01448   0.00000  -0.04177  -0.04177   2.67942
   R13        1.85845   0.00242   0.00000   0.00503   0.00503   1.86348
    A1        2.02865   0.00114   0.00000   0.00515   0.00515   2.03380
    A2        2.22687   0.00168   0.00000  -0.00843  -0.00847   2.21840
    A3        2.01387  -0.00239   0.00000   0.01035   0.01030   2.02418
    A4        2.04216   0.00073   0.00000  -0.00154  -0.00158   2.04058
    A5        1.95224  -0.00025   0.00000  -0.00057  -0.00058   1.95166
    A6        1.90994   0.00043   0.00000   0.00473   0.00473   1.91466
    A7        1.92411  -0.00046   0.00000  -0.00384  -0.00384   1.92027
    A8        1.91258  -0.00008   0.00000  -0.00003  -0.00003   1.91255
    A9        1.89785   0.00040   0.00000   0.00219   0.00219   1.90004
   A10        1.86504  -0.00003   0.00000  -0.00259  -0.00258   1.86246
   A11        1.87681   0.00904   0.00000   0.04962   0.04389   1.92070
   A12        1.86854  -0.01001   0.00000  -0.04546  -0.04227   1.82627
   A13        1.91738   0.01001   0.00000   0.05425   0.05243   1.96982
   A14        2.48899  -0.01901   0.00000  -0.10423  -0.10420   2.38479
   A15        1.95024  -0.00228   0.00000   0.00983   0.00801   1.95825
   A16        1.93636   0.02146   0.00000   0.03996   0.04175   1.97811
   A17        1.84586   0.00705   0.00000  -0.02636  -0.02417   1.82169
   A18        1.88210  -0.00210   0.00000   0.02870   0.02870   1.91080
    D1        0.00579   0.00075   0.00000   0.00562   0.00562   0.01140
    D2        3.12079   0.00166   0.00000   0.02313   0.02314  -3.13926
    D3        0.04341   0.00050   0.00000   0.01833   0.01828   0.06169
    D4        2.16624   0.00053   0.00000   0.02116   0.02112   2.18737
    D5       -2.07054   0.00048   0.00000   0.01858   0.01853  -2.05201
    D6       -3.07122  -0.00039   0.00000   0.00042   0.00046  -3.07076
    D7       -0.94838  -0.00035   0.00000   0.00325   0.00330  -0.94508
    D8        1.09802  -0.00040   0.00000   0.00067   0.00072   1.09873
    D9        1.04883   0.00524   0.00000  -0.13355  -0.13744   0.91140
   D10        0.03055  -0.00685   0.00000  -0.01567  -0.01506   0.01548
   D11       -2.09035  -0.00378   0.00000  -0.03132  -0.02819  -2.11854
   D12       -2.11641   0.00607   0.00000  -0.11811  -0.12190  -2.23831
   D13       -3.13470  -0.00602   0.00000  -0.00024   0.00047  -3.13423
   D14        1.02759  -0.00295   0.00000  -0.01588  -0.01265   1.01494
   D15        1.67463  -0.01600   0.00000  -0.05996  -0.06325   1.61138
   D16       -0.09246   0.00299   0.00000   0.00818   0.01065  -0.08181
   D17        2.00760   0.00751   0.00000   0.05137   0.05215   2.05975
   D18        1.54048   0.00283   0.00000  -0.28943  -0.28520   1.25529
   D19       -1.59733  -0.01144   0.00000  -0.12948  -0.13593  -1.73326
   D20       -0.53076   0.01023   0.00000  -0.27430  -0.27207  -0.80283
         Item               Value     Threshold  Converged?
 Maximum Force            0.050616     0.000450     NO 
 RMS     Force            0.012110     0.000300     NO 
 Maximum Displacement     0.287820     0.001800     NO 
 RMS     Displacement     0.070741     0.001200     NO 
 Predicted change in Energy=-4.446299D-03
 GradGradGradGradGradGradGradGradGradGradGradGradGradGradGradGradGradGrad

                          Input orientation:                          
 ---------------------------------------------------------------------
 Center     Atomic      Atomic             Coordinates (Angstroms)
 Number     Number       Type             X           Y           Z
 ---------------------------------------------------------------------
      1          7           0       -0.756004    1.439595   -0.288735
      2          1           0        0.994827    1.654029   -0.068004
      3          6           0       -0.692602    0.203468    0.091606
      4          1           0        1.200470    0.536717    1.417021
      5          6           0       -1.822373   -0.783473    0.156269
      6          6           0        0.665812   -0.290246    0.500419
      7          1           0       -2.755629   -0.358903   -0.225461
      8          1           0       -1.563920   -1.678891   -0.419351
      9          1           0       -1.978206   -1.108493    1.191953
     10          8           0        1.593065    0.937320    0.338126
     11          1           0       -1.677755    1.785321   -0.567064
     12          8           0        1.103840   -1.397904   -0.268760
     13          1           0        1.334825   -1.095736   -1.178568
 ---------------------------------------------------------------------
                    Distance matrix (angstroms):
                    1          2          3          4          5
     1  N    0.000000
     2  H    1.777671   0.000000
     3  C    1.294870   2.230923   0.000000
     4  H    2.748196   1.869752   2.334845   0.000000
     5  C    2.505434   3.732068   1.501538   3.531285   0.000000
     6  C    2.374168   2.052208   1.502055   1.345320   2.559839
     7  H    2.690185   4.259414   2.161683   4.376140   1.094050
     8  H    3.224088   4.216513   2.136246   3.990368   1.095404
     9  H    3.190449   4.249464   2.141211   3.586273   1.096615
    10  O    2.482612   1.018087   2.413211   1.215988   3.828762
    11  H    1.023044   2.721947   1.976520   3.712114   2.672607
    12  O    3.392760   3.060471   2.433405   2.567869   3.020082
    13  H    3.404596   2.984988   2.722449   3.069207   3.441976
                    6          7          8          9         10
     6  C    0.000000
     7  H    3.498267   0.000000
     8  H    2.783166   1.788892   0.000000
     9  H    2.852820   1.781947   1.758775   0.000000
    10  O    1.546951   4.572632   4.169519   4.203374   0.000000
    11  H    3.307538   2.424088   3.469229   3.399790   3.498105
    12  O    1.417889   3.997112   2.686740   3.422930   2.461895
    13  H    1.978734   4.264171   3.052737   4.073783   2.549581
                   11         12         13
    11  H    0.000000
    12  O    4.237828   0.000000
    13  H    4.213083   0.986109   0.000000
 Stoichiometry    C3H7NO2
 Framework group  C1[X(C3H7NO2)]
 Deg. of freedom    33
 Full point group                 C1      NOp   1
 Largest Abelian subgroup         C1      NOp   1
 Largest concise Abelian subgroup C1      NOp   1
                         Standard orientation:                         
 ---------------------------------------------------------------------
 Center     Atomic      Atomic             Coordinates (Angstroms)
 Number     Number       Type             X           Y           Z
 ---------------------------------------------------------------------
      1          7           0       -0.670120    1.469056   -0.363902
      2          1           0        1.100699    1.545147   -0.227806
      3          6           0       -0.688914    0.242660    0.051175
      4          1           0        1.284744    0.455414    1.280366
      5          6           0       -1.890343   -0.646227    0.196308
      6          6           0        0.642874   -0.349483    0.414324
      7          1           0       -2.803135   -0.157087   -0.156535
      8          1           0       -1.732139   -1.575096   -0.362338
      9          1           0       -2.023303   -0.929177    1.247415
     10          8           0        1.657511    0.793085    0.173275
     11          1           0       -1.572983    1.881506   -0.611575
     12          8           0        0.953706   -1.509768   -0.339023
     13          1           0        1.165530   -1.252332   -1.267068
 ---------------------------------------------------------------------
 Rotational constants (GHZ):      4.7212019      3.3196484      2.1506793
 Standard basis: 6-31G (6D, 7F)
 There are    68 symmetry adapted cartesian basis functions of A   symmetry.
 There are    68 symmetry adapted basis functions of A   symmetry.
    68 basis functions,   160 primitive gaussians,    68 cartesian basis functions
    24 alpha electrons       24 beta electrons
       nuclear repulsion energy       246.3614620960 Hartrees.
 NAtoms=   13 NActive=   13 NUniq=   13 SFac= 1.00D+00 NAtFMM=   60 NAOKFM=F Big=F
 Integral buffers will be    131072 words long.
 Raffenetti 2 integral format.
 Two-electron integral symmetry is turned on.
 One-electron integrals computed using PRISM.
 NBasis=    68 RedAO= T EigKep=  4.31D-03  NBF=    68
 NBsUse=    68 1.00D-06 EigRej= -1.00D+00 NBFU=    68
 Initial guess from the checkpoint file:  "Ala-S-opt-freq-tsb2-6-31g.chk"
 B after Tr=     0.000000    0.000000    0.000000
         Rot=    0.999974    0.001276   -0.002701    0.006598 Ang=   0.83 deg.
 ExpMin= 1.61D-01 ExpMax= 5.48D+03 ExpMxC= 8.25D+02 IAcc=1 IRadAn=         1 AccDes= 0.00D+00
 Harris functional with IExCor=  402 and IRadAn=       1 diagonalized for initial guess.
 HarFok:  IExCor=  402 AccDes= 0.00D+00 IRadAn=         1 IDoV= 1 UseB2=F ITyADJ=14
 ICtDFT=  3500011 ScaDFX=  1.000000  1.000000  1.000000  1.000000
 FoFCou: FMM=F IPFlag=           0 FMFlag=      100000 FMFlg1=           0
         NFxFlg=           0 DoJE=T BraDBF=F KetDBF=T FulRan=T
         wScrn=  0.000000 ICntrl=     500 IOpCl=  0 I1Cent=   200000004 NGrid=           0
         NMat0=    1 NMatS0=      1 NMatT0=    0 NMatD0=    1 NMtDS0=    0 NMtDT0=    0
 Petite list used in FoFCou.
 Keep R1 ints in memory in canonical form, NReq=3676491.
 Requested convergence on RMS density matrix=1.00D-08 within 128 cycles.
 Requested convergence on MAX density matrix=1.00D-06.
 Requested convergence on             energy=1.00D-06.
 No special actions if energy rises.
 Integral accuracy reduced to 1.0D-05 until final iterations.
 Initial convergence to 1.0D-05 achieved.  Increase integral accuracy.
 SCF Done:  E(RB3LYP) =  -323.475035467     A.U. after   15 cycles
            NFock= 15  Conv=0.32D-08     -V/T= 2.0053
 Calling FoFJK, ICntrl=      2127 FMM=F ISym2X=0 I1Cent= 0 IOpClX= 0 NMat=1 NMatS=1 NMatT=0.
 ***** Axes restored to original set *****
 -------------------------------------------------------------------
 Center     Atomic                   Forces (Hartrees/Bohr)
 Number     Number              X              Y              Z
 -------------------------------------------------------------------
      1        7          -0.000547623    0.002880365    0.001003107
      2        1          -0.002462357    0.000842091   -0.004792940
      3        6           0.004608255   -0.004432072   -0.001393559
      4        1          -0.006815096   -0.035750867    0.005576899
      5        6           0.000311037   -0.000752218   -0.000625911
      6        6          -0.022396854    0.001718678    0.007555394
      7        1           0.000152052    0.000011576   -0.000257400
      8        1          -0.000352650   -0.000332292   -0.000009796
      9        1           0.000101394    0.000141789   -0.000188729
     10        8           0.023153007    0.031864922   -0.021072782
     11        1           0.000275237    0.000396571    0.001245315
     12        8           0.005079910    0.003352693    0.014413164
     13        1          -0.001106313    0.000058764   -0.001452763
 -------------------------------------------------------------------
 Cartesian Forces:  Max     0.035750867 RMS     0.010434590

 GradGradGradGradGradGradGradGradGradGradGradGradGradGradGradGradGradGrad
 Berny optimization.
 FormGI is forming the generalized inverse of G from B-inverse, IUseBI=4.
 Internal  Forces:  Max     0.027147185 RMS     0.007172697
 Search for a saddle point.
 Step number   3 out of a maximum of   61
 All quantities printed in internal units (Hartrees-Bohrs-Radians)
 Swapping is turned off.
 Update second derivatives using D2CorX and points    2    3
 ITU=  0  0  0
     Eigenvalues ---   -0.07916  -0.00340   0.00118   0.00595   0.01916
     Eigenvalues ---    0.02949   0.03784   0.05334   0.05875   0.05961
     Eigenvalues ---    0.06132   0.07472   0.08919   0.12863   0.13074
     Eigenvalues ---    0.13673   0.14298   0.14517   0.16606   0.19606
     Eigenvalues ---    0.20684   0.23943   0.31056   0.32469   0.33847
     Eigenvalues ---    0.34493   0.34839   0.36139   0.40892   0.42699
     Eigenvalues ---    0.44808   0.47345   0.73284
 Eigenvectors required to have negative eigenvalues:
                          R7        R6        D9        D18       D12
   1                   -0.56418   0.51307  -0.27716  -0.26976  -0.26499
                          D20       D19       R11       D17       D13
   1                   -0.23983   0.20588   0.15840  -0.09993   0.09429
 RFO step:  Lambda0=8.644740046D-03 Lambda=-1.70550691D-02.
 Linear search not attempted -- option 19 set.
 Maximum step size (   0.300) exceeded in Quadratic search.
    -- Step size scaled by   0.768
 Iteration  1 RMS(Cart)=  0.09149815 RMS(Int)=  0.02382188
 Iteration  2 RMS(Cart)=  0.02132732 RMS(Int)=  0.00139731
 Iteration  3 RMS(Cart)=  0.00100321 RMS(Int)=  0.00082175
 Iteration  4 RMS(Cart)=  0.00000224 RMS(Int)=  0.00082175
 Iteration  5 RMS(Cart)=  0.00000000 RMS(Int)=  0.00082175
 Variable       Old X    -DE/DX   Delta X   Delta X   Delta X     New X
                                 (Linear)    (Quad)   (Total)
    R1        2.44695   0.00248   0.00000   0.01141   0.01141   2.45836
    R2        1.93327  -0.00045   0.00000  -0.00212  -0.00212   1.93115
    R3        1.92391   0.00395   0.00000   0.01511   0.01511   1.93902
    R4        2.83750   0.00041   0.00000   0.00712   0.00712   2.84461
    R5        2.83847  -0.00473   0.00000  -0.04511  -0.04511   2.79337
    R6        2.54229  -0.02447   0.00000   0.06528   0.06556   2.60785
    R7        2.29789   0.02168   0.00000  -0.08056  -0.08074   2.21714
    R8        2.06745  -0.00003   0.00000  -0.00051  -0.00051   2.06694
    R9        2.07001   0.00019   0.00000   0.00045   0.00045   2.07046
   R10        2.07230  -0.00024   0.00000  -0.00106  -0.00106   2.07124
   R11        2.92331   0.02715   0.00000   0.15274   0.15263   3.07594
   R12        2.67942  -0.00847   0.00000  -0.06863  -0.06863   2.61079
   R13        1.86348   0.00109   0.00000   0.00420   0.00420   1.86768
    A1        2.03380   0.00044   0.00000   0.00092   0.00092   2.03472
    A2        2.21840   0.00066   0.00000  -0.01120  -0.01136   2.20704
    A3        2.02418  -0.00081   0.00000   0.01282   0.01264   2.03682
    A4        2.04058   0.00015   0.00000  -0.00136  -0.00153   2.03904
    A5        1.95166  -0.00030   0.00000  -0.00482  -0.00482   1.94685
    A6        1.91466   0.00070   0.00000   0.01216   0.01216   1.92683
    A7        1.92027  -0.00018   0.00000  -0.00226  -0.00226   1.91801
    A8        1.91255  -0.00026   0.00000  -0.00268  -0.00267   1.90988
    A9        1.90004   0.00020   0.00000   0.00109   0.00108   1.90112
   A10        1.86246  -0.00015   0.00000  -0.00353  -0.00353   1.85892
   A11        1.92070   0.00633   0.00000   0.04868   0.04640   1.96710
   A12        1.82627  -0.00467   0.00000  -0.02430  -0.02320   1.80306
   A13        1.96982   0.00685   0.00000   0.10013   0.09986   2.06968
   A14        2.38479  -0.01246   0.00000  -0.15522  -0.15351   2.23128
   A15        1.95825  -0.00141   0.00000  -0.01286  -0.01468   1.94357
   A16        1.97811   0.01104   0.00000  -0.03812  -0.03620   1.94191
   A17        1.82169   0.00310   0.00000  -0.06377  -0.06341   1.75828
   A18        1.91080   0.00007   0.00000   0.04065   0.04065   1.95145
    D1        0.01140   0.00064   0.00000   0.01171   0.01170   0.02310
    D2       -3.13926   0.00148   0.00000   0.04737   0.04738  -3.09189
    D3        0.06169   0.00050   0.00000   0.03163   0.03152   0.09320
    D4        2.18737   0.00046   0.00000   0.03344   0.03331   2.22068
    D5       -2.05201   0.00058   0.00000   0.03502   0.03489  -2.01711
    D6       -3.07076  -0.00034   0.00000  -0.00439  -0.00426  -3.07502
    D7       -0.94508  -0.00039   0.00000  -0.00259  -0.00247  -0.94755
    D8        1.09873  -0.00026   0.00000  -0.00100  -0.00089   1.09785
    D9        0.91140   0.00108   0.00000  -0.16607  -0.16732   0.74408
   D10        0.01548  -0.00386   0.00000  -0.08250  -0.08229  -0.06681
   D11       -2.11854  -0.00297   0.00000  -0.10817  -0.10752  -2.22606
   D12       -2.23831   0.00184   0.00000  -0.13423  -0.13522  -2.37353
   D13       -3.13423  -0.00310   0.00000  -0.05067  -0.05020   3.09876
   D14        1.01494  -0.00221   0.00000  -0.07633  -0.07542   0.93952
   D15        1.61138  -0.01196   0.00000  -0.05849  -0.06002   1.55137
   D16       -0.08181   0.00226   0.00000   0.08792   0.08949   0.00768
   D17        2.05975   0.00678   0.00000   0.18709   0.18798   2.24773
   D18        1.25529   0.00105   0.00000  -0.29965  -0.29785   0.95744
   D19       -1.73326  -0.00693   0.00000  -0.24810  -0.25024  -1.98350
   D20       -0.80283   0.00332   0.00000  -0.32816  -0.32782  -1.13065
         Item               Value     Threshold  Converged?
 Maximum Force            0.027147     0.000450     NO 
 RMS     Force            0.007173     0.000300     NO 
 Maximum Displacement     0.355881     0.001800     NO 
 RMS     Displacement     0.101267     0.001200     NO 
 Predicted change in Energy=-7.372333D-03
 GradGradGradGradGradGradGradGradGradGradGradGradGradGradGradGradGradGrad

                          Input orientation:                          
 ---------------------------------------------------------------------
 Center     Atomic      Atomic             Coordinates (Angstroms)
 Number     Number       Type             X           Y           Z
 ---------------------------------------------------------------------
      1          7           0       -0.766016    1.464733   -0.226917
      2          1           0        0.929887    1.701187   -0.042293
      3          6           0       -0.680260    0.205064    0.086519
      4          1           0        1.307369    0.583191    1.339793
      5          6           0       -1.808952   -0.790743    0.105538
      6          6           0        0.651984   -0.288700    0.494384
      7          1           0       -2.736900   -0.353423   -0.273956
      8          1           0       -1.550607   -1.672256   -0.491641
      9          1           0       -1.975813   -1.145851    1.128959
     10          8           0        1.611599    1.010106    0.290159
     11          1           0       -1.696245    1.814363   -0.465155
     12          8           0        1.168176   -1.400806   -0.142410
     13          1           0        1.192128   -1.284060   -1.123530
 ---------------------------------------------------------------------
                    Distance matrix (angstroms):
                    1          2          3          4          5
     1  N    0.000000
     2  H    1.722232   0.000000
     3  C    1.300909   2.201715   0.000000
     4  H    2.744198   1.817297   2.379988   0.000000
     5  C    2.507073   3.705780   1.505304   3.622505   0.000000
     6  C    2.367600   2.079640   1.478185   1.380015   2.541546
     7  H    2.681844   4.209562   2.161393   4.453936   1.093779
     8  H    3.244436   4.211280   2.148512   4.075441   1.095641
     9  H    3.180748   4.233267   2.142454   3.716628   1.096054
    10  O    2.475299   1.026084   2.437658   1.173261   3.870053
    11  H    1.021922   2.662365   1.981518   3.714205   2.669265
    12  O    3.458259   3.112742   2.459256   2.480432   3.049089
    13  H    3.492006   3.185834   2.680959   3.093197   3.280312
                    6          7          8          9         10
     6  C    0.000000
     7  H    3.475496   0.000000
     8  H    2.781704   1.787176   0.000000
     9  H    2.835967   1.781956   1.756202   0.000000
    10  O    1.627718   4.592045   4.219695   4.268637   0.000000
    11  H    3.295113   2.412223   3.489760   3.373756   3.486999
    12  O    1.381571   4.045236   2.754529   3.400889   2.489224
    13  H    1.974877   4.126150   2.841227   3.889557   2.727209
                   11         12         13
    11  H    0.000000
    12  O    4.318145   0.000000
    13  H    4.286768   0.988331   0.000000
 Stoichiometry    C3H7NO2
 Framework group  C1[X(C3H7NO2)]
 Deg. of freedom    33
 Full point group                 C1      NOp   1
 Largest Abelian subgroup         C1      NOp   1
 Largest concise Abelian subgroup C1      NOp   1
                         Standard orientation:                         
 ---------------------------------------------------------------------
 Center     Atomic      Atomic             Coordinates (Angstroms)
 Number     Number       Type             X           Y           Z
 ---------------------------------------------------------------------
      1          7           0       -0.682902    1.492136   -0.289540
      2          1           0        1.035158    1.581277   -0.209481
      3          6           0       -0.688316    0.235073    0.045317
      4          1           0        1.396389    0.457006    1.171857
      5          6           0       -1.896129   -0.657014    0.151651
      6          6           0        0.618046   -0.367409    0.385115
      7          1           0       -2.803663   -0.145896   -0.182253
      8          1           0       -1.751777   -1.567451   -0.440547
      9          1           0       -2.031416   -0.979354    1.190463
     10          8           0        1.672943    0.838340    0.097313
     11          1           0       -1.591838    1.918414   -0.480446
     12          8           0        0.996369   -1.530864   -0.256743
     13          1           0        0.971363   -1.432654   -1.239865
 ---------------------------------------------------------------------
 Rotational constants (GHZ):      4.6595377      3.3338879      2.0935014
 Standard basis: 6-31G (6D, 7F)
 There are    68 symmetry adapted cartesian basis functions of A   symmetry.
 There are    68 symmetry adapted basis functions of A   symmetry.
    68 basis functions,   160 primitive gaussians,    68 cartesian basis functions
    24 alpha electrons       24 beta electrons
       nuclear repulsion energy       245.4910372850 Hartrees.
 NAtoms=   13 NActive=   13 NUniq=   13 SFac= 1.00D+00 NAtFMM=   60 NAOKFM=F Big=F
 Integral buffers will be    131072 words long.
 Raffenetti 2 integral format.
 Two-electron integral symmetry is turned on.
 One-electron integrals computed using PRISM.
 NBasis=    68 RedAO= T EigKep=  4.38D-03  NBF=    68
 NBsUse=    68 1.00D-06 EigRej= -1.00D+00 NBFU=    68
 Initial guess from the checkpoint file:  "Ala-S-opt-freq-tsb2-6-31g.chk"
 B after Tr=     0.000000    0.000000    0.000000
         Rot=    0.999991    0.001995   -0.003164   -0.001931 Ang=   0.48 deg.
 ExpMin= 1.61D-01 ExpMax= 5.48D+03 ExpMxC= 8.25D+02 IAcc=1 IRadAn=         1 AccDes= 0.00D+00
 Harris functional with IExCor=  402 and IRadAn=       1 diagonalized for initial guess.
 HarFok:  IExCor=  402 AccDes= 0.00D+00 IRadAn=         1 IDoV= 1 UseB2=F ITyADJ=14
 ICtDFT=  3500011 ScaDFX=  1.000000  1.000000  1.000000  1.000000
 FoFCou: FMM=F IPFlag=           0 FMFlag=      100000 FMFlg1=           0
         NFxFlg=           0 DoJE=T BraDBF=F KetDBF=T FulRan=T
         wScrn=  0.000000 ICntrl=     500 IOpCl=  0 I1Cent=   200000004 NGrid=           0
         NMat0=    1 NMatS0=      1 NMatT0=    0 NMatD0=    1 NMtDS0=    0 NMtDT0=    0
 Petite list used in FoFCou.
 Keep R1 ints in memory in canonical form, NReq=3676491.
 Requested convergence on RMS density matrix=1.00D-08 within 128 cycles.
 Requested convergence on MAX density matrix=1.00D-06.
 Requested convergence on             energy=1.00D-06.
 No special actions if energy rises.
 Integral accuracy reduced to 1.0D-05 until final iterations.
 Initial convergence to 1.0D-05 achieved.  Increase integral accuracy.
 SCF Done:  E(RB3LYP) =  -323.481076251     A.U. after   15 cycles
            NFock= 15  Conv=0.47D-08     -V/T= 2.0054
 Calling FoFJK, ICntrl=      2127 FMM=F ISym2X=0 I1Cent= 0 IOpClX= 0 NMat=1 NMatS=1 NMatT=0.
 ***** Axes restored to original set *****
 -------------------------------------------------------------------
 Center     Atomic                   Forces (Hartrees/Bohr)
 Number     Number              X              Y              Z
 -------------------------------------------------------------------
      1        7           0.000361026    0.001854525    0.001562330
      2        1          -0.001928780    0.000512312   -0.002081338
      3        6           0.002198666   -0.003795409   -0.002451140
      4        1          -0.003249547   -0.017113376   -0.001861999
      5        6           0.000340298   -0.000745029    0.000007310
      6        6          -0.013503352    0.003383685    0.009865669
      7        1           0.000169602   -0.000165325   -0.000241714
      8        1          -0.000452498   -0.000246633   -0.000447992
      9        1          -0.000334683    0.000064354    0.000014376
     10        8           0.013495972    0.018894152   -0.007877639
     11        1           0.000152875    0.000084663    0.000884633
     12        8           0.003063755   -0.001652703    0.002927832
     13        1          -0.000313334   -0.001075214   -0.000300328
 -------------------------------------------------------------------
 Cartesian Forces:  Max     0.018894152 RMS     0.005690728

 GradGradGradGradGradGradGradGradGradGradGradGradGradGradGradGradGradGrad
 Berny optimization.
 FormGI is forming the generalized inverse of G from B-inverse, IUseBI=4.
 Internal  Forces:  Max     0.018012868 RMS     0.003871613
 Search for a saddle point.
 Step number   4 out of a maximum of   61
 All quantities printed in internal units (Hartrees-Bohrs-Radians)
 Swapping is turned off.
 Update second derivatives using D2CorX and points    3    4
 ITU=  0  0  0  0
     Eigenvalues ---   -0.07622   0.00117   0.00547   0.00827   0.01923
     Eigenvalues ---    0.02934   0.03770   0.05314   0.05533   0.05898
     Eigenvalues ---    0.06134   0.07420   0.08900   0.12765   0.12933
     Eigenvalues ---    0.13642   0.14242   0.14514   0.16612   0.19579
     Eigenvalues ---    0.20572   0.23471   0.31091   0.32337   0.33841
     Eigenvalues ---    0.34489   0.34831   0.36059   0.40771   0.42686
     Eigenvalues ---    0.44781   0.47344   0.73280
 Eigenvectors required to have negative eigenvalues:
                          R7        R6        D9        D12       D18
   1                   -0.60041   0.50593  -0.27523  -0.26287  -0.23722
                          D20       D19       R11       D17       A11
   1                   -0.19599   0.19219   0.18101  -0.10835  -0.10111
 RFO step:  Lambda0=1.351850069D-03 Lambda=-7.34595626D-03.
 Linear search not attempted -- option 19 set.
 Iteration  1 RMS(Cart)=  0.09956859 RMS(Int)=  0.00645911
 Iteration  2 RMS(Cart)=  0.00660612 RMS(Int)=  0.00143341
 Iteration  3 RMS(Cart)=  0.00004355 RMS(Int)=  0.00143312
 Iteration  4 RMS(Cart)=  0.00000004 RMS(Int)=  0.00143312
 Variable       Old X    -DE/DX   Delta X   Delta X   Delta X     New X
                                 (Linear)    (Quad)   (Total)
    R1        2.45836   0.00126   0.00000   0.00993   0.00993   2.46829
    R2        1.93115  -0.00032   0.00000  -0.00223  -0.00223   1.92893
    R3        1.93902   0.00230   0.00000   0.01692   0.01692   1.95594
    R4        2.84461   0.00092   0.00000   0.00718   0.00718   2.85179
    R5        2.79337  -0.00299   0.00000  -0.03936  -0.03936   2.75401
    R6        2.60785  -0.01406   0.00000  -0.07293  -0.07299   2.53485
    R7        2.21714   0.00834   0.00000  -0.10954  -0.10548   2.11167
    R8        2.06694  -0.00012   0.00000  -0.00033  -0.00033   2.06662
    R9        2.07046   0.00033   0.00000   0.00081   0.00081   2.07127
   R10        2.07124   0.00004   0.00000  -0.00048  -0.00048   2.07076
   R11        3.07594   0.01801   0.00000   0.13826   0.13563   3.21157
   R12        2.61079   0.00201   0.00000  -0.00795  -0.00795   2.60284
   R13        1.86768   0.00016   0.00000  -0.00064  -0.00064   1.86704
    A1        2.03472   0.00001   0.00000   0.00100   0.00100   2.03572
    A2        2.20704   0.00097   0.00000  -0.00755  -0.00777   2.19927
    A3        2.03682  -0.00196   0.00000  -0.00077  -0.00099   2.03583
    A4        2.03904   0.00097   0.00000   0.00744   0.00721   2.04625
    A5        1.94685  -0.00027   0.00000  -0.00769  -0.00768   1.93917
    A6        1.92683   0.00056   0.00000   0.01004   0.01001   1.93684
    A7        1.91801   0.00035   0.00000   0.00489   0.00486   1.92287
    A8        1.90988  -0.00048   0.00000  -0.00721  -0.00720   1.90268
    A9        1.90112  -0.00011   0.00000  -0.00155  -0.00154   1.89957
   A10        1.85892  -0.00004   0.00000   0.00180   0.00174   1.86067
   A11        1.96710   0.00358   0.00000   0.06211   0.06012   2.02722
   A12        1.80306  -0.00133   0.00000  -0.01614  -0.01322   1.78984
   A13        2.06968   0.00189   0.00000   0.05262   0.05190   2.12158
   A14        2.23128  -0.00521   0.00000  -0.12478  -0.12391   2.10736
   A15        1.94357   0.00078   0.00000  -0.00582  -0.00569   1.93788
   A16        1.94191   0.00469   0.00000  -0.04163  -0.04149   1.90043
   A17        1.75828   0.00157   0.00000  -0.06263  -0.06189   1.69638
   A18        1.95145   0.00167   0.00000   0.03540   0.03540   1.98685
    D1        0.02310   0.00038   0.00000   0.00627   0.00638   0.02948
    D2       -3.09189   0.00107   0.00000   0.04700   0.04688  -3.04500
    D3        0.09320   0.00053   0.00000   0.02784   0.02781   0.12102
    D4        2.22068   0.00012   0.00000   0.02038   0.02032   2.24100
    D5       -2.01711   0.00061   0.00000   0.03154   0.03154  -1.98557
    D6       -3.07502  -0.00021   0.00000  -0.01305  -0.01302  -3.08804
    D7       -0.94755  -0.00062   0.00000  -0.02051  -0.02051  -0.96806
    D8        1.09785  -0.00013   0.00000  -0.00935  -0.00929   1.08856
    D9        0.74408  -0.00140   0.00000  -0.20337  -0.20743   0.53665
   D10       -0.06681  -0.00114   0.00000  -0.12015  -0.11696  -0.18377
   D11       -2.22606  -0.00231   0.00000  -0.13351  -0.13284  -2.35890
   D12       -2.37353  -0.00078   0.00000  -0.16643  -0.17036  -2.54389
   D13        3.09876  -0.00052   0.00000  -0.08321  -0.07988   3.01888
   D14        0.93952  -0.00169   0.00000  -0.09657  -0.09577   0.84375
   D15        1.55137  -0.00643   0.00000  -0.07892  -0.07991   1.47145
   D16        0.00768   0.00139   0.00000   0.11839   0.11816   0.12583
   D17        2.24773   0.00330   0.00000   0.16878   0.16976   2.41749
   D18        0.95744   0.00041   0.00000  -0.13259  -0.13102   0.82642
   D19       -1.98350  -0.00179   0.00000  -0.07553  -0.07446  -2.05796
   D20       -1.13065   0.00012   0.00000  -0.14554  -0.14818  -1.27883
         Item               Value     Threshold  Converged?
 Maximum Force            0.018013     0.000450     NO 
 RMS     Force            0.003872     0.000300     NO 
 Maximum Displacement     0.328810     0.001800     NO 
 RMS     Displacement     0.099804     0.001200     NO 
 Predicted change in Energy=-3.987315D-03
 GradGradGradGradGradGradGradGradGradGradGradGradGradGradGradGradGradGrad

                          Input orientation:                          
 ---------------------------------------------------------------------
 Center     Atomic      Atomic             Coordinates (Angstroms)
 Number     Number       Type             X           Y           Z
 ---------------------------------------------------------------------
      1          7           0       -0.782146    1.490046   -0.147885
      2          1           0        0.877230    1.747772   -0.019776
      3          6           0       -0.674775    0.210570    0.091853
      4          1           0        1.393181    0.597470    1.196512
      5          6           0       -1.798937   -0.795692    0.058787
      6          6           0        0.637897   -0.269026    0.505100
      7          1           0       -2.721620   -0.343201   -0.315220
      8          1           0       -1.539771   -1.652809   -0.573314
      9          1           0       -1.981294   -1.191710    1.064117
     10          8           0        1.631303    1.079433    0.216872
     11          1           0       -1.718880    1.840359   -0.352163
     12          8           0        1.188926   -1.412347   -0.029978
     13          1           0        1.135240   -1.458058   -1.015454
 ---------------------------------------------------------------------
                    Distance matrix (angstroms):
                    1          2          3          4          5
     1  N    0.000000
     2  H    1.684151   0.000000
     3  C    1.306163   2.187275   0.000000
     4  H    2.708532   1.751787   2.376217   0.000000
     5  C    2.510214   3.692864   1.509104   3.664005   0.000000
     6  C    2.353135   2.097677   1.457358   1.341387   2.532732
     7  H    2.674014   4.172669   2.159153   4.483501   1.093606
     8  H    3.260755   4.208592   2.159362   4.098566   1.096070
     9  H    3.177848   4.241054   2.149111   3.821750   1.095798
    10  O    2.475154   1.035039   2.467499   1.117446   3.912497
    11  H    1.020744   2.618938   1.985829   3.691624   2.669092
    12  O    3.510401   3.175470   2.474285   2.363337   3.052125
    13  H    3.622205   3.366792   2.699371   3.030598   3.194075
                    6          7          8          9         10
     6  C    0.000000
     7  H    3.459014   0.000000
     8  H    2.796438   1.782821   0.000000
     9  H    2.832668   1.780624   1.757480   0.000000
    10  O    1.699492   4.610309   4.259724   4.350491   0.000000
    11  H    3.277011   2.403078   3.504741   3.356807   3.482317
    12  O    1.377362   4.064087   2.792637   3.360955   2.542755
    13  H    1.993297   4.075365   2.718289   3.756107   2.864187
                   11         12         13
    11  H    0.000000
    12  O    4.374841   0.000000
    13  H    4.411973   0.987995   0.000000
 Stoichiometry    C3H7NO2
 Framework group  C1[X(C3H7NO2)]
 Deg. of freedom    33
 Full point group                 C1      NOp   1
 Largest Abelian subgroup         C1      NOp   1
 Largest concise Abelian subgroup C1      NOp   1
                         Standard orientation:                         
 ---------------------------------------------------------------------
 Center     Atomic      Atomic             Coordinates (Angstroms)
 Number     Number       Type             X           Y           Z
 ---------------------------------------------------------------------
      1          7           0       -0.670850    1.521302   -0.204378
      2          1           0        1.011214    1.602720   -0.184524
      3          6           0       -0.683560    0.238902    0.043316
      4          1           0        1.480191    0.410598    1.010324
      5          6           0       -1.907162   -0.642964    0.093383
      6          6           0        0.595142   -0.374709    0.378421
      7          1           0       -2.799183   -0.097354   -0.226900
      8          1           0       -1.780703   -1.525941   -0.543585
      9          1           0       -2.065327   -1.012271    1.112878
     10          8           0        1.704388    0.859601    0.011916
     11          1           0       -1.576681    1.967672   -0.353178
     12          8           0        0.987344   -1.572651   -0.176769
     13          1           0        0.866056   -1.617519   -1.156264
 ---------------------------------------------------------------------
 Rotational constants (GHZ):      4.5665023      3.3525190      2.0435184
 Standard basis: 6-31G (6D, 7F)
 There are    68 symmetry adapted cartesian basis functions of A   symmetry.
 There are    68 symmetry adapted basis functions of A   symmetry.
    68 basis functions,   160 primitive gaussians,    68 cartesian basis functions
    24 alpha electrons       24 beta electrons
       nuclear repulsion energy       244.5410310812 Hartrees.
 NAtoms=   13 NActive=   13 NUniq=   13 SFac= 1.00D+00 NAtFMM=   60 NAOKFM=F Big=F
 Integral buffers will be    131072 words long.
 Raffenetti 2 integral format.
 Two-electron integral symmetry is turned on.
 One-electron integrals computed using PRISM.
[...]
    A3        2.07812   0.00000   0.00000   0.00000   0.00000   2.07813
    A4        2.00331   0.00000   0.00000  -0.00001  -0.00001   2.00330
    A5        1.93348   0.00000   0.00000  -0.00002  -0.00002   1.93346
    A6        1.93368   0.00000   0.00000  -0.00001  -0.00001   1.93366
    A7        1.93757   0.00000   0.00000   0.00003   0.00003   1.93760
    A8        1.89989   0.00000   0.00000   0.00000   0.00000   1.89988
    A9        1.86733   0.00000   0.00000  -0.00001  -0.00001   1.86731
   A10        1.88994   0.00000   0.00000   0.00002   0.00002   1.88996
   A11        2.02735   0.00000   0.00000  -0.00005  -0.00005   2.02730
   A12        1.75880   0.00000   0.00000  -0.00001  -0.00001   1.75878
   A13        2.08718   0.00000   0.00000   0.00002   0.00002   2.08721
   A14        2.06661   0.00000   0.00000   0.00003   0.00003   2.06664
   A15        1.90794   0.00000   0.00000   0.00001   0.00001   1.90795
   A16        1.86816   0.00000   0.00000   0.00003   0.00003   1.86819
   A17        1.64045   0.00000   0.00000  -0.00009  -0.00009   1.64037
   A18        2.02211   0.00000   0.00000   0.00000   0.00000   2.02211
    D1        0.02873   0.00000   0.00000  -0.00002  -0.00002   0.02870
    D2       -3.01322   0.00000   0.00000   0.00002   0.00002  -3.01319
    D3       -2.15860   0.00000   0.00000   0.00045   0.00045  -2.15815
    D4       -0.04815   0.00000   0.00000   0.00042   0.00042  -0.04773
    D5        2.05248   0.00000   0.00000   0.00046   0.00046   2.05293
    D6        0.88708   0.00000   0.00000   0.00041   0.00041   0.88748
    D7        2.99752   0.00000   0.00000   0.00038   0.00038   2.99790
    D8       -1.18504   0.00000   0.00000   0.00041   0.00041  -1.18462
    D9        0.35124   0.00000   0.00000   0.00020   0.00020   0.35145
   D10       -0.22445   0.00000   0.00000   0.00020   0.00020  -0.22425
   D11       -2.31335   0.00000   0.00000   0.00018   0.00018  -2.31317
   D12       -2.70150   0.00000   0.00000   0.00024   0.00024  -2.70126
   D13        3.00599   0.00000   0.00000   0.00023   0.00023   3.00622
   D14        0.91708   0.00000   0.00000   0.00022   0.00022   0.91730
   D15        1.34031  -0.00001   0.00000  -0.00019  -0.00019   1.34012
   D16        0.17130   0.00000   0.00000  -0.00022  -0.00022   0.17108
   D17        2.38468   0.00000   0.00000  -0.00020  -0.00020   2.38449
   D18        0.53382   0.00000   0.00000   0.00000   0.00000   0.53381
   D19       -2.12018   0.00000   0.00000   0.00000   0.00000  -2.12018
   D20       -1.47789   0.00000   0.00000  -0.00001  -0.00001  -1.47790
         Item               Value     Threshold  Converged?
 Maximum Force            0.000007     0.000450     YES
 RMS     Force            0.000002     0.000300     YES
 Maximum Displacement     0.000837     0.001800     YES
 RMS     Displacement     0.000240     0.001200     YES
 Predicted change in Energy=-2.466867D-09
 Optimization completed.
    -- Stationary point found.
                           ----------------------------
                           !   Optimized Parameters   !
                           ! (Angstroms and Degrees)  !
 --------------------------                            --------------------------
 ! Name  Definition              Value          Derivative Info.                !
 --------------------------------------------------------------------------------
 ! R1    R(1,3)                  1.2975         -DE/DX =    0.0                 !
 ! R2    R(1,11)                 1.0251         -DE/DX =    0.0                 !
 ! R3    R(2,10)                 1.0047         -DE/DX =    0.0                 !
 ! R4    R(3,5)                  1.516          -DE/DX =    0.0                 !
 ! R5    R(3,6)                  1.4762         -DE/DX =    0.0                 !
 ! R6    R(4,6)                  1.3529         -DE/DX =    0.0                 !
 ! R7    R(4,10)                 1.1443         -DE/DX =    0.0                 !
 ! R8    R(5,7)                  1.0953         -DE/DX =    0.0                 !
 ! R9    R(5,8)                  1.0936         -DE/DX =    0.0                 !
 ! R10   R(5,9)                  1.0981         -DE/DX =    0.0                 !
 ! R11   R(6,10)                 1.9583         -DE/DX =    0.0                 !
 ! R12   R(6,12)                 1.3538         -DE/DX =    0.0                 !
 ! R13   R(12,13)                0.9892         -DE/DX =    0.0                 !
 ! A1    A(3,1,11)             114.9313         -DE/DX =    0.0                 !
 ! A2    A(1,3,5)              125.9293         -DE/DX =    0.0                 !
 ! A3    A(1,3,6)              119.0676         -DE/DX =    0.0                 !
 ! A4    A(5,3,6)              114.7813         -DE/DX =    0.0                 !
 ! A5    A(3,5,7)              110.7804         -DE/DX =    0.0                 !
 ! A6    A(3,5,8)              110.7916         -DE/DX =    0.0                 !
 ! A7    A(3,5,9)              111.0149         -DE/DX =    0.0                 !
 ! A8    A(7,5,8)              108.8555         -DE/DX =    0.0                 !
 ! A9    A(7,5,9)              106.9899         -DE/DX =    0.0                 !
 ! A10   A(8,5,9)              108.2858         -DE/DX =    0.0                 !
 ! A11   A(3,6,4)              116.1585         -DE/DX =    0.0                 !
 ! A12   A(3,6,10)             100.7716         -DE/DX =    0.0                 !
 ! A13   A(3,6,12)             119.5868         -DE/DX =    0.0                 !
 ! A14   A(4,6,12)             118.408          -DE/DX =    0.0                 !
 ! A15   A(10,6,12)            109.3171         -DE/DX =    0.0                 !
 ! A16   A(2,10,4)             107.0378         -DE/DX =    0.0                 !
 ! A17   A(2,10,6)              93.9911         -DE/DX =    0.0                 !
 ! A18   A(6,12,13)            115.8586         -DE/DX =    0.0                 !
 ! D1    D(11,1,3,5)             1.6459         -DE/DX =    0.0                 !
 ! D2    D(11,1,3,6)          -172.6446         -DE/DX =    0.0                 !
 ! D3    D(1,3,5,7)           -123.6784         -DE/DX =    0.0                 !
 ! D4    D(1,3,5,8)             -2.759          -DE/DX =    0.0                 !
 ! D5    D(1,3,5,9)            117.5982         -DE/DX =    0.0                 !
 ! D6    D(6,3,5,7)             50.8257         -DE/DX =    0.0                 !
 ! D7    D(6,3,5,8)            171.7451         -DE/DX =    0.0                 !
 ! D8    D(6,3,5,9)            -67.8976         -DE/DX =    0.0                 !
 ! D9    D(1,3,6,4)             20.1248         -DE/DX =    0.0                 !
 ! D10   D(1,3,6,10)           -12.8599         -DE/DX =    0.0                 !
 ! D11   D(1,3,6,12)          -132.5453         -DE/DX =    0.0                 !
 ! D12   D(5,3,6,4)           -154.7848         -DE/DX =    0.0                 !
 ! D13   D(5,3,6,10)           172.2304         -DE/DX =    0.0                 !
 ! D14   D(5,3,6,12)            52.5451         -DE/DX =    0.0                 !
 ! D15   D(6,4,10,2)            76.794          -DE/DX =    0.0                 !
 ! D16   D(3,6,10,2)             9.8149         -DE/DX =    0.0                 !
 ! D17   D(12,6,10,2)          136.6324         -DE/DX =    0.0                 !
 ! D18   D(3,6,12,13)           30.5854         -DE/DX =    0.0                 !
 ! D19   D(4,6,12,13)         -121.4773         -DE/DX =    0.0                 !
 ! D20   D(10,6,12,13)         -84.6768         -DE/DX =    0.0                 !
 --------------------------------------------------------------------------------
 GradGradGradGradGradGradGradGradGradGradGradGradGradGradGradGradGradGrad


 Test job not archived.
 1\1\GINC-KALI\Freq\RB3LYP\6-31G\C3H7N1O2\ROOT\10-Apr-2016\0\\#N Geom=A
 llCheck Guess=TCheck SCRF=Check Test GenChk RB3LYP/6-31G Freq\\Ala-S-o
 pt-freq-tsb2-6-31g\\0,1\N,-0.7108338243,1.3811734325,-0.5848730583\H,1
 .05855086,1.795668573,-0.1993542033\C,-0.6763009048,0.2106443384,-0.02
 61692273\H,1.2558660992,0.862249037,1.2436967284\C,-1.800483247,-0.806
 4741145,-0.0217299749\C,0.4978908732,-0.161327276,0.7875121158\H,-2.06
 60913547,-1.0876598225,1.0030302636\H,-2.6880340624,-0.4062671739,-0.5
 197241068\H,-1.5005653125,-1.7271611713,-0.5395819348\O,1.7515603832,1
 .2589707475,0.291659674\H,-1.6005958362,1.6191065193,-1.0348707577\O,1
 .08762157,-1.3651991392,0.5988016292\H,1.0377663963,-1.7309196302,-0.3
 189464478\\Version=ES64L-G09RevD.01\State=1-A\HF=-323.4870007\RMSD=5.3
 73e-09\RMSF=6.356e-06\ZeroPoint=0.0986979\Thermal=0.1058993\Dipole=-1.
 6610816,-0.7100026,-0.8408947\DipoleDeriv=-0.3290037,-0.083356,0.11183
 15,0.2459996,-0.7397138,0.2479648,-0.1303883,0.0996593,-0.5947727,0.32
 9216,0.0433473,0.0227682,0.0788785,0.324336,0.0329189,0.0146317,-0.004
 9035,0.320003,0.5659611,0.1236611,0.1677032,-0.151542,0.4426327,-0.352
 2737,0.3388344,-0.1622176,0.3393917,0.4040113,0.1894558,0.0511284,0.33
 59441,0.3580999,0.0524806,-0.0462732,0.0277835,0.26786,-0.0677352,-0.1
 341374,-0.0059929,-0.1171493,-0.1065632,0.0553822,-0.019771,0.019352,0
 .0986866,-0.0075442,-0.0540412,-0.0928103,-0.0984956,1.0326312,-0.0785
 234,-0.5871493,0.0898183,-0.3218894,0.0828572,-0.0277986,-0.0037385,-0
 .0139207,0.0864904,0.0203753,0.0333103,0.0445982,-0.0502696,-0.0526037
 ,0.0121256,-0.0546446,0.0649828,0.0250014,0.0568439,-0.0908385,0.02705
 69,0.0504185,0.034466,0.0542043,0.0714369,0.0136547,-0.0482295,-0.0722
 209,0.0102504,-0.0836212,0.0505734,-0.8100332,-0.427498,-0.0459907,-0.
 4738767,-0.9440277,-0.0548852,0.3104898,0.2005731,-0.4978193,-0.060691
 8,0.0871907,-0.1618893,-0.0161821,0.2961059,-0.0176708,-0.0381083,0.01
 99833,0.2574541,-0.4924102,0.19886,0.0298392,0.041116,-0.9674324,0.172
 1046,0.1662306,-0.0414106,0.0374073,0.4035105,0.0179864,-0.0896412,0.0
 905906,0.2406689,-0.0624961,0.0387815,-0.2366715,0.0429563\Polar=55.71
 81019,3.9632236,59.5989116,7.9828568,-6.9628324,36.4305805\PG=C01 [X(C
 3H7N1O2)]\NImag=1\\0.44750033,-0.08938727,0.56010088,0.19216013,-0.267
 90713,0.26792974,0.00018286,0.00270842,0.00123550,0.17082466,0.0012536
 5,-0.00784412,-0.00060142,-0.12139064,0.15285679,0.00284711,0.00142502
 ,-0.00951644,0.10126921,-0.11082949,0.12647214,-0.10545079,-0.02711626
 ,-0.00909067,0.00583073,-0.00518877,0.00455169,0.47318945,0.04741609,-
 0.45225695,0.20384228,-0.01469950,-0.00281154,-0.00113403,0.01458280,0
 .73163988,-0.04595583,0.16591436,-0.15160936,0.00968937,-0.00056104,0.
 00828022,0.10926626,-0.21837131,0.33278679,-0.00186184,-0.00560636,0.0
 0407626,0.01364951,0.00359418,-0.02006275,-0.01365735,-0.00146329,-0.0
 0425843,0.02232024,0.00024282,-0.00706433,0.00529395,-0.00013307,-0.00
 398347,0.01587260,-0.01321637,0.00798930,0.00746987,-0.04393222,0.0074
 1147,-0.00069199,0.00289607,-0.00350895,0.00537014,0.00082640,-0.01153
 608,0.00370332,-0.00874823,-0.00824926,0.02773875,0.03546569,0.1391382
 5,0.00566820,-0.00517306,-0.00599506,-0.00013664,0.00067237,-0.0009150
 7,-0.15289753,-0.05520538,-0.00448460,-0.00007227,0.00049970,-0.000674
 42,0.52684263,-0.03518168,-0.02885386,0.01304288,0.00298252,-0.0010737
 0,0.00219085,-0.03345187,-0.12345692,0.00373500,0.00040248,-0.00008604
 ,0.00071758,-0.05577217,0.51592128,0.00662707,0.02434552,0.02184333,-0
 .00201906,0.00197408,0.00005368,-0.01024707,-0.00545233,-0.08629287,-0
 .00274242,-0.00310617,0.00259844,0.02139982,-0.01634721,0.55724484,-0.
 00329491,0.02784271,-0.01978251,-0.00286395,0.00130306,0.00737740,-0.1
 5766955,0.00942862,-0.07557959,0.01394919,0.02895621,-0.07270837,-0.02
 360360,-0.00729427,-0.00873222,0.32730031,0.02938558,-0.01668228,0.019
 18941,0.00169527,-0.01616819,0.01132872,0.04320399,-0.08467936,0.00875
 119,0.03080639,0.01241679,-0.09192935,-0.01869951,0.00699364,-0.001999
 60,-0.16733872,0.40688533,-0.01502115,0.04127617,-0.03253421,-0.007114
 89,0.00767995,-0.00456835,-0.03233396,-0.00789951,-0.08215346,-0.02561
 419,-0.01727808,-0.02541872,-0.00414998,-0.00456700,0.00797179,0.06916
 134,0.05188761,0.19682307,-0.00201688,-0.00198386,-0.00291879,0.000709
 71,-0.00024462,0.00025013,-0.00490056,-0.00685727,0.02583314,0.0000686
 4,0.00026134,-0.00041797,-0.06535608,-0.01532089,0.05904875,-0.0017229
 3,-0.00231770,-0.00141464,0.06748141,-0.00278689,-0.00340327,-0.003560
 11,0.00068207,-0.00017154,0.00011111,-0.00620111,-0.00869815,0.0243349
 0,-0.00001542,0.00013650,-0.00021169,-0.01511736,-0.06082047,0.0644362
 7,0.00032650,-0.00026939,-0.00051753,0.01985267,0.06854191,0.00034208,
 -0.00078128,-0.00032550,-0.00039555,-0.00007414,-0.00016987,-0.0006307
 6,0.00060875,0.00358674,0.00029502,0.00022644,-0.00010631,0.05826361,0
 .06284075,-0.28235955,-0.00143275,0.00016735,-0.00092251,-0.06501703,-
 0.06923601,0.30789685,0.00313758,0.00160482,0.00056777,-0.00055355,0.0
 0035809,-0.00029067,-0.02490134,0.01046264,-0.01418470,-0.00015847,0.0
 0013969,-0.00005657,-0.22265484,0.08107949,-0.09823118,-0.00011293,-0.
 00296040,0.00186151,0.00739799,-0.00374199,0.00486199,0.24396372,0.000
 40632,0.00305277,-0.00156852,-0.00042698,0.00049072,-0.00035437,-0.025
 33438,0.00512826,-0.01191982,-0.00041512,-0.00051093,0.00032482,0.0833
 5193,-0.08624910,0.04676505,-0.00018606,-0.00353320,0.00171816,0.00692
 245,-0.00317766,0.00217989,-0.08689584,0.09417087,0.00122599,-0.000828
 56,0.00025185,-0.00004319,0.00000841,-0.00005987,0.00130989,0.00096206
 ,-0.00133589,-0.00009044,-0.00024298,0.00035408,-0.09952340,0.04619502
 ,-0.10539158,0.00063988,0.00053992,0.00121239,-0.02661661,0.01208860,-
 0.01263430,0.10962186,-0.05171468,0.10972188,-0.00406503,-0.00047071,0
 .00305341,0.00041854,0.00001724,0.00039686,0.00934861,-0.02423749,-0.0
 1367286,-0.00046426,-0.00064989,0.00065036,-0.06915021,0.05929104,0.03
 189329,0.00022695,0.00004935,0.00016146,-0.00222810,0.00801935,0.00342
 468,-0.00724403,0.02257323,0.01426315,0.07413950,-0.00427735,0.0002217
 5,0.00136832,0.00042456,0.00009075,0.00030304,0.00554708,-0.02181282,-
 0.00864861,-0.00007033,-0.00018243,0.00019875,0.06297664,-0.22501794,-
 0.10433522,0.00097593,-0.00214935,-0.00000542,-0.00196609,0.00645843,0
 .00498689,0.00276562,-0.00988310,-0.00694179,-0.06528146,0.24957348,0.
 00134646,0.00079655,-0.00158244,-0.00002426,-0.00001063,-0.00005806,-0
 .00033496,0.00325529,0.00155555,0.00022021,0.00022296,-0.00011039,0.03
 354693,-0.10307040,-0.10301590,-0.00084168,-0.00297417,-0.00102019,0.0
 1006008,-0.02831964,-0.01583072,-0.00474026,0.01408883,0.00727265,-0.0
 3874477,0.11391817,0.11069422,-0.01788828,0.00229431,-0.00944513,-0.19
 467988,0.12010562,-0.09745859,-0.01181388,-0.00345545,0.00771134,-0.03
 176711,0.03191285,0.03915652,-0.00018287,0.00106743,-0.00119960,-0.041
 04890,-0.02236034,-0.00525516,0.00044205,0.00005948,0.00012239,-0.0002
 0993,-0.00048079,-0.00024778,-0.00011505,-0.00047702,-0.00005596,0.288
 86792,0.00713903,0.00779449,0.00116514,0.12663889,-0.12144309,0.085071
 23,0.00315659,-0.00815952,0.00978459,0.01063469,-0.00260179,0.05441415
 ,-0.00012325,0.00287025,-0.00147829,-0.03322129,-0.02033696,-0.0207171
 7,0.00081659,0.00039143,-0.00016659,-0.00070589,-0.00030980,-0.0001617
 3,0.00046504,0.00026617,0.00017395,-0.11986449,0.15698085,-0.01170943,
 -0.00808594,0.00665130,-0.11003868,0.09897948,-0.10819191,-0.02223417,
 0.00502905,-0.00250638,0.00309771,-0.04113393,-0.09010387,-0.00062078,
 -0.00010376,-0.00248360,0.07395299,0.08172716,-0.00449932,-0.00036828,
 -0.00028410,0.00053455,-0.00004383,-0.00064191,-0.00001460,-0.00057748
 ,-0.00030925,0.00020177,0.07730260,-0.13459454,0.19154494,-0.31653102,
 0.09549927,-0.15341435,0.00571787,0.00172044,0.00098424,-0.00805745,-0
 .01429905,0.00163616,-0.00114488,-0.00121551,0.00065067,0.00191014,-0.
 00016442,0.00499029,0.00256511,-0.00450990,0.00007076,-0.00040044,-0.0
 0076763,0.00028164,0.00088238,0.00084733,-0.00019387,0.00036250,0.0002
 6006,-0.00021197,-0.00209761,0.00389215,-0.00369893,0.31682126,0.04229
 984,-0.05357149,0.02718030,0.00584853,0.00087543,0.00131072,0.04089326
 ,-0.02238144,0.02764136,-0.00082567,-0.00177045,0.00141205,0.00370746,
 0.00079298,-0.00380630,-0.00415651,0.00003536,0.00478372,0.00038881,0.
 00118330,-0.00030187,-0.00174202,-0.00035791,-0.00023642,-0.00051738,0
 .00005109,0.00016065,-0.00392357,0.00245906,-0.00402985,-0.08212941,0.
 07241153,-0.12849297,0.04690882,-0.10344954,-0.00009682,0.00013757,-0.
 00039795,-0.02140938,0.00238599,-0.00972551,-0.00045812,-0.00198398,0.
 00179580,0.00288637,-0.00532422,-0.00739098,-0.00019490,0.01088011,0.0
 1324410,0.00075420,0.00114980,0.00014610,0.00091836,0.00068715,0.00062
 356,-0.00110824,-0.00146499,0.00059660,0.00066157,-0.00054140,-0.00097
 296,0.14933644,-0.05395579,0.10857073,-0.00542550,0.00017648,-0.000427
 91,-0.00092214,-0.00223153,0.00035134,-0.00802693,0.03934194,-0.001720
 02,0.00019322,-0.00119821,-0.00059850,-0.00000825,0.00134658,-0.001319
 21,-0.11731490,0.09915132,-0.00068717,0.00057628,-0.00031609,-0.000200
 57,0.00018828,0.00046158,-0.00006622,-0.00001202,0.00039143,0.00073769
 ,0.00909303,-0.00251301,-0.00210160,-0.00011934,0.00056334,-0.00241170
 ,0.14954627,0.00380271,0.00056669,0.00023142,-0.00584055,-0.00084715,-
 0.00542636,0.00933655,-0.02296842,-0.00619034,0.00100821,-0.01297737,0
 .00991006,-0.00147966,-0.00201031,-0.00066484,0.13606527,-0.24603252,-
 0.01847388,0.00045988,-0.00017985,-0.00063351,-0.00023520,0.00142579,0
 .00042411,0.00041595,0.00217671,0.00193576,-0.00416404,-0.02328004,0.0
 0092809,0.00103704,0.00057936,0.00192333,-0.13866058,0.37479743,-0.003
 03860,-0.00441442,0.00502391,0.00177031,0.00213681,-0.00061820,-0.0199
 1630,0.01977110,-0.00767292,0.01290334,-0.00513248,-0.00277219,-0.0009
 3168,0.00031605,-0.00224576,0.02957004,-0.07412150,-0.06384107,0.00023
 912,0.00013263,0.00028889,-0.00040624,0.00011887,0.00018647,-0.0004199
 0,0.00091691,0.00065492,-0.00816216,0.00782469,0.00562605,-0.00067692,
 0.00007599,-0.00200314,0.03112048,0.14626836,0.42907539,0.00004529,-0.
 00038851,-0.00001864,0.00182230,0.00003089,0.00069910,-0.00099341,-0.0
 0101463,0.00571976,-0.00105462,-0.00166735,-0.00212192,-0.00035868,0.0
 0101577,0.00053154,0.00359011,0.01389466,0.02033607,-0.00005109,0.0000
 0644,0.00008525,0.00026513,-0.00082367,-0.00027925,-0.00121740,-0.0012
 6906,-0.00095752,0.00140053,0.00368495,-0.00296013,0.00009146,-0.00040
 669,-0.00038481,-0.02776801,-0.00174557,-0.04205150,0.02422838,-0.0003
 1285,-0.00206029,0.00232348,0.00151048,0.00002909,0.00013096,-0.006211
 51,0.00246768,-0.00194015,0.00588245,0.00122276,-0.00527630,0.00036230
 ,0.00099018,-0.00033097,0.00729856,-0.03647987,-0.03788703,-0.00001132
 ,0.00000876,0.00018335,-0.00012901,-0.00024670,-0.00009194,0.00032574,
 0.00020725,-0.00017731,-0.00071398,0.00536894,0.00251950,-0.00017036,-
 0.00030681,-0.00080239,0.00348674,-0.07125032,-0.09389303,-0.01131724,
 0.10004933,0.00036114,-0.00154518,0.00082632,0.00039791,0.00033401,0.0
 0031069,-0.00263390,0.00575090,0.00333636,0.00489506,0.00432612,-0.002
 08080,0.00119827,0.00037446,-0.00053183,-0.00142962,-0.01344685,-0.004
 29352,0.00056789,-0.00012422,-0.00010438,0.00012197,0.00031652,-0.0001
 8665,0.00068004,0.00001320,0.00064199,-0.00313005,-0.00077403,0.004214
 03,0.00024583,-0.00023456,-0.00103681,-0.02267662,-0.13023220,-0.36170
 237,0.02140208,0.13524183,0.36060698\\-0.00000240,-0.00000735,-0.00000
 619,0.00000047,0.00000528,-0.00001174,0.00000494,-0.00000671,0.0000007
 5,0.00000165,0.00000984,-0.00000819,-0.00000131,0.00000180,0.00000715,
 0.00000163,0.00000568,-0.00000259,0.00000213,0.00000584,0.00000947,-0.
 00000103,-0.00000588,0.00000610,0.00000081,-0.00000403,0.00001176,-0.0
 0000148,-0.00000407,-0.00001461,-0.00000164,-0.00000780,-0.00000910,-0
 .00000370,0.00000885,0.00000833,-0.00000009,-0.00000146,0.00000887\\\@


 The best way to pay for a lovely moment is to enjoy it.
 -- Richard Bach
 Job cpu time:       0 days  0 hours  1 minutes  1.2 seconds.
 File lengths (MBytes):  RWF=     12 Int=      0 D2E=      0 Chk=      2 Scr=      1
 Normal termination of Gaussian 09 at Sun Apr 10 16:48:05 2016.
