 Entering Gaussian System, Link 0=g09
 Input=Ala-S-opt-freq-tsa3-6-31g.com
 Output=Ala-S-opt-freq-tsa3-6-31g.log
 Initial command:
 /usr/local/gau/g09/l1.exe "/tmp/Gau-4141.inp" -scrdir="/tmp/"
 Entering Link 1 = /usr/local/gau/g09/l1.exe PID=      4143.
  
 Copyright (c) 1988,1990,1992,1993,1995,1998,2003,2009,2013,
            Gaussian, Inc.  All Rights Reserved.
  
 This is part of the Gaussian(R) 09 program.  It is based on
 the Gaussian(R) 03 system (copyright 2003, Gaussian, Inc.),
 the Gaussian(R) 98 system (copyright 1998, Gaussian, Inc.),
 the Gaussian(R) 94 system (copyright 1995, Gaussian, Inc.),
 the Gaussian 92(TM) system (copyright 1992, Gaussian, Inc.),
 the Gaussian 90(TM) system (copyright 1990, Gaussian, Inc.),
 the Gaussian 88(TM) system (copyright 1988, Gaussian, Inc.),
 the Gaussian 86(TM) system (copyright 1986, Carnegie Mellon
 University), and the Gaussian 82(TM) system (copyright 1983,
 Carnegie Mellon University). Gaussian is a federally registered
 trademark of Gaussian, Inc.
  
 This software contains proprietary and confidential information,
 including trade secrets, belonging to Gaussian, Inc.
  
 This software is provided under written license and may be
 used, copied, transmitted, or stored only in accord with that
 written license.
  
 The following legend is applicable only to US Government
 contracts under FAR:
  
                    RESTRICTED RIGHTS LEGEND
  
 Use, reproduction and disclosure by the US Government is
 subject to restrictions as set forth in subparagraphs (a)
 and (c) of the Commercial Computer Software - Restricted
 Rights clause in FAR 52.227-19.
  
 Gaussian, Inc.
 340 Quinnipiac St., Bldg. 40, Wallingford CT 06492
  
  
 ---------------------------------------------------------------
 Warning -- This program may not be used in any manner that
 competes with the business of Gaussian, Inc. or will provide
 assistance to any competitor of Gaussian, Inc.  The licensee
 of this program is prohibited from giving any competitor of
 Gaussian, Inc. access to this program.  By using this program,
 the user acknowledges that Gaussian, Inc. is engaged in the
 business of creating and licensing software in the field of
 computational chemistry and represents and warrants to the
 licensee that it is not a competitor of Gaussian, Inc. and that
 it will not use this program in any manner prohibited above.
 ---------------------------------------------------------------
  

 Cite this work as:
 Gaussian 09, Revision D.01,
 M. J. Frisch, G. W. Trucks, H. B. Schlegel, G. E. Scuseria, 
 M. A. Robb, J. R. Cheeseman, G. Scalmani, V. Barone, B. Mennucci, 
 G. A. Petersson, H. Nakatsuji, M. Caricato, X. Li, H. P. Hratchian, 
 A. F. Izmaylov, J. Bloino, G. Zheng, J. L. Sonnenberg, M. Hada, 
 M. Ehara, K. Toyota, R. Fukuda, J. Hasegawa, M. Ishida, T. Nakajima, 
 Y. Honda, O. Kitao, H. Nakai, T. Vreven, J. A. Montgomery, Jr., 
 J. E. Peralta, F. Ogliaro, M. Bearpark, J. J. Heyd, E. Brothers, 
 K. N. Kudin, V. N. Staroverov, T. Keith, R. Kobayashi, J. Normand, 
 K. Raghavachari, A. Rendell, J. C. Burant, S. S. Iyengar, J. Tomasi, 
 M. Cossi, N. Rega, J. M. Millam, M. Klene, J. E. Knox, J. B. Cross, 
 V. Bakken, C. Adamo, J. Jaramillo, R. Gomperts, R. E. Stratmann, 
 O. Yazyev, A. J. Austin, R. Cammi, C. Pomelli, J. W. Ochterski, 
 R. L. Martin, K. Morokuma, V. G. Zakrzewski, G. A. Voth, 
 P. Salvador, J. J. Dannenberg, S. Dapprich, A. D. Daniels, 
 O. Farkas, J. B. Foresman, J. V. Ortiz, J. Cioslowski, 
 and D. J. Fox, Gaussian, Inc., Wallingford CT, 2013.
 
 ******************************************
 Gaussian 09:  ES64L-G09RevD.01 24-Apr-2013
                14-Apr-2016 
 ******************************************
 %chk=Ala-S-opt-freq-tsa3-6-31g.chk
 ------------------------------------------------
 #p opt=(calcfc,ts) freq rb3lyp/6-31g iop(1/11=1)
 ------------------------------------------------
 1/5=1,10=4,11=1,14=-1,18=20,26=3,38=1/1,3;
 2/9=110,12=2,17=6,18=5,40=1/2;
 3/5=1,6=6,11=2,16=1,25=1,30=1,71=2,74=-5,116=1,140=1/1,2,3;
 4//1;
 5/5=2,38=5/2;
 8/6=4,10=90,11=11/1;
 11/6=1,8=1,9=11,15=111,16=1/1,2,10;
 10/6=1,13=1/2;
 6/7=2,8=2,9=2,10=2,28=1/1;
 7/10=1,18=20,25=1/1,2,3,16;
 1/5=1,10=4,11=1,14=-1,18=20,26=3/3(2);
 2/9=110/2;
 99//99;
 2/9=110/2;
 3/5=1,6=6,11=2,16=1,25=1,30=1,71=1,74=-5,116=1/1,2,3;
 4/5=5,16=3,69=1/1;
 5/5=2,38=5/2;
 7//1,2,3,16;
 1/5=1,11=1,14=-1,18=20,26=3/3(-5);
 2/9=110/2;
 6/7=2,8=2,9=2,10=2,19=2,28=1/1;
 99/9=1/99;
 Leave Link    1 at Thu Apr 14 00:26:35 2016, MaxMem=           0 cpu:         0.0
 (Enter /usr/local/gau/g09/l101.exe)
 -------------------------
 Ala-S-opt-freq-tsa3-6-31g
 -------------------------
 Symbolic Z-matrix:
 Charge =  0 Multiplicity = 1
 N                     1.31264   1.07058   0.1465 
 H                     2.30987   1.14651   0.06403 
 C                     0.6947   -0.17784   0.12126 
 H                    -2.03283  -1.67219  -0.58511 
 C                     1.60273  -1.37592   0.11358 
 C                    -0.80057  -0.29659   0.11404 
 H                     2.24825  -1.37884   1.00224 
 H                     1.02146  -2.29843   0.1106 
 H                     2.25795  -1.36887  -0.76895 
 O                    -1.60985   0.85462   0.02274 
 H                     0.7503    1.89837   0.04977 
 O                    -1.49082  -1.51212   0.21815 
 H                    -0.16396   0.602     1.07234 
 
 Add virtual bond connecting atoms H13        and C3         Dist= 2.83D+00.
 Add virtual bond connecting atoms H13        and C6         Dist= 2.76D+00.
 NAtoms=     13 NQM=       13 NQMF=       0 NMMI=      0 NMMIF=      0
                NMic=       0 NMicF=      0.
                    Isotopes and Nuclear Properties:
 (Nuclear quadrupole moments (NQMom) in fm**2, nuclear magnetic moments (NMagM)
  in nuclear magnetons)

  Atom         1           2           3           4           5           6           7           8           9          10
 IAtWgt=          14           1          12           1          12          12           1           1           1          16
 AtmWgt=  14.0030740   1.0078250  12.0000000   1.0078250  12.0000000  12.0000000   1.0078250   1.0078250   1.0078250  15.9949146
 NucSpn=           2           1           0           1           0           0           1           1           1           0
 AtZEff=   0.0000000   0.0000000   0.0000000   0.0000000   0.0000000   0.0000000   0.0000000   0.0000000   0.0000000   0.0000000
 NQMom=    2.0440000   0.0000000   0.0000000   0.0000000   0.0000000   0.0000000   0.0000000   0.0000000   0.0000000   0.0000000
 NMagM=    0.4037610   2.7928460   0.0000000   2.7928460   0.0000000   0.0000000   2.7928460   2.7928460   2.7928460   0.0000000
 AtZNuc=   7.0000000   1.0000000   6.0000000   1.0000000   6.0000000   6.0000000   1.0000000   1.0000000   1.0000000   8.0000000

  Atom        11          12          13
 IAtWgt=           1          16           1
 AtmWgt=   1.0078250  15.9949146   1.0078250
 NucSpn=           1           0           1
 AtZEff=   0.0000000   0.0000000   0.0000000
 NQMom=    0.0000000   0.0000000   0.0000000
 NMagM=    2.7928460   0.0000000   2.7928460
 AtZNuc=   1.0000000   8.0000000   1.0000000
 Leave Link  101 at Thu Apr 14 00:26:35 2016, MaxMem=    33554432 cpu:         0.1
 (Enter /usr/local/gau/g09/l103.exe)

 GradGradGradGradGradGradGradGradGradGradGradGradGradGradGradGradGradGrad
 Berny optimization.
 Initialization pass.
                           ----------------------------
                           !    Initial Parameters    !
                           ! (Angstroms and Degrees)  !
 --------------------------                            --------------------------
 ! Name  Definition              Value          Derivative Info.                !
 --------------------------------------------------------------------------------
 ! R1    R(1,2)                  1.0035         calculate D2E/DX2 analytically  !
 ! R2    R(1,3)                  1.3932         calculate D2E/DX2 analytically  !
 ! R3    R(1,11)                 1.0054         calculate D2E/DX2 analytically  !
 ! R4    R(3,5)                  1.5033         calculate D2E/DX2 analytically  !
 ! R5    R(3,6)                  1.5            calculate D2E/DX2 analytically  !
 ! R6    R(3,13)                 1.5            calculate D2E/DX2 analytically  !
 ! R7    R(4,12)                 0.9822         calculate D2E/DX2 analytically  !
 ! R8    R(5,7)                  1.0984         calculate D2E/DX2 analytically  !
 ! R9    R(5,8)                  1.0904         calculate D2E/DX2 analytically  !
 ! R10   R(5,9)                  1.0992         calculate D2E/DX2 analytically  !
 ! R11   R(6,10)                 1.4102         calculate D2E/DX2 analytically  !
 ! R12   R(6,12)                 1.4017         calculate D2E/DX2 analytically  !
 ! R13   R(6,13)                 1.4598         calculate D2E/DX2 analytically  !
 ! A1    A(2,1,3)              120.4689         calculate D2E/DX2 analytically  !
 ! A2    A(2,1,11)             119.0538         calculate D2E/DX2 analytically  !
 ! A3    A(3,1,11)             119.2059         calculate D2E/DX2 analytically  !
 ! A4    A(1,3,5)              116.508          calculate D2E/DX2 analytically  !
 ! A5    A(1,3,6)              120.8748         calculate D2E/DX2 analytically  !
 ! A6    A(1,3,13)              77.0884         calculate D2E/DX2 analytically  !
 ! A7    A(5,3,6)              122.6153         calculate D2E/DX2 analytically  !
 ! A8    A(5,3,13)             139.7589         calculate D2E/DX2 analytically  !
 ! A9    A(3,5,7)              110.6686         calculate D2E/DX2 analytically  !
 ! A10   A(3,5,8)              110.6273         calculate D2E/DX2 analytically  !
 ! A11   A(3,5,9)              111.0413         calculate D2E/DX2 analytically  !
 ! A12   A(7,5,8)              108.2564         calculate D2E/DX2 analytically  !
 ! A13   A(7,5,9)              107.4144         calculate D2E/DX2 analytically  !
 ! A14   A(8,5,9)              108.7238         calculate D2E/DX2 analytically  !
 ! A15   A(3,6,10)             120.5154         calculate D2E/DX2 analytically  !
 ! A16   A(3,6,12)             123.9986         calculate D2E/DX2 analytically  !
 ! A17   A(10,6,12)            115.4764         calculate D2E/DX2 analytically  !
 ! A18   A(10,6,13)             77.893          calculate D2E/DX2 analytically  !
 ! A19   A(12,6,13)            134.409          calculate D2E/DX2 analytically  !
 ! A20   A(4,12,6)             110.6311         calculate D2E/DX2 analytically  !
 ! D1    D(2,1,3,5)              6.2762         calculate D2E/DX2 analytically  !
 ! D2    D(2,1,3,6)           -174.2135         calculate D2E/DX2 analytically  !
 ! D3    D(2,1,3,13)           145.8108         calculate D2E/DX2 analytically  !
 ! D4    D(11,1,3,5)           173.2777         calculate D2E/DX2 analytically  !
 ! D5    D(11,1,3,6)            -7.2119         calculate D2E/DX2 analytically  !
 ! D6    D(11,1,3,13)          -47.1877         calculate D2E/DX2 analytically  !
 ! D7    D(1,3,5,7)             59.0596         calculate D2E/DX2 analytically  !
 ! D8    D(1,3,5,8)            179.0434         calculate D2E/DX2 analytically  !
 ! D9    D(1,3,5,9)            -60.1392         calculate D2E/DX2 analytically  !
 ! D10   D(6,3,5,7)           -120.4415         calculate D2E/DX2 analytically  !
 ! D11   D(6,3,5,8)             -0.4577         calculate D2E/DX2 analytically  !
 ! D12   D(6,3,5,9)            120.3597         calculate D2E/DX2 analytically  !
 ! D13   D(13,3,5,7)           -42.6421         calculate D2E/DX2 analytically  !
 ! D14   D(13,3,5,8)            77.3418         calculate D2E/DX2 analytically  !
 ! D15   D(13,3,5,9)          -161.8408         calculate D2E/DX2 analytically  !
 ! D16   D(1,3,6,10)             5.1914         calculate D2E/DX2 analytically  !
 ! D17   D(1,3,6,12)          -173.6291         calculate D2E/DX2 analytically  !
 ! D18   D(5,3,6,10)          -175.3288         calculate D2E/DX2 analytically  !
 ! D19   D(5,3,6,12)             5.8507         calculate D2E/DX2 analytically  !
 ! D20   D(3,6,12,4)          -118.4765         calculate D2E/DX2 analytically  !
 ! D21   D(10,6,12,4)           62.649          calculate D2E/DX2 analytically  !
 ! D22   D(13,6,12,4)          160.7846         calculate D2E/DX2 analytically  !
 --------------------------------------------------------------------------------
 Trust Radius=3.00D-01 FncErr=1.00D-07 GrdErr=1.00D-06
 Number of steps in this run=     65 maximum allowed number of steps=    100.
 Search for a saddle point of order  1.
 GradGradGradGradGradGradGradGradGradGradGradGradGradGradGradGradGradGrad

 Leave Link  103 at Thu Apr 14 00:26:35 2016, MaxMem=    33554432 cpu:         0.0
 (Enter /usr/local/gau/g09/l202.exe)
                          Input orientation:                          
 ---------------------------------------------------------------------
 Center     Atomic      Atomic             Coordinates (Angstroms)
 Number     Number       Type             X           Y           Z
 ---------------------------------------------------------------------
      1          7           0        1.312644    1.070581    0.146495
      2          1           0        2.309874    1.146507    0.064031
      3          6           0        0.694703   -0.177839    0.121261
      4          1           0       -2.032832   -1.672193   -0.585109
      5          6           0        1.602729   -1.375923    0.113581
      6          6           0       -0.800572   -0.296585    0.114040
      7          1           0        2.248246   -1.378835    1.002237
      8          1           0        1.021462   -2.298431    0.110601
      9          1           0        2.257954   -1.368873   -0.768948
     10          8           0       -1.609853    0.854622    0.022738
     11          1           0        0.750296    1.898365    0.049773
     12          8           0       -1.490820   -1.512116    0.218146
     13          1           0       -0.163957    0.601999    1.072343
 ---------------------------------------------------------------------
                    Distance matrix (angstroms):
                    1          2          3          4          5
     1  N    0.000000
     2  H    1.003510   0.000000
     3  C    1.393212   2.089484   0.000000
     4  H    4.387513   5.217811   3.189279   0.000000
     5  C    2.463862   2.620145   1.503321   3.713926   0.000000
     6  C    2.517117   3.429270   1.500000   1.974733   2.634545
     7  H    2.758131   2.694695   2.152210   4.575299   1.098367
     8  H    3.381762   3.678284   2.145646   3.194511   1.090367
     9  H    2.771747   2.650224   2.157496   4.305420   1.099194
    10  O    2.933077   3.930797   2.527184   2.633094   3.912067
    11  H    1.005394   1.731409   2.078178   4.571407   3.384032
    12  O    3.812462   4.640830   2.562458   0.982151   3.098310
    13  H    1.804747   2.726357   1.500000   3.378134   2.820032
                    6          7          8          9         10
     6  C    0.000000
     7  H    3.354914   0.000000
     8  H    2.706881   1.773604   0.000000
     9  H    3.359174   1.771240   1.779493   0.000000
    10  O    1.410159   4.564283   4.107710   4.531073   0.000000
    11  H    2.688332   3.727074   4.205987   3.690282   2.580782
    12  O    1.401712   3.822719   2.634657   3.879198   2.377772
    13  H    1.459821   3.122073   3.277600   3.624961   1.804468
                   11         12         13
    11  H    0.000000
    12  O    4.084401   0.000000
    13  H    1.887345   2.638125   0.000000
 Stoichiometry    C3H7NO2
 Framework group  C1[X(C3H7NO2)]
 Deg. of freedom    33
 Full point group                 C1      NOp   1
 Largest Abelian subgroup         C1      NOp   1
 Largest concise Abelian subgroup C1      NOp   1
                         Standard orientation:                         
 ---------------------------------------------------------------------
 Center     Atomic      Atomic             Coordinates (Angstroms)
 Number     Number       Type             X           Y           Z
 ---------------------------------------------------------------------
      1          7           0       -1.426323   -1.201297    0.002032
      2          1           0       -2.425048   -1.191447   -0.095354
      3          6           0       -0.703172   -0.010568   -0.014022
      4          1           0        2.152821    1.243172   -0.679556
      5          6           0       -1.504768    1.261031   -0.035375
      6          6           0        0.796717   -0.020631    0.001144
      7          1           0       -2.160835    1.320544    0.843513
      8          1           0       -0.846465    2.130230   -0.029706
      9          1           0       -2.144942    1.309065   -0.927618
     10          8           0        1.505444   -1.237183   -0.077956
     11          1           0       -0.935741   -2.074430   -0.086206
     12          8           0        1.587146    1.131298    0.115501
     13          1           0        0.071081   -0.859956    0.949861
 ---------------------------------------------------------------------
 Rotational constants (GHZ):      4.8763577      2.9702156      1.8911371
 Leave Link  202 at Thu Apr 14 00:26:35 2016, MaxMem=    33554432 cpu:         0.0
 (Enter /usr/local/gau/g09/l301.exe)
 Standard basis: 6-31G (6D, 7F)
 Ernie: Thresh=  0.10000D-02 Tol=  0.10000D-05 Strict=F.
 There are    68 symmetry adapted cartesian basis functions of A   symmetry.
 There are    68 symmetry adapted basis functions of A   symmetry.
    68 basis functions,   160 primitive gaussians,    68 cartesian basis functions
    24 alpha electrons       24 beta electrons
       nuclear repulsion energy       240.8374820183 Hartrees.
 IExCor=  402 DFT=T Ex+Corr=B3LYP ExCW=0 ScaHFX=  0.200000
 ScaDFX=  0.800000  0.720000  1.000000  0.810000 ScalE2=  1.000000  1.000000
 IRadAn=      0 IRanWt=     -1 IRanGd=            0 ICorTp=0 IEmpDi=  4
 NAtoms=   13 NActive=   13 NUniq=   13 SFac= 1.00D+00 NAtFMM=   60 NAOKFM=F Big=F
 Integral buffers will be    131072 words long.
 Raffenetti 2 integral format.
 Two-electron integral symmetry is turned on.
 Leave Link  301 at Thu Apr 14 00:26:35 2016, MaxMem=    33554432 cpu:         0.0
 (Enter /usr/local/gau/g09/l302.exe)
 NPDir=0 NMtPBC=     1 NCelOv=     1 NCel=       1 NClECP=     1 NCelD=      1
         NCelK=      1 NCelE2=     1 NClLst=     1 CellRange=     0.0.
 One-electron integrals computed using PRISM.
 NBasis=    68 RedAO= T EigKep=  3.88D-03  NBF=    68
 NBsUse=    68 1.00D-06 EigRej= -1.00D+00 NBFU=    68
 Precomputing XC quadrature grid using
 IXCGrd= 4 IRadAn=           0 IRanWt=          -1 IRanGd=           0 AccXCQ= 0.00D+00.
 Generated NRdTot=       0 NPtTot=           0 NUsed=           0 NTot=          32
 NSgBfM=    68    68    68    68    68 MxSgAt=    13 MxSgA2=    13.
 Leave Link  302 at Thu Apr 14 00:26:35 2016, MaxMem=    33554432 cpu:         0.2
 (Enter /usr/local/gau/g09/l303.exe)
 DipDrv:  MaxL=1.
 Leave Link  303 at Thu Apr 14 00:26:35 2016, MaxMem=    33554432 cpu:         0.0
 (Enter /usr/local/gau/g09/l401.exe)
 ExpMin= 1.61D-01 ExpMax= 5.48D+03 ExpMxC= 8.25D+02 IAcc=1 IRadAn=         1 AccDes= 0.00D+00
 Harris functional with IExCor=  402 and IRadAn=       1 diagonalized for initial guess.
 HarFok:  IExCor=  402 AccDes= 0.00D+00 IRadAn=         1 IDoV= 1 UseB2=F ITyADJ=14
 ICtDFT=  3500011 ScaDFX=  1.000000  1.000000  1.000000  1.000000
 FoFCou: FMM=F IPFlag=           0 FMFlag=      100000 FMFlg1=           0
         NFxFlg=           0 DoJE=T BraDBF=F KetDBF=T FulRan=T
         wScrn=  0.000000 ICntrl=     500 IOpCl=  0 I1Cent=   200000004 NGrid=           0
         NMat0=    1 NMatS0=      1 NMatT0=    0 NMatD0=    1 NMtDS0=    0 NMtDT0=    0
 Petite list used in FoFCou.
 Harris En= -323.530721888752    
 JPrj=0 DoOrth=F DoCkMO=F.
 Leave Link  401 at Thu Apr 14 00:26:36 2016, MaxMem=    33554432 cpu:         0.6
 (Enter /usr/local/gau/g09/l502.exe)
 Closed shell SCF:
 Using DIIS extrapolation, IDIIS=  1040.
 Integral symmetry usage will be decided dynamically.
 Keep R1 ints in memory in canonical form, NReq=3676491.
 IVT=       33364 IEndB=       33364 NGot=    33554432 MDV=    30768038
 LenX=    30768038 LenY=    30762973
 Requested convergence on RMS density matrix=1.00D-08 within 128 cycles.
 Requested convergence on MAX density matrix=1.00D-06.
 Requested convergence on             energy=1.00D-06.
 No special actions if energy rises.
 FoFCou: FMM=F IPFlag=           0 FMFlag=           0 FMFlg1=           0
         NFxFlg=           0 DoJE=F BraDBF=F KetDBF=F FulRan=T
         wScrn=  0.000000 ICntrl=     600 IOpCl=  0 I1Cent=           0 NGrid=           0
         NMat0=    1 NMatS0=   2346 NMatT0=    0 NMatD0=    1 NMtDS0=    0 NMtDT0=    0
 Symmetry not used in FoFCou.
 Integral accuracy reduced to 1.0D-05 until final iterations.

 Cycle   1  Pass 0  IDiag  1:
 E= -323.196352106644    
 DIIS: error= 4.47D-02 at cycle   1 NSaved=   1.
 NSaved= 1 IEnMin= 1 EnMin= -323.196352106644     IErMin= 1 ErrMin= 4.47D-02
 ErrMax= 4.47D-02  0.00D+00 EMaxC= 1.00D-01 BMatC= 2.80D-01 BMatP= 2.80D-01
 IDIUse=3 WtCom= 5.53D-01 WtEn= 4.47D-01
 Coeff-Com:  0.100D+01
 Coeff-En:   0.100D+01
 Coeff:      0.100D+01
 Gap=     0.095 Goal=   None    Shift=    0.000
 GapD=    0.095 DampG=0.500 DampE=0.500 DampFc=0.2500 IDamp=-1.
 Damping current iteration by 2.50D-01
 RMSDP=3.49D-02 MaxDP=6.41D-01              OVMax= 7.43D-01

 Cycle   2  Pass 0  IDiag  1:
 E= -323.205358897929     Delta-E=       -0.009006791285 Rises=F Damp=T
 DIIS: error= 1.85D-02 at cycle   2 NSaved=   2.
 NSaved= 2 IEnMin= 2 EnMin= -323.205358897929     IErMin= 2 ErrMin= 1.85D-02
 ErrMax= 1.85D-02  0.00D+00 EMaxC= 1.00D-01 BMatC= 4.92D-02 BMatP= 2.80D-01
 IDIUse=3 WtCom= 8.15D-01 WtEn= 1.85D-01
 Coeff-Com: -0.633D-02 0.101D+01
 Coeff-En:   0.476D+00 0.524D+00
 Coeff:      0.830D-01 0.917D+00
 Gap=    -0.011 Goal=   None    Shift=    0.000
 RMSDP=1.08D-02 MaxDP=1.13D-01 DE=-9.01D-03 OVMax= 6.06D-01

 Cycle   3  Pass 0  IDiag  1:
 E= -323.238045180401     Delta-E=       -0.032686282472 Rises=F Damp=F
 DIIS: error= 4.86D-02 at cycle   3 NSaved=   3.
 NSaved= 3 IEnMin= 3 EnMin= -323.238045180401     IErMin= 2 ErrMin= 1.85D-02
 ErrMax= 4.86D-02  0.00D+00 EMaxC= 1.00D-01 BMatC= 2.06D-01 BMatP= 4.92D-02
 IDIUse=2 WtCom= 0.00D+00 WtEn= 1.00D+00
 EnCoef did     2 forward-backward iterations
 Coeff-En:   0.132D+00 0.371D+00 0.497D+00
 Coeff:      0.132D+00 0.371D+00 0.497D+00
 Gap=     0.157 Goal=   None    Shift=    0.000
 RMSDP=1.92D-02 MaxDP=2.25D-01 DE=-3.27D-02 OVMax= 4.77D-01

 Cycle   4  Pass 0  IDiag  1:
 E= -322.976993984614     Delta-E=        0.261051195787 Rises=F Damp=F
 DIIS: error= 7.55D-02 at cycle   4 NSaved=   4.
 NSaved= 4 IEnMin= 3 EnMin= -323.238045180401     IErMin= 2 ErrMin= 1.85D-02
 ErrMax= 7.55D-02  0.00D+00 EMaxC= 1.00D-01 BMatC= 5.09D-01 BMatP= 4.92D-02
 IDIUse=2 WtCom= 0.00D+00 WtEn= 1.00D+00
 EnCoef did     2 forward-backward iterations
 Coeff-En:   0.164D+00 0.000D+00 0.510D+00 0.326D+00
 Coeff:      0.164D+00 0.000D+00 0.510D+00 0.326D+00
 Gap=     0.146 Goal=   None    Shift=    0.000
 RMSDP=1.20D-02 MaxDP=1.49D-01 DE= 2.61D-01 OVMax= 3.20D-01

 Cycle   5  Pass 0  IDiag  1:
 E= -323.442930948129     Delta-E=       -0.465936963515 Rises=F Damp=F
 DIIS: error= 7.50D-03 at cycle   5 NSaved=   5.
 NSaved= 5 IEnMin= 5 EnMin= -323.442930948129     IErMin= 5 ErrMin= 7.50D-03
 ErrMax= 7.50D-03  0.00D+00 EMaxC= 1.00D-01 BMatC= 7.40D-03 BMatP= 4.92D-02
 IDIUse=3 WtCom= 9.25D-01 WtEn= 7.50D-02
 Coeff-Com: -0.140D+00 0.249D+00 0.159D+00-0.407D-01 0.772D+00
 Coeff-En:   0.000D+00 0.000D+00 0.000D+00 0.000D+00 0.100D+01
 Coeff:     -0.129D+00 0.231D+00 0.147D+00-0.376D-01 0.789D+00
 Gap=     0.147 Goal=   None    Shift=    0.000
 RMSDP=1.72D-03 MaxDP=2.51D-02 DE=-4.66D-01 OVMax= 4.43D-02

 Cycle   6  Pass 0  IDiag  1:
 E= -323.447029800224     Delta-E=       -0.004098852095 Rises=F Damp=F
 DIIS: error= 5.31D-03 at cycle   6 NSaved=   6.
 NSaved= 6 IEnMin= 6 EnMin= -323.447029800224     IErMin= 6 ErrMin= 5.31D-03
 ErrMax= 5.31D-03  0.00D+00 EMaxC= 1.00D-01 BMatC= 2.51D-03 BMatP= 7.40D-03
 IDIUse=3 WtCom= 9.47D-01 WtEn= 5.31D-02
 Coeff-Com: -0.979D-01 0.134D+00 0.549D-01-0.208D-01 0.474D+00 0.456D+00
 Coeff-En:   0.000D+00 0.000D+00 0.000D+00 0.000D+00 0.255D+00 0.745D+00
 Coeff:     -0.927D-01 0.127D+00 0.520D-01-0.197D-01 0.463D+00 0.471D+00
 Gap=     0.145 Goal=   None    Shift=    0.000
 RMSDP=7.35D-04 MaxDP=8.13D-03 DE=-4.10D-03 OVMax= 1.53D-02

 Cycle   7  Pass 0  IDiag  1:
 E= -323.449137493925     Delta-E=       -0.002107693701 Rises=F Damp=F
 DIIS: error= 2.21D-03 at cycle   7 NSaved=   7.
 NSaved= 7 IEnMin= 7 EnMin= -323.449137493925     IErMin= 7 ErrMin= 2.21D-03
 ErrMax= 2.21D-03  0.00D+00 EMaxC= 1.00D-01 BMatC= 3.86D-04 BMatP= 2.51D-03
 IDIUse=3 WtCom= 9.78D-01 WtEn= 2.21D-02
 Coeff-Com: -0.223D-01 0.235D-01-0.187D-01 0.764D-02-0.373D-03 0.638D-01
 Coeff-Com:  0.946D+00
 Coeff-En:   0.000D+00 0.000D+00 0.000D+00 0.000D+00 0.000D+00 0.000D+00
 Coeff-En:   0.100D+01
 Coeff:     -0.218D-01 0.230D-01-0.183D-01 0.747D-02-0.365D-03 0.624D-01
 Coeff:      0.948D+00
 Gap=     0.143 Goal=   None    Shift=    0.000
 RMSDP=3.52D-04 MaxDP=4.83D-03 DE=-2.11D-03 OVMax= 7.95D-03

 Cycle   8  Pass 0  IDiag  1:
 E= -323.449506461554     Delta-E=       -0.000368967629 Rises=F Damp=F
 DIIS: error= 4.31D-04 at cycle   8 NSaved=   8.
 NSaved= 8 IEnMin= 8 EnMin= -323.449506461554     IErMin= 8 ErrMin= 4.31D-04
 ErrMax= 4.31D-04  0.00D+00 EMaxC= 1.00D-01 BMatC= 2.24D-05 BMatP= 3.86D-04
 IDIUse=3 WtCom= 9.96D-01 WtEn= 4.31D-03
 Coeff-Com: -0.481D-02 0.479D-02-0.132D-01 0.535D-02-0.400D-01-0.192D-01
 Coeff-Com:  0.375D+00 0.692D+00
 Coeff-En:   0.000D+00 0.000D+00 0.000D+00 0.000D+00 0.000D+00 0.000D+00
 Coeff-En:   0.000D+00 0.100D+01
 Coeff:     -0.479D-02 0.477D-02-0.131D-01 0.533D-02-0.398D-01-0.192D-01
 Coeff:      0.373D+00 0.693D+00
 Gap=     0.143 Goal=   None    Shift=    0.000
 RMSDP=6.16D-05 MaxDP=6.68D-04 DE=-3.69D-04 OVMax= 1.72D-03

 Cycle   9  Pass 0  IDiag  1:
 E= -323.449525334994     Delta-E=       -0.000018873440 Rises=F Damp=F
 DIIS: error= 2.19D-04 at cycle   9 NSaved=   9.
 NSaved= 9 IEnMin= 9 EnMin= -323.449525334994     IErMin= 9 ErrMin= 2.19D-04
 ErrMax= 2.19D-04  0.00D+00 EMaxC= 1.00D-01 BMatC= 3.13D-06 BMatP= 2.24D-05
 IDIUse=3 WtCom= 9.98D-01 WtEn= 2.19D-03
 Coeff-Com: -0.146D-02 0.192D-02-0.134D-02 0.458D-03-0.341D-02-0.104D-01
 Coeff-Com: -0.333D-01 0.277D+00 0.771D+00
 Coeff-En:   0.000D+00 0.000D+00 0.000D+00 0.000D+00 0.000D+00 0.000D+00
 Coeff-En:   0.000D+00 0.000D+00 0.100D+01
 Coeff:     -0.145D-02 0.192D-02-0.134D-02 0.457D-03-0.340D-02-0.104D-01
 Coeff:     -0.332D-01 0.276D+00 0.771D+00
 Gap=     0.143 Goal=   None    Shift=    0.000
 RMSDP=2.45D-05 MaxDP=3.04D-04 DE=-1.89D-05 OVMax= 4.24D-04

 Cycle  10  Pass 0  IDiag  1:
 E= -323.449527725719     Delta-E=       -0.000002390725 Rises=F Damp=F
 DIIS: error= 7.71D-05 at cycle  10 NSaved=  10.
 NSaved=10 IEnMin=10 EnMin= -323.449527725719     IErMin=10 ErrMin= 7.71D-05
 ErrMax= 7.71D-05  0.00D+00 EMaxC= 1.00D-01 BMatC= 4.76D-07 BMatP= 3.13D-06
 IDIUse=1 WtCom= 1.00D+00 WtEn= 0.00D+00
 Coeff-Com: -0.820D-03 0.102D-02 0.600D-03-0.167D-03 0.369D-02-0.417D-02
 Coeff-Com: -0.612D-01 0.100D+00 0.473D+00 0.488D+00
 Coeff:     -0.820D-03 0.102D-02 0.600D-03-0.167D-03 0.369D-02-0.417D-02
 Coeff:     -0.612D-01 0.100D+00 0.473D+00 0.488D+00
 Gap=     0.143 Goal=   None    Shift=    0.000
 RMSDP=1.26D-05 MaxDP=1.73D-04 DE=-2.39D-06 OVMax= 3.57D-04

 Cycle  11  Pass 0  IDiag  1:
 E= -323.449528218808     Delta-E=       -0.000000493089 Rises=F Damp=F
 DIIS: error= 2.83D-05 at cycle  11 NSaved=  11.
 NSaved=11 IEnMin=11 EnMin= -323.449528218808     IErMin=11 ErrMin= 2.83D-05
 ErrMax= 2.83D-05  0.00D+00 EMaxC= 1.00D-01 BMatC= 5.41D-08 BMatP= 4.76D-07
 IDIUse=1 WtCom= 1.00D+00 WtEn= 0.00D+00
 Coeff-Com: -0.173D-03 0.282D-03 0.282D-03-0.738D-04 0.919D-03-0.235D-02
 Coeff-Com: -0.261D-01 0.200D-01 0.129D+00 0.216D+00 0.662D+00
 Coeff:     -0.173D-03 0.282D-03 0.282D-03-0.738D-04 0.919D-03-0.235D-02
 Coeff:     -0.261D-01 0.200D-01 0.129D+00 0.216D+00 0.662D+00
 Gap=     0.143 Goal=   None    Shift=    0.000
 RMSDP=4.41D-06 MaxDP=5.40D-05 DE=-4.93D-07 OVMax= 8.92D-05

 Initial convergence to 1.0D-05 achieved.  Increase integral accuracy.
 Cycle  12  Pass 1  IDiag  1:
 E= -323.449600742061     Delta-E=       -0.000072523253 Rises=F Damp=F
 DIIS: error= 1.34D-05 at cycle   1 NSaved=   1.
 NSaved= 1 IEnMin= 1 EnMin= -323.449600742061     IErMin= 1 ErrMin= 1.34D-05
 ErrMax= 1.34D-05  0.00D+00 EMaxC= 1.00D-01 BMatC= 2.04D-08 BMatP= 2.04D-08
 IDIUse=1 WtCom= 1.00D+00 WtEn= 0.00D+00
 Coeff-Com:  0.100D+01
 Coeff:      0.100D+01
 Gap=     0.143 Goal=   None    Shift=    0.000
 RMSDP=4.41D-06 MaxDP=5.40D-05 DE=-7.25D-05 OVMax= 1.37D-04

 Cycle  13  Pass 1  IDiag  1:
 E= -323.449600736525     Delta-E=        0.000000005535 Rises=F Damp=F
 DIIS: error= 2.19D-05 at cycle   2 NSaved=   2.
 NSaved= 2 IEnMin= 1 EnMin= -323.449600742061     IErMin= 1 ErrMin= 1.34D-05
 ErrMax= 2.19D-05  0.00D+00 EMaxC= 1.00D-01 BMatC= 4.60D-08 BMatP= 2.04D-08
 IDIUse=1 WtCom= 1.00D+00 WtEn= 0.00D+00
 Coeff-Com:  0.636D+00 0.364D+00
 Coeff:      0.636D+00 0.364D+00
 Gap=     0.143 Goal=   None    Shift=    0.000
 RMSDP=5.63D-06 MaxDP=7.46D-05 DE= 5.54D-09 OVMax= 1.47D-04

 Cycle  14  Pass 1  IDiag  1:
 E= -323.449600766143     Delta-E=       -0.000000029617 Rises=F Damp=F
 DIIS: error= 1.19D-05 at cycle   3 NSaved=   3.
 NSaved= 3 IEnMin= 3 EnMin= -323.449600766143     IErMin= 3 ErrMin= 1.19D-05
 ErrMax= 1.19D-05  0.00D+00 EMaxC= 1.00D-01 BMatC= 1.26D-08 BMatP= 2.04D-08
 IDIUse=1 WtCom= 1.00D+00 WtEn= 0.00D+00
 Coeff-Com:  0.565D-01 0.331D+00 0.613D+00
 Coeff:      0.565D-01 0.331D+00 0.613D+00
 Gap=     0.143 Goal=   None    Shift=    0.000
 RMSDP=2.23D-06 MaxDP=2.51D-05 DE=-2.96D-08 OVMax= 6.23D-05

 Cycle  15  Pass 1  IDiag  1:
 E= -323.449600776898     Delta-E=       -0.000000010755 Rises=F Damp=F
 DIIS: error= 2.46D-06 at cycle   4 NSaved=   4.
 NSaved= 4 IEnMin= 4 EnMin= -323.449600776898     IErMin= 4 ErrMin= 2.46D-06
 ErrMax= 2.46D-06  0.00D+00 EMaxC= 1.00D-01 BMatC= 8.86D-10 BMatP= 1.26D-08
 IDIUse=1 WtCom= 1.00D+00 WtEn= 0.00D+00
 Coeff-Com: -0.122D-01 0.168D+00 0.366D+00 0.478D+00
 Coeff:     -0.122D-01 0.168D+00 0.366D+00 0.478D+00
 Gap=     0.143 Goal=   None    Shift=    0.000
 RMSDP=4.89D-07 MaxDP=6.92D-06 DE=-1.08D-08 OVMax= 1.40D-05

 Cycle  16  Pass 1  IDiag  1:
 E= -323.449600777689     Delta-E=       -0.000000000791 Rises=F Damp=F
 DIIS: error= 5.45D-07 at cycle   5 NSaved=   5.
 NSaved= 5 IEnMin= 5 EnMin= -323.449600777689     IErMin= 5 ErrMin= 5.45D-07
 ErrMax= 5.45D-07  0.00D+00 EMaxC= 1.00D-01 BMatC= 3.55D-11 BMatP= 8.86D-10
 IDIUse=1 WtCom= 1.00D+00 WtEn= 0.00D+00
 Coeff-Com: -0.104D-01 0.667D-01 0.145D+00 0.248D+00 0.551D+00
 Coeff:     -0.104D-01 0.667D-01 0.145D+00 0.248D+00 0.551D+00
 Gap=     0.143 Goal=   None    Shift=    0.000
 RMSDP=1.31D-07 MaxDP=1.98D-06 DE=-7.91D-10 OVMax= 3.18D-06

 Cycle  17  Pass 1  IDiag  1:
 E= -323.449600777723     Delta-E=       -0.000000000034 Rises=F Damp=F
 DIIS: error= 1.31D-07 at cycle   6 NSaved=   6.
 NSaved= 6 IEnMin= 6 EnMin= -323.449600777723     IErMin= 6 ErrMin= 1.31D-07
 ErrMax= 1.31D-07  0.00D+00 EMaxC= 1.00D-01 BMatC= 3.54D-12 BMatP= 3.55D-11
 IDIUse=1 WtCom= 1.00D+00 WtEn= 0.00D+00
 Coeff-Com: -0.267D-02 0.102D-01 0.188D-01 0.568D-01 0.283D+00 0.634D+00
 Coeff:     -0.267D-02 0.102D-01 0.188D-01 0.568D-01 0.283D+00 0.634D+00
 Gap=     0.143 Goal=   None    Shift=    0.000
 RMSDP=4.92D-08 MaxDP=5.41D-07 DE=-3.39D-11 OVMax= 1.12D-06

 Cycle  18  Pass 1  IDiag  1:
 E= -323.449600777726     Delta-E=       -0.000000000003 Rises=F Damp=F
 DIIS: error= 6.52D-08 at cycle   7 NSaved=   7.
 NSaved= 7 IEnMin= 7 EnMin= -323.449600777726     IErMin= 7 ErrMin= 6.52D-08
 ErrMax= 6.52D-08  0.00D+00 EMaxC= 1.00D-01 BMatC= 3.68D-13 BMatP= 3.54D-12
 IDIUse=1 WtCom= 1.00D+00 WtEn= 0.00D+00
 Coeff-Com: -0.722D-03 0.532D-03-0.681D-03 0.131D-01 0.116D+00 0.358D+00
 Coeff-Com:  0.514D+00
 Coeff:     -0.722D-03 0.532D-03-0.681D-03 0.131D-01 0.116D+00 0.358D+00
 Coeff:      0.514D+00
 Gap=     0.143 Goal=   None    Shift=    0.000
 RMSDP=1.30D-08 MaxDP=1.96D-07 DE=-3.30D-12 OVMax= 1.76D-07

 Cycle  19  Pass 1  IDiag  1:
 E= -323.449600777729     Delta-E=       -0.000000000003 Rises=F Damp=F
 DIIS: error= 2.11D-08 at cycle   8 NSaved=   8.
 NSaved= 8 IEnMin= 8 EnMin= -323.449600777729     IErMin= 8 ErrMin= 2.11D-08
 ErrMax= 2.11D-08  0.00D+00 EMaxC= 1.00D-01 BMatC= 3.55D-14 BMatP= 3.68D-13
 IDIUse=1 WtCom= 1.00D+00 WtEn= 0.00D+00
 Coeff-Com:  0.100D-04-0.149D-02-0.309D-02-0.177D-02 0.143D-01 0.910D-01
 Coeff-Com:  0.246D+00 0.655D+00
 Coeff:      0.100D-04-0.149D-02-0.309D-02-0.177D-02 0.143D-01 0.910D-01
 Coeff:      0.246D+00 0.655D+00
 Gap=     0.143 Goal=   None    Shift=    0.000
 RMSDP=4.81D-09 MaxDP=4.05D-08 DE=-2.96D-12 OVMax= 9.05D-08

 SCF Done:  E(RB3LYP) =  -323.449600778     A.U. after   19 cycles
            NFock= 19  Conv=0.48D-08     -V/T= 2.0064
 KE= 3.213783357221D+02 PE=-1.239005266529D+03 EE= 3.533398480112D+02
 Leave Link  502 at Thu Apr 14 00:26:57 2016, MaxMem=    33554432 cpu:        17.3
 (Enter /usr/local/gau/g09/l801.exe)
 DoSCS=F DFT=T ScalE2(SS,OS)=  1.000000  1.000000
 Range of M.O.s used for correlation:     1    68
 NBasis=    68 NAE=    24 NBE=    24 NFC=     0 NFV=     0
 NROrb=     68 NOA=    24 NOB=    24 NVA=    44 NVB=    44
 Leave Link  801 at Thu Apr 14 00:26:58 2016, MaxMem=    33554432 cpu:         0.1
 (Enter /usr/local/gau/g09/l1101.exe)
 Using compressed storage, NAtomX=    13.
 Will process     14 centers per pass.
 Leave Link 1101 at Thu Apr 14 00:26:59 2016, MaxMem=    33554432 cpu:         0.1
 (Enter /usr/local/gau/g09/l1102.exe)
 Symmetrizing basis deriv contribution to polar:
 IMax=3 JMax=2 DiffMx= 0.00D+00
 Leave Link 1102 at Thu Apr 14 00:27:00 2016, MaxMem=    33554432 cpu:         0.0
 (Enter /usr/local/gau/g09/l1110.exe)
 Forming Gx(P) for the SCF density, NAtomX=    13.
 Integral derivatives from FoFJK, PRISM(SPDF).
 Do as many integral derivatives as possible in FoFJK.
 G2DrvN: MDV=      33554224.
 G2DrvN: will do    14 centers at a time, making    1 passes.
 Calling FoFCou, ICntrl=  3107 FMM=F I1Cent=   0 AccDes= 0.00D+00.
 FoFJK:  IHMeth= 1 ICntrl=    3107 DoSepK=F KAlg= 0 I1Cent=   0 FoldK=F
 IRaf=         0 NMat=   1 IRICut=       1 DoRegI=T DoRafI=F ISym2E= 0.
 FoFCou: FMM=F IPFlag=           0 FMFlag=      100000 FMFlg1=           0
         NFxFlg=           0 DoJE=F BraDBF=F KetDBF=F FulRan=T
         wScrn=  0.000000 ICntrl=    3107 IOpCl=  0 I1Cent=           0 NGrid=           0
         NMat0=    1 NMatS0=      1 NMatT0=    0 NMatD0=    1 NMtDS0=    0 NMtDT0=    0
 Symmetry not used in FoFCou.
 End of G2Drv F.D. properties file   721 does not exist.
 End of G2Drv F.D. properties file   722 does not exist.
 End of G2Drv F.D. properties file   788 does not exist.
 Leave Link 1110 at Thu Apr 14 00:27:35 2016, MaxMem=    33554432 cpu:        32.0
 (Enter /usr/local/gau/g09/l1002.exe)
 Minotr:  Closed shell wavefunction.
          IDoAtm=1111111111111
          Direct CPHF calculation.
          Differentiating once with respect to nuclear coordinates.
          Requested convergence is 1.0D-08 RMS, and 1.0D-07 maximum.
          Secondary convergence is 1.0D-12 RMS, and 1.0D-12 maximum.
          NewPWx=T KeepS1=F KeepF1=F KeepIn=T MapXYZ=F SortEE=F KeepMc=T.
          MDV=      33554230 using IRadAn=       2.
 Generate precomputed XC quadrature information.
 Keep R1 ints in memory in canonical form, NReq=3645297.
 FoFCou: FMM=F IPFlag=           0 FMFlag=           0 FMFlg1=           0
         NFxFlg=           0 DoJE=F BraDBF=F KetDBF=F FulRan=T
         wScrn=  0.000000 ICntrl=     600 IOpCl=  0 I1Cent=           0 NGrid=           0
         NMat0=    1 NMatS0=   2346 NMatT0=    0 NMatD0=    1 NMtDS0=    0 NMtDT0=    0
 Symmetry not used in FoFCou.
          Solving linear equations simultaneously, MaxMat=       0.
          There are    42 degrees of freedom in the 1st order CPHF.  IDoFFX=6 NUNeed=     0.
     36 vectors produced by pass  0 Test12= 2.51D-15 2.38D-09 XBig12= 2.23D-01 1.20D-01.
 AX will form    36 AO Fock derivatives at one time.
     36 vectors produced by pass  1 Test12= 2.51D-15 2.38D-09 XBig12= 4.59D-02 5.02D-02.
     36 vectors produced by pass  2 Test12= 2.51D-15 2.38D-09 XBig12= 2.12D-04 3.23D-03.
     36 vectors produced by pass  3 Test12= 2.51D-15 2.38D-09 XBig12= 4.15D-07 9.81D-05.
     36 vectors produced by pass  4 Test12= 2.51D-15 2.38D-09 XBig12= 3.12D-10 2.24D-06.
     19 vectors produced by pass  5 Test12= 2.51D-15 2.38D-09 XBig12= 1.59D-13 4.65D-08.
 InvSVY:  IOpt=1 It=  1 EMax= 1.55D-15
 Solved reduced A of dimension   199 with    36 vectors.
 End of Minotr F.D. properties file   721 does not exist.
 End of Minotr F.D. properties file   722 does not exist.
 End of Minotr F.D. properties file   788 does not exist.
 Leave Link 1002 at Thu Apr 14 00:27:58 2016, MaxMem=    33554432 cpu:        22.6
 (Enter /usr/local/gau/g09/l601.exe)
 Copying SCF densities to generalized density rwf, IOpCl= 0 IROHF=0.

 **********************************************************************

            Population analysis using the SCF density.

 **********************************************************************

 Orbital symmetries:
       Occupied  (A) (A) (A) (A) (A) (A) (A) (A) (A) (A) (A) (A)
                 (A) (A) (A) (A) (A) (A) (A) (A) (A) (A) (A) (A)
       Virtual   (A) (A) (A) (A) (A) (A) (A) (A) (A) (A) (A) (A)
                 (A) (A) (A) (A) (A) (A) (A) (A) (A) (A) (A) (A)
                 (A) (A) (A) (A) (A) (A) (A) (A) (A) (A) (A) (A)
                 (A) (A) (A) (A) (A) (A) (A) (A)
 The electronic state is 1-A.
 Alpha  occ. eigenvalues --  -19.17285 -19.08644 -14.34974 -10.32022 -10.27752
 Alpha  occ. eigenvalues --  -10.20506  -1.06318  -0.95715  -0.91302  -0.77523
 Alpha  occ. eigenvalues --   -0.70297  -0.60095  -0.56150  -0.51134  -0.47482
 Alpha  occ. eigenvalues --   -0.45424  -0.42799  -0.41360  -0.39325  -0.35867
 Alpha  occ. eigenvalues --   -0.31029  -0.28363  -0.23006  -0.17430
 Alpha virt. eigenvalues --   -0.03106   0.01260   0.06274   0.07870   0.11071
 Alpha virt. eigenvalues --    0.12992   0.15742   0.16045   0.18807   0.21068
 Alpha virt. eigenvalues --    0.24372   0.33934   0.35963   0.51604   0.52728
 Alpha virt. eigenvalues --    0.54842   0.59427   0.61731   0.63726   0.65418
 Alpha virt. eigenvalues --    0.70423   0.74064   0.74793   0.79385   0.82366
 Alpha virt. eigenvalues --    0.85769   0.86737   0.90187   0.92216   0.93065
 Alpha virt. eigenvalues --    0.94073   0.96867   0.99241   1.05574   1.07788
 Alpha virt. eigenvalues --    1.09492   1.15297   1.20533   1.26227   1.29893
 Alpha virt. eigenvalues --    1.42736   1.56126   1.69748   1.97847
          Condensed to atoms (all electrons):
               1          2          3          4          5          6
     1  N    7.218459   0.326940   0.148855  -0.000106  -0.077884  -0.072449
     2  H    0.326940   0.382181  -0.024593   0.000002  -0.004761   0.005071
     3  C    0.148855  -0.024593   5.614848   0.003298   0.294894   0.119987
     4  H   -0.000106   0.000002   0.003298   0.379217   0.000000  -0.018542
     5  C   -0.077884  -0.004761   0.294894   0.000000   5.162240  -0.013455
     6  C   -0.072449   0.005071   0.119987  -0.018542  -0.013455   5.039380
     7  H    0.005928   0.000427  -0.038994  -0.000022   0.361859   0.001873
     8  H    0.003753   0.000016  -0.032186  -0.000200   0.371466  -0.002314
     9  H   -0.003287   0.002150  -0.039773   0.000049   0.370871  -0.000890
    10  O    0.004075   0.000214  -0.130700   0.003230   0.002185   0.334404
    11  H    0.305518  -0.017419  -0.040974  -0.000022   0.005173   0.003567
    12  O    0.001851  -0.000005  -0.106434   0.235784  -0.000569   0.145596
    13  H   -0.079631   0.002447   0.028963   0.001344   0.005058   0.135884
               7          8          9         10         11         12
     1  N    0.005928   0.003753  -0.003287   0.004075   0.305518   0.001851
     2  H    0.000427   0.000016   0.002150   0.000214  -0.017419  -0.000005
     3  C   -0.038994  -0.032186  -0.039773  -0.130700  -0.040974  -0.106434
     4  H   -0.000022  -0.000200   0.000049   0.003230  -0.000022   0.235784
     5  C    0.361859   0.371466   0.370871   0.002185   0.005173  -0.000569
     6  C    0.001873  -0.002314  -0.000890   0.334404   0.003567   0.145596
     7  H    0.569880  -0.024293  -0.036645   0.000007  -0.000080   0.000016
     8  H   -0.024293   0.509482  -0.022772   0.000125  -0.000168   0.008946
     9  H   -0.036645  -0.022772   0.562445  -0.000031  -0.000123   0.000181
    10  O    0.000007   0.000125  -0.000031   8.418626   0.017634  -0.092833
    11  H   -0.000080  -0.000168  -0.000123   0.017634   0.378506   0.000358
    12  O    0.000016   0.008946   0.000181  -0.092833   0.000358   8.389999
    13  H   -0.003944   0.000104   0.001086   0.006937   0.007819   0.004848
              13
     1  N   -0.079631
     2  H    0.002447
     3  C    0.028963
     4  H    0.001344
     5  C    0.005058
     6  C    0.135884
     7  H   -0.003944
     8  H    0.000104
     9  H    0.001086
    10  O    0.006937
    11  H    0.007819
    12  O    0.004848
    13  H    0.585346
 Mulliken charges:
               1
     1  N   -0.782020
     2  H    0.327330
     3  C    0.202809
     4  H    0.395967
     5  C   -0.477077
     6  C    0.321885
     7  H    0.163988
     8  H    0.188040
     9  H    0.166739
    10  O   -0.563873
    11  H    0.340212
    12  O   -0.587739
    13  H    0.303738
 Sum of Mulliken charges =   0.00000
 Mulliken charges with hydrogens summed into heavy atoms:
               1
     1  N   -0.114478
     3  C    0.202809
     5  C    0.041691
     6  C    0.625623
    10  O   -0.563873
    12  O   -0.191772
 APT charges:
               1
     1  N   -1.308350
     2  H    0.748956
     3  C    0.188170
     4  H    0.699047
     5  C   -1.249224
     6  C   -0.146723
     7  H    0.444021
     8  H    0.367833
     9  H    0.480128
    10  O   -0.443027
    11  H    0.535671
    12  O   -0.694938
    13  H    0.378436
 Sum of APT charges =   0.00000
 APT charges with hydrogens summed into heavy atoms:
               1
     1  N   -0.023723
     3  C    0.188170
     5  C    0.042758
     6  C    0.231713
    10  O   -0.443027
    12  O    0.004109
 Electronic spatial extent (au):  <R**2>=            635.2799
 Charge=              0.0000 electrons
 Dipole moment (field-independent basis, Debye):
    X=             -4.3941    Y=              1.5859    Z=             -1.1215  Tot=              4.8043
 Quadrupole moment (field-independent basis, Debye-Ang):
   XX=            -34.2330   YY=            -36.7014   ZZ=            -36.5524
   XY=              6.6635   XZ=             -2.7206   YZ=             -3.0499
 Traceless Quadrupole moment (field-independent basis, Debye-Ang):
   XX=              1.5960   YY=             -0.8725   ZZ=             -0.7235
   XY=              6.6635   XZ=             -2.7206   YZ=             -3.0499
 Octapole moment (field-independent basis, Debye-Ang**2):
  XXX=             -8.8725  YYY=             -4.2224  ZZZ=             -1.2530  XYY=             -8.9660
  XXY=              8.6917  XXZ=            -10.1479  XZZ=              4.7863  YZZ=              1.7931
  YYZ=             -3.2838  XYZ=             -6.2898
 Hexadecapole moment (field-independent basis, Debye-Ang**3):
 XXXX=           -389.5251 YYYY=           -266.7559 ZZZZ=            -46.4066 XXXY=             47.1594
 XXXZ=            -14.6238 YYYX=             26.3674 YYYZ=             -3.6444 ZZZX=             -2.4588
 ZZZY=             -2.0988 XXYY=           -117.7686 XXZZ=            -78.4623 YYZZ=            -55.8570
 XXYZ=             -9.4539 YYXZ=             -4.3578 ZZXY=              2.1011
 N-N= 2.408374820183D+02 E-N=-1.239005266654D+03  KE= 3.213783357221D+02
  Exact polarizability:   0.000   0.000   0.000   0.000   0.000   0.000
 Approx polarizability: 133.202 -15.255  84.369  -4.240  -8.024  44.305
 No NMR shielding tensors so no spin-rotation constants.
 Leave Link  601 at Thu Apr 14 00:27:59 2016, MaxMem=    33554432 cpu:         0.1
 (Enter /usr/local/gau/g09/l701.exe)
 Compute integral second derivatives.
 ... and contract with generalized density number  0.
 Leave Link  701 at Thu Apr 14 00:27:59 2016, MaxMem=    33554432 cpu:         0.1
 (Enter /usr/local/gau/g09/l702.exe)
 L702 exits ... SP integral derivatives will be done elsewhere.
 Leave Link  702 at Thu Apr 14 00:27:59 2016, MaxMem=    33554432 cpu:         0.0
 (Enter /usr/local/gau/g09/l703.exe)
 Compute integral second derivatives, UseDBF=F ICtDFT=           0.
 Integral derivatives from FoFJK, PRISM(SPDF).
 Calling FoFJK, ICntrl=    100147 FMM=F ISym2X=0 I1Cent= 0 IOpClX= 0 NMat=1 NMatS=1 NMatT=0.
 FoFJK:  IHMeth= 1 ICntrl=  100147 DoSepK=F KAlg= 0 I1Cent=   0 FoldK=F
 IRaf=         0 NMat=   1 IRICut=       1 DoRegI=T DoRafI=F ISym2E= 0.
 FoFCou: FMM=F IPFlag=           0 FMFlag=      100000 FMFlg1=         800
         NFxFlg=           0 DoJE=F BraDBF=F KetDBF=F FulRan=T
         wScrn=  0.000000 ICntrl=  100147 IOpCl=  0 I1Cent=           0 NGrid=           0
         NMat0=    1 NMatS0=      1 NMatT0=    0 NMatD0=    1 NMtDS0=    0 NMtDT0=    0
 Symmetry not used in FoFCou.
 Leave Link  703 at Thu Apr 14 00:28:36 2016, MaxMem=    33554432 cpu:        34.3
 (Enter /usr/local/gau/g09/l716.exe)
 Dipole        =-1.72877513D+00 6.23941194D-01-4.41249581D-01
 Polarizability= 0.00000000D+00 0.00000000D+00 0.00000000D+00
                 0.00000000D+00 0.00000000D+00 0.00000000D+00
 ***** Axes restored to original set *****
 -------------------------------------------------------------------
 Center     Atomic                   Forces (Hartrees/Bohr)
 Number     Number              X              Y              Z
 -------------------------------------------------------------------
      1        7           0.016237132    0.019573975   -0.021677766
      2        1           0.000565461   -0.000870876   -0.001853315
      3        6          -0.051604046   -0.019332832    0.008558351
      4        1          -0.001907785    0.006645685    0.003560792
      5        6          -0.004222522    0.000486916    0.014390315
      6        6          -0.005997531    0.087919811   -0.007482629
      7        1           0.001791843   -0.001974757   -0.000667397
      8        1          -0.000513943   -0.000282985   -0.000201898
      9        1          -0.002454743    0.003196721   -0.000938469
     10        8           0.039312487   -0.040616478   -0.003093482
     11        1          -0.000952899    0.004769942   -0.005436550
     12        8           0.028696159   -0.006574523    0.002306895
     13        1          -0.018949613   -0.052940599    0.012535152
 -------------------------------------------------------------------
 Cartesian Forces:  Max     0.087919811 RMS     0.022539227
 Force constants in Cartesian coordinates: 
                1             2             3             4             5 
      1  0.877234D+00
      2 -0.197687D-01  0.727598D+00
      3 -0.258284D-01 -0.687984D-01  0.943923D-03
      4 -0.475126D+00 -0.256277D-01  0.294736D-01  0.490559D+00
      5 -0.217753D-01 -0.725165D-01  0.421587D-02  0.307725D-01  0.699496D-01
      6  0.471429D-01  0.315710D-02 -0.711247D-03 -0.352772D-01 -0.405084D-02
      7 -0.177971D+00 -0.598445D-01  0.158355D-01 -0.947623D-02 -0.386484D-01
      8 -0.124372D+00 -0.286115D+00  0.499861D-01  0.261421D-02 -0.162710D-02
      9 -0.162090D-01 -0.137581D-01  0.733609D-02  0.212925D-02  0.290206D-02
     10  0.330323D-03  0.180817D-02 -0.384286D-03 -0.175480D-03 -0.486978D-03
     11 -0.114693D-03  0.103070D-02  0.565063D-03  0.134729D-03 -0.133202D-03
     12  0.246372D-03 -0.123643D-02  0.113427D-02  0.321931D-03  0.259189D-03
     13  0.112119D-01 -0.153013D-01  0.362383D-02  0.147102D-02 -0.411050D-04
     14  0.249154D-01 -0.375694D-01 -0.258093D-02  0.146987D-02  0.181909D-02
     15 -0.408594D-02 -0.398115D-02 -0.322253D-04 -0.494560D-03  0.318262D-03
     16  0.108659D-01  0.132746D-01 -0.309861D-01  0.294078D-03  0.178300D-02
     17 -0.448715D-01  0.577773D-02  0.981778D-02  0.214519D-02 -0.558710D-02
     18  0.256787D-01  0.290477D-01 -0.117774D-01  0.239841D-03  0.210102D-02
     19  0.176556D-02 -0.177173D-02  0.713223D-04  0.389926D-03  0.128037D-03
     20 -0.668384D-03  0.240261D-02 -0.114609D-02 -0.271125D-03 -0.736028D-03
     21  0.850688D-03  0.960536D-04 -0.634191D-03 -0.352347D-04  0.684226D-03
     22 -0.374378D-02  0.370588D-02 -0.596778D-05 -0.156864D-03  0.197268D-03
     23  0.514859D-02 -0.296354D-02 -0.182767D-03  0.407198D-03  0.451487D-03
     24  0.221214D-03  0.755739D-04  0.158651D-02 -0.880376D-04  0.630640D-05
     25  0.237094D-02 -0.111865D-02 -0.217352D-02  0.353562D-03  0.292342D-03
     26 -0.542395D-03  0.138297D-02  0.928125D-03 -0.770175D-03 -0.566323D-03
     27 -0.822499D-03  0.357924D-04  0.121604D-02  0.228687D-03 -0.893061D-03
     28 -0.316444D-02 -0.165863D-01  0.140225D-02  0.555249D-03  0.922876D-03
     29  0.174720D-01  0.196928D-01 -0.174161D-01 -0.194659D-02  0.150030D-02
     30  0.170258D-02 -0.147870D-01 -0.902491D-02  0.506090D-03 -0.241166D-03
     31 -0.196342D+00  0.178257D+00 -0.175928D-01 -0.930858D-02  0.289425D-01
     32  0.180997D+00 -0.337996D+00  0.310400D-01 -0.853348D-02  0.868840D-02
     33 -0.298964D-01  0.502570D-01 -0.696256D-02  0.334402D-02 -0.444207D-02
     34 -0.808591D-02 -0.126008D-02  0.508562D-03  0.874925D-03 -0.111015D-02
     35 -0.511848D-02 -0.601601D-02 -0.661161D-03  0.450091D-03 -0.662445D-04
     36 -0.162478D-02  0.311081D-02  0.286341D-02 -0.315702D-03 -0.109675D-02
     37 -0.393454D-01 -0.557669D-01  0.260560D-01 -0.255072D-03 -0.976633D-03
     38 -0.113016D-01 -0.147076D-01 -0.576740D-02 -0.844654D-03 -0.117646D-02
     39  0.262461D-02  0.167811D-01  0.140623D-01 -0.326871D-04  0.236957D-03
                6             7             8             9            10 
      6  0.145845D-03
      7 -0.436314D-02  0.514765D+00
      8  0.285529D-02  0.581462D-03  0.597461D+00
      9  0.293493D-02  0.374512D-01 -0.410260D-01  0.798863D-01
     10  0.291892D-03 -0.302122D-02 -0.362040D-02 -0.660467D-03  0.154961D+00
     11  0.384148D-03 -0.509414D-04 -0.298923D-02 -0.168018D-02  0.653903D-01
     12  0.541128D-03  0.214047D-02  0.238042D-02 -0.365112D-02  0.206941D+00
     13  0.719551D-03 -0.132778D+00  0.598700D-01 -0.495420D-02 -0.234272D-03
     14 -0.169553D-03  0.524281D-01 -0.164854D+00  0.840268D-02 -0.469660D-03
     15  0.212344D-02 -0.501988D-02 -0.191191D-04 -0.738145D-01  0.318499D-03
     16 -0.603531D-02 -0.205869D+00  0.303779D-01  0.542469D-01 -0.166001D-01
     17  0.559518D-03 -0.376365D-01 -0.123847D+00  0.728229D-02 -0.111067D-01
     18 -0.952129D-02 -0.451909D-01  0.240219D-01  0.527450D-01 -0.182234D-01
     19 -0.615564D-03 -0.203572D-01  0.494267D-02 -0.151615D-01  0.162210D-03
     20  0.912412D-03  0.223294D-01 -0.233759D-02  0.235000D-01  0.441611D-04
     21 -0.796793D-03  0.187256D-03  0.317721D-03  0.517575D-02  0.583072D-04
     22 -0.641742D-04  0.127961D-01  0.205250D-01 -0.316948D-03 -0.155376D-03
     23  0.541381D-04 -0.162249D-01 -0.234253D-01  0.514212D-03  0.130117D-03
     24 -0.844578D-03  0.377410D-03 -0.398241D-03 -0.222257D-02 -0.445769D-03
     25  0.507598D-03 -0.164898D-01  0.385502D-02  0.175969D-01 -0.141701D-03
     26 -0.597345D-03  0.192517D-01 -0.269428D-02 -0.241969D-01  0.138687D-03
     27 -0.462049D-03 -0.235187D-03 -0.354852D-03  0.328249D-02 -0.393388D-04
     28  0.460811D-04 -0.639928D-02  0.382210D-01 -0.229509D-01  0.503011D-03
     29 -0.454932D-02  0.216243D-03  0.589036D-02  0.384546D-01  0.189769D-02
     30 -0.183613D-05  0.230790D-01  0.141443D-01 -0.348113D-03 -0.445702D-03
     31 -0.584294D-02  0.180942D-01 -0.132270D-01 -0.255326D-03  0.158998D-03
     32 -0.822945D-05  0.190718D-01 -0.250867D-01  0.509761D-02 -0.860757D-04
     33  0.235036D-02 -0.362250D-02 -0.118016D-01 -0.572539D-02  0.111581D-04
     34 -0.573282D-03 -0.781297D-02 -0.279744D-01  0.197865D-02 -0.135323D+00
     35 -0.431196D-03  0.271195D-02  0.542176D-03 -0.261532D-03 -0.568832D-01
     36  0.212506D-02 -0.669715D-02 -0.558059D-02 -0.567066D-02 -0.191357D+00
     37  0.406360D-02  0.345188D-01  0.820629D-02 -0.528944D-01 -0.464635D-03
     38  0.188388D-02  0.358146D-01  0.290822D-01 -0.523065D-02  0.324396D-02
     39  0.211703D-02 -0.139420D-01 -0.345253D-01 -0.599282D-01  0.393434D-02
               11            12            13            14            15 
     11  0.449475D-01
     12  0.530887D-01  0.304423D+00
     13  0.427876D-03  0.231157D-03  0.534503D+00
     14  0.368914D-03  0.263675D-03  0.637997D-01  0.542621D+00
     15 -0.493751D-03 -0.377394D-03  0.253859D-02 -0.516540D-02  0.533829D+00
     16 -0.332681D-01  0.101183D-01 -0.172627D-01  0.282398D-02  0.117011D-01
     17 -0.171916D-01  0.998044D-02  0.235884D-01  0.921424D-02 -0.316226D-02
     18 -0.317074D-01  0.375164D-02 -0.343910D-02 -0.165390D-02 -0.247318D-02
     19  0.723801D-04  0.226971D-04 -0.130456D+00 -0.367881D-02 -0.120090D+00
     20 -0.886594D-04 -0.140973D-03 -0.254089D-02 -0.496827D-01 -0.100140D-02
     21  0.761172D-04  0.123764D-04 -0.120315D+00 -0.171264D-02 -0.216367D+00
     22 -0.181181D-03 -0.148996D-03 -0.130831D+00 -0.129716D+00 -0.644911D-03
     23  0.246274D-03 -0.227197D-04 -0.122754D+00 -0.245232D+00 -0.945874D-03
     24  0.286080D-03  0.103335D-03 -0.488824D-03 -0.585457D-03 -0.492154D-01
     25  0.206603D-03  0.175509D-03 -0.133039D+00 -0.508758D-02  0.123297D+00
     26 -0.113681D-03 -0.140796D-04 -0.304396D-02 -0.477330D-01  0.233967D-02
     27 -0.306809D-04  0.357392D-04  0.121450D+00  0.492127D-02 -0.213148D+00
     28  0.694505D-02  0.218898D-02 -0.100671D-02 -0.415491D-02 -0.413807D-03
     29  0.378350D-03  0.162338D-02 -0.194117D-02  0.406208D-03  0.653741D-02
     30  0.656563D-02  0.137229D-02  0.179315D-02 -0.128267D-02  0.783474D-02
     31 -0.878497D-04 -0.300848D-03 -0.191366D-02 -0.294595D-02 -0.568647D-03
     32 -0.240414D-03 -0.131344D-03 -0.458149D-02 -0.238041D-02  0.902476D-03
     33 -0.806067D-04 -0.223603D-03 -0.129178D-02 -0.954531D-05  0.169036D-02
     34 -0.386329D-01 -0.219655D+00  0.609011D-03  0.301763D-03 -0.128722D-03
     35 -0.297553D-01 -0.679544D-01  0.349699D-03 -0.288984D-02  0.405989D-03
     36 -0.281813D-01 -0.305302D+00 -0.194903D-03 -0.479558D-03  0.485815D-03
     37 -0.841249D-03 -0.228218D-02 -0.273743D-03  0.313952D-03 -0.640888D-02
     38  0.354031D-02  0.190419D-02  0.216840D-02 -0.408868D-02  0.426515D-02
     39  0.120818D-02 -0.182042D-02  0.327046D-03  0.520282D-04  0.946384D-02
               16            17            18            19            20 
     16  0.391379D+00
     17  0.115455D+00  0.390669D+00
     18 -0.248994D-01 -0.203948D-01  0.134169D+00
     19  0.198268D-02  0.253512D-02 -0.314304D-02  0.147882D+00
     20 -0.219447D-02 -0.291296D-02  0.222629D-02 -0.281648D-02  0.515317D-01
     21  0.649948D-03  0.547383D-03 -0.833389D-03  0.133976D+00  0.134319D-02
     22  0.123830D-02  0.180145D-02  0.118369D-02 -0.101897D-01 -0.164355D-01
     23 -0.209287D-02 -0.213752D-02 -0.844095D-03  0.950706D-03  0.107500D-02
     24  0.925789D-05  0.286890D-03  0.789733D-03 -0.154118D-01 -0.245194D-01
     25 -0.154495D-02  0.354290D-02  0.135874D-02  0.112618D-01  0.575316D-03
     26  0.220045D-02 -0.463961D-02 -0.652774D-03 -0.516031D-03  0.341145D-03
     27 -0.118469D-02  0.127455D-03 -0.117938D-02  0.172650D-01  0.188149D-02
     28 -0.132712D+00  0.750579D-01 -0.257138D-02 -0.153315D-02  0.123608D-02
     29 -0.129394D-01 -0.112857D+00 -0.166661D-01  0.981766D-03 -0.866631D-03
     30 -0.347212D-01  0.572822D-01 -0.508131D-01  0.984826D-03 -0.104205D-02
     31  0.315610D-02 -0.330934D-02  0.394781D-02 -0.310085D-03  0.230887D-03
     32  0.130321D-02 -0.290897D-02 -0.529356D-03  0.504540D-04  0.214028D-03
     33  0.529946D-02 -0.247597D-02  0.472381D-02  0.516581D-03 -0.470978D-03
     34 -0.116151D+00 -0.831760D-01  0.192543D-02 -0.324981D-03  0.160307D-03
     35 -0.626780D-01 -0.175427D+00  0.348294D-01 -0.519686D-03  0.111349D-02
     36 -0.226034D-01 -0.148015D-01 -0.693303D-01  0.293319D-03  0.132603D-03
     37  0.812238D-01 -0.440258D-01  0.631329D-01 -0.272714D-03  0.350649D-03
     38 -0.540454D-01  0.418475D-01 -0.197778D-01 -0.358398D-03 -0.533645D-04
     39  0.384051D-01 -0.450494D-01 -0.502515D-01  0.129153D-02 -0.167514D-02
               21            22            23            24            25 
     21  0.236176D+00
     22  0.133590D-02  0.140545D+00
     23  0.628964D-03  0.135191D+00  0.270369D+00
     24  0.283247D-03  0.783123D-03  0.122379D-02  0.493132D-01
     25 -0.169903D-01 -0.959271D-02  0.739363D-03  0.151786D-01  0.147399D+00
     26 -0.723879D-03 -0.153903D-01  0.611151D-03  0.243043D-01  0.709967D-03
     27 -0.236747D-01 -0.157236D-02 -0.816411D-03  0.621621D-03 -0.135639D+00
     28 -0.309548D-03 -0.238627D-03  0.379876D-03 -0.115012D-04 -0.113463D-02
     29 -0.385104D-03 -0.842050D-04  0.133650D-03  0.628137D-04 -0.375141D-03
     30 -0.711660D-03 -0.346876D-03  0.294004D-03 -0.171493D-03 -0.142500D-02
     31  0.615082D-05  0.702076D-03 -0.853094D-03 -0.101313D-03 -0.188506D-03
     32  0.144232D-03  0.112946D-02 -0.762018D-03 -0.966590D-05 -0.926941D-04
     33  0.292164D-03  0.347561D-04 -0.232164D-03  0.737906D-03 -0.153551D-03
     34 -0.108467D-03 -0.505838D-03 -0.829956D-03  0.118586D-03 -0.293536D-03
     35 -0.305759D-03 -0.111871D-02  0.220117D-02 -0.365643D-03 -0.495218D-03
     36  0.186039D-04 -0.130874D-03  0.369676D-04 -0.818019D-03 -0.291242D-03
     37  0.693925D-03  0.132120D-03 -0.191455D-03 -0.140905D-03  0.103958D-02
     38 -0.710501D-03  0.376067D-03 -0.567816D-03 -0.367406D-03 -0.275223D-02
     39  0.105914D-02 -0.106363D-03  0.291956D-03 -0.163517D-03 -0.144114D-02
               26            27            28            29            30 
     26  0.497858D-01
     27 -0.489917D-02  0.233586D+00
     28  0.104776D-02  0.225312D-03  0.165032D+00
     29  0.167424D-02 -0.601402D-03 -0.887439D-01  0.165958D+00
     30  0.172980D-02  0.183654D-03  0.143467D-01 -0.399796D-01  0.240860D-01
     31  0.449549D-04 -0.372776D-04 -0.199240D-02  0.629302D-02 -0.293640D-02
     32  0.329686D-03 -0.125711D-03  0.196148D-02  0.200481D-02 -0.273765D-03
     33  0.433623D-03 -0.232576D-04  0.154866D-02  0.290103D-02 -0.609220D-03
     34 -0.929745D-03 -0.192861D-04  0.223325D-01  0.149862D-01  0.569391D-02
     35  0.102367D-02  0.968347D-04 -0.163448D-01 -0.578231D-01 -0.243675D-02
     36  0.632429D-04  0.753130D-05  0.100841D-01  0.147206D-02  0.148968D-01
     37 -0.220093D-02  0.380577D-03 -0.402413D-01  0.641835D-01 -0.823100D-02
     38  0.598238D-03  0.658440D-03  0.578862D-04 -0.260920D-01 -0.199730D-01
     39  0.128535D-02 -0.445789D-03 -0.358495D-02  0.285464D-01  0.133070D-01
               31            32            33            34            35 
     31  0.189544D+00
     32 -0.189352D+00  0.361092D+00
     33  0.195989D-01 -0.399447D-01  0.976490D-02
     34 -0.263272D-03  0.481008D-03  0.260511D-04  0.248828D+00
     35  0.101716D-02  0.147788D-02  0.257546D-03  0.136379D+00  0.276427D+00
     36  0.332195D-03 -0.214801D-03 -0.452840D-03  0.215602D+00  0.367588D-01
     37 -0.133769D-02 -0.234807D-02  0.458467D-02 -0.388449D-02  0.225021D-02
     38 -0.501010D-02 -0.443211D-02  0.560841D-02  0.160497D-02 -0.108081D-01
     39  0.375047D-02  0.405326D-02 -0.556262D-02 -0.536862D-02  0.679068D-04
               36            37            38            39 
     36  0.346608D+00
     37 -0.309697D-02 -0.308392D-01
     38  0.878005D-02  0.310465D-01 -0.131421D-01
     39  0.145683D-01 -0.258573D-01  0.287267D-01  0.635944D-01
 FormGI is forming the generalized inverse of G from B-inverse, IUseBI=4.
 Leave Link  716 at Thu Apr 14 00:28:36 2016, MaxMem=    33554432 cpu:         0.0
 (Enter /usr/local/gau/g09/l103.exe)

 GradGradGradGradGradGradGradGradGradGradGradGradGradGradGradGradGradGrad
 Berny optimization.
 Red2BG is reusing G-inverse.
 Internal  Forces:  Max     0.055518540 RMS     0.015995466
 Search for a saddle point.
 Step number   1 out of a maximum of   65
 All quantities printed in internal units (Hartrees-Bohrs-Radians)
 Swapping is turned off.
 Second derivative matrix not updated -- analytic derivatives used.
 ITU=  0
     Eigenvalues ---   -0.14177  -0.04540  -0.00663  -0.00363   0.00095
     Eigenvalues ---    0.00271   0.01168   0.01919   0.02627   0.04603
     Eigenvalues ---    0.04834   0.04998   0.08102   0.10636   0.12066
     Eigenvalues ---    0.12320   0.12858   0.14263   0.14936   0.15367
     Eigenvalues ---    0.18292   0.20767   0.24823   0.29959   0.32293
     Eigenvalues ---    0.33130   0.34037   0.35725   0.36163   0.46848
     Eigenvalues ---    0.46882   0.49297   0.49891
 Eigenvectors required to have negative eigenvalues:
                          A18       D22       R6        A8        R11
   1                   -0.47026  -0.31370   0.30621   0.29791   0.25021
                          R13       A19       D21       D5        R5
   1                   -0.23688   0.22794   0.21229  -0.18782  -0.18647
 Eigenvalue     2 is  -4.54D-02 should be greater than     0.000000 Eigenvector:
                          R6        D16       R13       D18       A19
   1                   -0.40900  -0.38627   0.38181  -0.27779   0.25282
                          A18       D13       D14       D15       A6
   1                   -0.20183   0.19218   0.19107   0.19084  -0.18496
 Eigenvalue     3 is  -6.63D-03 should be greater than     0.000000 Eigenvector:
                          D22       D21       D20       R13       D3
   1                    0.57905   0.57742   0.55386  -0.06141  -0.05310
                          A20       D2        A19       R6        D14
   1                    0.05293  -0.04804  -0.04123  -0.03759  -0.03349
 Eigenvalue     4 is  -3.63D-03 should be greater than     0.000000 Eigenvector:
                          D3        D2        D1        D6        D5
   1                    0.54915   0.51544   0.48818   0.25040   0.21669
                          D4        R6        D21       R13       A5
   1                    0.18943   0.11532   0.07471   0.06890   0.06005
 RFO step:  Lambda0=1.119504675D-02 Lambda=-7.28756314D-02.
 Linear search not attempted -- option 19 set.
 Maximum step size (   0.300) exceeded in Quadratic search.
    -- Step size scaled by   0.377
 Iteration  1 RMS(Cart)=  0.06025371 RMS(Int)=  0.00347599
 Iteration  2 RMS(Cart)=  0.00243218 RMS(Int)=  0.00125817
 Iteration  3 RMS(Cart)=  0.00000810 RMS(Int)=  0.00125815
 Iteration  4 RMS(Cart)=  0.00000004 RMS(Int)=  0.00125815
 ITry= 1 IFail=0 DXMaxC= 2.17D-01 DCOld= 1.00D+10 DXMaxT= 3.00D-01 DXLimC= 3.00D+00 Rises=F
 Variable       Old X    -DE/DX   Delta X   Delta X   Delta X     New X
                                 (Linear)    (Quad)   (Total)
    R1        1.89636   0.00065   0.00000  -0.00115  -0.00115   1.89521
    R2        2.63279   0.02754   0.00000  -0.01789  -0.01789   2.61490
    R3        1.89992   0.00498   0.00000   0.00358   0.00358   1.90350
    R4        2.84087  -0.00446   0.00000  -0.00551  -0.00551   2.83536
    R5        2.83459  -0.04848   0.00000  -0.07819  -0.07845   2.75614
    R6        2.83459   0.00615   0.00000   0.14196   0.14054   2.97513
    R7        1.85600  -0.00295   0.00000  -0.00103  -0.00103   1.85496
    R8        2.07561   0.00052   0.00000  -0.00006  -0.00006   2.07555
    R9        2.06050   0.00051   0.00000   0.00076   0.00076   2.06126
   R10        2.07718  -0.00069   0.00000  -0.00135  -0.00135   2.07582
   R11        2.66481  -0.05552   0.00000   0.00969   0.00969   2.67451
   R12        2.64885  -0.01282   0.00000  -0.00931  -0.00931   2.63954
   R13        2.75866  -0.03086   0.00000  -0.20256  -0.20062   2.55804
    A1        2.10258  -0.00251   0.00000   0.00580   0.00578   2.10836
    A2        2.07788  -0.00055   0.00000   0.00662   0.00660   2.08448
    A3        2.08053   0.00234   0.00000  -0.01015  -0.01017   2.07037
    A4        2.03345  -0.00689   0.00000  -0.00740  -0.00726   2.02619
    A5        2.10966  -0.00614   0.00000  -0.05286  -0.05258   2.05708
    A6        1.34545   0.02667   0.00000   0.06338   0.06251   1.40795
    A7        2.14004   0.01310   0.00000   0.06009   0.05944   2.19948
    A8        2.43925  -0.03078   0.00000  -0.03094  -0.02804   2.41121
    A9        1.93153   0.00524   0.00000   0.00436   0.00436   1.93589
   A10        1.93081  -0.00002   0.00000   0.00164   0.00163   1.93244
   A11        1.93804  -0.00685   0.00000  -0.00801  -0.00800   1.93003
   A12        1.88943  -0.00120   0.00000  -0.00012  -0.00013   1.88930
   A13        1.87473   0.00072   0.00000   0.00168   0.00169   1.87642
   A14        1.89759   0.00223   0.00000   0.00058   0.00057   1.89816
   A15        2.10339  -0.00583   0.00000   0.00817   0.00665   2.11004
   A16        2.16418  -0.01929   0.00000  -0.03997  -0.04031   2.12387
   A17        2.01544   0.02526   0.00000   0.03287   0.03294   2.04838
   A18        1.35949   0.00967   0.00000  -0.01265  -0.00989   1.34960
   A19        2.34588  -0.03973   0.00000  -0.08019  -0.08527   2.26061
   A20        1.93088  -0.00698   0.00000  -0.01867  -0.01867   1.91221
    D1        0.10954   0.00580   0.00000  -0.02793  -0.02951   0.08003
    D2       -3.04060   0.01454   0.00000  -0.04962  -0.05074  -3.09134
    D3        2.54488  -0.01759   0.00000  -0.03327  -0.03057   2.51431
    D4        3.02427   0.00209   0.00000  -0.01567  -0.01725   3.00702
    D5       -0.12587   0.01083   0.00000  -0.03736  -0.03848  -0.16435
    D6       -0.82358  -0.02130   0.00000  -0.02101  -0.01831  -0.84189
    D7        1.03078   0.00664   0.00000   0.01688   0.01635   1.04713
    D8        3.12490   0.00853   0.00000   0.02064   0.02011  -3.13818
    D9       -1.04963   0.00676   0.00000   0.01713   0.01660  -1.03303
   D10       -2.10210  -0.00216   0.00000   0.03960   0.04018  -2.06192
   D11       -0.00799  -0.00026   0.00000   0.04336   0.04395   0.03596
   D12        2.10067  -0.00204   0.00000   0.03984   0.04043   2.14111
   D13       -0.74424  -0.00705   0.00000  -0.05923  -0.05929  -0.80353
   D14        1.34987  -0.00515   0.00000  -0.05547  -0.05552   1.29435
   D15       -2.82466  -0.00692   0.00000  -0.05899  -0.05904  -2.88369
   D16        0.09061  -0.00604   0.00000   0.04813   0.04732   0.13792
   D17       -3.03040  -0.01471   0.00000  -0.01810  -0.01963  -3.05003
   D18       -3.06006   0.00314   0.00000   0.02470   0.02333  -3.03673
   D19        0.10211  -0.00554   0.00000  -0.04153  -0.04362   0.05849
   D20       -2.06781  -0.00385   0.00000  -0.06808  -0.06690  -2.13471
   D21        1.09343  -0.01183   0.00000  -0.13107  -0.13135   0.96209
   D22        2.80622   0.00501   0.00000  -0.16551  -0.16641   2.63981
         Item               Value     Threshold  Converged?
 Maximum Force            0.055519     0.000450     NO 
 RMS     Force            0.015995     0.000300     NO 
 Maximum Displacement     0.217303     0.001800     NO 
 RMS     Displacement     0.060613     0.001200     NO 
 Predicted change in Energy=-2.169274D-02
 Lowest energy point so far.  Saving SCF results.
 GradGradGradGradGradGradGradGradGradGradGradGradGradGradGradGradGradGrad

 Leave Link  103 at Thu Apr 14 00:28:36 2016, MaxMem=    33554432 cpu:         0.0
 (Enter /usr/local/gau/g09/l202.exe)
                          Input orientation:                          
 ---------------------------------------------------------------------
 Center     Atomic      Atomic             Coordinates (Angstroms)
 Number     Number       Type             X           Y           Z
 ---------------------------------------------------------------------
      1          7           0        1.284248    1.042521    0.125766
      2          1           0        2.281031    1.137849    0.069645
      3          6           0        0.689933   -0.206990    0.109384
      4          1           0       -2.048804   -1.585621   -0.546036
      5          6           0        1.623278   -1.381760    0.112022
      6          6           0       -0.767091   -0.269085    0.129702
      7          1           0        2.258115   -1.376218    1.008284
      8          1           0        1.064691   -2.318492    0.094889
      9          1           0        2.286555   -1.349981   -0.763024
     10          8           0       -1.546431    0.904923   -0.002126
     11          1           0        0.701743    1.855533    0.006065
     12          8           0       -1.448446   -1.484761    0.223993
     13          1           0       -0.278949    0.523358    1.112626
 ---------------------------------------------------------------------
                    Distance matrix (angstroms):
                    1          2          3          4          5
     1  N    0.000000
     2  H    1.002902   0.000000
     3  C    1.383747   2.083690   0.000000
     4  H    4.297404   5.152069   3.135423   0.000000
     5  C    2.447910   2.604393   1.500407   3.736146   0.000000
     6  C    2.434813   3.357695   1.458488   1.957723   2.636706
     7  H    2.752736   2.683673   2.152745   4.583592   1.098333
     8  H    3.368318   3.664207   2.144549   3.262168   1.090770
     9  H    2.742012   2.623483   2.148656   4.347177   1.098477
    10  O    2.836905   3.835214   2.500022   2.598274   3.910115
    11  H    1.007288   1.735875   2.065143   4.439805   3.367568
    12  O    3.723495   4.561896   2.493691   0.981605   3.075489
    13  H    1.920159   2.831767   1.574368   3.214240   2.872133
                    6          7          8          9         10
     6  C    0.000000
     7  H    3.339090   0.000000
     8  H    2.748946   1.773818   0.000000
     9  H    3.360066   1.771731   1.779601   0.000000
    10  O    1.415289   4.549627   4.149430   4.511688   0.000000
    11  H    2.585877   3.724373   4.190716   3.657655   2.440904
    12  O    1.396783   3.790183   2.650968   3.865565   2.402357
    13  H    1.353657   3.171116   3.304129   3.689074   1.730541
                   11         12         13
    11  H    0.000000
    12  O    3.978488   0.000000
    13  H    1.990208   2.487957   0.000000
 Stoichiometry    C3H7NO2
 Framework group  C1[X(C3H7NO2)]
 Deg. of freedom    33
 Full point group                 C1      NOp   1
 RotChk:  IX=3 Diff= 9.06D-02
 Largest Abelian subgroup         C1      NOp   1
 Largest concise Abelian subgroup C1      NOp   1
                         Standard orientation:                         
 ---------------------------------------------------------------------
 Center     Atomic      Atomic             Coordinates (Angstroms)
 Number     Number       Type             X           Y           Z
 ---------------------------------------------------------------------
      1          7           0       -1.301719   -1.254422    0.007116
      2          1           0       -2.299717   -1.327511   -0.059744
      3          6           0       -0.678475   -0.019232   -0.017982
      4          1           0        2.098936    1.287415   -0.657936
      5          6           0       -1.584330    1.176635   -0.041441
      6          6           0        0.779259    0.009582    0.019023
      7          1           0       -2.229568    1.197314    0.847139
      8          1           0       -1.004037    2.099967   -0.063752
      9          1           0       -2.237882    1.148789   -0.923907
     10          8           0        1.532690   -1.183655   -0.088545
     11          1           0       -0.736839   -2.082104   -0.095267
     12          8           0        1.487434    1.210380    0.106054
     13          1           0        0.261429   -0.758618    1.005993
 ---------------------------------------------------------------------
 Rotational constants (GHZ):      4.8842934      3.0808852      1.9379783
 Leave Link  202 at Thu Apr 14 00:28:36 2016, MaxMem=    33554432 cpu:         0.0
 (Enter /usr/local/gau/g09/l301.exe)
 Standard basis: 6-31G (6D, 7F)
 Ernie: Thresh=  0.10000D-02 Tol=  0.10000D-05 Strict=F.
 There are    68 symmetry adapted cartesian basis functions of A   symmetry.
 There are    68 symmetry adapted basis functions of A   symmetry.
    68 basis functions,   160 primitive gaussians,    68 cartesian basis functions
    24 alpha electrons       24 beta electrons
       nuclear repulsion energy       242.9543917701 Hartrees.
 IExCor=  402 DFT=T Ex+Corr=B3LYP ExCW=0 ScaHFX=  0.200000
 ScaDFX=  0.800000  0.720000  1.000000  0.810000 ScalE2=  1.000000  1.000000
 IRadAn=      0 IRanWt=     -1 IRanGd=            0 ICorTp=0 IEmpDi=  4
 NAtoms=   13 NActive=   13 NUniq=   13 SFac= 1.00D+00 NAtFMM=   60 NAOKFM=F Big=F
 Integral buffers will be    131072 words long.
 Raffenetti 2 integral format.
 Two-electron integral symmetry is turned on.
 Leave Link  301 at Thu Apr 14 00:28:37 2016, MaxMem=    33554432 cpu:         0.0
 (Enter /usr/local/gau/g09/l302.exe)
 NPDir=0 NMtPBC=     1 NCelOv=     1 NCel=       1 NClECP=     1 NCelD=      1
         NCelK=      1 NCelE2=     1 NClLst=     1 CellRange=     0.0.
 One-electron integrals computed using PRISM.
 NBasis=    68 RedAO= T EigKep=  3.45D-03  NBF=    68
 NBsUse=    68 1.00D-06 EigRej= -1.00D+00 NBFU=    68
 Precomputing XC quadrature grid using
 IXCGrd= 4 IRadAn=           0 IRanWt=          -1 IRanGd=           0 AccXCQ= 0.00D+00.
 Generated NRdTot=       0 NPtTot=           0 NUsed=           0 NTot=          32
 NSgBfM=    68    68    68    68    68 MxSgAt=    13 MxSgA2=    13.
 Leave Link  302 at Thu Apr 14 00:28:37 2016, MaxMem=    33554432 cpu:         0.2
 (Enter /usr/local/gau/g09/l303.exe)
 DipDrv:  MaxL=1.
 Leave Link  303 at Thu Apr 14 00:28:37 2016, MaxMem=    33554432 cpu:         0.0
 (Enter /usr/local/gau/g09/l401.exe)
 Initial guess from the checkpoint file:  "Ala-S-opt-freq-tsa3-6-31g.chk"
 B after Tr=     0.000000    0.000000    0.000000
         Rot=    0.999609    0.002970   -0.001483   -0.027770 Ang=   3.21 deg.
 Guess basis will be translated and rotated to current coordinates.
 JPrj=2 DoOrth=T DoCkMO=T.
 Generating alternative initial guess.
 ExpMin= 1.61D-01 ExpMax= 5.48D+03 ExpMxC= 8.25D+02 IAcc=1 IRadAn=         1 AccDes= 0.00D+00
 Harris functional with IExCor=  402 and IRadAn=       1 diagonalized for initial guess.
 HarFok:  IExCor=  402 AccDes= 0.00D+00 IRadAn=         1 IDoV= 1 UseB2=F ITyADJ=14
 ICtDFT=  3500011 ScaDFX=  1.000000  1.000000  1.000000  1.000000
 FoFCou: FMM=F IPFlag=           0 FMFlag=      100000 FMFlg1=           0
         NFxFlg=           0 DoJE=T BraDBF=F KetDBF=T FulRan=T
         wScrn=  0.000000 ICntrl=     500 IOpCl=  0 I1Cent=   200000004 NGrid=           0
         NMat0=    1 NMatS0=      1 NMatT0=    0 NMatD0=    1 NMtDS0=    0 NMtDT0=    0
 Petite list used in FoFCou.
 Harris En= -323.545905587285    
 Leave Link  401 at Thu Apr 14 00:28:38 2016, MaxMem=    33554432 cpu:         0.6
 (Enter /usr/local/gau/g09/l502.exe)
 Closed shell SCF:
 Using DIIS extrapolation, IDIIS=  1040.
 Integral symmetry usage will be decided dynamically.
 Keep R1 ints in memory in canonical form, NReq=3676491.
 IVT=       33364 IEndB=       33364 NGot=    33554432 MDV=    30768038
 LenX=    30768038 LenY=    30762973
 Requested convergence on RMS density matrix=1.00D-08 within 128 cycles.
 Requested convergence on MAX density matrix=1.00D-06.
 Requested convergence on             energy=1.00D-06.
 No special actions if energy rises.
 FoFCou: FMM=F IPFlag=           0 FMFlag=           0 FMFlg1=           0
         NFxFlg=           0 DoJE=F BraDBF=F KetDBF=F FulRan=T
         wScrn=  0.000000 ICntrl=     600 IOpCl=  0 I1Cent=           0 NGrid=           0
         NMat0=    1 NMatS0=   2346 NMatT0=    0 NMatD0=    1 NMtDS0=    0 NMtDT0=    0
 Symmetry not used in FoFCou.
 Integral accuracy reduced to 1.0D-05 until final iterations.

 Cycle   1  Pass 0  IDiag  1:
 E= -323.461143816617    
 DIIS: error= 4.49D-03 at cycle   1 NSaved=   1.
 NSaved= 1 IEnMin= 1 EnMin= -323.461143816617     IErMin= 1 ErrMin= 4.49D-03
 ErrMax= 4.49D-03  0.00D+00 EMaxC= 1.00D-01 BMatC= 3.52D-03 BMatP= 3.52D-03
 IDIUse=3 WtCom= 9.55D-01 WtEn= 4.49D-02
 Coeff-Com:  0.100D+01
 Coeff-En:   0.100D+01
 Coeff:      0.100D+01
 Gap=     0.534 Goal=   None    Shift=    0.000
 GapD=    0.534 DampG=2.000 DampE=1.000 DampFc=2.0000 IDamp=-1.
 RMSDP=3.53D-03 MaxDP=3.10D-02              OVMax= 7.41D-02

 Cycle   2  Pass 0  IDiag  1:
 E= -323.468131145915     Delta-E=       -0.006987329298 Rises=F Damp=F
 DIIS: error= 5.27D-03 at cycle   2 NSaved=   2.
 NSaved= 2 IEnMin= 2 EnMin= -323.468131145915     IErMin= 1 ErrMin= 4.49D-03
 ErrMax= 5.27D-03  0.00D+00 EMaxC= 1.00D-01 BMatC= 2.28D-03 BMatP= 3.52D-03
 IDIUse=3 WtCom= 9.47D-01 WtEn= 5.27D-02
 Coeff-Com:  0.412D+00 0.588D+00
 Coeff-En:   0.000D+00 0.100D+01
 Coeff:      0.390D+00 0.610D+00
 Gap=     0.140 Goal=   None    Shift=    0.000
 RMSDP=1.84D-03 MaxDP=1.88D-02 DE=-6.99D-03 OVMax= 5.96D-02

 Cycle   3  Pass 0  IDiag  1:
 E= -323.467815164463     Delta-E=        0.000315981452 Rises=F Damp=F
 DIIS: error= 6.41D-03 at cycle   3 NSaved=   3.
 NSaved= 3 IEnMin= 2 EnMin= -323.468131145915     IErMin= 1 ErrMin= 4.49D-03
 ErrMax= 6.41D-03  0.00D+00 EMaxC= 1.00D-01 BMatC= 2.81D-03 BMatP= 2.28D-03
 IDIUse=3 WtCom= 1.11D-01 WtEn= 8.89D-01
 Coeff-Com:  0.637D-01 0.503D+00 0.433D+00
 Coeff-En:   0.000D+00 0.522D+00 0.478D+00
 Coeff:      0.707D-02 0.520D+00 0.473D+00
 Gap=     0.146 Goal=   None    Shift=    0.000
 RMSDP=1.34D-03 MaxDP=1.69D-02 DE= 3.16D-04 OVMax= 4.35D-02

 Cycle   4  Pass 0  IDiag  1:
 E= -323.469949671490     Delta-E=       -0.002134507028 Rises=F Damp=F
 DIIS: error= 3.05D-03 at cycle   4 NSaved=   4.
 NSaved= 4 IEnMin= 4 EnMin= -323.469949671490     IErMin= 4 ErrMin= 3.05D-03
 ErrMax= 3.05D-03  0.00D+00 EMaxC= 1.00D-01 BMatC= 9.23D-04 BMatP= 2.28D-03
 IDIUse=3 WtCom= 9.70D-01 WtEn= 3.05D-02
 EnCoef did     7 forward-backward iterations
 Coeff-Com: -0.307D-01 0.323D+00 0.368D+00 0.340D+00
 Coeff-En:   0.000D+00 0.905D-01 0.253D+00 0.656D+00
 Coeff:     -0.298D-01 0.316D+00 0.364D+00 0.350D+00
 Gap=     0.143 Goal=   None    Shift=    0.000
 RMSDP=5.65D-04 MaxDP=6.81D-03 DE=-2.13D-03 OVMax= 1.17D-02

 Cycle   5  Pass 0  IDiag  1:
 E= -323.470758948287     Delta-E=       -0.000809276797 Rises=F Damp=F
 DIIS: error= 3.89D-04 at cycle   5 NSaved=   5.
 NSaved= 5 IEnMin= 5 EnMin= -323.470758948287     IErMin= 5 ErrMin= 3.89D-04
 ErrMax= 3.89D-04  0.00D+00 EMaxC= 1.00D-01 BMatC= 1.48D-05 BMatP= 9.23D-04
 IDIUse=3 WtCom= 9.96D-01 WtEn= 3.89D-03
 Coeff-Com: -0.161D-01 0.100D+00 0.123D+00 0.175D+00 0.617D+00
 Coeff-En:   0.000D+00 0.000D+00 0.000D+00 0.000D+00 0.100D+01
 Coeff:     -0.161D-01 0.998D-01 0.123D+00 0.175D+00 0.619D+00
 Gap=     0.143 Goal=   None    Shift=    0.000
 RMSDP=7.22D-05 MaxDP=7.10D-04 DE=-8.09D-04 OVMax= 1.06D-03

 Cycle   6  Pass 0  IDiag  1:
 E= -323.470771508570     Delta-E=       -0.000012560283 Rises=F Damp=F
 DIIS: error= 1.08D-04 at cycle   6 NSaved=   6.
 NSaved= 6 IEnMin= 6 EnMin= -323.470771508570     IErMin= 6 ErrMin= 1.08D-04
 ErrMax= 1.08D-04  0.00D+00 EMaxC= 1.00D-01 BMatC= 1.25D-06 BMatP= 1.48D-05
 IDIUse=3 WtCom= 9.99D-01 WtEn= 1.08D-03
 Coeff-Com: -0.349D-02 0.876D-02 0.149D-01 0.509D-01 0.306D+00 0.623D+00
 Coeff-En:   0.000D+00 0.000D+00 0.000D+00 0.000D+00 0.000D+00 0.100D+01
 Coeff:     -0.349D-02 0.875D-02 0.149D-01 0.508D-01 0.306D+00 0.623D+00
 Gap=     0.143 Goal=   None    Shift=    0.000
[...]
   A14        1.87445   0.00000   0.00000   0.00000   0.00000   1.87445
   A15        2.08741   0.00000   0.00000   0.00000   0.00000   2.08741
   A16        2.05679   0.00000   0.00000   0.00000   0.00000   2.05679
   A17        2.04439   0.00000   0.00000   0.00000   0.00000   2.04439
   A18        1.02882   0.00000   0.00000  -0.00001  -0.00001   1.02882
   A19        2.07638   0.00000   0.00000   0.00001   0.00001   2.07639
   A20        1.87726   0.00000   0.00000   0.00001   0.00001   1.87727
    D1       -0.16882   0.00000   0.00000  -0.00004  -0.00004  -0.16886
    D2        2.92963   0.00000   0.00000  -0.00004  -0.00004   2.92959
    D3        2.46196   0.00000   0.00000  -0.00005  -0.00005   2.46192
    D4        3.00423   0.00000   0.00000   0.00001   0.00001   3.00425
    D5       -0.18050   0.00000   0.00000   0.00000   0.00000  -0.18049
    D6       -0.64817   0.00000   0.00000   0.00000   0.00000  -0.64817
    D7        3.03776   0.00000   0.00000  -0.00022  -0.00022   3.03754
    D8       -1.16298   0.00000   0.00000  -0.00023  -0.00023  -1.16321
    D9        0.92057   0.00000   0.00000  -0.00023  -0.00023   0.92034
   D10       -0.05776   0.00000   0.00000  -0.00021  -0.00021  -0.05797
   D11        2.02469   0.00000   0.00000  -0.00022  -0.00022   2.02448
   D12       -2.17495   0.00000   0.00000  -0.00022  -0.00022  -2.17517
   D13        0.62555   0.00000   0.00000  -0.00021  -0.00021   0.62534
   D14        2.70800   0.00000   0.00000  -0.00022  -0.00022   2.70778
   D15       -1.49164   0.00000   0.00000  -0.00022  -0.00022  -1.49186
   D16        0.13292   0.00000   0.00000  -0.00001  -0.00001   0.13290
   D17        2.80838   0.00000   0.00000  -0.00002  -0.00002   2.80836
   D18       -3.05333   0.00000   0.00000  -0.00002  -0.00002  -3.05336
   D19       -0.37787   0.00000   0.00000  -0.00003  -0.00003  -0.37790
   D20       -3.03408   0.00000   0.00000  -0.00007  -0.00007  -3.03415
   D21       -0.34709   0.00000   0.00000  -0.00008  -0.00008  -0.34717
   D22        0.83520   0.00000   0.00000  -0.00008  -0.00008   0.83512
         Item               Value     Threshold  Converged?
 Maximum Force            0.000002     0.000450     YES
 RMS     Force            0.000001     0.000300     YES
 Maximum Displacement     0.000352     0.001800     YES
 RMS     Displacement     0.000097     0.001200     YES
 Predicted change in Energy=-1.277187D-10
 Optimization completed.
    -- Stationary point found.
                           ----------------------------
                           !   Optimized Parameters   !
                           ! (Angstroms and Degrees)  !
 --------------------------                            --------------------------
 ! Name  Definition              Value          Derivative Info.                !
 --------------------------------------------------------------------------------
 ! R1    R(1,2)                  1.0057         -DE/DX =    0.0                 !
 ! R2    R(1,3)                  1.3599         -DE/DX =    0.0                 !
 ! R3    R(1,11)                 1.0126         -DE/DX =    0.0                 !
 ! R4    R(3,5)                  1.4962         -DE/DX =    0.0                 !
 ! R5    R(3,6)                  1.397          -DE/DX =    0.0                 !
 ! R6    R(3,13)                 2.1526         -DE/DX =    0.0                 !
 ! R7    R(4,12)                 0.9772         -DE/DX =    0.0                 !
 ! R8    R(5,7)                  1.0901         -DE/DX =    0.0                 !
 ! R9    R(5,8)                  1.0985         -DE/DX =    0.0                 !
 ! R10   R(5,9)                  1.099          -DE/DX =    0.0                 !
 ! R11   R(6,10)                 1.4713         -DE/DX =    0.0                 !
 ! R12   R(6,12)                 1.4111         -DE/DX =    0.0                 !
 ! R13   R(6,13)                 1.2188         -DE/DX =    0.0                 !
 ! A1    A(2,1,3)              122.5179         -DE/DX =    0.0                 !
 ! A2    A(2,1,11)             120.5018         -DE/DX =    0.0                 !
 ! A3    A(3,1,11)             116.9555         -DE/DX =    0.0                 !
 ! A4    A(1,3,5)              120.0189         -DE/DX =    0.0                 !
 ! A5    A(1,3,6)              116.6949         -DE/DX =    0.0                 !
 ! A6    A(1,3,13)              97.2754         -DE/DX =    0.0                 !
 ! A7    A(5,3,6)              123.2369         -DE/DX =    0.0                 !
 ! A8    A(5,3,13)             133.3061         -DE/DX =    0.0                 !
 ! A9    A(3,5,7)              110.3147         -DE/DX =    0.0                 !
 ! A10   A(3,5,8)              110.2475         -DE/DX =    0.0                 !
 ! A11   A(3,5,9)              111.779          -DE/DX =    0.0                 !
 ! A12   A(7,5,8)              108.098          -DE/DX =    0.0                 !
 ! A13   A(7,5,9)              108.8865         -DE/DX =    0.0                 !
 ! A14   A(8,5,9)              107.3978         -DE/DX =    0.0                 !
 ! A15   A(3,6,10)             119.5996         -DE/DX =    0.0                 !
 ! A16   A(3,6,12)             117.8454         -DE/DX =    0.0                 !
 ! A17   A(10,6,12)            117.1349         -DE/DX =    0.0                 !
 ! A18   A(10,6,13)             58.9473         -DE/DX =    0.0                 !
 ! A19   A(12,6,13)            118.9677         -DE/DX =    0.0                 !
 ! A20   A(4,12,6)             107.5591         -DE/DX =    0.0                 !
 ! D1    D(2,1,3,5)             -9.6728         -DE/DX =    0.0                 !
 ! D2    D(2,1,3,6)            167.8556         -DE/DX =    0.0                 !
 ! D3    D(2,1,3,13)           141.0601         -DE/DX =    0.0                 !
 ! D4    D(11,1,3,5)           172.1299         -DE/DX =    0.0                 !
 ! D5    D(11,1,3,6)           -10.3418         -DE/DX =    0.0                 !
 ! D6    D(11,1,3,13)          -37.1373         -DE/DX =    0.0                 !
 ! D7    D(1,3,5,7)            174.0506         -DE/DX =    0.0                 !
 ! D8    D(1,3,5,8)            -66.6338         -DE/DX =    0.0                 !
 ! D9    D(1,3,5,9)             52.7446         -DE/DX =    0.0                 !
 ! D10   D(6,3,5,7)             -3.3092         -DE/DX =    0.0                 !
 ! D11   D(6,3,5,8)            116.0064         -DE/DX =    0.0                 !
 ! D12   D(6,3,5,9)           -124.6152         -DE/DX =    0.0                 !
 ! D13   D(13,3,5,7)            35.8412         -DE/DX =    0.0                 !
 ! D14   D(13,3,5,8)           155.1568         -DE/DX =    0.0                 !
 ! D15   D(13,3,5,9)           -85.4648         -DE/DX =    0.0                 !
 ! D16   D(1,3,6,10)             7.6156         -DE/DX =    0.0                 !
 ! D17   D(1,3,6,12)           160.9084         -DE/DX =    0.0                 !
 ! D18   D(5,3,6,10)          -174.9431         -DE/DX =    0.0                 !
 ! D19   D(5,3,6,12)           -21.6504         -DE/DX =    0.0                 !
 ! D20   D(3,6,12,4)          -173.8397         -DE/DX =    0.0                 !
 ! D21   D(10,6,12,4)          -19.8869         -DE/DX =    0.0                 !
 ! D22   D(13,6,12,4)           47.8535         -DE/DX =    0.0                 !
 --------------------------------------------------------------------------------
 GradGradGradGradGradGradGradGradGradGradGradGradGradGradGradGradGradGrad

 Leave Link  103 at Thu Apr 14 00:55:13 2016, MaxMem=    33554432 cpu:         0.0
 (Enter /usr/local/gau/g09/l9999.exe)

 Test job not archived.
 1\1\GINC-KALI\Freq\RB3LYP\6-31G\C3H7N1O2\ROOT\14-Apr-2016\0\\#P Geom=A
 llCheck Guess=TCheck SCRF=Check Test GenChk RB3LYP/6-31G Freq\\Ala-S-o
 pt-freq-tsa3-6-31g\\0,1\N,1.2789202049,0.9994750354,-0.3409258373\H,2.
 2665714457,1.1714146567,-0.4212729674\C,0.7744257178,-0.2120873349,0.0
 15215145\H,-2.1810583148,-1.3535490449,0.4698380792\C,1.6752043301,-1.
 4041827789,0.0939930564\C,-0.5826238872,-0.2547275362,0.3441557007\H,1
 .1334763506,-2.2622295329,0.4923602704\H,2.0446421887,-1.668261847,-0.
 9062087133\H,2.5520859435,-1.21150544,0.727913379\O,-1.4196922777,0.93
 64329269,0.1316117396\H,0.6128111897,1.7455829427,-0.4989622617\O,-1.2
 287436379,-1.5088889972,0.3152206133\H,-0.8261450633,0.5138047005,1.25
 82521062\\Version=ES64L-G09RevD.01\State=1-A\HF=-323.5135361\RMSD=9.33
 1e-09\RMSF=1.837e-06\ZeroPoint=0.1013225\Thermal=0.1085861\Dipole=1.36
 34108,0.0100306,0.2235058\DipoleDeriv=-0.5830849,-0.1367293,0.1386055,
 -0.8277348,-0.715404,0.2171019,0.22702,0.0063495,-0.8191966,0.1808549,
 0.0164201,-0.0056349,-0.004792,0.2322091,0.0540867,-0.0601764,0.043644
 1,0.3898337,0.8458559,-0.0099442,-0.3407329,0.6720476,0.5279032,-0.274
 9521,-0.5396858,-0.1718504,0.3537144,0.234909,0.0599016,0.0272363,0.19
 64637,0.2945573,-0.053295,0.0428789,-0.0309692,0.3850089,0.0859245,0.0
 774355,0.0267672,-0.0419268,-0.0690123,0.0454179,0.1304725,-0.0151417,
 0.0811917,0.0877897,0.3136304,0.1335102,0.9204319,0.7344547,-0.0692279
 ,1.1545317,-0.0326567,-0.2835716,0.0775492,-0.0654996,0.0292275,-0.012
 9076,0.0126227,0.0338715,0.0144441,0.0567886,0.0854306,0.0073558,0.062
 6176,0.0633409,0.0705066,0.0467441,-0.0178098,0.0813231,-0.0431591,-0.
 0815649,-0.1213282,0.014117,-0.0940319,-0.0319346,0.0331444,-0.0508658
 ,-0.13048,-0.0057404,0.0247257,-0.9755066,0.1799692,0.1583503,0.422584
 2,-0.7310214,-0.1709287,-0.8025522,0.2283554,-0.1903679,0.1105317,0.05
 90459,0.0293434,0.0293542,0.2323269,0.0185281,0.0687434,0.0165099,0.36
 12142,-0.522792,-0.350955,-0.066336,-0.6773018,-0.8640554,0.0947729,-0
 .2650482,0.0364529,-0.4272841,0.5719409,-0.220009,-0.0996458,-0.714790
 6,0.2655307,0.1733004,0.0785288,-0.0885828,0.1208659\Polar=71.4502652,
 -3.0723016,49.5502397,-8.6252585,-2.2589367,29.9834826\PG=C01 [X(C3H7N
 1O2)]\NImag=1\\0.88901720,-0.00922132,0.72399541,-0.05072608,-0.180163
 59,0.10150808,-0.45672078,-0.05865410,0.03449174,0.47272154,-0.0577690
 9,-0.08081782,0.02356689,0.06959188,0.07497980,0.03161652,0.02312327,-
 0.01443389,-0.03661597,-0.02194403,0.01545417,-0.17203543,-0.07515210,
 0.03000542,-0.00931596,-0.03890727,0.00757739,0.73292908,-0.08644793,-
 0.33289982,0.07955457,0.00111010,-0.00173302,-0.00068761,0.01304413,0.
 68770056,0.03698575,0.07075954,-0.06537571,0.00141969,0.00260508,-0.00
 327398,-0.09268103,-0.10025716,0.20112577,0.00064641,0.00261491,-0.001
 02826,0.00002254,-0.00005914,0.00042083,-0.00125156,-0.00345820,0.0004
 6453,0.46775639,-0.00101548,0.00179168,-0.00001518,-0.00019250,-0.0004
 0470,0.00044714,-0.00190693,-0.00858085,0.00051215,-0.04770745,0.05688
 893,0.00035000,-0.00022406,0.00118245,0.00015289,0.00032182,0.00058891
 ,0.00173661,0.00187830,-0.00080550,-0.07267706,0.01427714,0.01517744,0
 .01346166,-0.01179182,-0.00004638,0.00142851,0.00021151,0.00077999,-0.
 14442268,0.06446005,0.00085335,0.00029218,0.00047222,-0.00058074,0.545
 21004,0.02403472,-0.03546101,0.00432618,0.00093094,0.00228793,-0.00045
 075,0.05649626,-0.17271235,0.01149892,0.00011662,-0.00039127,-0.000129
 99,0.05023387,0.54284978,-0.00764253,0.00964030,0.00249726,0.00014228,
 -0.00134566,-0.00110640,-0.00801162,0.01127225,-0.07416925,-0.00022454
 ,-0.00003816,-0.00046102,-0.01222147,-0.01747223,0.54103661,-0.0314416
 8,-0.02850956,0.01777216,0.00239314,0.00172313,0.00228240,-0.33881180,
 -0.00626155,0.05104934,-0.02606414,-0.05207972,-0.00028164,-0.01504081
 ,0.01110403,0.01382221,0.63611739,-0.03585207,0.00904933,0.00816935,-0
 .00156857,-0.00528057,0.00422154,-0.04190572,-0.09885543,0.02365636,0.
 00555640,-0.00802782,0.00038482,0.02472446,0.00281769,-0.00983321,0.11
 057478,0.42297325,0.03387644,0.05327776,-0.01160503,-0.00529914,0.0012
 6098,0.00616336,0.00369140,-0.02251605,-0.04995844,0.00185251,0.003278
 60,-0.00097080,-0.00200837,-0.00133146,0.00410063,-0.03496107,-0.02726
 639,0.16911496,-0.00374459,0.00354979,0.00009937,-0.00019251,0.0000950
 0,-0.00021081,0.01292383,0.01947309,-0.00989068,0.00011980,-0.00038535
 ,0.00001998,-0.12044487,-0.11328637,0.05257272,0.00022050,0.00226476,0
 .00118658,0.12940155,0.00520262,-0.00240745,0.00015525,0.00029957,0.00
 043667,-0.00001731,-0.01667843,-0.02352729,0.01139567,-0.00020924,0.00
 051910,-0.00005106,-0.10594074,-0.21961393,0.07912988,-0.00068572,-0.0
 0185888,-0.00139452,0.11661044,0.24203021,-0.00014084,0.00010849,0.001
 51056,-0.00009109,-0.00011321,-0.00061376,0.00132007,-0.00056567,-0.00
 170214,0.00017973,-0.00028452,0.00000315,0.04966482,0.08094971,-0.0871
 2299,0.00007087,0.00085179,0.00053598,-0.05656378,-0.08801846,0.090902
 63,0.00080578,-0.00166434,-0.00077026,0.00032851,0.00002292,0.00032211
 ,-0.01127101,0.00818381,0.02037421,0.00009009,0.00013233,0.00007859,-0
 .07222799,0.01829231,0.07829665,-0.00059732,0.00326075,0.00013916,-0.0
 0508202,0.00484781,0.01592227,0.08076544,-0.00029561,0.00149945,0.0018
 4551,-0.00024883,-0.00086959,-0.00102293,0.01261349,-0.00948613,-0.025
 80054,-0.00011079,-0.00000887,0.00015234,0.01858845,-0.06135228,-0.054
 48442,0.00023890,-0.00306631,-0.00059235,-0.00817332,0.00725152,0.0252
 6914,-0.02537166,0.06592802,-0.00035805,0.00043490,0.00065776,0.000012
 79,-0.00035685,-0.00035192,0.00114075,0.00117915,0.00478399,-0.0000632
 2,-0.00009723,-0.00007055,0.07667920,-0.05282969,-0.26097927,-0.001582
 58,-0.00019708,-0.00058754,0.00260877,-0.00412902,-0.01102186,-0.08621
 059,0.06043080,0.28663706,0.00200168,-0.00121019,0.00157385,0.00019585
 ,0.00056059,-0.00108932,-0.02343228,-0.00074872,-0.00951570,0.00008088
 ,0.00026183,-0.00023338,-0.20407354,-0.03996518,-0.11637373,0.00355700
 ,0.00128664,-0.00199993,-0.01242009,-0.00183415,-0.01098001,0.00833827
 ,0.00179731,0.00711989,0.22823105,-0.00039628,0.00207994,-0.00139045,-
 0.00074234,-0.00040163,0.00060941,0.02902295,0.00326799,0.01699718,-0.
 00017346,0.00015776,-0.00008667,-0.03815363,-0.05897056,-0.02540443,-0
 .00265622,-0.00299020,0.00076104,-0.01999771,-0.00371755,-0.01742326,-
 0.00660732,-0.00133119,-0.00402830,0.03852372,0.06212634,0.00026824,0.
 00044771,0.00035531,-0.00028459,0.00084875,-0.00033722,0.00057850,-0.0
 0094175,0.00132744,0.00014525,-0.00003673,0.00007478,-0.11696084,-0.02
 641463,-0.13237934,0.00082265,0.00044949,0.00024090,0.01084922,0.00229
 187,0.00781867,-0.02613270,-0.00718561,-0.01917587,0.13038730,0.030775
 45,0.14279663,-0.00490046,-0.00710276,0.00219844,0.00051742,0.00206004
 ,0.00103169,-0.01011078,0.03820360,-0.01716227,0.00324318,0.00548496,-
 0.00066201,-0.00171931,-0.00329738,0.00160002,-0.13373342,0.08209475,0
 .01572000,-0.00014986,0.00013327,-0.00029869,-0.00119375,0.00090753,0.
 00007490,-0.00124030,0.00145872,-0.00038665,0.13540462,0.00022480,0.01
 659897,-0.00527827,-0.00251684,0.00186566,0.00118994,-0.00372137,-0.02
 608011,0.00884943,0.00190738,0.00386501,-0.00135513,-0.00072319,0.0040
 7065,0.00386760,0.07195235,-0.14124938,-0.01099544,-0.00016709,0.00008
 109,-0.00007331,-0.00004302,0.00035529,-0.00047328,0.00185103,-0.00134
 469,0.00051195,-0.09713623,0.17197242,-0.01215272,-0.02878762,0.006471
 88,0.00318795,-0.00217095,-0.00205104,0.05940696,0.00937222,-0.0086766
 5,0.00128569,0.00341808,-0.00284715,0.00273333,0.00184745,0.00509534,-
 0.10314114,0.11354153,0.04876415,-0.00062610,0.00042748,-0.00032478,-0
 .00076120,0.00062217,-0.00020193,0.00074140,-0.00094929,-0.00057295,0.
 01497787,-0.02475406,-0.00648996,-0.23452061,0.17538411,-0.03332646,-0
 .01024002,0.02347037,-0.00624258,0.02246854,-0.00488888,-0.00204627,0.
 00021866,-0.00034682,0.00004886,-0.00110303,-0.00347269,0.00094955,-0.
 00469255,-0.00126650,0.01314794,0.00054122,-0.00076477,0.00015085,-0.0
 0034022,0.00018285,0.00008908,-0.00045595,0.00011716,-0.00001507,-0.00
 026774,0.00890068,-0.01186095,0.22423034,0.17812821,-0.27176659,0.0559
 0903,-0.01124485,0.01089194,-0.00244029,0.02250624,-0.02850487,0.00674
 588,-0.00020450,-0.00015288,0.00001825,-0.00420502,-0.00179433,0.00309
 706,0.00162326,-0.00460402,-0.00147222,0.00111854,-0.00092485,0.000037
 36,-0.00015650,0.00039562,-0.00022104,0.00016677,0.00016108,0.00008703
 ,0.00235126,0.00064393,-0.00097773,-0.19044685,0.29367234,-0.03460202,
 0.05575639,-0.02897174,0.00254775,-0.00385651,-0.00058857,-0.00445861,
 0.00893431,0.00262512,-0.00014508,-0.00005877,-0.00021592,0.00098630,0
 .00053613,0.00321658,-0.00225387,0.00103199,-0.00466614,0.00003135,0.0
 0002040,0.00062072,-0.00021729,0.00058739,-0.00005289,0.00041737,-0.00
 054566,0.00007397,-0.00123035,-0.00486577,0.00078376,0.03873696,-0.061
 04517,0.02945294,-0.00714653,-0.00082459,0.00310578,0.00010569,-0.0014
 5351,0.00084744,-0.02029624,-0.04205298,-0.00511159,-0.44437667,0.1007
 6027,0.07219239,-0.00044031,-0.00067087,-0.00067544,-0.13856753,-0.103
 71379,-0.00355033,-0.00141245,-0.00093965,0.00051020,-0.00017761,0.000
 21155,0.00036750,-0.00055789,-0.00056582,0.00036281,0.01997308,0.01531
 368,0.01416928,-0.00051529,0.00044680,-0.00063783,0.60401716,-0.003999
 58,-0.00925189,0.00368236,0.00088291,-0.00027451,-0.00187481,0.0019434
 8,0.00214178,-0.00930576,0.04051761,-0.04859922,-0.01306028,0.00145398
 ,-0.00210340,0.00122252,-0.05630886,-0.18971758,0.00108757,-0.00059143
 ,0.00133985,-0.00041884,-0.00084129,0.00089023,0.00027818,-0.00076322,
 0.00088994,-0.00043249,-0.00336758,-0.03740938,-0.00428787,0.00014348,
 0.00100524,0.00015351,0.02859130,0.30143784,-0.00099004,-0.00823134,0.
 00594670,0.00091843,0.00063177,-0.00016265,0.01605425,0.01287202,-0.00
 151572,0.06959631,-0.01952841,-0.01296092,0.00009965,-0.00011299,-0.00
 090316,-0.00915115,-0.00694342,-0.03344200,-0.00006251,0.00011838,-0.0
 0061328,-0.00045196,-0.00032199,0.00020420,0.00019059,0.00049828,-0.00
 017240,0.00785751,0.00732605,0.00235083,-0.00250172,0.00013579,0.00010
 085,-0.07436607,0.02409711,0.03509164,0.00457733,0.01258197,-0.0033493
 1,-0.00124392,0.00045357,-0.00071970,-0.03737371,-0.00061651,0.0252606
 6,-0.00077775,-0.00347735,-0.00014449,-0.00091986,-0.00051626,-0.00223
 411,0.04666122,-0.04545590,-0.02179518,0.00023949,-0.00004101,0.000255
 59,0.00056183,-0.00033986,0.00012156,-0.00022467,0.00017024,0.00036589
 ,-0.00582269,0.00415783,0.03203962,0.00467666,-0.00008336,0.00082531,-
 0.01060541,-0.00766079,-0.00719331,0.00025148,-0.01259299,-0.02241021,
 0.00963835,0.00235263,-0.00068016,-0.00115357,0.04264528,0.00926954,-0
 .01765674,0.00120987,0.00294313,-0.00212548,0.00066986,0.00037307,0.00
 034851,-0.05071483,0.02080993,0.00590247,-0.00051035,0.00039152,-0.000
 31922,-0.00005579,-0.00020575,0.00000945,0.00007358,0.00007278,-0.0004
 0106,-0.02179016,0.00663053,-0.06730141,-0.00701214,0.00097739,0.00335
 177,0.00489761,-0.02034890,-0.01054125,0.04082744,0.00217712,0.0035153
 5,0.00385823,0.00025637,-0.00058274,0.00055193,0.00071299,-0.01636009,
 -0.00009458,-0.00438492,0.00019330,-0.00187412,0.00130512,0.00002115,-
 0.00041664,0.00117501,0.06555181,-0.10806677,-0.12769002,-0.00001412,0
 .00007145,0.00000710,-0.00058899,0.00050050,0.00015882,-0.00023834,0.0
 0018670,-0.00004991,-0.02372048,0.02605028,-0.04230151,0.00286980,0.00
 012603,-0.00237868,-0.00721414,-0.00114121,0.00607591,-0.02343251,0.08
 024819,0.16711372\\-0.00000195,0.00000125,-0.00000147,-0.00000184,0.00
 000129,-0.00000198,-0.00000215,-0.00000091,0.00000250,0.00000127,-0.00
 000239,0.00000060,0.00000143,0.00000151,0.00000076,0.00000183,-0.00000
 149,-0.00000267,0.00000183,0.00000155,0.00000288,0.00000199,0.00000049
 ,0.00000228,0.00000078,0.00000281,0.00000186,-0.00000085,-0.00000219,-
 0.00000099,-0.00000191,-0.00000081,-0.00000297,0.00000167,-0.00000232,
 0.00000169,-0.00000210,0.00000122,-0.00000248\\\@


 NO HUMAN INVESTIGATION CAN BECOME REAL SCIENCE
 WITHOUT GOING THROUGH MATHEMATICAL PEOPLE.
 -- LEONARDO DA VINCI, IN "PENSIERI" CA. 1492
 Job cpu time:       0 days  0 hours  1 minutes 32.6 seconds.
 File lengths (MBytes):  RWF=     12 Int=      0 D2E=      0 Chk=      2 Scr=      1
 Normal termination of Gaussian 09 at Thu Apr 14 00:55:13 2016.
