 Entering Gaussian System, Link 0=g09
 Input=Ala-S-opt-freq-tsb1-6-31g.com
 Output=Ala-S-opt-freq-tsb1-6-31g.log
 Initial command:
 /usr/local/gau/g09/l1.exe "/tmp/Gau-5460.inp" -scrdir="/tmp/"
 Entering Link 1 = /usr/local/gau/g09/l1.exe PID=      5462.
  
 Copyright (c) 1988,1990,1992,1993,1995,1998,2003,2009,2013,
            Gaussian, Inc.  All Rights Reserved.
  
 This is part of the Gaussian(R) 09 program.  It is based on
 the Gaussian(R) 03 system (copyright 2003, Gaussian, Inc.),
 the Gaussian(R) 98 system (copyright 1998, Gaussian, Inc.),
 the Gaussian(R) 94 system (copyright 1995, Gaussian, Inc.),
 the Gaussian 92(TM) system (copyright 1992, Gaussian, Inc.),
 the Gaussian 90(TM) system (copyright 1990, Gaussian, Inc.),
 the Gaussian 88(TM) system (copyright 1988, Gaussian, Inc.),
 the Gaussian 86(TM) system (copyright 1986, Carnegie Mellon
 University), and the Gaussian 82(TM) system (copyright 1983,
 Carnegie Mellon University). Gaussian is a federally registered
 trademark of Gaussian, Inc.
  
 This software contains proprietary and confidential information,
 including trade secrets, belonging to Gaussian, Inc.
  
 This software is provided under written license and may be
 used, copied, transmitted, or stored only in accord with that
 written license.
  
 The following legend is applicable only to US Government
 contracts under FAR:
  
                    RESTRICTED RIGHTS LEGEND
  
 Use, reproduction and disclosure by the US Government is
 subject to restrictions as set forth in subparagraphs (a)
 and (c) of the Commercial Computer Software - Restricted
 Rights clause in FAR 52.227-19.
  
 Gaussian, Inc.
 340 Quinnipiac St., Bldg. 40, Wallingford CT 06492
  
  
 ---------------------------------------------------------------
 Warning -- This program may not be used in any manner that
 competes with the business of Gaussian, Inc. or will provide
 assistance to any competitor of Gaussian, Inc.  The licensee
 of this program is prohibited from giving any competitor of
 Gaussian, Inc. access to this program.  By using this program,
 the user acknowledges that Gaussian, Inc. is engaged in the
 business of creating and licensing software in the field of
 computational chemistry and represents and warrants to the
 licensee that it is not a competitor of Gaussian, Inc. and that
 it will not use this program in any manner prohibited above.
 ---------------------------------------------------------------
  

 Cite this work as:
 Gaussian 09, Revision D.01,
 M. J. Frisch, G. W. Trucks, H. B. Schlegel, G. E. Scuseria, 
 M. A. Robb, J. R. Cheeseman, G. Scalmani, V. Barone, B. Mennucci, 
 G. A. Petersson, H. Nakatsuji, M. Caricato, X. Li, H. P. Hratchian, 
 A. F. Izmaylov, J. Bloino, G. Zheng, J. L. Sonnenberg, M. Hada, 
 M. Ehara, K. Toyota, R. Fukuda, J. Hasegawa, M. Ishida, T. Nakajima, 
 Y. Honda, O. Kitao, H. Nakai, T. Vreven, J. A. Montgomery, Jr., 
 J. E. Peralta, F. Ogliaro, M. Bearpark, J. J. Heyd, E. Brothers, 
 K. N. Kudin, V. N. Staroverov, T. Keith, R. Kobayashi, J. Normand, 
 K. Raghavachari, A. Rendell, J. C. Burant, S. S. Iyengar, J. Tomasi, 
 M. Cossi, N. Rega, J. M. Millam, M. Klene, J. E. Knox, J. B. Cross, 
 V. Bakken, C. Adamo, J. Jaramillo, R. Gomperts, R. E. Stratmann, 
 O. Yazyev, A. J. Austin, R. Cammi, C. Pomelli, J. W. Ochterski, 
 R. L. Martin, K. Morokuma, V. G. Zakrzewski, G. A. Voth, 
 P. Salvador, J. J. Dannenberg, S. Dapprich, A. D. Daniels, 
 O. Farkas, J. B. Foresman, J. V. Ortiz, J. Cioslowski, 
 and D. J. Fox, Gaussian, Inc., Wallingford CT, 2013.
 
 ******************************************
 Gaussian 09:  ES64L-G09RevD.01 24-Apr-2013
                12-Apr-2016 
 ******************************************
 %chk=Ala-S-opt-freq-tsb1-6-31g.chk
 ------------------------------------------------
 #p opt=(calcfc,ts) freq rb3lyp/6-31g iop(1/11=1)
 ------------------------------------------------
 1/5=1,10=4,11=1,14=-1,18=20,26=3,38=1/1,3;
 2/9=110,12=2,17=6,18=5,40=1/2;
 3/5=1,6=6,11=2,16=1,25=1,30=1,71=2,74=-5,116=1,140=1/1,2,3;
 4//1;
 5/5=2,38=5/2;
 8/6=4,10=90,11=11/1;
 11/6=1,8=1,9=11,15=111,16=1/1,2,10;
 10/6=1,13=1/2;
 6/7=2,8=2,9=2,10=2,28=1/1;
 7/10=1,18=20,25=1/1,2,3,16;
 1/5=1,10=4,11=1,14=-1,18=20,26=3/3(2);
 2/9=110/2;
 99//99;
 2/9=110/2;
 3/5=1,6=6,11=2,16=1,25=1,30=1,71=1,74=-5,116=1/1,2,3;
 4/5=5,16=3,69=1/1;
 5/5=2,38=5/2;
 7//1,2,3,16;
 1/5=1,11=1,14=-1,18=20,26=3/3(-5);
 2/9=110/2;
 6/7=2,8=2,9=2,10=2,19=2,28=1/1;
 99/9=1/99;
 Leave Link    1 at Tue Apr 12 16:50:58 2016, MaxMem=           0 cpu:         0.0
 (Enter /usr/local/gau/g09/l101.exe)
 -------------------------
 Ala-S-opt-freq-tsb1-6-31g
 -------------------------
 Symbolic Z-matrix:
 Charge =  0 Multiplicity = 1
 N                    -1.24868  -1.16641  -0.42452 
 H                    -1.02593  -1.73875   0.38425 
 C                    -0.48756   0.07767  -0.39213 
 H                     0.17565  -1.15816  -0.90744 
 C                    -1.03147   1.15977   0.5689 
 C                     0.94156  -0.24896   0.00729 
 H                    -1.04135   0.79017   1.59796 
 H                    -0.43081   2.07196   0.52577 
 H                    -2.05606   1.41526   0.28593 
 O                     1.27408  -1.17866   0.69858 
 H                    -2.24566  -0.98333  -0.42777 
 O                     1.82032   0.66654  -0.46289 
 H                     2.69647   0.42385  -0.12655 
 
 Add virtual bond connecting atoms H4         and N1         Dist= 2.84D+00.
 Add virtual bond connecting atoms H4         and C3         Dist= 2.82D+00.
 Add virtual bond connecting atoms H4         and C6         Dist= 2.83D+00.
 NAtoms=     13 NQM=       13 NQMF=       0 NMMI=      0 NMMIF=      0
                NMic=       0 NMicF=      0.
                    Isotopes and Nuclear Properties:
 (Nuclear quadrupole moments (NQMom) in fm**2, nuclear magnetic moments (NMagM)
  in nuclear magnetons)

  Atom         1           2           3           4           5           6           7           8           9          10
 IAtWgt=          14           1          12           1          12          12           1           1           1          16
 AtmWgt=  14.0030740   1.0078250  12.0000000   1.0078250  12.0000000  12.0000000   1.0078250   1.0078250   1.0078250  15.9949146
 NucSpn=           2           1           0           1           0           0           1           1           1           0
 AtZEff=   0.0000000   0.0000000   0.0000000   0.0000000   0.0000000   0.0000000   0.0000000   0.0000000   0.0000000   0.0000000
 NQMom=    2.0440000   0.0000000   0.0000000   0.0000000   0.0000000   0.0000000   0.0000000   0.0000000   0.0000000   0.0000000
 NMagM=    0.4037610   2.7928460   0.0000000   2.7928460   0.0000000   0.0000000   2.7928460   2.7928460   2.7928460   0.0000000
 AtZNuc=   7.0000000   1.0000000   6.0000000   1.0000000   6.0000000   6.0000000   1.0000000   1.0000000   1.0000000   8.0000000

  Atom        11          12          13
 IAtWgt=           1          16           1
 AtmWgt=   1.0078250  15.9949146   1.0078250
 NucSpn=           1           0           1
 AtZEff=   0.0000000   0.0000000   0.0000000
 NQMom=    0.0000000   0.0000000   0.0000000
 NMagM=    2.7928460   0.0000000   2.7928460
 AtZNuc=   1.0000000   8.0000000   1.0000000
 Leave Link  101 at Tue Apr 12 16:50:58 2016, MaxMem=    33554432 cpu:         0.1
 (Enter /usr/local/gau/g09/l103.exe)

 GradGradGradGradGradGradGradGradGradGradGradGradGradGradGradGradGradGrad
 Berny optimization.
 Initialization pass.
                           ----------------------------
                           !    Initial Parameters    !
                           ! (Angstroms and Degrees)  !
 --------------------------                            --------------------------
 ! Name  Definition              Value          Derivative Info.                !
 --------------------------------------------------------------------------------
 ! R1    R(1,2)                  1.0155         calculate D2E/DX2 analytically  !
 ! R2    R(1,3)                  1.4588         calculate D2E/DX2 analytically  !
 ! R3    R(1,4)                  1.504          calculate D2E/DX2 analytically  !
 ! R4    R(1,11)                 1.0137         calculate D2E/DX2 analytically  !
 ! R5    R(3,4)                  1.4942         calculate D2E/DX2 analytically  !
 ! R6    R(3,5)                  1.5461         calculate D2E/DX2 analytically  !
 ! R7    R(3,6)                  1.5194         calculate D2E/DX2 analytically  !
 ! R8    R(4,6)                  1.5            calculate D2E/DX2 analytically  !
 ! R9    R(5,7)                  1.0935         calculate D2E/DX2 analytically  !
 ! R10   R(5,8)                  1.093          calculate D2E/DX2 analytically  !
 ! R11   R(5,9)                  1.0932         calculate D2E/DX2 analytically  !
 ! R12   R(6,10)                 1.2053         calculate D2E/DX2 analytically  !
 ! R13   R(6,12)                 1.3533         calculate D2E/DX2 analytically  !
 ! R14   R(12,13)                0.9694         calculate D2E/DX2 analytically  !
 ! A1    A(2,1,3)              110.397          calculate D2E/DX2 analytically  !
 ! A2    A(2,1,4)               92.9284         calculate D2E/DX2 analytically  !
 ! A3    A(2,1,11)             108.6676         calculate D2E/DX2 analytically  !
 ! A4    A(3,1,11)             111.0515         calculate D2E/DX2 analytically  !
 ! A5    A(4,1,11)             158.3464         calculate D2E/DX2 analytically  !
 ! A6    A(1,3,5)              115.2856         calculate D2E/DX2 analytically  !
 ! A7    A(1,3,6)              108.2548         calculate D2E/DX2 analytically  !
 ! A8    A(4,3,5)              161.6929         calculate D2E/DX2 analytically  !
 ! A9    A(5,3,6)              108.5388         calculate D2E/DX2 analytically  !
 ! A10   A(1,4,6)              106.9225         calculate D2E/DX2 analytically  !
 ! A11   A(3,5,7)              110.5846         calculate D2E/DX2 analytically  !
 ! A12   A(3,5,8)              111.4838         calculate D2E/DX2 analytically  !
 ! A13   A(3,5,9)              109.4138         calculate D2E/DX2 analytically  !
 ! A14   A(7,5,8)              108.9163         calculate D2E/DX2 analytically  !
 ! A15   A(7,5,9)              108.308          calculate D2E/DX2 analytically  !
 ! A16   A(8,5,9)              108.0458         calculate D2E/DX2 analytically  !
 ! A17   A(3,6,10)             125.1745         calculate D2E/DX2 analytically  !
 ! A18   A(3,6,12)             111.962          calculate D2E/DX2 analytically  !
 ! A19   A(4,6,10)              91.3227         calculate D2E/DX2 analytically  !
 ! A20   A(4,6,12)             121.9872         calculate D2E/DX2 analytically  !
 ! A21   A(10,6,12)            122.815          calculate D2E/DX2 analytically  !
 ! A22   A(6,12,13)            107.2766         calculate D2E/DX2 analytically  !
 ! D1    D(2,1,3,5)            -78.2711         calculate D2E/DX2 analytically  !
 ! D2    D(2,1,3,6)             43.4703         calculate D2E/DX2 analytically  !
 ! D3    D(11,1,3,5)            42.328          calculate D2E/DX2 analytically  !
 ! D4    D(11,1,3,6)           164.0694         calculate D2E/DX2 analytically  !
 ! D5    D(2,1,4,6)            -73.528          calculate D2E/DX2 analytically  !
 ! D6    D(11,1,4,6)           110.5913         calculate D2E/DX2 analytically  !
 ! D7    D(1,3,5,7)             60.0762         calculate D2E/DX2 analytically  !
 ! D8    D(1,3,5,8)           -178.5935         calculate D2E/DX2 analytically  !
 ! D9    D(1,3,5,9)            -59.1421         calculate D2E/DX2 analytically  !
 ! D10   D(4,3,5,7)            -14.4213         calculate D2E/DX2 analytically  !
 ! D11   D(4,3,5,8)            106.909          calculate D2E/DX2 analytically  !
 ! D12   D(4,3,5,9)           -133.6396         calculate D2E/DX2 analytically  !
 ! D13   D(6,3,5,7)            -61.5121         calculate D2E/DX2 analytically  !
 ! D14   D(6,3,5,8)             59.8182         calculate D2E/DX2 analytically  !
 ! D15   D(6,3,5,9)            179.2696         calculate D2E/DX2 analytically  !
 ! D16   D(1,3,6,10)           -28.5941         calculate D2E/DX2 analytically  !
 ! D17   D(1,3,6,12)           153.8859         calculate D2E/DX2 analytically  !
 ! D18   D(5,3,6,10)            97.2085         calculate D2E/DX2 analytically  !
 ! D19   D(5,3,6,12)           -80.3115         calculate D2E/DX2 analytically  !
 ! D20   D(1,4,6,10)            93.9664         calculate D2E/DX2 analytically  !
 ! D21   D(1,4,6,12)          -135.2251         calculate D2E/DX2 analytically  !
 ! D22   D(3,6,12,13)          176.6707         calculate D2E/DX2 analytically  !
 ! D23   D(4,6,12,13)         -116.71           calculate D2E/DX2 analytically  !
 ! D24   D(10,6,12,13)          -0.9173         calculate D2E/DX2 analytically  !
 --------------------------------------------------------------------------------
 Trust Radius=3.00D-01 FncErr=1.00D-07 GrdErr=1.00D-06
 Number of steps in this run=     70 maximum allowed number of steps=    100.
 Search for a saddle point of order  1.
 GradGradGradGradGradGradGradGradGradGradGradGradGradGradGradGradGradGrad

 Leave Link  103 at Tue Apr 12 16:50:58 2016, MaxMem=    33554432 cpu:         0.0
 (Enter /usr/local/gau/g09/l202.exe)
                          Input orientation:                          
 ---------------------------------------------------------------------
 Center     Atomic      Atomic             Coordinates (Angstroms)
 Number     Number       Type             X           Y           Z
 ---------------------------------------------------------------------
      1          7           0       -1.248678   -1.166409   -0.424518
      2          1           0       -1.025933   -1.738754    0.384246
      3          6           0       -0.487560    0.077671   -0.392134
      4          1           0        0.175649   -1.158160   -0.907438
      5          6           0       -1.031473    1.159769    0.568903
      6          6           0        0.941561   -0.248960    0.007293
      7          1           0       -1.041352    0.790172    1.597955
      8          1           0       -0.430815    2.071958    0.525767
      9          1           0       -2.056056    1.415260    0.285930
     10          8           0        1.274082   -1.178665    0.698580
     11          1           0       -2.245661   -0.983333   -0.427771
     12          8           0        1.820315    0.666537   -0.462894
     13          1           0        2.696465    0.423849   -0.126550
 ---------------------------------------------------------------------
                    Distance matrix (angstroms):
                    1          2          3          4          5
     1  N    0.000000
     2  H    1.015526   0.000000
     3  C    1.458796   2.047440   0.000000
     4  H    1.503990   1.857239   1.494210   0.000000
     5  C    2.538733   2.904404   1.546082   3.001587   0.000000
     6  C    2.413570   2.496520   1.519413   1.500000   2.488531
     7  H    2.821629   2.805137   2.185131   3.399130   1.093457
     8  H    3.472602   3.859497   2.196120   3.585462   1.093041
     9  H    2.796714   3.319431   2.170045   3.609311   1.093215
    10  O    2.761488   2.388006   2.423101   1.945834   3.286438
    11  H    1.013658   1.648566   2.053757   2.474548   2.657160
    12  O    3.574896   3.821544   2.382867   2.496411   3.072552
    13  H    4.264019   4.335206   3.213781   3.076858   3.862998
                    6          7          8          9         10
     6  C    0.000000
     7  H    2.746260   0.000000
     8  H    2.745704   1.779134   0.000000
     9  H    3.439909   1.772504   1.769232   0.000000
    10  O    1.205321   3.169610   3.674655   4.241291   0.000000
    11  H    3.299541   2.949448   3.679362   2.509695   3.700731
    12  O    1.353299   3.528671   2.832004   4.018405   2.247702
    13  H    1.884217   4.132721   3.594671   4.872319   2.296098
                   11         12         13
    11  H    0.000000
    12  O    4.388105   0.000000
    13  H    5.147378   0.969362   0.000000
 Stoichiometry    C3H7NO2
 Framework group  C1[X(C3H7NO2)]
 Deg. of freedom    33
 Full point group                 C1      NOp   1
 Largest Abelian subgroup         C1      NOp   1
 Largest concise Abelian subgroup C1      NOp   1
                         Standard orientation:                         
 ---------------------------------------------------------------------
 Center     Atomic      Atomic             Coordinates (Angstroms)
 Number     Number       Type             X           Y           Z
 ---------------------------------------------------------------------
      1          7           0       -1.432238   -1.064253   -0.408526
      2          1           0       -1.225602   -1.589118    0.435933
      3          6           0       -0.659743    0.172816   -0.440082
      4          1           0       -0.001688   -1.097396   -0.871577
      5          6           0       -1.205834    1.315197    0.447116
      6          6           0        0.760828   -0.141848   -0.002382
      7          1           0       -1.232740    1.007927    1.496168
      8          1           0       -0.595963    2.217871    0.357805
      9          1           0       -2.224127    1.562273    0.135425
     10          8           0        1.075347   -1.031410    0.747656
     11          1           0       -2.427296   -0.872968   -0.436322
     12          8           0        1.654389    0.736141   -0.514341
     13          1           0        2.523692    0.506340   -0.152171
 ---------------------------------------------------------------------
 Rotational constants (GHZ):      5.0619072      3.0686223      2.3248128
 Leave Link  202 at Tue Apr 12 16:50:58 2016, MaxMem=    33554432 cpu:         0.0
 (Enter /usr/local/gau/g09/l301.exe)
 Standard basis: 6-31G (6D, 7F)
 Ernie: Thresh=  0.10000D-02 Tol=  0.10000D-05 Strict=F.
 There are    68 symmetry adapted cartesian basis functions of A   symmetry.
 There are    68 symmetry adapted basis functions of A   symmetry.
    68 basis functions,   160 primitive gaussians,    68 cartesian basis functions
    24 alpha electrons       24 beta electrons
       nuclear repulsion energy       250.1141005229 Hartrees.
 IExCor=  402 DFT=T Ex+Corr=B3LYP ExCW=0 ScaHFX=  0.200000
 ScaDFX=  0.800000  0.720000  1.000000  0.810000 ScalE2=  1.000000  1.000000
 IRadAn=      0 IRanWt=     -1 IRanGd=            0 ICorTp=0 IEmpDi=  4
 NAtoms=   13 NActive=   13 NUniq=   13 SFac= 1.00D+00 NAtFMM=   60 NAOKFM=F Big=F
 Integral buffers will be    131072 words long.
 Raffenetti 2 integral format.
 Two-electron integral symmetry is turned on.
 Leave Link  301 at Tue Apr 12 16:50:58 2016, MaxMem=    33554432 cpu:         0.0
 (Enter /usr/local/gau/g09/l302.exe)
 NPDir=0 NMtPBC=     1 NCelOv=     1 NCel=       1 NClECP=     1 NCelD=      1
         NCelK=      1 NCelE2=     1 NClLst=     1 CellRange=     0.0.
 One-electron integrals computed using PRISM.
 NBasis=    68 RedAO= T EigKep=  4.59D-03  NBF=    68
 NBsUse=    68 1.00D-06 EigRej= -1.00D+00 NBFU=    68
 Precomputing XC quadrature grid using
 IXCGrd= 4 IRadAn=           0 IRanWt=          -1 IRanGd=           0 AccXCQ= 0.00D+00.
 Generated NRdTot=       0 NPtTot=           0 NUsed=           0 NTot=          32
 NSgBfM=    68    68    68    68    68 MxSgAt=    13 MxSgA2=    13.
 Leave Link  302 at Tue Apr 12 16:50:59 2016, MaxMem=    33554432 cpu:         0.2
 (Enter /usr/local/gau/g09/l303.exe)
 DipDrv:  MaxL=1.
 Leave Link  303 at Tue Apr 12 16:50:59 2016, MaxMem=    33554432 cpu:         0.0
 (Enter /usr/local/gau/g09/l401.exe)
 ExpMin= 1.61D-01 ExpMax= 5.48D+03 ExpMxC= 8.25D+02 IAcc=1 IRadAn=         1 AccDes= 0.00D+00
 Harris functional with IExCor=  402 and IRadAn=       1 diagonalized for initial guess.
 HarFok:  IExCor=  402 AccDes= 0.00D+00 IRadAn=         1 IDoV= 1 UseB2=F ITyADJ=14
 ICtDFT=  3500011 ScaDFX=  1.000000  1.000000  1.000000  1.000000
 FoFCou: FMM=F IPFlag=           0 FMFlag=      100000 FMFlg1=           0
         NFxFlg=           0 DoJE=T BraDBF=F KetDBF=T FulRan=T
         wScrn=  0.000000 ICntrl=     500 IOpCl=  0 I1Cent=   200000004 NGrid=           0
         NMat0=    1 NMatS0=      1 NMatT0=    0 NMatD0=    1 NMtDS0=    0 NMtDT0=    0
 Petite list used in FoFCou.
 Harris En= -323.463150793266    
 JPrj=0 DoOrth=F DoCkMO=F.
 Leave Link  401 at Tue Apr 12 16:51:01 2016, MaxMem=    33554432 cpu:         0.6
 (Enter /usr/local/gau/g09/l502.exe)
 Closed shell SCF:
 Using DIIS extrapolation, IDIIS=  1040.
 Integral symmetry usage will be decided dynamically.
 Keep R1 ints in memory in canonical form, NReq=3676491.
 IVT=       33364 IEndB=       33364 NGot=    33554432 MDV=    30768038
 LenX=    30768038 LenY=    30762973
 Requested convergence on RMS density matrix=1.00D-08 within 128 cycles.
 Requested convergence on MAX density matrix=1.00D-06.
 Requested convergence on             energy=1.00D-06.
 No special actions if energy rises.
 FoFCou: FMM=F IPFlag=           0 FMFlag=           0 FMFlg1=           0
         NFxFlg=           0 DoJE=F BraDBF=F KetDBF=F FulRan=T
         wScrn=  0.000000 ICntrl=     600 IOpCl=  0 I1Cent=           0 NGrid=           0
         NMat0=    1 NMatS0=   2346 NMatT0=    0 NMatD0=    1 NMtDS0=    0 NMtDT0=    0
 Symmetry not used in FoFCou.
 Integral accuracy reduced to 1.0D-05 until final iterations.

 Cycle   1  Pass 0  IDiag  1:
 E= -323.163568732759    
 DIIS: error= 5.37D-02 at cycle   1 NSaved=   1.
 NSaved= 1 IEnMin= 1 EnMin= -323.163568732759     IErMin= 1 ErrMin= 5.37D-02
 ErrMax= 5.37D-02  0.00D+00 EMaxC= 1.00D-01 BMatC= 2.37D-01 BMatP= 2.37D-01
 IDIUse=3 WtCom= 4.63D-01 WtEn= 5.37D-01
 Coeff-Com:  0.100D+01
 Coeff-En:   0.100D+01
 Coeff:      0.100D+01
 Gap=     0.009 Goal=   None    Shift=    0.000
 GapD=    0.009 DampG=0.250 DampE=0.500 DampFc=0.2500 IDamp=-1.
 Damping current iteration by 2.50D-01
 RMSDP=2.40D-02 MaxDP=3.70D-01              OVMax= 5.32D-01

 Cycle   2  Pass 0  IDiag  1:
 E= -323.248851576967     Delta-E=       -0.085282844208 Rises=F Damp=T
 DIIS: error= 2.36D-02 at cycle   2 NSaved=   2.
 NSaved= 2 IEnMin= 2 EnMin= -323.248851576967     IErMin= 2 ErrMin= 2.36D-02
 ErrMax= 2.36D-02  0.00D+00 EMaxC= 1.00D-01 BMatC= 4.28D-02 BMatP= 2.37D-01
 IDIUse=3 WtCom= 7.64D-01 WtEn= 2.36D-01
 Coeff-Com: -0.638D+00 0.164D+01
 Coeff-En:   0.000D+00 0.100D+01
 Coeff:     -0.488D+00 0.149D+01
 Gap=     0.052 Goal=   None    Shift=    0.000
 RMSDP=5.90D-03 MaxDP=6.41D-02 DE=-8.53D-02 OVMax= 5.08D-01

 Cycle   3  Pass 0  IDiag  1:
 E= -323.365538061815     Delta-E=       -0.116686484848 Rises=F Damp=F
 DIIS: error= 1.44D-02 at cycle   3 NSaved=   3.
 NSaved= 3 IEnMin= 3 EnMin= -323.365538061815     IErMin= 3 ErrMin= 1.44D-02
 ErrMax= 1.44D-02  0.00D+00 EMaxC= 1.00D-01 BMatC= 2.94D-02 BMatP= 4.28D-02
 IDIUse=3 WtCom= 8.56D-01 WtEn= 1.44D-01
 Coeff-Com: -0.376D+00 0.105D+01 0.323D+00
 Coeff-En:   0.000D+00 0.000D+00 0.100D+01
 Coeff:     -0.322D+00 0.902D+00 0.421D+00
 Gap=     0.071 Goal=   None    Shift=    0.000
 RMSDP=5.82D-03 MaxDP=6.73D-02 DE=-1.17D-01 OVMax= 2.08D-01

 Cycle   4  Pass 0  IDiag  1:
 E= -323.383334604905     Delta-E=       -0.017796543090 Rises=F Damp=F
 DIIS: error= 9.68D-03 at cycle   4 NSaved=   4.
 NSaved= 4 IEnMin= 4 EnMin= -323.383334604905     IErMin= 4 ErrMin= 9.68D-03
 ErrMax= 9.68D-03  0.00D+00 EMaxC= 1.00D-01 BMatC= 1.22D-02 BMatP= 2.94D-02
 IDIUse=3 WtCom= 9.03D-01 WtEn= 9.68D-02
 Coeff-Com: -0.122D+00 0.376D+00 0.343D+00 0.403D+00
 Coeff-En:   0.000D+00 0.000D+00 0.342D+00 0.658D+00
 Coeff:     -0.110D+00 0.340D+00 0.343D+00 0.428D+00
 Gap=     0.083 Goal=   None    Shift=    0.000
 RMSDP=2.65D-03 MaxDP=2.85D-02 DE=-1.78D-02 OVMax= 8.80D-02

 Cycle   5  Pass 0  IDiag  1:
 E= -323.394832561161     Delta-E=       -0.011497956256 Rises=F Damp=F
 DIIS: error= 3.51D-03 at cycle   5 NSaved=   5.
 NSaved= 5 IEnMin= 5 EnMin= -323.394832561161     IErMin= 5 ErrMin= 3.51D-03
 ErrMax= 3.51D-03  0.00D+00 EMaxC= 1.00D-01 BMatC= 8.47D-04 BMatP= 1.22D-02
 IDIUse=3 WtCom= 9.65D-01 WtEn= 3.51D-02
 Coeff-Com: -0.208D-02 0.262D-01 0.148D+00 0.295D+00 0.533D+00
 Coeff-En:   0.000D+00 0.000D+00 0.000D+00 0.588D-01 0.941D+00
 Coeff:     -0.200D-02 0.253D-01 0.143D+00 0.287D+00 0.547D+00
 Gap=     0.085 Goal=   None    Shift=    0.000
 RMSDP=4.79D-04 MaxDP=5.79D-03 DE=-1.15D-02 OVMax= 8.51D-03

 Cycle   6  Pass 0  IDiag  1:
 E= -323.395509676283     Delta-E=       -0.000677115122 Rises=F Damp=F
 DIIS: error= 1.03D-03 at cycle   6 NSaved=   6.
 NSaved= 6 IEnMin= 6 EnMin= -323.395509676283     IErMin= 6 ErrMin= 1.03D-03
 ErrMax= 1.03D-03  0.00D+00 EMaxC= 1.00D-01 BMatC= 5.33D-05 BMatP= 8.47D-04
 IDIUse=3 WtCom= 9.90D-01 WtEn= 1.03D-02
 Coeff-Com:  0.762D-02-0.128D-01 0.486D-01 0.119D+00 0.313D+00 0.525D+00
 Coeff-En:   0.000D+00 0.000D+00 0.000D+00 0.000D+00 0.000D+00 0.100D+01
 Coeff:      0.755D-02-0.126D-01 0.481D-01 0.117D+00 0.309D+00 0.530D+00
 Gap=     0.086 Goal=   None    Shift=    0.000
 RMSDP=1.25D-04 MaxDP=1.36D-03 DE=-6.77D-04 OVMax= 2.18D-03

 Cycle   7  Pass 0  IDiag  1:
 E= -323.395551229684     Delta-E=       -0.000041553402 Rises=F Damp=F
 DIIS: error= 1.71D-04 at cycle   7 NSaved=   7.
 NSaved= 7 IEnMin= 7 EnMin= -323.395551229684     IErMin= 7 ErrMin= 1.71D-04
 ErrMax= 1.71D-04  0.00D+00 EMaxC= 1.00D-01 BMatC= 3.62D-06 BMatP= 5.33D-05
 IDIUse=3 WtCom= 9.98D-01 WtEn= 1.71D-03
 Coeff-Com:  0.189D-02-0.408D-02 0.381D-02 0.109D-01 0.675D-01 0.253D+00
 Coeff-Com:  0.667D+00
 Coeff-En:   0.000D+00 0.000D+00 0.000D+00 0.000D+00 0.000D+00 0.000D+00
 Coeff-En:   0.100D+01
 Coeff:      0.189D-02-0.408D-02 0.381D-02 0.109D-01 0.674D-01 0.252D+00
 Coeff:      0.668D+00
 Gap=     0.086 Goal=   None    Shift=    0.000
 RMSDP=4.12D-05 MaxDP=3.85D-04 DE=-4.16D-05 OVMax= 8.17D-04

 Cycle   8  Pass 0  IDiag  1:
 E= -323.395554762816     Delta-E=       -0.000003533132 Rises=F Damp=F
 DIIS: error= 3.12D-05 at cycle   8 NSaved=   8.
 NSaved= 8 IEnMin= 8 EnMin= -323.395554762816     IErMin= 8 ErrMin= 3.12D-05
 ErrMax= 3.12D-05  0.00D+00 EMaxC= 1.00D-01 BMatC= 1.32D-07 BMatP= 3.62D-06
 IDIUse=1 WtCom= 1.00D+00 WtEn= 0.00D+00
 Coeff-Com:  0.389D-03-0.850D-03 0.167D-03-0.177D-03 0.170D-01 0.893D-01
 Coeff-Com:  0.285D+00 0.609D+00
 Coeff:      0.389D-03-0.850D-03 0.167D-03-0.177D-03 0.170D-01 0.893D-01
 Coeff:      0.285D+00 0.609D+00
 Gap=     0.086 Goal=   None    Shift=    0.000
 RMSDP=9.94D-06 MaxDP=1.07D-04 DE=-3.53D-06 OVMax= 1.17D-04

 Initial convergence to 1.0D-05 achieved.  Increase integral accuracy.
 Cycle   9  Pass 1  IDiag  1:
 E= -323.395588469656     Delta-E=       -0.000033706840 Rises=F Damp=F
 DIIS: error= 1.35D-05 at cycle   1 NSaved=   1.
 NSaved= 1 IEnMin= 1 EnMin= -323.395588469656     IErMin= 1 ErrMin= 1.35D-05
 ErrMax= 1.35D-05  0.00D+00 EMaxC= 1.00D-01 BMatC= 2.40D-08 BMatP= 2.40D-08
 IDIUse=1 WtCom= 1.00D+00 WtEn= 0.00D+00
 Coeff-Com:  0.100D+01
 Coeff:      0.100D+01
 Gap=     0.086 Goal=   None    Shift=    0.000
 RMSDP=9.94D-06 MaxDP=1.07D-04 DE=-3.37D-05 OVMax= 1.25D-04

 Cycle  10  Pass 1  IDiag  1:
 E= -323.395588485833     Delta-E=       -0.000000016176 Rises=F Damp=F
 DIIS: error= 1.15D-05 at cycle   2 NSaved=   2.
 NSaved= 2 IEnMin= 2 EnMin= -323.395588485833     IErMin= 2 ErrMin= 1.15D-05
 ErrMax= 1.15D-05  0.00D+00 EMaxC= 1.00D-01 BMatC= 1.94D-08 BMatP= 2.40D-08
 IDIUse=1 WtCom= 1.00D+00 WtEn= 0.00D+00
 Coeff-Com:  0.465D+00 0.535D+00
 Coeff:      0.465D+00 0.535D+00
 Gap=     0.086 Goal=   None    Shift=    0.000
 RMSDP=4.93D-06 MaxDP=4.92D-05 DE=-1.62D-08 OVMax= 1.74D-04

 Cycle  11  Pass 1  IDiag  1:
 E= -323.395588492656     Delta-E=       -0.000000006824 Rises=F Damp=F
 DIIS: error= 1.09D-05 at cycle   3 NSaved=   3.
 NSaved= 3 IEnMin= 3 EnMin= -323.395588492656     IErMin= 3 ErrMin= 1.09D-05
 ErrMax= 1.09D-05  0.00D+00 EMaxC= 1.00D-01 BMatC= 1.24D-08 BMatP= 1.94D-08
 IDIUse=1 WtCom= 1.00D+00 WtEn= 0.00D+00
 Coeff-Com:  0.147D+00 0.416D+00 0.437D+00
 Coeff:      0.147D+00 0.416D+00 0.437D+00
 Gap=     0.086 Goal=   None    Shift=    0.000
 RMSDP=3.64D-06 MaxDP=4.34D-05 DE=-6.82D-09 OVMax= 1.28D-04

 Cycle  12  Pass 1  IDiag  1:
 E= -323.395588503084     Delta-E=       -0.000000010427 Rises=F Damp=F
 DIIS: error= 4.87D-06 at cycle   4 NSaved=   4.
 NSaved= 4 IEnMin= 4 EnMin= -323.395588503084     IErMin= 4 ErrMin= 4.87D-06
 ErrMax= 4.87D-06  0.00D+00 EMaxC= 1.00D-01 BMatC= 3.40D-09 BMatP= 1.24D-08
 IDIUse=1 WtCom= 1.00D+00 WtEn= 0.00D+00
 Coeff-Com: -0.127D-01 0.196D+00 0.370D+00 0.447D+00
 Coeff:     -0.127D-01 0.196D+00 0.370D+00 0.447D+00
 Gap=     0.086 Goal=   None    Shift=    0.000
 RMSDP=1.03D-06 MaxDP=1.28D-05 DE=-1.04D-08 OVMax= 2.64D-05

 Cycle  13  Pass 1  IDiag  1:
 E= -323.395588506286     Delta-E=       -0.000000003202 Rises=F Damp=F
 DIIS: error= 1.13D-06 at cycle   5 NSaved=   5.
 NSaved= 5 IEnMin= 5 EnMin= -323.395588506286     IErMin= 5 ErrMin= 1.13D-06
 ErrMax= 1.13D-06  0.00D+00 EMaxC= 1.00D-01 BMatC= 1.06D-10 BMatP= 3.40D-09
 IDIUse=1 WtCom= 1.00D+00 WtEn= 0.00D+00
 Coeff-Com: -0.145D-01 0.105D+00 0.224D+00 0.275D+00 0.410D+00
 Coeff:     -0.145D-01 0.105D+00 0.224D+00 0.275D+00 0.410D+00
 Gap=     0.086 Goal=   None    Shift=    0.000
 RMSDP=2.12D-07 MaxDP=1.89D-06 DE=-3.20D-09 OVMax= 4.88D-06

 Cycle  14  Pass 1  IDiag  1:
 E= -323.395588506393     Delta-E=       -0.000000000107 Rises=F Damp=F
 DIIS: error= 1.78D-07 at cycle   6 NSaved=   6.
 NSaved= 6 IEnMin= 6 EnMin= -323.395588506393     IErMin= 6 ErrMin= 1.78D-07
 ErrMax= 1.78D-07  0.00D+00 EMaxC= 1.00D-01 BMatC= 2.69D-12 BMatP= 1.06D-10
 IDIUse=1 WtCom= 1.00D+00 WtEn= 0.00D+00
 Coeff-Com: -0.477D-02 0.246D-01 0.616D-01 0.649D-01 0.122D+00 0.732D+00
 Coeff:     -0.477D-02 0.246D-01 0.616D-01 0.649D-01 0.122D+00 0.732D+00
 Gap=     0.086 Goal=   None    Shift=    0.000
 RMSDP=4.45D-08 MaxDP=2.99D-07 DE=-1.07D-10 OVMax= 6.58D-07

 Cycle  15  Pass 1  IDiag  1:
 E= -323.395588506395     Delta-E=       -0.000000000002 Rises=F Damp=F
 DIIS: error= 9.17D-08 at cycle   7 NSaved=   7.
 NSaved= 7 IEnMin= 7 EnMin= -323.395588506395     IErMin= 7 ErrMin= 9.17D-08
 ErrMax= 9.17D-08  0.00D+00 EMaxC= 1.00D-01 BMatC= 8.75D-13 BMatP= 2.69D-12
 IDIUse=1 WtCom= 1.00D+00 WtEn= 0.00D+00
 Coeff-Com: -0.125D-03-0.366D-02-0.125D-02-0.112D-01-0.112D-01 0.421D+00
 Coeff-Com:  0.607D+00
 Coeff:     -0.125D-03-0.366D-02-0.125D-02-0.112D-01-0.112D-01 0.421D+00
 Coeff:      0.607D+00
 Gap=     0.086 Goal=   None    Shift=    0.000
 RMSDP=2.08D-08 MaxDP=1.95D-07 DE=-1.82D-12 OVMax= 4.23D-07

 Cycle  16  Pass 1  IDiag  1:
 E= -323.395588506397     Delta-E=       -0.000000000003 Rises=F Damp=F
 DIIS: error= 2.95D-08 at cycle   8 NSaved=   8.
 NSaved= 8 IEnMin= 8 EnMin= -323.395588506397     IErMin= 8 ErrMin= 2.95D-08
 ErrMax= 2.95D-08  0.00D+00 EMaxC= 1.00D-01 BMatC= 9.30D-14 BMatP= 8.75D-13
 IDIUse=1 WtCom= 1.00D+00 WtEn= 0.00D+00
 Coeff-Com:  0.301D-03-0.370D-02-0.481D-02-0.110D-01-0.193D-01 0.145D+00
 Coeff-Com:  0.309D+00 0.584D+00
 Coeff:      0.301D-03-0.370D-02-0.481D-02-0.110D-01-0.193D-01 0.145D+00
 Coeff:      0.309D+00 0.584D+00
 Gap=     0.086 Goal=   None    Shift=    0.000
 RMSDP=7.20D-09 MaxDP=8.11D-08 DE=-2.73D-12 OVMax= 2.05D-07

 SCF Done:  E(RB3LYP) =  -323.395588506     A.U. after   16 cycles
            NFock= 16  Conv=0.72D-08     -V/T= 2.0041
 KE= 3.220634646626D+02 PE=-1.257518167476D+03 EE= 3.619450137841D+02
 Leave Link  502 at Tue Apr 12 16:51:33 2016, MaxMem=    33554432 cpu:        14.7
 (Enter /usr/local/gau/g09/l801.exe)
 DoSCS=F DFT=T ScalE2(SS,OS)=  1.000000  1.000000
 Range of M.O.s used for correlation:     1    68
 NBasis=    68 NAE=    24 NBE=    24 NFC=     0 NFV=     0
 NROrb=     68 NOA=    24 NOB=    24 NVA=    44 NVB=    44

 **** Warning!!: The smallest alpha delta epsilon is  0.86370749D-01

 Leave Link  801 at Tue Apr 12 16:51:33 2016, MaxMem=    33554432 cpu:         0.0
 (Enter /usr/local/gau/g09/l1101.exe)
 Using compressed storage, NAtomX=    13.
 Will process     14 centers per pass.
 Leave Link 1101 at Tue Apr 12 16:51:33 2016, MaxMem=    33554432 cpu:         0.1
 (Enter /usr/local/gau/g09/l1102.exe)
 Symmetrizing basis deriv contribution to polar:
 IMax=3 JMax=2 DiffMx= 0.00D+00
 Leave Link 1102 at Tue Apr 12 16:51:33 2016, MaxMem=    33554432 cpu:         0.0
 (Enter /usr/local/gau/g09/l1110.exe)
 Forming Gx(P) for the SCF density, NAtomX=    13.
 Integral derivatives from FoFJK, PRISM(SPDF).
 Do as many integral derivatives as possible in FoFJK.
 G2DrvN: MDV=      33554224.
 G2DrvN: will do    14 centers at a time, making    1 passes.
 Calling FoFCou, ICntrl=  3107 FMM=F I1Cent=   0 AccDes= 0.00D+00.
 FoFJK:  IHMeth= 1 ICntrl=    3107 DoSepK=F KAlg= 0 I1Cent=   0 FoldK=F
 IRaf=         0 NMat=   1 IRICut=       1 DoRegI=T DoRafI=F ISym2E= 0.
 FoFCou: FMM=F IPFlag=           0 FMFlag=      100000 FMFlg1=           0
         NFxFlg=           0 DoJE=F BraDBF=F KetDBF=F FulRan=T
         wScrn=  0.000000 ICntrl=    3107 IOpCl=  0 I1Cent=           0 NGrid=           0
         NMat0=    1 NMatS0=      1 NMatT0=    0 NMatD0=    1 NMtDS0=    0 NMtDT0=    0
 Symmetry not used in FoFCou.
 End of G2Drv F.D. properties file   721 does not exist.
 End of G2Drv F.D. properties file   722 does not exist.
 End of G2Drv F.D. properties file   788 does not exist.
 Leave Link 1110 at Tue Apr 12 16:52:31 2016, MaxMem=    33554432 cpu:        28.9
 (Enter /usr/local/gau/g09/l1002.exe)
 Minotr:  Closed shell wavefunction.
          IDoAtm=1111111111111
          Direct CPHF calculation.
          Differentiating once with respect to nuclear coordinates.
          Requested convergence is 1.0D-08 RMS, and 1.0D-07 maximum.
          Secondary convergence is 1.0D-12 RMS, and 1.0D-12 maximum.
          NewPWx=T KeepS1=F KeepF1=F KeepIn=T MapXYZ=F SortEE=F KeepMc=T.
          MDV=      33554230 using IRadAn=       2.
 Generate precomputed XC quadrature information.
 Keep R1 ints in memory in canonical form, NReq=3645290.
 FoFCou: FMM=F IPFlag=           0 FMFlag=           0 FMFlg1=           0
         NFxFlg=           0 DoJE=F BraDBF=F KetDBF=F FulRan=T
         wScrn=  0.000000 ICntrl=     600 IOpCl=  0 I1Cent=           0 NGrid=           0
         NMat0=    1 NMatS0=   2346 NMatT0=    0 NMatD0=    1 NMtDS0=    0 NMtDT0=    0
 Symmetry not used in FoFCou.
          Solving linear equations simultaneously, MaxMat=       0.
          There are    42 degrees of freedom in the 1st order CPHF.  IDoFFX=6 NUNeed=     0.
     36 vectors produced by pass  0 Test12= 2.51D-15 2.38D-09 XBig12= 2.29D-01 3.48D-01.
 AX will form    36 AO Fock derivatives at one time.
     36 vectors produced by pass  1 Test12= 2.51D-15 2.38D-09 XBig12= 4.33D-02 4.23D-02.
     36 vectors produced by pass  2 Test12= 2.51D-15 2.38D-09 XBig12= 2.60D-04 2.43D-03.
     36 vectors produced by pass  3 Test12= 2.51D-15 2.38D-09 XBig12= 3.48D-07 9.22D-05.
     36 vectors produced by pass  4 Test12= 2.51D-15 2.38D-09 XBig12= 3.07D-10 3.33D-06.
     21 vectors produced by pass  5 Test12= 2.51D-15 2.38D-09 XBig12= 1.78D-13 6.15D-08.
 InvSVY:  IOpt=1 It=  1 EMax= 2.22D-15
 Solved reduced A of dimension   201 with    36 vectors.
 End of Minotr F.D. properties file   721 does not exist.
 End of Minotr F.D. properties file   722 does not exist.
 End of Minotr F.D. properties file   788 does not exist.
 Leave Link 1002 at Tue Apr 12 16:53:09 2016, MaxMem=    33554432 cpu:        18.5
 (Enter /usr/local/gau/g09/l601.exe)
 Copying SCF densities to generalized density rwf, IOpCl= 0 IROHF=0.

 **********************************************************************

            Population analysis using the SCF density.

 **********************************************************************

 Orbital symmetries:
       Occupied  (A) (A) (A) (A) (A) (A) (A) (A) (A) (A) (A) (A)
                 (A) (A) (A) (A) (A) (A) (A) (A) (A) (A) (A) (A)
       Virtual   (A) (A) (A) (A) (A) (A) (A) (A) (A) (A) (A) (A)
                 (A) (A) (A) (A) (A) (A) (A) (A) (A) (A) (A) (A)
                 (A) (A) (A) (A) (A) (A) (A) (A) (A) (A) (A) (A)
                 (A) (A) (A) (A) (A) (A) (A) (A)
 The electronic state is 1-A.
 Alpha  occ. eigenvalues --  -19.18415 -19.14588 -14.35667 -10.32000 -10.21682
 Alpha  occ. eigenvalues --  -10.19098  -1.13424  -1.04411  -0.94210  -0.75604
 Alpha  occ. eigenvalues --   -0.69605  -0.60554  -0.53668  -0.50478  -0.47439
 Alpha  occ. eigenvalues --   -0.47051  -0.42263  -0.41888  -0.40583  -0.37609
 Alpha  occ. eigenvalues --   -0.32527  -0.31448  -0.28216  -0.17240
 Alpha virt. eigenvalues --   -0.08603   0.04047   0.07393   0.09393   0.13192
 Alpha virt. eigenvalues --    0.13759   0.16624   0.17451   0.22635   0.23984
 Alpha virt. eigenvalues --    0.25394   0.31413   0.37656   0.52959   0.55098
 Alpha virt. eigenvalues --    0.56641   0.57166   0.62733   0.64599   0.68661
 Alpha virt. eigenvalues --    0.69687   0.71505   0.75903   0.79795   0.82082
 Alpha virt. eigenvalues --    0.83227   0.85671   0.90887   0.92123   0.94392
 Alpha virt. eigenvalues --    0.95721   0.96563   0.97756   0.99321   1.02655
 Alpha virt. eigenvalues --    1.06131   1.08822   1.18887   1.28483   1.29773
 Alpha virt. eigenvalues --    1.48456   1.59394   1.84496   1.97118
          Condensed to atoms (all electrons):
               1          2          3          4          5          6
     1  N    7.299828   0.226102   0.073903   0.002910  -0.090436  -0.092736
     2  H    0.226102   0.517099  -0.078932   0.024134   0.011367  -0.008885
     3  C    0.073903  -0.078932   5.723621   0.040085   0.355102   0.260659
     4  H    0.002910   0.024134   0.040085   0.476632   0.017937   0.037931
     5  C   -0.090436   0.011367   0.355102   0.017937   5.111870  -0.053990
     6  C   -0.092736  -0.008885   0.260659   0.037931  -0.053990   5.163664
     7  H    0.001173   0.008489  -0.095449   0.003199   0.374670  -0.013240
     8  H    0.004891  -0.000031  -0.024135  -0.000785   0.355102  -0.002039
     9  H   -0.001877  -0.001916  -0.032055  -0.001054   0.361980   0.004725
    10  O   -0.001707   0.022400  -0.153975   0.016315   0.002701   0.394275
    11  H    0.318678  -0.024617  -0.025105   0.003254  -0.001157   0.007018
    12  O    0.004800   0.000220  -0.114719  -0.016045  -0.003491   0.112413
    13  H   -0.000390  -0.000002   0.009822   0.000389  -0.000210  -0.014199
               7          8          9         10         11         12
     1  N    0.001173   0.004891  -0.001877  -0.001707   0.318678   0.004800
     2  H    0.008489  -0.000031  -0.001916   0.022400  -0.024617   0.000220
     3  C   -0.095449  -0.024135  -0.032055  -0.153975  -0.025105  -0.114719
     4  H    0.003199  -0.000785  -0.001054   0.016315   0.003254  -0.016045
     5  C    0.374670   0.355102   0.361980   0.002701  -0.001157  -0.003491
     6  C   -0.013240  -0.002039   0.004725   0.394275   0.007018   0.112413
     7  H    0.662831  -0.025295  -0.055050   0.005845   0.000642  -0.000253
     8  H   -0.025295   0.537713  -0.024011   0.000013  -0.000136   0.004326
     9  H   -0.055050  -0.024011   0.606584  -0.000193   0.003887   0.000021
    10  O    0.005845   0.000013  -0.000193   8.235329   0.000062  -0.118545
    11  H    0.000642  -0.000136   0.003887   0.000062   0.388233  -0.000089
    12  O   -0.000253   0.004326   0.000021  -0.118545  -0.000089   8.425595
    13  H    0.000007  -0.000144   0.000011   0.005024   0.000007   0.226857
              13
     1  N   -0.000390
     2  H   -0.000002
     3  C    0.009822
     4  H    0.000389
     5  C   -0.000210
     6  C   -0.014199
     7  H    0.000007
     8  H   -0.000144
     9  H    0.000011
    10  O    0.005024
    11  H    0.000007
    12  O    0.226857
    13  H    0.398090
 Mulliken charges:
               1
     1  N   -0.745138
     2  H    0.304570
     3  C    0.061178
     4  H    0.395097
     5  C   -0.441446
     6  C    0.204405
     7  H    0.132432
     8  H    0.174532
     9  H    0.138948
    10  O   -0.407546
    11  H    0.329322
    12  O   -0.521091
    13  H    0.374736
 Sum of Mulliken charges =   0.00000
 Mulliken charges with hydrogens summed into heavy atoms:
               1
     1  N   -0.111246
     3  C    0.456275
     5  C    0.004466
     6  C    0.204405
    10  O   -0.407546
    12  O   -0.146355
 APT charges:
               1
     1  N   -1.115266
     2  H    0.371303
     3  C    0.217550
     4  H    0.300763
     5  C   -1.272558
     6  C   -0.117129
     7  H    0.309296
     8  H    0.383790
     9  H    0.469832
    10  O   -0.229364
    11  H    0.658526
    12  O   -0.653052
    13  H    0.676309
 Sum of APT charges =   0.00000
 APT charges with hydrogens summed into heavy atoms:
               1
     1  N   -0.085437
     3  C    0.518313
     5  C   -0.109640
     6  C   -0.117129
    10  O   -0.229364
    12  O    0.023257
 Electronic spatial extent (au):  <R**2>=            576.8402
 Charge=              0.0000 electrons
 Dipole moment (field-independent basis, Debye):
    X=             -1.2726    Y=              0.1163    Z=              0.9025  Tot=              1.5644
 Quadrupole moment (field-independent basis, Debye-Ang):
   XX=            -27.5455   YY=            -38.9014   ZZ=            -41.0965
   XY=              2.2798   XZ=             -2.0970   YZ=              3.0122
 Traceless Quadrupole moment (field-independent basis, Debye-Ang):
   XX=              8.3023   YY=             -3.0536   ZZ=             -5.2487
   XY=              2.2798   XZ=             -2.0970   YZ=              3.0122
 Octapole moment (field-independent basis, Debye-Ang**2):
  XXX=             11.1848  YYY=              0.2364  ZZZ=              4.7951  XYY=             -2.0011
  XXY=              0.0507  XXZ=              0.3596  XZZ=              2.0808  YZZ=             -0.4615
  YYZ=              1.9284  XYZ=              6.4940
 Hexadecapole moment (field-independent basis, Debye-Ang**3):
 XXXX=           -272.2645 YYYY=           -235.5639 ZZZZ=           -102.3666 XXXY=             27.7748
 XXXZ=              3.6899 YYYX=              6.4142 YYYZ=             -4.2243 ZZZX=             -3.1817
 ZZZY=             -1.9022 XXYY=           -105.9774 XXZZ=            -85.8308 YYZZ=            -60.0741
 XXYZ=              1.7717 YYXZ=             -6.2903 ZZXY=              0.9824
 N-N= 2.501141005229D+02 E-N=-1.257518167934D+03  KE= 3.220634646626D+02
  Exact polarizability:   0.000   0.000   0.000   0.000   0.000   0.000
 Approx polarizability:  97.797 -15.991  92.488  15.283 -16.131  59.043
 No NMR shielding tensors so no spin-rotation constants.
 Leave Link  601 at Tue Apr 12 16:53:09 2016, MaxMem=    33554432 cpu:         0.1
 (Enter /usr/local/gau/g09/l701.exe)
 Compute integral second derivatives.
 ... and contract with generalized density number  0.
 Leave Link  701 at Tue Apr 12 16:53:10 2016, MaxMem=    33554432 cpu:         0.1
 (Enter /usr/local/gau/g09/l702.exe)
 L702 exits ... SP integral derivatives will be done elsewhere.
 Leave Link  702 at Tue Apr 12 16:53:10 2016, MaxMem=    33554432 cpu:         0.0
 (Enter /usr/local/gau/g09/l703.exe)
 Compute integral second derivatives, UseDBF=F ICtDFT=           0.
 Integral derivatives from FoFJK, PRISM(SPDF).
 Calling FoFJK, ICntrl=    100147 FMM=F ISym2X=0 I1Cent= 0 IOpClX= 0 NMat=1 NMatS=1 NMatT=0.
 FoFJK:  IHMeth= 1 ICntrl=  100147 DoSepK=F KAlg= 0 I1Cent=   0 FoldK=F
 IRaf=         0 NMat=   1 IRICut=       1 DoRegI=T DoRafI=F ISym2E= 0.
 FoFCou: FMM=F IPFlag=           0 FMFlag=      100000 FMFlg1=         800
         NFxFlg=           0 DoJE=F BraDBF=F KetDBF=F FulRan=T
         wScrn=  0.000000 ICntrl=  100147 IOpCl=  0 I1Cent=           0 NGrid=           0
         NMat0=    1 NMatS0=      1 NMatT0=    0 NMatD0=    1 NMtDS0=    0 NMtDT0=    0
 Symmetry not used in FoFCou.
 Leave Link  703 at Tue Apr 12 16:54:08 2016, MaxMem=    33554432 cpu:        28.8
 (Enter /usr/local/gau/g09/l716.exe)
 Dipole        =-5.00660768D-01 4.57722622D-02 3.55076412D-01
 Polarizability= 0.00000000D+00 0.00000000D+00 0.00000000D+00
                 0.00000000D+00 0.00000000D+00 0.00000000D+00
 ***** Axes restored to original set *****
 -------------------------------------------------------------------
 Center     Atomic                   Forces (Hartrees/Bohr)
 Number     Number              X              Y              Z
 -------------------------------------------------------------------
      1        7           0.008791581   -0.028274059    0.028352719
      2        1          -0.007830071   -0.009206992    0.021612313
      3        6           0.051363733    0.021903646    0.026824043
      4        1          -0.033384361    0.017708466   -0.042562153
      5        6          -0.000898815    0.010599789   -0.032456366
      6        6          -0.072017743    0.065809871   -0.041834592
      7        1           0.002471953   -0.006440082    0.005828222
      8        1          -0.000630100    0.000568789    0.000854659
      9        1          -0.002123761    0.004158348    0.000201813
     10        8           0.036530681   -0.089768849    0.055497030
     11        1          -0.004436676   -0.008716724   -0.020868300
     12        8           0.007853615    0.019015853   -0.005282418
     13        1           0.014309965    0.002641944    0.003833029
 -------------------------------------------------------------------
 Cartesian Forces:  Max     0.089768849 RMS     0.030209368
 Force constants in Cartesian coordinates: 
                1             2             3             4             5 
      1  0.603372D+00
      2  0.116204D-01  0.420000D+00
      3  0.106984D+00 -0.161028D+00  0.337269D+00
      4 -0.657508D-01  0.321889D-01 -0.592929D-01  0.774011D-01
      5  0.395940D-01 -0.146990D+00  0.148471D+00 -0.368545D-01  0.171203D+00
      6 -0.102679D+00  0.172708D+00 -0.267877D+00  0.724852D-01 -0.186517D+00
      7 -0.120807D+00 -0.559263D-01 -0.141190D-01  0.152457D-02 -0.436501D-02
      8 -0.174274D+00 -0.186277D+00  0.548063D-01 -0.119816D-01 -0.305229D-01
      9 -0.231677D-01 -0.295632D-01 -0.287801D-01  0.136544D-01  0.245790D-01
     10  0.565485D-01 -0.346121D-01  0.252249D-01 -0.871983D-02 -0.440728D-02
     11  0.654780D-01 -0.702979D-02 -0.171446D-01 -0.520214D-02  0.403439D-02
     12 -0.157566D-01 -0.186807D-02 -0.150444D-01  0.103334D-01  0.383890D-02
     13 -0.434795D-02 -0.288710D-01 -0.758169D-02 -0.150004D-03  0.173500D-03
     14  0.356595D-01 -0.362640D-01 -0.259523D-01 -0.241048D-02  0.799508D-03
     15 -0.187538D-01  0.356384D-02 -0.111122D-02  0.214441D-02  0.580926D-02
     16 -0.346856D-01  0.806083D-02 -0.138050D-01  0.182794D-02  0.425381D-02
     17 -0.591720D-01  0.132038D-02 -0.208151D-01 -0.507535D-02 -0.997511D-04
     18  0.132379D-01  0.218605D-01 -0.117940D-01  0.652623D-02  0.442337D-02
     19  0.459938D-02 -0.732694D-03 -0.115206D-02 -0.147222D-03  0.155934D-03
     20 -0.766329D-02  0.558096D-02  0.329104D-02  0.122701D-02 -0.940895D-04
     21 -0.902673D-02  0.777108D-03  0.464563D-02  0.346002D-03 -0.137673D-02
     22 -0.198513D-03  0.355424D-02  0.114644D-02  0.669719D-04  0.150375D-03
     23  0.294865D-02 -0.475932D-02 -0.319956D-02 -0.177010D-03  0.183588D-03
     24  0.262314D-02 -0.603445D-02 -0.114637D-02 -0.164053D-03 -0.833829D-03
     25  0.346206D-02 -0.219811D-03 -0.225988D-04 -0.477249D-03  0.375608D-03
     26  0.647502D-03  0.219508D-02  0.139216D-02 -0.102191D-03 -0.668154D-03
     27  0.207743D-02  0.235364D-02 -0.296894D-03 -0.361027D-03 -0.407787D-03
     28  0.312671D-02  0.215800D-02  0.134333D-02  0.892636D-03  0.939779D-03
     29 -0.306375D-02  0.105676D-01 -0.415873D-02  0.526716D-02  0.213386D-02
     30  0.128654D-01 -0.843750D-02  0.542985D-02 -0.451401D-02 -0.387473D-02
     31 -0.428590D+00  0.616593D-01 -0.364667D-01 -0.730248D-02 -0.276238D-03
     32  0.907536D-01 -0.530441D-01  0.205864D-01  0.233132D-01  0.287236D-04
     33  0.393305D-01  0.741463D-02 -0.246590D-01 -0.394581D-01  0.632126D-02
     34 -0.144757D-01 -0.237009D-03 -0.219571D-02  0.920595D-03  0.219586D-03
     35  0.513573D-03 -0.503731D-02  0.340091D-02 -0.727163D-04 -0.698989D-04
     36 -0.520706D-02 -0.730883D-03  0.155441D-02 -0.154767D-02 -0.288715D-03
     37 -0.225246D-02  0.135735D-02 -0.627842D-04 -0.862146D-04  0.405041D-04
     38 -0.304211D-02 -0.262863D-03  0.350796D-03 -0.120214D-03  0.614801D-04
     39 -0.252698D-02 -0.101583D-02  0.181028D-02 -0.151837D-03 -0.143765D-03
                6             7             8             9            10 
      6  0.277597D+00
      7  0.181494D-01  0.382177D+00
      8  0.515450D-03  0.477272D-01  0.386395D+00
      9  0.219618D-02 -0.393298D-01  0.311451D-01  0.129757D+00
     10  0.109598D-01  0.125236D-01  0.861046D-01 -0.227828D-01 -0.653003D-01
     11  0.164335D-01  0.225395D-01  0.508541D-01  0.555332D-02 -0.374789D-01
     12 -0.625534D-02  0.357708D-01 -0.468610D-01  0.111400D-02 -0.132263D-01
     13 -0.190687D-02 -0.726684D-01  0.245795D-01  0.401839D-01  0.401411D-02
     14  0.809219D-05 -0.658935D-02 -0.826077D-01 -0.271431D-01 -0.218368D-01
     15  0.515302D-03  0.459098D-01 -0.726713D-01 -0.525759D-01  0.154699D-01
     16 -0.888126D-02 -0.121730D+00  0.434043D-02  0.547867D-01  0.235321D-01
     17  0.554078D-02  0.375371D-03 -0.111283D+00 -0.103226D-01 -0.679491D-02
     18 -0.356175D-02 -0.551208D-01  0.264442D-01 -0.100920D-01  0.423258D-01
     19 -0.290910D-03 -0.428334D-02  0.404510D-02  0.117185D-01 -0.470072D-02
     20  0.500940D-03  0.107068D-01 -0.622508D-02 -0.210438D-01  0.678745D-02
     21 -0.369138D-03  0.147901D-01 -0.109077D-01 -0.210269D-01  0.540881D-02
     22  0.126807D-03  0.605477D-02  0.105584D-01 -0.169265D-02  0.549672D-03
     23 -0.443041D-03 -0.114895D-01 -0.160987D-01  0.172928D-02 -0.188885D-02
     24 -0.447901D-03 -0.118382D-01 -0.148877D-01 -0.156244D-02 -0.214485D-02
     25 -0.473506D-03 -0.113785D-01  0.289399D-02  0.237481D-02 -0.123044D-02
     26  0.416381D-03  0.212378D-01 -0.878906D-02 -0.673565D-02 -0.208330D-03
     27 -0.102632D-04  0.204411D-01 -0.770299D-02 -0.401003D-02 -0.134084D-02
     28  0.310084D-02 -0.179826D-01  0.373184D-01 -0.359163D-01 -0.141323D-01
     29 -0.974242D-02  0.236913D-01 -0.107775D-01  0.485356D-01  0.274496D-01
     30  0.199249D-02 -0.640163D-02  0.290659D-01 -0.204705D-01 -0.373856D-01
     31  0.772242D-02 -0.197623D-01  0.765368D-02  0.378944D-02  0.199127D-02
     32 -0.154263D-03 -0.412585D-01  0.593141D-02 -0.506871D-02 -0.521620D-02
     33 -0.362401D-02 -0.458166D-02  0.149351D-01 -0.252479D-02 -0.221861D-01
     34  0.193517D-02 -0.354145D-01 -0.297887D-01 -0.578276D-02 -0.498669D-02
     35  0.696521D-03 -0.526270D-02  0.143331D-01 -0.138226D-01 -0.711926D-02
     36 -0.371256D-03 -0.376370D-02 -0.352160D-02  0.637091D-02 -0.188993D-02
     37 -0.247666D-03  0.174729D-02 -0.917701D-02  0.216428D-02 -0.890007D-04
     38  0.368743D-04 -0.138657D-02 -0.493242D-02  0.215727D-02 -0.778998D-03
     39  0.215918D-03  0.935459D-04 -0.359721D-03  0.160488D-02  0.156717D-02
               11            12            13            14            15 
     11 -0.335161D-01
     12  0.439571D-01  0.286703D-01
     13 -0.315611D-02 -0.787383D-02  0.559896D+00
     14 -0.200372D-01  0.633891D-02  0.454755D-01  0.512436D+00
     15  0.279595D-02 -0.145359D-01  0.374784D-01 -0.704621D-01  0.457900D+00
     16 -0.424137D-01  0.853652D-03 -0.338669D-01  0.294203D-01 -0.894942D-02
     17  0.326625D-01 -0.385766D-01  0.414743D-01 -0.429883D-02  0.672865D-02
     18 -0.590719D-01  0.181412D-01  0.949437D-02  0.114952D-02 -0.987685D-02
     19 -0.269835D-02  0.283748D-02 -0.475675D-01 -0.114419D-02 -0.225335D-02
     20  0.386014D-02 -0.480453D-02 -0.230765D-02 -0.762034D-01  0.841446D-01
     21  0.635373D-02 -0.316857D-02 -0.870613D-02  0.982081D-01 -0.272751D+00
     22  0.732150D-03  0.278704D-03 -0.131362D+00 -0.127537D+00  0.674245D-02
     23 -0.108130D-02  0.224863D-03 -0.124999D+00 -0.235039D+00  0.109776D-01
     24 -0.733500D-03  0.804340D-03  0.721058D-02  0.121216D-01 -0.471389D-01
     25 -0.154246D-02  0.389504D-04 -0.279100D+00  0.532075D-01 -0.699187D-01
     26  0.219241D-02  0.176333D-02  0.543229D-01 -0.591139D-01  0.223713D-01
     27  0.187793D-02  0.317948D-02 -0.689008D-01  0.183345D-01 -0.675683D-01
     28  0.147625D-02 -0.114997D-01 -0.277878D-03 -0.414179D-02 -0.765378D-02
     29 -0.196127D-01  0.328767D-01 -0.809833D-02  0.506235D-02  0.317541D-02
     30  0.317186D-02 -0.152664D-01  0.128795D-02 -0.102012D-01  0.314046D-02
     31 -0.448559D-02 -0.390612D-02  0.215009D-02  0.297859D-02 -0.237817D-02
     32 -0.872249D-02  0.857185D-03 -0.525243D-03  0.170013D-02  0.138139D-03
     33 -0.124064D-01  0.549920D-02  0.182955D-02 -0.420937D-02  0.564044D-02
     34  0.350185D-02  0.246126D-02  0.310659D-02 -0.432670D-02  0.298376D-02
     35 -0.436468D-02  0.299515D-02  0.238783D-02 -0.758576D-02  0.391991D-02
     36  0.870151D-02 -0.125680D-02 -0.141837D-02  0.509692D-03 -0.256077D-03
     37  0.324949D-02 -0.311767D-03  0.174240D-03  0.124467D-02 -0.821483D-03
     38  0.760762D-03 -0.742021D-03 -0.455685D-03  0.115174D-02 -0.491203D-03
     39  0.511507D-03 -0.188110D-02 -0.109707D-02  0.129767D-02 -0.138182D-02
               16            17            18            19            20 
     16  0.555308D+00
     17 -0.250826D-01  0.746132D+00
     18  0.605791D-01 -0.370364D+00  0.367615D+00
     19  0.385986D-02  0.504348D-03  0.717857D-02  0.476662D-01
     20 -0.394869D-02 -0.159699D-03 -0.600637D-02 -0.371985D-02  0.827025D-01
     21 -0.724881D-02  0.125089D-02 -0.231588D-02  0.114157D-02 -0.965678D-01
     22  0.814291D-03 -0.474650D-03 -0.587329D-04  0.115260D-02  0.272311D-02
     23 -0.263746D-02 -0.981514D-03  0.618301D-03 -0.757279D-02 -0.982205D-02
     24 -0.475776D-03  0.817813D-03  0.101199D-02  0.169707D-01  0.269607D-01
     25  0.106921D-02  0.252464D-02  0.234912D-03 -0.685272D-03 -0.747148D-03
     26  0.197367D-02 -0.626573D-02 -0.488054D-04  0.134116D-01 -0.255293D-02
     27  0.219381D-02 -0.650344D-02  0.766880D-03 -0.302762D-01  0.780797D-02
     28 -0.139142D+00  0.178733D+00 -0.134325D+00  0.770095D-03 -0.215393D-02
     29  0.138454D+00 -0.483637D+00  0.310041D+00 -0.740895D-03  0.108767D-02
     30 -0.125175D+00  0.376510D+00 -0.273035D+00 -0.435171D-02  0.410609D-02
     31 -0.109236D-03 -0.190810D-02  0.628820D-02  0.579708D-03 -0.988509D-03
     32 -0.256765D-02 -0.848029D-02  0.265052D-02 -0.262193D-03  0.292601D-03
     33 -0.496666D-03  0.490245D-02 -0.304648D-02 -0.148760D-02  0.171582D-02
     34 -0.205936D+00 -0.130961D+00  0.602564D-01 -0.138811D-02  0.359369D-03
     35 -0.684688D-01 -0.172136D+00  0.770607D-01 -0.158423D-02  0.170775D-02
     36  0.235240D-01  0.466514D-01 -0.803645D-01 -0.473051D-03  0.225373D-03
     37 -0.509431D-01  0.585689D-02 -0.166169D-01  0.144353D-03 -0.274647D-03
     38 -0.413844D-01  0.722720D-02 -0.875638D-02  0.338171D-03 -0.174342D-03
     39  0.230952D-01  0.418036D-02  0.655105D-02  0.438023D-03 -0.329976D-03
               21            22            23            24            25 
     21  0.300599D+00
     22 -0.968696D-03  0.140598D+00
     23 -0.684821D-03  0.137756D+00  0.257784D+00
     24 -0.552091D-03 -0.772575D-02 -0.990579D-02  0.502500D-01
     25  0.676330D-03 -0.164955D-01  0.584823D-02 -0.546802D-02  0.305050D+00
     26  0.518939D-02 -0.280148D-01  0.782156D-02 -0.801927D-02 -0.635678D-01
     27 -0.876528D-02  0.116869D-02  0.650125D-03 -0.680646D-04  0.734790D-01
     28  0.259791D-02  0.112166D-03  0.652118D-03  0.140899D-03 -0.737497D-03
     29 -0.386649D-02  0.220081D-03 -0.246250D-03 -0.138970D-03 -0.799674D-04
     30  0.346714D-02  0.382731D-03 -0.331055D-03 -0.706356D-03 -0.535199D-03
     31 -0.367187D-03 -0.137052D-03  0.884183D-03  0.892561D-03  0.281875D-03
     32  0.154985D-04  0.497152D-03  0.269135D-03  0.483805D-03  0.926499D-03
     33  0.872353D-03  0.357982D-03  0.258284D-03 -0.305429D-03 -0.279959D-03
     34  0.171335D-02 -0.105269D-02  0.477244D-03 -0.501780D-04  0.131394D-03
     35  0.197446D-02 -0.176150D-03  0.177001D-02 -0.211825D-03  0.292318D-03
     36 -0.289890D-03  0.427796D-04  0.143883D-03 -0.289587D-03 -0.203256D-04
     37 -0.356468D-03 -0.103486D-03  0.198553D-03  0.288761D-04  0.109953D-03
     38 -0.365602D-03  0.107621D-04  0.200239D-03  0.381433D-03  0.884583D-04
     39 -0.345366D-03  0.199246D-03 -0.380472D-04  0.150786D-03 -0.856641D-04
               26            27            28            29            30 
     26  0.652053D-01
     27 -0.163532D-01  0.754185D-01
     28  0.112261D-02  0.224828D-02  0.134878D+00
     29  0.693376D-03 -0.212267D-04 -0.183899D+00  0.545921D+00
     30  0.143860D-03  0.978768D-03  0.156404D+00 -0.430275D+00  0.305059D+00
     31 -0.582941D-03 -0.676632D-03  0.819574D-03  0.423345D-03  0.532675D-03
     32 -0.108393D-02  0.344875D-04  0.160291D-02  0.201223D-02  0.133111D-04
     33 -0.544921D-03  0.481259D-04 -0.129319D-02  0.184857D-03 -0.240498D-02
     34 -0.289899D-03 -0.371087D-04  0.234134D-01 -0.334563D-02  0.590451D-02
     35  0.422304D-03  0.236684D-04 -0.391656D-01 -0.521616D-01  0.422363D-01
     36  0.347490D-03  0.148764D-03  0.273473D-01  0.554049D-01 -0.458081D-02
     37  0.499829D-04 -0.157444D-04  0.825929D-02  0.372207D-02  0.985835D-03
     38 -0.562788D-04 -0.936865D-04  0.535751D-02 -0.104223D-02 -0.212740D-02
     39  0.778815D-04  0.178321D-03 -0.249502D-02 -0.201528D-02 -0.360342D-02
               31            32            33            34            35 
     31  0.451722D+00
     32 -0.650383D-01  0.604145D-01
     33  0.259869D-01 -0.189207D-01  0.224242D-01
     34 -0.145547D-02 -0.151352D-02  0.173630D-02  0.636920D+00
     35  0.293553D-03  0.816569D-03 -0.269426D-03  0.387164D-01  0.279653D+00
     36 -0.104696D-02 -0.110013D-02  0.114078D-02  0.930244D-01 -0.166622D+00
     37 -0.187391D-03 -0.711701D-03  0.542048D-03 -0.399783D+00  0.796457D-01
     38 -0.612947D-03 -0.134497D-03  0.618416D-03  0.127188D+00 -0.573478D-01
     39 -0.370375D-03  0.464441D-03  0.939563D-03 -0.161949D+00  0.486183D-01
               36            37            38            39 
     36  0.148704D+00
     37 -0.128571D+00  0.443009D+00
     38  0.602791D-01 -0.852018D-01  0.545490D-01
     39 -0.705101D-01  0.143283D+00 -0.512476D-01  0.662710D-01
 FormGI is forming the generalized inverse of G from B-inverse, IUseBI=4.
 Leave Link  716 at Tue Apr 12 16:54:08 2016, MaxMem=    33554432 cpu:         0.0
 (Enter /usr/local/gau/g09/l103.exe)

 GradGradGradGradGradGradGradGradGradGradGradGradGradGradGradGradGradGrad
 Berny optimization.
 Red2BG is reusing G-inverse.
 Internal  Forces:  Max     0.111146194 RMS     0.018352173
 Search for a saddle point.
 Step number   1 out of a maximum of   70
 All quantities printed in internal units (Hartrees-Bohrs-Radians)
 Swapping is turned off.
 Second derivative matrix not updated -- analytic derivatives used.
 ITU=  0
     Eigenvalues ---   -0.07337  -0.02231  -0.00326  -0.00224   0.00215
     Eigenvalues ---    0.01014   0.01449   0.02386   0.03113   0.03766
     Eigenvalues ---    0.04436   0.04968   0.05115   0.05260   0.07132
     Eigenvalues ---    0.10776   0.12008   0.14297   0.14886   0.15153
     Eigenvalues ---    0.16929   0.19549   0.25690   0.28011   0.32111
     Eigenvalues ---    0.33711   0.34549   0.35208   0.44030   0.45657
     Eigenvalues ---    0.46406   0.51965   0.96159
 Eigenvectors required to have negative eigenvalues:
                          R3        A19       D1        R5        D3
   1                   -0.46457  -0.25824   0.25336   0.24571   0.23274
                          A20       D20       D2        A8        D4
   1                    0.23112   0.21957   0.21795  -0.21192   0.19732
 Eigenvalue     2 is  -2.23D-02 should be greater than     0.000000 Eigenvector:
                          R8        D6        R3        R5        D20
   1                   -0.44758  -0.37165   0.34027   0.26671   0.25741
                          A5        D5        A2        A19       D23
   1                    0.24655  -0.22456  -0.19681  -0.19055   0.17862
 Eigenvalue     3 is  -3.26D-03 should be greater than     0.000000 Eigenvector:
                          D6        D4        D18       D19       A5
   1                    0.42728   0.34790   0.29329   0.28713  -0.25852
                          D11       D10       D12       A8        D2
   1                   -0.23181  -0.21789  -0.21784   0.20269   0.17866
 Eigenvalue     4 is  -2.24D-03 should be greater than     0.000000 Eigenvector:
                          D18       D16       D3        D19       D1
   1                    0.37651   0.32994  -0.30954   0.25772  -0.25581
                          D4        D17       A19       D23       D22
   1                   -0.21319   0.21116  -0.19049   0.18707   0.18075
 RFO step:  Lambda0=8.264835733D-04 Lambda=-7.07055040D-02.
 Linear search not attempted -- option 19 set.
 Maximum step size (   0.300) exceeded in Quadratic search.
    -- Step size scaled by   0.335
 Iteration  1 RMS(Cart)=  0.04930553 RMS(Int)=  0.00713985
 Iteration  2 RMS(Cart)=  0.00505536 RMS(Int)=  0.00205513
 Iteration  3 RMS(Cart)=  0.00003741 RMS(Int)=  0.00205486
 Iteration  4 RMS(Cart)=  0.00000017 RMS(Int)=  0.00205486
 ITry= 1 IFail=0 DXMaxC= 1.72D-01 DCOld= 1.00D+10 DXMaxT= 3.00D-01 DXLimC= 3.00D+00 Rises=F
 Variable       Old X    -DE/DX   Delta X   Delta X   Delta X     New X
                                 (Linear)    (Quad)   (Total)
    R1        1.91907   0.02069   0.00000   0.00831   0.00831   1.92737
    R2        2.75672   0.04119   0.00000   0.04185   0.03835   2.79507
    R3        2.84213  -0.00540   0.00000  -0.12130  -0.11894   2.72319
    R4        1.91554   0.00285   0.00000   0.00065   0.00065   1.91619
    R5        2.82365  -0.00849   0.00000  -0.06629  -0.06516   2.75849
    R6        2.92167  -0.00926   0.00000  -0.01603  -0.01603   2.90565
    R7        2.87127  -0.02159   0.00000  -0.04314  -0.04026   2.83101
    R8        2.83459   0.01146   0.00000   0.13996   0.13731   2.97189
    R9        2.06633   0.00764   0.00000   0.00559   0.00559   2.07192
   R10        2.06555   0.00009   0.00000  -0.00082  -0.00082   2.06473
   R11        2.06588   0.00291   0.00000   0.00286   0.00286   2.06874
   R12        2.27773   0.11115   0.00000   0.02444   0.02444   2.30216
   R13        2.55737   0.02955   0.00000   0.01880   0.01880   2.57617
   R14        1.83183   0.01360   0.00000   0.00636   0.00636   1.83819
    A1        1.92679   0.00740   0.00000   0.02122   0.01947   1.94626
    A2        1.62191   0.02276   0.00000   0.10777   0.10843   1.73033
    A3        1.89661  -0.00095   0.00000   0.02193   0.02035   1.91696
    A4        1.93821   0.00046   0.00000  -0.01387  -0.00550   1.93271
    A5        2.76367  -0.02184   0.00000  -0.13225  -0.13330   2.63036
    A6        2.01211   0.01067   0.00000   0.04099   0.04754   2.05965
    A7        1.88940  -0.00727   0.00000  -0.01249  -0.01424   1.87517
    A8        2.82207   0.02155   0.00000   0.10717   0.10733   2.92940
    A9        1.89436   0.00314   0.00000   0.00311  -0.00109   1.89327
   A10        1.86615  -0.00089   0.00000  -0.02202  -0.02506   1.84109
   A11        1.93007  -0.00797   0.00000  -0.00199  -0.00203   1.92804
   A12        1.94576   0.00198   0.00000  -0.01140  -0.01139   1.93437
   A13        1.90963   0.00551   0.00000   0.01896   0.01897   1.92860
   A14        1.90095   0.00181   0.00000   0.00170   0.00166   1.90260
   A15        1.89033   0.00171   0.00000  -0.00374  -0.00377   1.88656
   A16        1.88575  -0.00293   0.00000  -0.00346  -0.00340   1.88235
   A17        2.18471   0.01267   0.00000   0.01182   0.01250   2.19721
   A18        1.95411  -0.00918   0.00000  -0.00057  -0.00136   1.95275
   A19        1.59388   0.00795   0.00000   0.02766   0.02853   1.62241
   A20        2.12908  -0.00359   0.00000   0.00029  -0.00031   2.12877
   A21        2.14353  -0.00344   0.00000  -0.01040  -0.01050   2.13302
   A22        1.87233   0.01096   0.00000   0.00586   0.00586   1.87819
    D1       -1.36609  -0.00389   0.00000  -0.00025   0.00001  -1.36608
    D2        0.75870   0.00192   0.00000   0.02218   0.02043   0.77913
    D3        0.73876   0.00015   0.00000   0.03235   0.03542   0.77419
    D4        2.86355   0.00596   0.00000   0.05478   0.05585   2.91940
    D5       -1.28331   0.01243   0.00000   0.07858   0.07794  -1.20537
    D6        1.93018   0.01158   0.00000   0.15758   0.15284   2.08302
    D7        1.04853  -0.00060   0.00000  -0.01214  -0.01280   1.03573
    D8       -3.11704  -0.00244   0.00000  -0.01910  -0.01972  -3.13677
    D9       -1.03222  -0.00127   0.00000  -0.01821  -0.01888  -1.05110
   D10       -0.25170   0.00308   0.00000   0.04468   0.04575  -0.20595
   D11        1.86591   0.00124   0.00000   0.03773   0.03883   1.90474
   D12       -2.33245   0.00241   0.00000   0.03862   0.03967  -2.29278
   D13       -1.07359  -0.00083   0.00000  -0.02631  -0.02674  -1.10032
   D14        1.04402  -0.00268   0.00000  -0.03327  -0.03366   1.01036
   D15        3.12885  -0.00150   0.00000  -0.03237  -0.03282   3.09603
   D16       -0.49906   0.00914   0.00000   0.05370   0.05238  -0.44668
   D17        2.68582   0.00808   0.00000   0.03242   0.03073   2.71655
   D18        1.69661   0.01965   0.00000   0.09833   0.10130   1.79791
   D19       -1.40170   0.01859   0.00000   0.07705   0.07965  -1.32205
   D20        1.64002  -0.01157   0.00000  -0.06308  -0.06483   1.57519
   D21       -2.36012  -0.01141   0.00000  -0.05316  -0.05431  -2.41443
   D22        3.08349   0.00137   0.00000   0.01957   0.01983   3.10332
   D23       -2.03697  -0.00540   0.00000  -0.03468  -0.03515  -2.07212
   D24       -0.01601  -0.00014   0.00000  -0.00176  -0.00155  -0.01756
         Item               Value     Threshold  Converged?
 Maximum Force            0.111146     0.000450     NO 
 RMS     Force            0.018352     0.000300     NO 
 Maximum Displacement     0.171615     0.001800     NO 
 RMS     Displacement     0.052305     0.001200     NO 
 Predicted change in Energy=-2.749418D-02
 Lowest energy point so far.  Saving SCF results.
 GradGradGradGradGradGradGradGradGradGradGradGradGradGradGradGradGradGrad

 Leave Link  103 at Tue Apr 12 16:54:08 2016, MaxMem=    33554432 cpu:         0.0
 (Enter /usr/local/gau/g09/l202.exe)
                          Input orientation:                          
 ---------------------------------------------------------------------
 Center     Atomic      Atomic             Coordinates (Angstroms)
 Number     Number       Type             X           Y           Z
 ---------------------------------------------------------------------
      1          7           0       -1.234202   -1.211570   -0.402482
      2          1           0       -1.021505   -1.793250    0.407857
      3          6           0       -0.489630    0.065852   -0.363622
      4          1           0        0.084834   -1.127838   -0.976731
      5          6           0       -1.011261    1.177832    0.561375
      6          6           0        0.923014   -0.249442    0.022834
      7          1           0       -1.033496    0.832207    1.601652
      8          1           0       -0.379338    2.066691    0.495073
      9          1           0       -2.028183    1.467118    0.277447
     10          8           0        1.288419   -1.217431    0.665964
     11          1           0       -2.232931   -1.043611   -0.452796
     12          8           0        1.793717    0.705624   -0.410954
     13          1           0        2.681110    0.458755   -0.098245
 ---------------------------------------------------------------------
                    Distance matrix (angstroms):
                    1          2          3          4          5
     1  N    0.000000
     2  H    1.019922   0.000000
     3  C    1.479089   2.081905   0.000000
     4  H    1.441052   1.893104   1.459728   0.000000
     5  C    2.586110   2.975063   1.537602   2.980488   0.000000
     6  C    2.400034   2.512516   1.498106   1.572659   2.463443
     7  H    2.869470   2.884148   2.178392   3.426441   1.096415
     8  H    3.504767   3.913966   2.180110   3.547771   1.092608
     9  H    2.875426   3.414733   2.177535   3.573738   1.094729
    10  O    2.739567   2.394564   2.422462   2.038404   3.322160
    11  H    1.014003   1.664403   2.068323   2.377738   2.730537
    12  O    3.583852   3.852310   2.371755   2.569430   3.006045
    13  H    4.267577   4.363144   3.205993   3.166965   3.819132
                    6          7          8          9         10
     6  C    0.000000
     7  H    2.736889   0.000000
     8  H    2.698815   1.782243   0.000000
     9  H    3.423589   1.773705   1.767919   0.000000
    10  O    1.218253   3.235401   3.687286   4.284576   0.000000
    11  H    3.288908   3.029537   3.742759   2.622773   3.698885
    12  O    1.363249   3.472714   2.719478   3.957359   2.261242
    13  H    1.899238   4.102124   3.507682   4.830671   2.309373
                   11         12         13
    11  H    0.000000
    12  O    4.390384   0.000000
    13  H    5.150788   0.972727   0.000000
 Stoichiometry    C3H7NO2
 Framework group  C1[X(C3H7NO2)]
 Deg. of freedom    33
 Full point group                 C1      NOp   1
 RotChk:  IX=0 Diff= 3.50D-02
 Largest Abelian subgroup         C1      NOp   1
 Largest concise Abelian subgroup C1      NOp   1
                         Standard orientation:                         
 ---------------------------------------------------------------------
 Center     Atomic      Atomic             Coordinates (Angstroms)
 Number     Number       Type             X           Y           Z
 ---------------------------------------------------------------------
      1          7           0       -1.446528   -1.072455   -0.376585
      2          1           0       -1.254565   -1.607944    0.469963
      3          6           0       -0.661927    0.180785   -0.415225
      4          1           0       -0.123959   -1.066897   -0.948784
      5          6           0       -1.150518    1.365094    0.435017
      6          6           0        0.738963   -0.153659   -0.002942
      7          1           0       -1.186502    1.087054    1.494982
      8          1           0       -0.490549    2.227620    0.315512
      9          1           0       -2.156987    1.667645    0.128562
     10          8           0        1.071755   -1.089905    0.701921
     11          1           0       -2.439289   -0.876673   -0.442127
     12          8           0        1.640680    0.744070   -0.492263
     13          1           0        2.518953    0.489733   -0.160381
 ---------------------------------------------------------------------
 Rotational constants (GHZ):      4.9315801      3.1563295      2.3034733
 Leave Link  202 at Tue Apr 12 16:54:08 2016, MaxMem=    33554432 cpu:         0.0
 (Enter /usr/local/gau/g09/l301.exe)
 Standard basis: 6-31G (6D, 7F)
 Ernie: Thresh=  0.10000D-02 Tol=  0.10000D-05 Strict=F.
 There are    68 symmetry adapted cartesian basis functions of A   symmetry.
 There are    68 symmetry adapted basis functions of A   symmetry.
    68 basis functions,   160 primitive gaussians,    68 cartesian basis functions
    24 alpha electrons       24 beta electrons
       nuclear repulsion energy       249.6396466277 Hartrees.
 IExCor=  402 DFT=T Ex+Corr=B3LYP ExCW=0 ScaHFX=  0.200000
 ScaDFX=  0.800000  0.720000  1.000000  0.810000 ScalE2=  1.000000  1.000000
 IRadAn=      0 IRanWt=     -1 IRanGd=            0 ICorTp=0 IEmpDi=  4
 NAtoms=   13 NActive=   13 NUniq=   13 SFac= 1.00D+00 NAtFMM=   60 NAOKFM=F Big=F
 Integral buffers will be    131072 words long.
 Raffenetti 2 integral format.
 Two-electron integral symmetry is turned on.
 Leave Link  301 at Tue Apr 12 16:54:08 2016, MaxMem=    33554432 cpu:         0.0
 (Enter /usr/local/gau/g09/l302.exe)
 NPDir=0 NMtPBC=     1 NCelOv=     1 NCel=       1 NClECP=     1 NCelD=      1
         NCelK=      1 NCelE2=     1 NClLst=     1 CellRange=     0.0.
 One-electron integrals computed using PRISM.
 NBasis=    68 RedAO= T EigKep=  4.87D-03  NBF=    68
 NBsUse=    68 1.00D-06 EigRej= -1.00D+00 NBFU=    68
 Precomputing XC quadrature grid using
 IXCGrd= 4 IRadAn=           0 IRanWt=          -1 IRanGd=           0 AccXCQ= 0.00D+00.
 Generated NRdTot=       0 NPtTot=           0 NUsed=           0 NTot=          32
 NSgBfM=    68    68    68    68    68 MxSgAt=    13 MxSgA2=    13.
 Leave Link  302 at Tue Apr 12 16:54:09 2016, MaxMem=    33554432 cpu:         0.2
 (Enter /usr/local/gau/g09/l303.exe)
 DipDrv:  MaxL=1.
 Leave Link  303 at Tue Apr 12 16:54:09 2016, MaxMem=    33554432 cpu:         0.0
 (Enter /usr/local/gau/g09/l401.exe)
 Initial guess from the checkpoint file:  "Ala-S-opt-freq-tsb1-6-31g.chk"
 B after Tr=     0.000000    0.000000    0.000000
         Rot=    0.999948   -0.002257   -0.004754    0.008700 Ang=  -1.17 deg.
 Guess basis will be translated and rotated to current coordinates.
 JPrj=2 DoOrth=T DoCkMO=T.
 Generating alternative initial guess.
 ExpMin= 1.61D-01 ExpMax= 5.48D+03 ExpMxC= 8.25D+02 IAcc=1 IRadAn=         1 AccDes= 0.00D+00
 Harris functional with IExCor=  402 and IRadAn=       1 diagonalized for initial guess.
 HarFok:  IExCor=  402 AccDes= 0.00D+00 IRadAn=         1 IDoV= 1 UseB2=F ITyADJ=14
 ICtDFT=  3500011 ScaDFX=  1.000000  1.000000  1.000000  1.000000
 FoFCou: FMM=F IPFlag=           0 FMFlag=      100000 FMFlg1=           0
         NFxFlg=           0 DoJE=T BraDBF=F KetDBF=T FulRan=T
         wScrn=  0.000000 ICntrl=     500 IOpCl=  0 I1Cent=   200000004 NGrid=           0
         NMat0=    1 NMatS0=      1 NMatT0=    0 NMatD0=    1 NMtDS0=    0 NMtDT0=    0
 Petite list used in FoFCou.
 Harris En= -323.485209933680    
 Leave Link  401 at Tue Apr 12 16:54:10 2016, MaxMem=    33554432 cpu:         0.6
 (Enter /usr/local/gau/g09/l502.exe)
 Closed shell SCF:
 Using DIIS extrapolation, IDIIS=  1040.
 Integral symmetry usage will be decided dynamically.
 Keep R1 ints in memory in canonical form, NReq=3676491.
 IVT=       33364 IEndB=       33364 NGot=    33554432 MDV=    30768038
 LenX=    30768038 LenY=    30762973
 Requested convergence on RMS density matrix=1.00D-08 within 128 cycles.
 Requested convergence on MAX density matrix=1.00D-06.
 Requested convergence on             energy=1.00D-06.
 No special actions if energy rises.
 FoFCou: FMM=F IPFlag=           0 FMFlag=           0 FMFlg1=           0
         NFxFlg=           0 DoJE=F BraDBF=F KetDBF=F FulRan=T
         wScrn=  0.000000 ICntrl=     600 IOpCl=  0 I1Cent=           0 NGrid=           0
         NMat0=    1 NMatS0=   2346 NMatT0=    0 NMatD0=    1 NMtDS0=    0 NMtDT0=    0
 Symmetry not used in FoFCou.
 Integral accuracy reduced to 1.0D-05 until final iterations.

 Cycle   1  Pass 0  IDiag  1:
 E= -323.416565257358    
 DIIS: error= 4.38D-03 at cycle   1 NSaved=   1.
 NSaved= 1 IEnMin= 1 EnMin= -323.416565257358     IErMin= 1 ErrMin= 4.38D-03
 ErrMax= 4.38D-03  0.00D+00 EMaxC= 1.00D-01 BMatC= 2.87D-03 BMatP= 2.87D-03
 IDIUse=3 WtCom= 9.56D-01 WtEn= 4.38D-02
 Coeff-Com:  0.100D+01
 Coeff-En:   0.100D+01
 Coeff:      0.100D+01
 Gap=     0.544 Goal=   None    Shift=    0.000
 GapD=    0.544 DampG=2.000 DampE=1.000 DampFc=2.0000 IDamp=-1.
 RMSDP=2.38D-03 MaxDP=1.96D-02              OVMax= 3.55D-02

 Cycle   2  Pass 0  IDiag  1:
 E= -323.421427860134     Delta-E=       -0.004862602775 Rises=F Damp=F
 DIIS: error= 2.99D-03 at cycle   2 NSaved=   2.
 NSaved= 2 IEnMin= 2 EnMin= -323.421427860134     IErMin= 2 ErrMin= 2.99D-03
 ErrMax= 2.99D-03  0.00D+00 EMaxC= 1.00D-01 BMatC= 1.23D-03 BMatP= 2.87D-03
 IDIUse=3 WtCom= 9.70D-01 WtEn= 2.99D-02
 Coeff-Com:  0.332D+00 0.668D+00
 Coeff-En:   0.000D+00 0.100D+01
 Coeff:      0.322D+00 0.678D+00
 Gap=     0.110 Goal=   None    Shift=    0.000
 RMSDP=1.74D-03 MaxDP=2.25D-02 DE=-4.86D-03 OVMax= 5.61D-02

 Cycle   3  Pass 0  IDiag  1:
 E= -323.420018950376     Delta-E=        0.001408909758 Rises=F Damp=F
 DIIS: error= 4.54D-03 at cycle   3 NSaved=   3.
 NSaved= 3 IEnMin= 2 EnMin= -323.421427860134     IErMin= 2 ErrMin= 2.99D-03
 ErrMax= 4.54D-03  0.00D+00 EMaxC= 1.00D-01 BMatC= 2.63D-03 BMatP= 1.23D-03
 IDIUse=3 WtCom= 1.29D-01 WtEn= 8.71D-01
 Coeff-Com: -0.252D-01 0.606D+00 0.419D+00
 Coeff-En:   0.000D+00 0.627D+00 0.373D+00
 Coeff:     -0.325D-02 0.625D+00 0.379D+00
 Gap=     0.114 Goal=   None    Shift=    0.000
 RMSDP=9.81D-04 MaxDP=1.16D-02 DE= 1.41D-03 OVMax= 3.17D-02

 Cycle   4  Pass 0  IDiag  1:
 E= -323.422700823384     Delta-E=       -0.002681873008 Rises=F Damp=F
 DIIS: error= 6.90D-04 at cycle   4 NSaved=   4.
 NSaved= 4 IEnMin= 4 EnMin= -323.422700823384     IErMin= 4 ErrMin= 6.90D-04
 ErrMax= 6.90D-04  0.00D+00 EMaxC= 1.00D-01 BMatC= 6.83D-05 BMatP= 1.23D-03
 IDIUse=3 WtCom= 9.93D-01 WtEn= 6.90D-03
 Coeff-Com: -0.326D-01 0.352D+00 0.215D+00 0.466D+00
 Coeff-En:   0.000D+00 0.000D+00 0.000D+00 0.100D+01
 Coeff:     -0.324D-01 0.349D+00 0.214D+00 0.469D+00
 Gap=     0.115 Goal=   None    Shift=    0.000
 RMSDP=1.75D-04 MaxDP=2.29D-03 DE=-2.68D-03 OVMax= 5.06D-03

 Cycle   5  Pass 0  IDiag  1:
 E= -323.422767420372     Delta-E=       -0.000066596988 Rises=F Damp=F
 DIIS: error= 1.22D-04 at cycle   5 NSaved=   5.
 NSaved= 5 IEnMin= 5 EnMin= -323.422767420372     IErMin= 5 ErrMin= 1.22D-04
 ErrMax= 1.22D-04  0.00D+00 EMaxC= 1.00D-01 BMatC= 3.00D-06 BMatP= 6.83D-05
 IDIUse=3 WtCom= 9.99D-01 WtEn= 1.22D-03
 Coeff-Com: -0.762D-02 0.538D-01 0.389D-01 0.189D+00 0.726D+00
 Coeff-En:   0.000D+00 0.000D+00 0.000D+00 0.000D+00 0.100D+01
 Coeff:     -0.761D-02 0.538D-01 0.388D-01 0.189D+00 0.726D+00
 Gap=     0.114 Goal=   None    Shift=    0.000
 RMSDP=4.82D-05 MaxDP=4.44D-04 DE=-6.66D-05 OVMax= 1.07D-03

 Cycle   6  Pass 0  IDiag  1:
 E= -323.422770812173     Delta-E=       -0.000003391801 Rises=F Damp=F
 DIIS: error= 7.17D-05 at cycle   6 NSaved=   6.
 NSaved= 6 IEnMin= 6 EnMin= -323.422770812173     IErMin= 6 ErrMin= 7.17D-05
 ErrMax= 7.17D-05  0.00D+00 EMaxC= 1.00D-01 BMatC= 3.63D-07 BMatP= 3.00D-06
 IDIUse=1 WtCom= 1.00D+00 WtEn= 0.00D+00
 Coeff-Com: -0.200D-02 0.619D-02 0.759D-02 0.700D-01 0.394D+00 0.524D+00
 Coeff:     -0.200D-02 0.619D-02 0.759D-02 0.700D-01 0.394D+00 0.524D+00
 Gap=     0.114 Goal=   None    Shift=    0.000
 RMSDP=1.03D-05 MaxDP=1.51D-04 DE=-3.39D-06 OVMax= 1.95D-04

 Cycle   7  Pass 0  IDiag  1:
 E= -323.422771113409     Delta-E=       -0.000000301236 Rises=F Damp=F
 DIIS: error= 1.94D-05 at cycle   7 NSaved=   7.
 NSaved= 7 IEnMin= 7 EnMin= -323.422771113409     IErMin= 7 ErrMin= 1.94D-05
 ErrMax= 1.94D-05  0.00D+00 EMaxC= 1.00D-01 BMatC= 3.65D-08 BMatP= 3.63D-07
 IDIUse=1 WtCom= 1.00D+00 WtEn= 0.00D+00
 Coeff-Com:  0.190D-03-0.615D-02-0.245D-02 0.477D-02 0.970D-01 0.273D+00
 Coeff-Com:  0.633D+00
 Coeff:      0.190D-03-0.615D-02-0.245D-02 0.477D-02 0.970D-01 0.273D+00
 Coeff:      0.633D+00
 Gap=     0.115 Goal=   None    Shift=    0.000
 RMSDP=3.96D-06 MaxDP=3.89D-05 DE=-3.01D-07 OVMax= 5.81D-05

 Initial convergence to 1.0D-05 achieved.  Increase integral accuracy.
 Cycle   8  Pass 1  IDiag  1:
 E= -323.422795893432     Delta-E=       -0.000024780023 Rises=F Damp=F
 DIIS: error= 1.25D-05 at cycle   1 NSaved=   1.
 NSaved= 1 IEnMin= 1 EnMin= -323.422795893432     IErMin= 1 ErrMin= 1.25D-05
 ErrMax= 1.25D-05  0.00D+00 EMaxC= 1.00D-01 BMatC= 1.89D-08 BMatP= 1.89D-08
 IDIUse=1 WtCom= 1.00D+00 WtEn= 0.00D+00
 Coeff-Com:  0.100D+01
 Coeff:      0.100D+01
 Gap=     0.115 Goal=   None    Shift=    0.000
 RMSDP=3.96D-06 MaxDP=3.89D-05 DE=-2.48D-05 OVMax= 6.14D-05

 Cycle   9  Pass 1  IDiag  1:
 E= -323.422795916931     Delta-E=       -0.000000023500 Rises=F Damp=F
 DIIS: error= 9.60D-06 at cycle   2 NSaved=   2.
 NSaved= 2 IEnMin= 2 EnMin= -323.422795916931     IErMin= 2 ErrMin= 9.60D-06
[...]
    D1       -2.47489   0.00000   0.00000   0.00033   0.00033  -2.47455
    D2        0.04718   0.00000   0.00000   0.00037   0.00037   0.04755
    D3       -0.12094   0.00000   0.00000   0.00041   0.00041  -0.12053
    D4        2.40113   0.00000   0.00000   0.00045   0.00045   2.40157
    D5       -1.08541   0.00000   0.00000   0.00013   0.00013  -1.08528
    D6        2.34321   0.00000   0.00000   0.00016   0.00016   2.34337
    D7        1.09714   0.00000   0.00000   0.00003   0.00003   1.09717
    D8       -3.10928   0.00000   0.00000   0.00003   0.00003  -3.10926
    D9       -1.03820   0.00000   0.00000   0.00002   0.00002  -1.03818
   D10        2.01420   0.00000   0.00000   0.00008   0.00008   2.01428
   D11       -2.19222   0.00000   0.00000   0.00007   0.00007  -2.19215
   D12       -0.12113   0.00000   0.00000   0.00007   0.00007  -0.12107
   D13       -1.30332   0.00000   0.00000   0.00002   0.00002  -1.30330
   D14        0.77344   0.00000   0.00000   0.00002   0.00002   0.77346
   D15        2.84453   0.00000   0.00000   0.00001   0.00001   2.84454
   D16        0.14246   0.00000   0.00000  -0.00002  -0.00002   0.14244
   D17       -3.03751   0.00000   0.00000   0.00004   0.00004  -3.03747
   D18        2.58674   0.00000   0.00000   0.00002   0.00002   2.58676
   D19       -0.59323   0.00000   0.00000   0.00008   0.00008  -0.59316
   D20        1.13982   0.00000   0.00000   0.00015   0.00015   1.13997
   D21       -2.49028   0.00000   0.00000   0.00009   0.00009  -2.49019
   D22       -3.06536   0.00000   0.00000   0.00015   0.00015  -3.06521
   D23       -2.53255   0.00000   0.00000   0.00028   0.00028  -2.53227
   D24        0.03972   0.00000   0.00000   0.00020   0.00020   0.03992
         Item               Value     Threshold  Converged?
 Maximum Force            0.000021     0.000450     YES
 RMS     Force            0.000003     0.000300     YES
 Maximum Displacement     0.000572     0.001800     YES
 RMS     Displacement     0.000132     0.001200     YES
 Predicted change in Energy=-4.619361D-09
 Optimization completed.
    -- Stationary point found.
                           ----------------------------
                           !   Optimized Parameters   !
                           ! (Angstroms and Degrees)  !
 --------------------------                            --------------------------
 ! Name  Definition              Value          Derivative Info.                !
 --------------------------------------------------------------------------------
 ! R1    R(1,2)                  1.0223         -DE/DX =    0.0                 !
 ! R2    R(1,3)                  1.6007         -DE/DX =    0.0                 !
 ! R3    R(1,4)                  1.1906         -DE/DX =    0.0                 !
 ! R4    R(1,11)                 1.0152         -DE/DX =    0.0                 !
 ! R5    R(3,4)                  1.3666         -DE/DX =    0.0                 !
 ! R6    R(3,5)                  1.4987         -DE/DX =    0.0                 !
 ! R7    R(3,6)                  1.4237         -DE/DX =    0.0                 !
 ! R8    R(4,6)                  2.3471         -DE/DX =    0.0                 !
 ! R9    R(5,7)                  1.1038         -DE/DX =    0.0                 !
 ! R10   R(5,8)                  1.0936         -DE/DX =    0.0                 !
 ! R11   R(5,9)                  1.0969         -DE/DX =    0.0                 !
 ! R12   R(6,10)                 1.2613         -DE/DX =    0.0                 !
 ! R13   R(6,12)                 1.3906         -DE/DX =    0.0                 !
 ! R14   R(12,13)                0.9803         -DE/DX =    0.0                 !
 ! A1    A(2,1,3)              109.3266         -DE/DX =    0.0                 !
 ! A2    A(2,1,4)              116.8571         -DE/DX =    0.0                 !
 ! A3    A(2,1,11)             117.2274         -DE/DX =    0.0                 !
 ! A4    A(3,1,11)             115.5882         -DE/DX =    0.0                 !
 ! A5    A(4,1,11)             123.9468         -DE/DX =    0.0                 !
 ! A6    A(1,3,5)              115.0475         -DE/DX =    0.0                 !
 ! A7    A(1,3,6)              107.7381         -DE/DX =    0.0                 !
 ! A8    A(4,3,5)              119.7981         -DE/DX =    0.0                 !
 ! A9    A(5,3,6)              124.9971         -DE/DX =    0.0                 !
 ! A10   A(1,4,6)               80.2265         -DE/DX =    0.0                 !
 ! A11   A(3,5,7)              112.802          -DE/DX =    0.0                 !
 ! A12   A(3,5,8)              108.4369         -DE/DX =    0.0                 !
 ! A13   A(3,5,9)              112.5132         -DE/DX =    0.0                 !
 ! A14   A(7,5,8)              107.5345         -DE/DX =    0.0                 !
 ! A15   A(7,5,9)              107.8928         -DE/DX =    0.0                 !
 ! A16   A(8,5,9)              107.4146         -DE/DX =    0.0                 !
 ! A17   A(3,6,10)             125.2057         -DE/DX =    0.0                 !
 ! A18   A(3,6,12)             113.9367         -DE/DX =    0.0                 !
 ! A19   A(4,6,10)              99.4542         -DE/DX =    0.0                 !
 ! A20   A(4,6,12)             134.009          -DE/DX =    0.0                 !
 ! A21   A(10,6,12)            120.8209         -DE/DX =    0.0                 !
 ! A22   A(6,12,13)            108.41           -DE/DX =    0.0                 !
 ! D1    D(2,1,3,5)           -141.8005         -DE/DX =    0.0                 !
 ! D2    D(2,1,3,6)              2.7032         -DE/DX =    0.0                 !
 ! D3    D(11,1,3,5)            -6.9293         -DE/DX =    0.0                 !
 ! D4    D(11,1,3,6)           137.5744         -DE/DX =    0.0                 !
 ! D5    D(2,1,4,6)            -62.1893         -DE/DX =    0.0                 !
 ! D6    D(11,1,4,6)           134.2563         -DE/DX =    0.0                 !
 ! D7    D(1,3,5,7)             62.8616         -DE/DX =    0.0                 !
 ! D8    D(1,3,5,8)           -178.1487         -DE/DX =    0.0                 !
 ! D9    D(1,3,5,9)            -59.4842         -DE/DX =    0.0                 !
 ! D10   D(4,3,5,7)            115.4053         -DE/DX =    0.0                 !
 ! D11   D(4,3,5,8)           -125.6049         -DE/DX =    0.0                 !
 ! D12   D(4,3,5,9)             -6.9405         -DE/DX =    0.0                 !
 ! D13   D(6,3,5,7)            -74.6749         -DE/DX =    0.0                 !
 ! D14   D(6,3,5,8)             44.3149         -DE/DX =    0.0                 !
 ! D15   D(6,3,5,9)            162.9793         -DE/DX =    0.0                 !
 ! D16   D(1,3,6,10)             8.1625         -DE/DX =    0.0                 !
 ! D17   D(1,3,6,12)          -174.0366         -DE/DX =    0.0                 !
 ! D18   D(5,3,6,10)           148.2094         -DE/DX =    0.0                 !
 ! D19   D(5,3,6,12)           -33.9896         -DE/DX =    0.0                 !
 ! D20   D(1,4,6,10)            65.3069         -DE/DX =    0.0                 !
 ! D21   D(1,4,6,12)          -142.6825         -DE/DX =    0.0                 !
 ! D22   D(3,6,12,13)         -175.6321         -DE/DX =    0.0                 !
 ! D23   D(4,6,12,13)         -145.1045         -DE/DX =    0.0                 !
 ! D24   D(10,6,12,13)           2.2756         -DE/DX =    0.0                 !
 --------------------------------------------------------------------------------
 GradGradGradGradGradGradGradGradGradGradGradGradGradGradGradGradGradGrad

 Leave Link  103 at Tue Apr 12 17:11:18 2016, MaxMem=    33554432 cpu:         0.0
 (Enter /usr/local/gau/g09/l9999.exe)

 Test job not archived.
 1\1\GINC-KALI\Freq\RB3LYP\6-31G\C3H7N1O2\ROOT\12-Apr-2016\0\\#P Geom=A
 llCheck Guess=TCheck SCRF=Check Test GenChk RB3LYP/6-31G Freq\\Ala-S-o
 pt-freq-tsb1-6-31g\\0,1\N,-1.2183445214,-1.2881609491,-0.1946867209\H,
 -0.6211201645,-2.087117359,0.0290227305\C,-0.3366457445,0.0477975905,-
 0.1980491174\H,-0.9513050087,-0.6763679721,-1.1805715343\C,-1.01488437
 5,1.2570583137,0.3708383681\C,1.0147614965,-0.3237734792,0.051931559\H
 ,-1.2704735988,1.1416193819,1.4383700113\H,-0.3334453926,2.1080935852,
 0.2853628646\H,-1.933534233,1.5165201888,-0.169493334\O,1.4472180443,-
 1.5078314015,0.0953621347\H,-2.1090133743,-1.2244514062,0.2882053871\O
 ,1.8773393102,0.755939099,0.2069831817\H,2.7899957218,0.411610528,0.30
 40976697\\Version=ES64L-G09RevD.01\State=1-A\HF=-323.5358615\RMSD=3.58
 8e-09\RMSF=7.062e-06\ZeroPoint=0.1023333\Thermal=0.1091544\Dipole=-1.1
 312288,0.0593439,0.2042647\DipoleDeriv=-0.6624747,-0.3518972,-0.230713
 ,-0.6308115,-0.8491818,-0.3011348,0.3903613,0.2287277,-0.2858045,0.258
 3806,0.0683265,0.0082856,-0.0384388,0.204305,0.0277908,0.1101654,0.102
 454,0.2928718,-0.8013276,0.1009243,-0.1685458,0.2078747,0.0864837,0.08
 37445,-0.9203973,-0.141513,-0.5075099,0.6109149,0.3592688,0.1568092,0.
 7945084,0.6237196,0.2061536,-0.135959,-0.1190973,0.208989,0.1390061,-0
 .1649199,-0.0410171,-0.1819871,0.0523247,0.0258283,0.0494602,-0.051976
 7,0.2954274,1.9386893,0.0539419,0.2988462,-0.032211,1.2509078,-0.08089
 36,0.3119404,-0.0436471,0.3668985,-0.0034333,0.0835835,0.0887307,0.028
 9043,-0.0062454,0.0419753,0.1391558,-0.0653058,-0.2015469,0.059962,-0.
 078824,0.0141566,-0.0670966,-0.0074815,0.0045146,0.0186068,-0.000864,0
 .0962379,-0.1132711,0.1354197,-0.0666348,0.033619,0.043812,-0.0149937,
 -0.0890923,0.0225838,-0.00991,-0.8968067,0.2140501,-0.0488924,0.395575
 1,-1.0641844,0.0883932,-0.0237148,0.0385677,-0.423946,0.1395863,0.0043
 308,0.0757393,-0.0270874,0.1934781,0.0024222,0.2277553,0.0979967,0.271
 5031,-0.9131855,-0.4966874,-0.0727203,-0.6554639,-0.7710993,-0.0959705
 ,-0.0784644,-0.0628693,-0.4997742,0.2439596,0.072483,-0.0140441,0.1726
 146,0.2431616,0.0121702,0.0001828,-0.0050569,0.3965639\Polar=61.271707
 1,1.203554,51.3673952,3.3124514,2.1753994,29.9751975\PG=C01 [X(C3H7N1O
 2)]\NImag=1\\0.67022625,-0.18011004,0.45310277,-0.13655735,-0.06297822
 ,0.24871570,-0.18093044,0.16194809,-0.02151994,0.17235665,0.16714146,-
 0.27044627,0.06293075,-0.16940811,0.29656318,-0.04608453,0.08481564,-0
 .06301943,0.03771179,-0.07004030,0.05445373,-0.10076887,-0.06708230,0.
 08341267,0.00400452,0.00881806,0.01547459,0.54824819,-0.02194622,-0.10
 634126,0.05846511,-0.01188994,-0.02416998,-0.00337539,-0.14158389,0.41
 676845,-0.02753731,-0.07535626,0.04517609,-0.00473649,0.00537503,0.002
 07175,-0.03505124,0.07278483,0.15410053,-0.01772385,0.04805696,-0.0391
 6472,0.00707111,-0.00209054,-0.01628832,0.02072129,0.02822332,0.020029
 76,0.01579156,0.03506477,0.01650507,-0.03982067,0.00564496,-0.00186888
 ,0.01087696,0.06963264,0.03130297,0.04615604,-0.07151049,-0.03814926,0
 .02635942,0.05796240,-0.10547422,-0.00189313,-0.00217485,0.00346544,-0
 .05977013,-0.06179272,-0.08517147,0.02637358,0.00467051,0.18593932,0.0
 0604928,-0.02527506,-0.01042866,-0.00359875,-0.00264608,-0.00183877,-0
 .11600853,0.06438023,0.02738178,-0.00189407,-0.00339181,0.00363255,0.5
 6777107,0.01090957,-0.02404027,-0.01477887,-0.00307480,-0.00218283,-0.
 00304887,0.05283227,-0.15892814,-0.03819001,-0.00559867,-0.00900421,0.
 00360194,0.02887267,0.51738692,-0.00751127,0.01168589,-0.00039560,0.00
 196859,0.00308065,-0.00195107,0.03753564,-0.06625038,-0.08092210,0.009
 24894,-0.01086488,-0.00384530,0.01728938,-0.02482740,0.51906641,-0.017
 00336,0.02082622,-0.03507051,0.00761511,0.00038099,-0.00284802,-0.2765
 1200,0.05778979,0.02431771,-0.02879794,-0.03933979,0.00784488,-0.01085
 371,0.01328854,-0.01076616,0.71529922,-0.04305498,-0.02565054,0.007623
 48,-0.02017528,-0.00509200,0.00151453,0.05801071,-0.09046775,-0.020565
 12,0.01041347,0.01534702,-0.00133482,0.02713111,-0.00563112,0.01183586
 ,-0.11355880,0.76186598,0.01408935,-0.00526472,-0.00428520,0.00127572,
 -0.00024253,0.00600375,-0.03756746,0.00274212,-0.06659395,-0.01766670,
 0.00178309,-0.00031343,0.01378264,0.00023216,-0.00437053,0.05942253,0.
 00354695,0.20186873,0.00203417,0.00175895,-0.00313373,0.00004966,0.000
 02835,-0.00006792,-0.00671316,0.00246985,0.01809766,-0.00202206,-0.001
 86272,0.00035276,-0.06206173,-0.00760357,0.04840080,0.00394557,-0.0005
 7430,0.00329275,0.06410706,-0.00074992,0.00384469,0.00304972,0.0006380
 3,0.00023597,-0.00007636,0.01200640,-0.00516863,-0.03165516,0.00377717
 ,0.00074342,-0.00234306,-0.00712524,-0.05271531,0.02855389,-0.00428092
 ,0.00123184,-0.00274379,0.00318288,0.05666290,-0.00276750,-0.00145741,
 0.00311830,0.00011358,-0.00002141,-0.00000781,0.00955616,-0.00672874,-
 0.01169125,0.00301216,0.00247851,-0.00025723,0.04715240,0.03402638,-0.
 27100653,-0.00515193,0.00089106,-0.00104195,-0.05810506,-0.03038248,0.
 30186418,-0.00076730,0.00471170,0.00165899,0.00071763,0.00072290,0.000
 26163,0.00873820,0.01081145,-0.00130066,0.00061214,0.00084668,-0.00066
 582,-0.15385982,-0.13394266,0.01414420,0.00108763,0.00070465,-0.000305
 65,-0.00399222,-0.00455324,-0.00044741,0.16690864,0.00363242,-0.003242
 21,-0.00291680,-0.00120156,-0.00065349,-0.00082310,-0.01655982,-0.0221
 6893,0.00264200,-0.00133346,-0.00174256,0.00123596,-0.13056796,-0.2098
 8386,0.01666463,-0.00248880,-0.00200488,0.00031421,-0.00269923,-0.0029
 1284,-0.00019526,0.14381557,0.23193448,0.00161492,-0.00271294,-0.00060
 993,-0.00065407,-0.00042165,-0.00026113,-0.00808248,-0.00933196,-0.000
 12976,-0.00081218,-0.00062853,0.00105178,0.01427342,0.01732704,-0.0488
 3905,0.00004928,0.00017108,0.00128005,0.02140539,0.02637595,-0.0031565
 0,-0.01635159,-0.01665337,0.05131127,0.00082096,0.00220826,-0.00050323
 ,-0.00019529,0.00020338,-0.00064440,-0.01214326,0.00260030,-0.00176211
 ,-0.00088073,-0.00196979,0.00047673,-0.22570693,0.04597307,-0.10719828
 ,0.00125438,0.00167272,-0.00067605,0.00607808,-0.00223108,0.00438537,-
 0.01747711,0.00608007,-0.01159411,0.24905990,-0.00157724,0.00003452,0.
 00287087,0.00012026,-0.00012655,0.00041104,0.02623092,-0.01008010,0.00
 702902,0.00242862,0.00324235,-0.00131713,0.04594352,-0.05979757,0.0297
 7847,-0.00073492,-0.00454151,-0.00016872,0.00440802,-0.00111981,0.0038
 2243,-0.02247656,0.00690939,-0.01435548,-0.05568842,0.06654943,-0.0004
 1326,0.00072722,-0.00022323,0.00011083,0.00011911,-0.00012936,0.015507
 06,-0.00426676,0.00800494,0.00027312,-0.00016428,0.00081634,-0.1092727
 1,0.02877126,-0.11651484,0.00023370,-0.00309943,0.00026304,-0.02821881
 ,0.00666776,-0.01780414,0.00281131,-0.00013132,0.00079757,0.11785589,-
 0.02875849,0.12518072,-0.00714142,-0.00044797,0.00565093,0.00138770,0.
 00312578,0.00140302,-0.02314417,0.04269627,-0.01338556,0.00196516,0.00
 797602,-0.00126526,-0.00330255,-0.00213536,-0.00238470,-0.16942098,0.1
 5241460,-0.01039589,-0.00082126,0.00055561,0.00119988,0.00005766,0.000
 39164,-0.00000163,-0.00095793,0.00160096,0.00102900,0.17057879,0.00033
 082,0.01885508,-0.01683928,0.01312936,0.00177059,-0.00140151,0.0396013
 8,-0.02974536,0.03425991,-0.01384551,-0.02247777,0.00343632,-0.0004701
 4,0.00510053,-0.00205981,0.14342757,-0.48290986,0.00798738,0.00136106,
 -0.00171035,-0.00215922,-0.00059989,0.00078508,0.00009915,0.00063343,-
 0.00030845,-0.00031832,-0.17975926,0.58578666,-0.00199205,-0.00027053,
 0.00016604,-0.00038469,-0.00027062,-0.00523208,-0.00895820,0.01110720,
 0.02038092,0.00218112,-0.00060807,0.00039732,-0.00147317,-0.00275471,0
 .00346647,-0.00817336,0.01323699,-0.07310446,-0.00107949,0.00129963,0.
 00039203,0.00016291,-0.00027109,-0.00028540,0.00007567,-0.00017044,-0.
 00010413,0.01727398,-0.01672261,0.03708444,-0.34578629,0.03745653,0.15
 435107,-0.00802046,-0.00761231,0.01186698,-0.01066978,0.00426881,0.009
 44153,0.00197615,-0.00574472,-0.00267231,0.00253273,0.00214493,-0.0013
 8202,-0.00127959,0.00063706,0.00271009,0.00018659,-0.00151828,-0.00031
 401,-0.00016385,0.00083981,0.00015154,0.00043952,-0.00003825,-0.000023
 72,-0.00118761,-0.00135292,-0.00054530,0.36184763,0.03264000,-0.061780
 40,-0.00066287,0.02058003,0.00560789,-0.01933088,-0.02718472,0.0011672
 4,0.01034665,-0.00233408,0.00107106,-0.00212031,0.00087533,0.00318146,
 0.00032867,0.00366253,-0.00804645,0.00470466,0.00050128,-0.00018342,-0
 .00154303,0.00019488,0.00061422,0.00012117,0.00007655,-0.00129435,0.00
 033223,0.00189965,0.00354692,0.00063068,-0.02920007,0.05621030,0.18409
 910,-0.00896217,-0.12733737,-0.01152242,0.00134949,0.00478527,-0.00140
 178,0.01348235,0.00581198,0.01114204,-0.01367527,0.00264353,0.00019464
 ,-0.00055474,0.00543681,-0.00796089,0.00045591,-0.00391045,-0.00014549
 ,0.00117005,-0.00059344,0.00002858,-0.00013181,-0.00051456,-0.00048821
 ,0.00065493,-0.00042915,-0.00040849,-0.00387800,-0.00009039,-0.1732310
 7,0.00900041,0.11390325,-0.00962763,-0.00508154,0.00272577,-0.00000534
 ,0.00127935,0.00110231,-0.03875822,-0.03327518,-0.01855906,0.00428973,
 0.00603436,0.00096557,0.00058394,-0.00166697,0.00089134,-0.17998912,-0
 .08756125,-0.02138668,-0.00079228,0.00045301,0.00153094,-0.00190487,0.
 00010163,0.00004303,-0.00038831,-0.00027907,0.00013093,0.02504634,-0.0
 0540942,0.00130510,-0.00000630,-0.00171508,0.00022796,0.59605637,-0.00
 118345,-0.00086361,0.00374944,0.00432906,0.00018470,0.00049142,-0.0146
 2967,0.00317544,-0.01332134,0.00414200,0.00568822,-0.00012243,0.002012
 27,-0.00303361,0.00183886,-0.02962201,-0.16564354,-0.00677589,-0.00105
 928,0.00102121,0.00137808,-0.00002311,0.00166887,-0.00002458,0.0001996
 2,0.00038211,0.00016994,-0.03486529,-0.07901534,-0.00599083,0.00016770
 ,0.00017800,0.00138815,-0.04133935,0.33304551,-0.00245866,0.00065283,0
 .00345646,-0.00046373,0.00039022,-0.00002666,-0.01048124,-0.00571734,0
 .00519704,0.00156666,0.00084702,0.00036973,-0.00038163,-0.00019521,0.0
 0015359,-0.01484747,-0.01660499,-0.05634284,-0.00102986,0.00010095,0.0
 0049922,-0.00013844,0.00015508,-0.00069928,0.00011353,0.00025300,0.000
 18771,-0.00009715,-0.00296398,0.02160321,-0.00012146,-0.00128245,0.000
 18428,0.07112115,0.00781056,0.04115082,0.00061849,0.00103020,-0.001421
 30,-0.00045209,0.00005675,-0.00004836,0.00300579,-0.00454479,0.0030639
 9,-0.00110849,-0.00138013,0.00026116,0.00034907,0.00000098,-0.00023645
 ,-0.04534522,0.01394029,-0.00657466,0.00000158,-0.00015440,-0.00016458
 ,0.00004328,-0.00001030,-0.00004153,0.00009673,0.00006218,-0.00002333,
 0.00694028,0.00295352,0.00160749,0.00013127,0.00000369,-0.00053396,-0.
 39450430,0.11187152,-0.04278170,0.43022360,-0.00109719,0.00002243,-0.0
 0069265,-0.00064010,0.00017765,-0.00001318,-0.00009197,-0.00534395,0.0
 0049439,-0.00032879,-0.00065743,0.00029821,0.00026117,-0.00045198,0.00
 023553,-0.04935039,0.01154279,-0.00611493,0.00008870,0.00007033,-0.000
 10891,-0.00021238,0.00069673,0.00003413,0.00024188,0.00015052,-0.00004
 892,0.00654736,0.00032229,0.00078441,-0.00004829,-0.00027247,-0.000299
 29,0.16845950,-0.09678797,0.01655430,-0.12382951,0.09053107,-0.0008408
 6,0.00115827,0.00071239,-0.00000603,-0.00007389,-0.00015240,-0.0001735
 9,-0.00111832,0.00376527,0.00010455,-0.00105042,0.00037819,-0.00031186
 ,0.00039102,-0.00027827,-0.00704976,0.00232850,0.00054724,0.00023100,-
 0.00001709,-0.00031488,0.00014195,0.00011086,0.00005494,-0.00004079,-0
 .00004950,-0.00004547,0.00138186,0.00055997,-0.00467398,-0.00023133,-0
 .00052495,0.00011025,-0.04009837,0.00940864,-0.01573327,0.04689323,-0.
 01112309,0.01563000\\-0.00000274,0.00000544,-0.00000799,-0.00000075,-0
 .00000221,-0.00001013,0.00000801,-0.00001833,-0.00000954,-0.00000577,0
 .00000327,0.00000036,-0.00000846,0.00001684,0.00001216,0.00001528,-0.0
 0000691,0.00000832,0.00000010,-0.00000526,0.00000403,0.00000015,0.0000
 0002,0.00000818,-0.00000027,0.00000078,0.00000549,-0.00000498,0.000008
 13,-0.00000825,0.00000060,-0.00000253,-0.00000275,-0.00000077,0.000001
 98,-0.00000354,-0.00000041,-0.00000123,0.00000364\\\@


 MY GROUP MEETINGS AREN'T VERY STRUCTURED.
     -- PROF. M. S. GORDON, OCT. 5, 1984
 Job cpu time:       0 days  0 hours  1 minutes 24.4 seconds.
 File lengths (MBytes):  RWF=     13 Int=      0 D2E=      0 Chk=      2 Scr=      1
 Normal termination of Gaussian 09 at Tue Apr 12 17:11:18 2016.
