 Entering Link 1 = c:\G09w04\l1.exe PID=       272.
  
 Copyright (c) 1988,1990,1992,1993,1995,1998,2003,2009,2010,
            Gaussian, Inc.  All Rights Reserved.
  
 This is part of the Gaussian(R) 09 program.  It is based on
 the Gaussian(R) 03 system (copyright 2003, Gaussian, Inc.),
 the Gaussian(R) 98 system (copyright 1998, Gaussian, Inc.),
 the Gaussian(R) 94 system (copyright 1995, Gaussian, Inc.),
 the Gaussian 92(TM) system (copyright 1992, Gaussian, Inc.),
 the Gaussian 90(TM) system (copyright 1990, Gaussian, Inc.),
 the Gaussian 88(TM) system (copyright 1988, Gaussian, Inc.),
 the Gaussian 86(TM) system (copyright 1986, Carnegie Mellon
 University), and the Gaussian 82(TM) system (copyright 1983,
 Carnegie Mellon University). Gaussian is a federally registered
 trademark of Gaussian, Inc.
  
 This software contains proprietary and confidential information,
 including trade secrets, belonging to Gaussian, Inc.
  
 This software is provided under written license and may be
 used, copied, transmitted, or stored only in accord with that
 written license.
  
 The following legend is applicable only to US Government
 contracts under FAR:
  
                    RESTRICTED RIGHTS LEGEND
  
 Use, reproduction and disclosure by the US Government is
 subject to restrictions as set forth in subparagraphs (a)
 and (c) of the Commercial Computer Software - Restricted
 Rights clause in FAR 52.227-19.
  
 Gaussian, Inc.
 340 Quinnipiac St., Bldg. 40, Wallingford CT 06492
  
  
 ---------------------------------------------------------------
 Warning -- This program may not be used in any manner that
 competes with the business of Gaussian, Inc. or will provide
 assistance to any competitor of Gaussian, Inc.  The licensee
 of this program is prohibited from giving any competitor of
 Gaussian, Inc. access to this program.  By using this program,
 the user acknowledges that Gaussian, Inc. is engaged in the
 business of creating and licensing software in the field of
 computational chemistry and represents and warrants to the
 licensee that it is not a competitor of Gaussian, Inc. and that
 it will not use this program in any manner prohibited above.
 ---------------------------------------------------------------
  

 Cite this work as:
 Gaussian 09, Revision B.01,
 M. J. Frisch, G. W. Trucks, H. B. Schlegel, G. E. Scuseria, 
 M. A. Robb, J. R. Cheeseman, G. Scalmani, V. Barone, B. Mennucci, 
 G. A. Petersson, H. Nakatsuji, M. Caricato, X. Li, H. P. Hratchian, 
 A. F. Izmaylov, J. Bloino, G. Zheng, J. L. Sonnenberg, M. Hada, 
 M. Ehara, K. Toyota, R. Fukuda, J. Hasegawa, M. Ishida, T. Nakajima, 
 Y. Honda, O. Kitao, H. Nakai, T. Vreven, J. A. Montgomery, Jr., 
 J. E. Peralta, F. Ogliaro, M. Bearpark, J. J. Heyd, E. Brothers, 
 K. N. Kudin, V. N. Staroverov, T. Keith, R. Kobayashi, J. Normand, 
 K. Raghavachari, A. Rendell, J. C. Burant, S. S. Iyengar, J. Tomasi, 
 M. Cossi, N. Rega, J. M. Millam, M. Klene, J. E. Knox, J. B. Cross, 
 V. Bakken, C. Adamo, J. Jaramillo, R. Gomperts, R. E. Stratmann, 
 O. Yazyev, A. J. Austin, R. Cammi, C. Pomelli, J. W. Ochterski, 
 R. L. Martin, K. Morokuma, V. G. Zakrzewski, G. A. Voth, 
 P. Salvador, J. J. Dannenberg, S. Dapprich, A. D. Daniels, 
 O. Farkas, J. B. Foresman, J. V. Ortiz, J. Cioslowski, 
 and D. J. Fox, Gaussian, Inc., Wallingford CT, 2010.
 
 ******************************************
 Gaussian 09:  IA32W-G09RevB.01 12-Aug-2010
                07-Apr-2016 
 ******************************************
 %chk=E:\YangJ\Amiano\ser\ts1\s\Ser-S-ts1-6-311++gdp-cpcm.chk
 ----------------------------------------------------------------------
 #p opt=(calcfc,ts) freq rb3lyp/6-311++g(d,p) scrf=(cpcm,solvent=water)
  iop(1/11=1)
 ----------------------------------------------------------------------
 1/5=1,10=4,11=1,14=-1,18=20,26=3,38=1/1,3;
 2/9=110,12=2,17=6,18=5,40=1/2;
 3/5=4,6=6,7=1111,11=2,16=1,25=1,30=1,70=2101,71=2,72=1,74=-5,116=1/1,2,3;
 4//1;
 5/5=2,38=5,53=1/2;
 8/6=4,10=90,11=11/1;
 11/6=1,8=1,9=11,15=111,16=1/1,2,10;
 10/6=1,7=6,13=1/2;
 6/7=2,8=2,9=2,10=2,28=1/1;
 7/10=1,18=20,25=1/1,2,3,16;
 1/5=1,10=4,11=1,14=-1,18=20/3(2);
 2/9=110/2;
 99//99;
 2/9=110/2;
 3/5=4,6=6,7=1111,11=2,16=1,25=1,30=1,70=2105,71=1,72=1,74=-5,116=1/1,2,3;
 4/5=5,16=3/1;
 5/5=2,38=5,53=1/2;
 7//1,2,3,16;
 1/5=1,11=1,14=-1,18=20/3(-5);
 2/9=110/2;
 6/7=2,8=2,9=2,10=2,19=2,28=1/1;
 99/9=1/99;
 Leave Link    1 at Thu Apr 07 11:55:25 2016, MaxMem=          0 cpu:       0.0
 (Enter c:\G09w04\l101.exe)
 -----------------------------
 Ser-S-opt-freq-ts1-6-311++gdp
 -----------------------------
 Symbolic Z-matrix:
 Charge =  0 Multiplicity = 1
 N                     0.11246   2.01036   0.00222 
 H                    -0.15735   2.07549   0.9789 
 C                     0.2926    0.61681  -0.4076 
 H                     0.39719   0.58253  -1.49314 
 C                     1.5635    0.05587   0.2275 
 C                    -0.90399  -0.23115  -0.038 
 H                     2.39923   0.70089  -0.06352 
 H                     1.46232   0.0749    1.31936 
 O                     1.72911  -1.27412  -0.25376 
 O                    -1.23604  -0.52462   1.16053 
 H                     2.36305  -1.73781   0.30006 
 H                    -0.59939   2.47146  -0.553 
 O                    -1.77096  -0.68565  -0.85112 
 H                    -2.14178  -1.01399   0.35919 
 
 NAtoms=     14 NQM=     14 NQMF=      0 NMic=      0 NMicF=      0 NTot=     14.
 Add atom     14 valence  3 ND=      0 dihedral      13     10     14      6
                    Isotopes and Nuclear Properties:
 (Nuclear quadrupole moments (NQMom) in fm**2, nuclear magnetic moments (NMagM)
  in nuclear magnetons)

  Atom         1           2           3           4           5           6           7           8           9          10
 IAtWgt=          14           1          12           1          12          12           1           1          16          16
 AtmWgt=  14.0030740   1.0078250  12.0000000   1.0078250  12.0000000  12.0000000   1.0078250   1.0078250  15.9949146  15.9949146
 NucSpn=           2           1           0           1           0           0           1           1           0           0
 AtZEff=   0.0000000   0.0000000   0.0000000   0.0000000   0.0000000   0.0000000   0.0000000   0.0000000   0.0000000   0.0000000
 NQMom=    2.0440000   0.0000000   0.0000000   0.0000000   0.0000000   0.0000000   0.0000000   0.0000000   0.0000000   0.0000000
 NMagM=    0.4037610   2.7928460   0.0000000   2.7928460   0.0000000   0.0000000   2.7928460   2.7928460   0.0000000   0.0000000

  Atom        11          12          13          14
 IAtWgt=           1           1          16           1
 AtmWgt=   1.0078250   1.0078250  15.9949146   1.0078250
 NucSpn=           1           1           0           1
 AtZEff=   0.0000000   0.0000000   0.0000000   0.0000000
 NQMom=    0.0000000   0.0000000   0.0000000   0.0000000
 NMagM=    2.7928460   2.7928460   0.0000000   2.7928460
 Leave Link  101 at Thu Apr 07 11:55:25 2016, MaxMem=   33554432 cpu:       0.0
 (Enter c:\G09w04\l103.exe)

 GradGradGradGradGradGradGradGradGradGradGradGradGradGradGradGradGradGrad
 Berny optimization.
 Initialization pass.
                           ----------------------------
                           !    Initial Parameters    !
                           ! (Angstroms and Degrees)  !
 --------------------------                            --------------------------
 ! Name  Definition              Value          Derivative Info.                !
 --------------------------------------------------------------------------------
 ! R1    R(1,2)                  1.0154         calculate D2E/DX2 analytically  !
 ! R2    R(1,3)                  1.4637         calculate D2E/DX2 analytically  !
 ! R3    R(1,12)                 1.0137         calculate D2E/DX2 analytically  !
 ! R4    R(3,4)                  1.0911         calculate D2E/DX2 analytically  !
 ! R5    R(3,5)                  1.5275         calculate D2E/DX2 analytically  !
 ! R6    R(3,6)                  1.5124         calculate D2E/DX2 analytically  !
 ! R7    R(5,7)                  1.0951         calculate D2E/DX2 analytically  !
 ! R8    R(5,8)                  1.0967         calculate D2E/DX2 analytically  !
 ! R9    R(5,9)                  1.4241         calculate D2E/DX2 analytically  !
 ! R10   R(6,10)                 1.2778         calculate D2E/DX2 analytically  !
 ! R11   R(6,13)                 1.2725         calculate D2E/DX2 analytically  !
 ! R12   R(6,14)                 1.5175         calculate D2E/DX2 analytically  !
 ! R13   R(9,11)                 0.961          calculate D2E/DX2 analytically  !
 ! R14   R(10,14)                1.3046         calculate D2E/DX2 analytically  !
 ! R15   R(13,14)                1.3077         calculate D2E/DX2 analytically  !
 ! A1    A(2,1,3)              111.2914         calculate D2E/DX2 analytically  !
 ! A2    A(2,1,12)             108.1239         calculate D2E/DX2 analytically  !
 ! A3    A(3,1,12)             111.4774         calculate D2E/DX2 analytically  !
 ! A4    A(1,3,4)              108.68           calculate D2E/DX2 analytically  !
 ! A5    A(1,3,5)              109.61           calculate D2E/DX2 analytically  !
 ! A6    A(1,3,6)              111.5922         calculate D2E/DX2 analytically  !
 ! A7    A(4,3,5)              108.8061         calculate D2E/DX2 analytically  !
 ! A8    A(4,3,6)              107.539          calculate D2E/DX2 analytically  !
 ! A9    A(5,3,6)              110.5342         calculate D2E/DX2 analytically  !
 ! A10   A(3,5,7)              107.9492         calculate D2E/DX2 analytically  !
 ! A11   A(3,5,8)              109.3186         calculate D2E/DX2 analytically  !
 ! A12   A(3,5,9)              107.411          calculate D2E/DX2 analytically  !
 ! A13   A(7,5,8)              108.952          calculate D2E/DX2 analytically  !
 ! A14   A(7,5,9)              111.8107         calculate D2E/DX2 analytically  !
 ! A15   A(8,5,9)              111.3085         calculate D2E/DX2 analytically  !
 ! A16   A(3,6,10)             124.3022         calculate D2E/DX2 analytically  !
 ! A17   A(3,6,13)             125.6694         calculate D2E/DX2 analytically  !
 ! A18   A(10,6,13)            109.8925         calculate D2E/DX2 analytically  !
 ! A19   A(5,9,11)             109.4254         calculate D2E/DX2 analytically  !
 ! A20   A(10,14,13)           106.1071         calculate D2E/DX2 analytically  !
 ! A21   L(3,6,14,1,-1)        176.9182         calculate D2E/DX2 analytically  !
 ! A22   L(3,6,14,1,-2)        179.6031         calculate D2E/DX2 analytically  !
 ! D1    D(2,1,3,4)            169.6119         calculate D2E/DX2 analytically  !
 ! D2    D(2,1,3,5)            -71.5916         calculate D2E/DX2 analytically  !
 ! D3    D(2,1,3,6)             51.1922         calculate D2E/DX2 analytically  !
 ! D4    D(12,1,3,4)            48.8076         calculate D2E/DX2 analytically  !
 ! D5    D(12,1,3,5)           167.6041         calculate D2E/DX2 analytically  !
 ! D6    D(12,1,3,6)           -69.6121         calculate D2E/DX2 analytically  !
 ! D7    D(1,3,5,7)            -56.4034         calculate D2E/DX2 analytically  !
 ! D8    D(1,3,5,8)             61.9769         calculate D2E/DX2 analytically  !
 ! D9    D(1,3,5,9)           -177.1263         calculate D2E/DX2 analytically  !
 ! D10   D(4,3,5,7)             62.3152         calculate D2E/DX2 analytically  !
 ! D11   D(4,3,5,8)           -179.3046         calculate D2E/DX2 analytically  !
 ! D12   D(4,3,5,9)            -58.4077         calculate D2E/DX2 analytically  !
 ! D13   D(6,3,5,7)           -179.8123         calculate D2E/DX2 analytically  !
 ! D14   D(6,3,5,8)            -61.4321         calculate D2E/DX2 analytically  !
 ! D15   D(6,3,5,9)             59.4648         calculate D2E/DX2 analytically  !
 ! D16   D(1,3,6,10)           -68.354          calculate D2E/DX2 analytically  !
 ! D17   D(1,3,6,13)           106.9741         calculate D2E/DX2 analytically  !
 ! D18   D(4,3,6,10)           172.5464         calculate D2E/DX2 analytically  !
 ! D19   D(4,3,6,13)           -12.1255         calculate D2E/DX2 analytically  !
 ! D20   D(5,3,6,10)            53.9001         calculate D2E/DX2 analytically  !
 ! D21   D(5,3,6,13)          -130.7718         calculate D2E/DX2 analytically  !
 ! D22   D(3,5,9,11)          -164.2564         calculate D2E/DX2 analytically  !
 ! D23   D(7,5,9,11)            77.4904         calculate D2E/DX2 analytically  !
 ! D24   D(8,5,9,11)           -44.622          calculate D2E/DX2 analytically  !
 ! D25   D(13,10,14,6)           0.4041         calculate D2E/DX2 analytically  !
 --------------------------------------------------------------------------------
 Trust Radius=3.00D-01 FncErr=1.00D-07 GrdErr=1.00D-06
 Number of steps in this run=     72 maximum allowed number of steps=    100.
 Search for a saddle point of order  1.
 GradGradGradGradGradGradGradGradGradGradGradGradGradGradGradGradGradGrad

 Leave Link  103 at Thu Apr 07 11:55:25 2016, MaxMem=   33554432 cpu:       0.0
 (Enter c:\G09w04\l202.exe)
                          Input orientation:                          
 ---------------------------------------------------------------------
 Center     Atomic      Atomic             Coordinates (Angstroms)
 Number     Number       Type             X           Y           Z
 ---------------------------------------------------------------------
      1          7           0        0.112458    2.010356    0.002221
      2          1           0       -0.157348    2.075491    0.978901
      3          6           0        0.292597    0.616813   -0.407604
      4          1           0        0.397194    0.582528   -1.493141
      5          6           0        1.563496    0.055871    0.227504
      6          6           0       -0.903990   -0.231149   -0.038003
      7          1           0        2.399228    0.700885   -0.063521
      8          1           0        1.462317    0.074895    1.319357
      9          8           0        1.729110   -1.274122   -0.253757
     10          8           0       -1.236041   -0.524619    1.160534
     11          1           0        2.363047   -1.737805    0.300056
     12          1           0       -0.599386    2.471457   -0.553000
     13          8           0       -1.770956   -0.685654   -0.851123
     14          1           0       -2.141783   -1.013990    0.359192
 ---------------------------------------------------------------------
                    Distance matrix (angstroms):
                    1          2          3          4          5
     1  N    0.000000
     2  H    1.015353   0.000000
     3  C    1.463683   2.062180   0.000000
     4  H    2.087073   2.940654   1.091103   0.000000
     5  C    2.444642   2.757674   1.527482   2.144352   0.000000
     6  C    2.461530   2.629098   1.512437   2.114847   2.498272
     7  H    2.635973   3.084196   2.136201   2.462917   1.095074
     8  H    2.702402   2.596461   2.155067   3.049971   1.096696
     9  O    3.669725   4.037088   2.379679   2.599466   1.424051
    10  O    3.096165   2.820841   2.469546   3.306845   3.007478
    11  H    4.382073   4.621087   3.214307   3.530450   1.965151
    12  H    1.013709   1.642835   2.063123   2.333472   3.335011
    13  O    3.397634   3.684649   2.480198   2.592556   3.582159
    14  H    3.788892   3.723831   3.028812   3.525112   3.858891
                    6          7          8          9         10
     6  C    0.000000
     7  H    3.432286   0.000000
     8  H    2.745086   1.783821   0.000000
     9  O    2.840345   2.094254   2.089429   0.000000
    10  O    1.277839   4.026829   2.768714   3.369584   0.000000
    11  H    3.613562   2.465909   2.266312   0.961034   3.894313
    12  H    2.768047   3.516561   3.674214   4.420498   3.509701
    13  O    1.272544   4.464666   3.967804   3.599111   2.087781
    14  H    1.517477   4.872398   3.885502   3.927746   1.304608
                   11         12         13         14
    11  H    0.000000
    12  H    5.217432   0.000000
    13  O    4.418395   3.380651   0.000000
    14  H    4.562992   3.919110   1.307738   0.000000
 Stoichiometry    C3H7NO3
 Framework group  C1[X(C3H7NO3)]
 Deg. of freedom    36
 Full point group                 C1      NOp   1
 Largest Abelian subgroup         C1      NOp   1
 Largest concise Abelian subgroup C1      NOp   1
                         Standard orientation:                         
 ---------------------------------------------------------------------
 Center     Atomic      Atomic             Coordinates (Angstroms)
 Number     Number       Type             X           Y           Z
 ---------------------------------------------------------------------
      1          7           0        0.112458    2.010356    0.002221
      2          1           0       -0.157348    2.075491    0.978901
      3          6           0        0.292597    0.616813   -0.407604
      4          1           0        0.397194    0.582528   -1.493141
      5          6           0        1.563496    0.055871    0.227504
      6          6           0       -0.903990   -0.231149   -0.038003
      7          1           0        2.399228    0.700885   -0.063521
      8          1           0        1.462317    0.074895    1.319357
      9          8           0        1.729110   -1.274122   -0.253757
     10          8           0       -1.236041   -0.524619    1.160534
     11          1           0        2.363047   -1.737805    0.300056
     12          1           0       -0.599386    2.471457   -0.553000
     13          8           0       -1.770956   -0.685654   -0.851123
     14          1           0       -2.141783   -1.013990    0.359192
 ---------------------------------------------------------------------
 Rotational constants (GHZ):      3.2130869      2.2591695      1.7046401
 Leave Link  202 at Thu Apr 07 11:55:25 2016, MaxMem=   33554432 cpu:       0.0
 (Enter c:\G09w04\l301.exe)
 Standard basis: 6-311++G(d,p) (5D, 7F)
 Ernie: Thresh=  0.10000D-02 Tol=  0.10000D-05 Strict=F.
 There are   203 symmetry adapted basis functions of A   symmetry.
 Integral buffers will be    262144 words long.
 Raffenetti 2 integral format.
 Two-electron integral symmetry is turned on.
   203 basis functions,   315 primitive gaussians,   210 cartesian basis functions
    28 alpha electrons       28 beta electrons
       nuclear repulsion energy       324.7854173727 Hartrees.
 IExCor=  402 DFT=T Ex+Corr=B3LYP ExCW=0 ScaHFX=  0.200000
 ScaDFX=  0.800000  0.720000  1.000000  0.810000 ScalE2=  1.000000  1.000000
 IRadAn=      0 IRanWt=     -1 IRanGd=            0 ICorTp=0
 NAtoms=   14 NActive=   14 NUniq=   14 SFac= 1.00D+00 NAtFMM=   50 NAOKFM=F Big=F
 ------------------------------------------------------------------------------
 Polarizable Continuum Model (PCM)
 =================================
 Model                : C-PCM.
 Atomic radii         : UFF (Universal Force Field).
 Polarization charges : Total charges.
 Charge compensation  : None.
 Solution method      : Matrix inversion.
 Cavity type          : Scaled VdW (van der Waals Surface) (Alpha=1.100).
 Cavity algorithm     : GePol (No added spheres)
                        Default sphere list used, NSphG=   14.
                        Lebedev-Laikov grids with approx.  5.0 points / Ang**2.
                        Smoothing algorithm: Karplus/York (Gamma=1.0000).
                        Polarization charges: spherical gaussians, with
                                              point-specific exponents (IZeta= 3).
                        Self-potential: point-specific (ISelfS= 7).
                        Self-field    : sphere-specific E.n sum rule (ISelfD= 2).
 1st derivatives      : Analytical E(r).r(x)/FMM algorithm (CHGder, D1EAlg=3).
                        Cavity 1st derivative terms included.
 2nd derivatives      : Analytical E(r).r(xy)/FMM algorithm (CHGder, D2EAlg=3).
                        Cavity 2nd derivative terms included.
 Solvent              : Water, Eps=  78.355300 Eps(inf)=   1.777849
 ------------------------------------------------------------------------------
 Spheres list:
 ISph  on   Nord    Re0     Alpha      Xe            Ye            Ze
    1   N      1    1.830   1.100      0.112458      2.010356      0.002221
    2   H      2    1.443   1.100     -0.157348      2.075491      0.978901
    3   C      3    1.926   1.100      0.292597      0.616813     -0.407604
    4   H      4    1.443   1.100      0.397194      0.582528     -1.493141
    5   C      5    1.926   1.100      1.563496      0.055871      0.227504
    6   C      6    1.926   1.100     -0.903990     -0.231149     -0.038003
    7   H      7    1.443   1.100      2.399228      0.700885     -0.063521
    8   H      8    1.443   1.100      1.462317      0.074895      1.319357
    9   O      9    1.750   1.100      1.729110     -1.274122     -0.253757
   10   O     10    1.750   1.100     -1.236041     -0.524619      1.160534
   11   H     11    1.443   1.100      2.363047     -1.737805      0.300056
   12   H     12    1.443   1.100     -0.599386      2.471457     -0.553000
   13   O     13    1.750   1.100     -1.770956     -0.685654     -0.851123
   14   H     14    1.443   1.100     -2.141783     -1.013990      0.359192
 ------------------------------------------------------------------------------
 GePol: Number of generator spheres                  =      14
 GePol: Total number of spheres                      =      14
 GePol: Number of exposed spheres                    =      14 (100.00%)
 GePol: Number of points                             =    1203
 GePol: Average weight of points                     =       0.13
 GePol: Minimum weight of points                     =   0.12D-10
 GePol: Maximum weight of points                     =    0.20577
 GePol: Number of points with low weight             =      77
 GePol: Fraction of low-weight points (<1% of avg)   =       6.40%
 GePol: Cavity surface area                          =    161.700 Ang**2
 GePol: Cavity volume                                =    150.329 Ang**3
 Leave Link  301 at Thu Apr 07 11:55:26 2016, MaxMem=   33554432 cpu:       1.0
 (Enter c:\G09w04\l302.exe)
 NPDir=0 NMtPBC=     1 NCelOv=     1 NCel=       1 NClECP=     1 NCelD=      1
         NCelK=      1 NCelE2=     1 NClLst=     1 CellRange=     0.0.
 One-electron integrals computed using PRISM.
 NBasis=   203 RedAO= T  NBF=   203
 NBsUse=   203 1.00D-06 NBFU=   203
 Precomputing XC quadrature grid using
 IXCGrd= 2 IRadAn=           0 IRanWt=          -1 IRanGd=           0 AccXCQ= 0.00D+00.
 NRdTot=     907 NPtTot=      115542 NUsed=      119776 NTot=      119792
 NSgBfM=   210   210   210   210   210 NAtAll=    14    14.
 Leave Link  302 at Thu Apr 07 11:55:26 2016, MaxMem=   33554432 cpu:       0.0
 (Enter c:\G09w04\l303.exe)
 DipDrv:  MaxL=1.
 Leave Link  303 at Thu Apr 07 11:55:27 2016, MaxMem=   33554432 cpu:       0.0
 (Enter c:\G09w04\l401.exe)
 Harris functional with IExCor=  402 diagonalized for initial guess.
 ExpMin= 3.60D-02 ExpMax= 8.59D+03 ExpMxC= 1.30D+03 IAcc=3 IRadAn=         0 AccDes= 0.00D+00
 HarFok:  IExCor=  402 AccDes= 0.00D+00 IRadAn=         0 IDoV= 1
 ScaDFX=  1.000000  1.000000  1.000000  1.000000
 FoFCou: FMM=F IPFlag=           0 FMFlag=      100000 FMFlg1=           0
         NFxFlg=           0 DoJE=T BraDBF=F KetDBF=T FulRan=T
         Omega=  0.000000  0.000000  1.000000  0.000000  0.000000 ICntrl=     500 IOpCl=  0
         NMat0=    1 NMatS0=    1 NMatT0=    0 NMatD0=    1 NMtDS0=    0 NMtDT0=    0
         I1Cent=           4 NGrid=           0.
 Petite list used in FoFCou.
 Harris En= -399.038853849554    
 Initial guess orbital symmetries:
       Occupied  (A) (A) (A) (A) (A) (A) (A) (A) (A) (A) (A) (A)
                 (A) (A) (A) (A) (A) (A) (A) (A) (A) (A) (A) (A)
                 (A) (A) (A) (A)
       Virtual   (A) (A) (A) (A) (A) (A) (A) (A) (A) (A) (A) (A)
                 (A) (A) (A) (A) (A) (A) (A) (A) (A) (A) (A) (A)
                 (A) (A) (A) (A) (A) (A) (A) (A) (A) (A) (A) (A)
                 (A) (A) (A) (A) (A) (A) (A) (A) (A) (A) (A) (A)
                 (A) (A) (A) (A) (A) (A) (A) (A) (A) (A) (A) (A)
                 (A) (A) (A) (A) (A) (A) (A) (A) (A) (A) (A) (A)
                 (A) (A) (A) (A) (A) (A) (A) (A) (A) (A) (A) (A)
                 (A) (A) (A) (A) (A) (A) (A) (A) (A) (A) (A) (A)
                 (A) (A) (A) (A) (A) (A) (A) (A) (A) (A) (A) (A)
                 (A) (A) (A) (A) (A) (A) (A) (A) (A) (A) (A) (A)
                 (A) (A) (A) (A) (A) (A) (A) (A) (A) (A) (A) (A)
                 (A) (A) (A) (A) (A) (A) (A) (A) (A) (A) (A) (A)
                 (A) (A) (A) (A) (A) (A) (A) (A) (A) (A) (A) (A)
                 (A) (A) (A) (A) (A) (A) (A) (A) (A) (A) (A) (A)
                 (A) (A) (A) (A) (A) (A) (A)
 The electronic state of the initial guess is 1-A.
 Leave Link  401 at Thu Apr 07 11:55:33 2016, MaxMem=   33554432 cpu:       6.0
 (Enter c:\G09w04\l502.exe)
 Closed shell SCF:
 Requested convergence on RMS density matrix=1.00D-08 within 128 cycles.
 Requested convergence on MAX density matrix=1.00D-06.
 Requested convergence on             energy=1.00D-06.
 No special actions if energy rises.
 Using DIIS extrapolation, IDIIS=  1040.
 Integral symmetry usage will be decided dynamically.
       119652 words used for storage of precomputed grid.
 IEnd=      272658 IEndB=      272658 NGot=    33554432 MDV=    33342725
 LenX=    33342725 LenY=    33298184
 Fock matrices will be formed incrementally for  20 cycles.

 Cycle   1  Pass 1  IDiag  1:
 FoFCou: FMM=F IPFlag=           0 FMFlag=      100000 FMFlg1=           0
         NFxFlg=           0 DoJE=F BraDBF=F KetDBF=F FulRan=T
         Omega=  0.000000  0.000000  1.000000  0.000000  0.000000 ICntrl=       0 IOpCl=  0
         NMat0=    1 NMatS0=    1 NMatT0=    0 NMatD0=    1 NMtDS0=    0 NMtDT0=    0
         I1Cent=           0 NGrid=           0.
 Symmetry not used in FoFCou.
 E= -398.856331466676    
 DIIS: error= 2.77D-02 at cycle   1 NSaved=   1.
 NSaved= 1 IEnMin= 1 EnMin= -398.856331466676     IErMin= 1 ErrMin= 2.77D-02
 ErrMax= 2.77D-02 EMaxC= 1.00D-01 BMatC= 2.76D-01 BMatP= 2.76D-01
 IDIUse=3 WtCom= 7.23D-01 WtEn= 2.77D-01
 Coeff-Com:  0.100D+01
 Coeff-En:   0.100D+01
 Coeff:      0.100D+01
 Gap=     0.159 Goal=   None    Shift=    0.000
 GapD=    0.159 DampG=1.000 DampE=0.500 DampFc=0.5000 IDamp=-1.
 Damping current iteration by 5.00D-01
 RMSDP=1.41D-02 MaxDP=1.58D+00              OVMax= 1.99D-01

 Cycle   2  Pass 1  IDiag  1:
 RMSU=  4.43D-03    CP:  1.17D+00
 E= -398.913111675312     Delta-E=       -0.056780208636 Rises=F Damp=T
 DIIS: error= 1.12D-02 at cycle   2 NSaved=   2.
 NSaved= 2 IEnMin= 2 EnMin= -398.913111675312     IErMin= 2 ErrMin= 1.12D-02
 ErrMax= 1.12D-02 EMaxC= 1.00D-01 BMatC= 2.59D-02 BMatP= 2.76D-01
 IDIUse=3 WtCom= 8.88D-01 WtEn= 1.12D-01
 Coeff-Com:  0.188D+00 0.812D+00
 Coeff-En:   0.333D+00 0.667D+00
 Coeff:      0.204D+00 0.796D+00
 Gap=     0.245 Goal=   None    Shift=    0.000
 RMSDP=6.62D-03 MaxDP=8.26D-01 DE=-5.68D-02 OVMax= 1.36D-01

 Cycle   3  Pass 1  IDiag  1:
 RMSU=  1.77D-03    CP:  9.66D-01  2.50D-01
 E= -399.043127556698     Delta-E=       -0.130015881386 Rises=F Damp=F
 DIIS: error= 5.74D-03 at cycle   3 NSaved=   3.
 NSaved= 3 IEnMin= 3 EnMin= -399.043127556698     IErMin= 3 ErrMin= 5.74D-03
 ErrMax= 5.74D-03 EMaxC= 1.00D-01 BMatC= 4.35D-03 BMatP= 2.59D-02
 IDIUse=3 WtCom= 9.43D-01 WtEn= 5.74D-02
 Coeff-Com:  0.280D-01 0.290D+00 0.682D+00
 Coeff-En:   0.000D+00 0.000D+00 0.100D+01
 Coeff:      0.264D-01 0.273D+00 0.700D+00
 Gap=     0.243 Goal=   None    Shift=    0.000
 RMSDP=5.96D-04 MaxDP=1.34D-02 DE=-1.30D-01 OVMax= 1.72D-02

 Cycle   4  Pass 1  IDiag  1:
 RMSU=  4.12D-04    CP:  9.68D-01  2.36D-01  9.70D-01
 E= -399.045589542067     Delta-E=       -0.002461985369 Rises=F Damp=F
 DIIS: error= 2.60D-03 at cycle   4 NSaved=   4.
 NSaved= 4 IEnMin= 4 EnMin= -399.045589542067     IErMin= 4 ErrMin= 2.60D-03
 ErrMax= 2.60D-03 EMaxC= 1.00D-01 BMatC= 1.33D-03 BMatP= 4.35D-03
 IDIUse=3 WtCom= 9.74D-01 WtEn= 2.60D-02
 Coeff-Com: -0.281D-02 0.680D-01 0.388D+00 0.547D+00
 Coeff-En:   0.000D+00 0.000D+00 0.249D+00 0.751D+00
 Coeff:     -0.274D-02 0.662D-01 0.384D+00 0.552D+00
 Gap=     0.240 Goal=   None    Shift=    0.000
 RMSDP=3.47D-04 MaxDP=1.81D-02 DE=-2.46D-03 OVMax= 6.74D-03

 Cycle   5  Pass 1  IDiag  1:
 RMSU=  9.93D-05    CP:  9.61D-01  2.32D-01  1.01D+00  5.37D-01
 E= -399.046770055543     Delta-E=       -0.001180513477 Rises=F Damp=F
 DIIS: error= 3.38D-04 at cycle   5 NSaved=   5.
 NSaved= 5 IEnMin= 5 EnMin= -399.046770055543     IErMin= 5 ErrMin= 3.38D-04
 ErrMax= 3.38D-04 EMaxC= 1.00D-01 BMatC= 4.02D-05 BMatP= 1.33D-03
 IDIUse=3 WtCom= 9.97D-01 WtEn= 3.38D-03
 Coeff-Com: -0.225D-02 0.136D-01 0.130D+00 0.237D+00 0.621D+00
 Coeff-En:   0.000D+00 0.000D+00 0.000D+00 0.000D+00 0.100D+01
 Coeff:     -0.224D-02 0.136D-01 0.130D+00 0.236D+00 0.623D+00
 Gap=     0.242 Goal=   None    Shift=    0.000
 RMSDP=6.57D-05 MaxDP=6.03D-03 DE=-1.18D-03 OVMax= 2.29D-03

 Cycle   6  Pass 1  IDiag  1:
 RMSU=  2.54D-05    CP:  9.60D-01  2.27D-01  1.02D+00  5.54D-01  8.93D-01
 E= -399.046795115420     Delta-E=       -0.000025059877 Rises=F Damp=F
 DIIS: error= 1.48D-04 at cycle   6 NSaved=   6.
 NSaved= 6 IEnMin= 6 EnMin= -399.046795115420     IErMin= 6 ErrMin= 1.48D-04
 ErrMax= 1.48D-04 EMaxC= 1.00D-01 BMatC= 8.29D-06 BMatP= 4.02D-05
 IDIUse=3 WtCom= 9.99D-01 WtEn= 1.48D-03
 Coeff-Com: -0.934D-03 0.881D-03 0.384D-01 0.861D-01 0.361D+00 0.515D+00
 Coeff-En:   0.000D+00 0.000D+00 0.000D+00 0.000D+00 0.134D+00 0.866D+00
 Coeff:     -0.933D-03 0.880D-03 0.384D-01 0.860D-01 0.360D+00 0.515D+00
 Gap=     0.241 Goal=   None    Shift=    0.000
 RMSDP=1.53D-05 MaxDP=5.81D-04 DE=-2.51D-05 OVMax= 7.42D-04

 Cycle   7  Pass 1  IDiag  1:
 RMSU=  6.67D-06    CP:  9.60D-01  2.27D-01  1.02D+00  5.59D-01  8.87D-01
                    CP:  6.98D-01
 E= -399.046801316651     Delta-E=       -0.000006201231 Rises=F Damp=F
 DIIS: error= 2.12D-05 at cycle   7 NSaved=   7.
 NSaved= 7 IEnMin= 7 EnMin= -399.046801316651     IErMin= 7 ErrMin= 2.12D-05
 ErrMax= 2.12D-05 EMaxC= 1.00D-01 BMatC= 1.35D-07 BMatP= 8.29D-06
 IDIUse=1 WtCom= 1.00D+00 WtEn= 0.00D+00
 Coeff-Com: -0.155D-03-0.210D-03 0.995D-02 0.249D-01 0.113D+00 0.195D+00
 Coeff-Com:  0.657D+00
 Coeff:     -0.155D-03-0.210D-03 0.995D-02 0.249D-01 0.113D+00 0.195D+00
 Coeff:      0.657D+00
 Gap=     0.241 Goal=   None    Shift=    0.000
 RMSDP=4.00D-06 MaxDP=2.18D-04 DE=-6.20D-06 OVMax= 1.40D-04

 Cycle   8  Pass 1  IDiag  1:
 RMSU=  1.76D-06    CP:  9.60D-01  2.27D-01  1.02D+00  5.62D-01  8.88D-01
                    CP:  6.69D-01  8.69D-01
 E= -399.046801378315     Delta-E=       -0.000000061664 Rises=F Damp=F
 DIIS: error= 2.13D-05 at cycle   8 NSaved=   8.
 NSaved= 8 IEnMin= 8 EnMin= -399.046801378315     IErMin= 7 ErrMin= 2.12D-05
 ErrMax= 2.13D-05 EMaxC= 1.00D-01 BMatC= 6.77D-08 BMatP= 1.35D-07
 IDIUse=1 WtCom= 1.00D+00 WtEn= 0.00D+00
 Coeff-Com:  0.249D-04-0.282D-03 0.182D-02 0.594D-02 0.295D-01 0.625D-01
 Coeff-Com:  0.433D+00 0.468D+00
 Coeff:      0.249D-04-0.282D-03 0.182D-02 0.594D-02 0.295D-01 0.625D-01
 Coeff:      0.433D+00 0.468D+00
 Gap=     0.241 Goal=   None    Shift=    0.000
 RMSDP=1.37D-06 MaxDP=6.53D-05 DE=-6.17D-08 OVMax= 1.07D-04

 Cycle   9  Pass 1  IDiag  1:
 RMSU=  6.79D-07    CP:  9.60D-01  2.27D-01  1.02D+00  5.62D-01  8.89D-01
                    CP:  6.79D-01  8.78D-01  7.48D-01
 E= -399.046801419936     Delta-E=       -0.000000041621 Rises=F Damp=F
 DIIS: error= 9.36D-06 at cycle   9 NSaved=   9.
 NSaved= 9 IEnMin= 9 EnMin= -399.046801419936     IErMin= 9 ErrMin= 9.36D-06
 ErrMax= 9.36D-06 EMaxC= 1.00D-01 BMatC= 1.11D-08 BMatP= 6.77D-08
 IDIUse=1 WtCom= 1.00D+00 WtEn= 0.00D+00
 Coeff-Com:  0.359D-04-0.166D-03-0.867D-04 0.732D-03 0.449D-02 0.144D-01
 Coeff-Com:  0.203D+00 0.321D+00 0.457D+00
 Coeff:      0.359D-04-0.166D-03-0.867D-04 0.732D-03 0.449D-02 0.144D-01
 Coeff:      0.203D+00 0.321D+00 0.457D+00
 Gap=     0.241 Goal=   None    Shift=    0.000
 RMSDP=7.37D-07 MaxDP=7.26D-05 DE=-4.16D-08 OVMax= 3.29D-05

 Cycle  10  Pass 1  IDiag  1:
 RMSU=  1.91D-07    CP:  9.60D-01  2.27D-01  1.02D+00  5.62D-01  8.89D-01
                    CP:  6.83D-01  8.92D-01  7.71D-01  6.59D-01
 E= -399.046801427893     Delta-E=       -0.000000007956 Rises=F Damp=F
 DIIS: error= 1.01D-06 at cycle  10 NSaved=  10.
 NSaved=10 IEnMin=10 EnMin= -399.046801427893     IErMin=10 ErrMin= 1.01D-06
 ErrMax= 1.01D-06 EMaxC= 1.00D-01 BMatC= 1.99D-10 BMatP= 1.11D-08
 IDIUse=1 WtCom= 1.00D+00 WtEn= 0.00D+00
 Coeff-Com:  0.936D-05-0.341D-04-0.223D-03-0.306D-03-0.103D-02-0.824D-03
 Coeff-Com:  0.389D-01 0.760D-01 0.170D+00 0.717D+00
 Coeff:      0.936D-05-0.341D-04-0.223D-03-0.306D-03-0.103D-02-0.824D-03
 Coeff:      0.389D-01 0.760D-01 0.170D+00 0.717D+00
 Gap=     0.241 Goal=   None    Shift=    0.000
 RMSDP=1.41D-07 MaxDP=4.92D-06 DE=-7.96D-09 OVMax= 2.97D-06

 Cycle  11  Pass 1  IDiag  1:
 RMSU=  7.15D-08    CP:  9.60D-01  2.27D-01  1.02D+00  5.62D-01  8.89D-01
                    CP:  6.82D-01  8.98D-01  7.83D-01  7.02D-01  8.56D-01
 E= -399.046801428038     Delta-E=       -0.000000000145 Rises=F Damp=F
 DIIS: error= 4.78D-07 at cycle  11 NSaved=  11.
 NSaved=11 IEnMin=11 EnMin= -399.046801428038     IErMin=11 ErrMin= 4.78D-07
 ErrMax= 4.78D-07 EMaxC= 1.00D-01 BMatC= 3.30D-11 BMatP= 1.99D-10
 IDIUse=1 WtCom= 1.00D+00 WtEn= 0.00D+00
 Coeff-Com:  0.193D-05-0.833D-05-0.103D-03-0.179D-03-0.675D-03-0.115D-02
 Coeff-Com:  0.104D-01 0.231D-01 0.651D-01 0.387D+00 0.517D+00
 Coeff:      0.193D-05-0.833D-05-0.103D-03-0.179D-03-0.675D-03-0.115D-02
 Coeff:      0.104D-01 0.231D-01 0.651D-01 0.387D+00 0.517D+00
 Gap=     0.241 Goal=   None    Shift=    0.000
 RMSDP=5.66D-08 MaxDP=4.25D-06 DE=-1.45D-10 OVMax= 1.29D-06

 Cycle  12  Pass 1  IDiag  1:
 RMSU=  1.86D-08    CP:  9.60D-01  2.27D-01  1.02D+00  5.62D-01  8.89D-01
                    CP:  6.83D-01  8.98D-01  7.81D-01  6.96D-01  8.76D-01
                    CP:  7.54D-01
 E= -399.046801428061     Delta-E=       -0.000000000023 Rises=F Damp=F
 DIIS: error= 9.66D-08 at cycle  12 NSaved=  12.
 NSaved=12 IEnMin=12 EnMin= -399.046801428061     IErMin=12 ErrMin= 9.66D-08
 ErrMax= 9.66D-08 EMaxC= 1.00D-01 BMatC= 2.93D-12 BMatP= 3.30D-11
 IDIUse=1 WtCom= 1.00D+00 WtEn= 0.00D+00
 Coeff-Com: -0.861D-06 0.137D-05-0.167D-04-0.420D-04-0.152D-03-0.406D-03
 Coeff-Com: -0.369D-03-0.142D-03 0.458D-02 0.785D-01 0.258D+00 0.660D+00
 Coeff:     -0.861D-06 0.137D-05-0.167D-04-0.420D-04-0.152D-03-0.406D-03
 Coeff:     -0.369D-03-0.142D-03 0.458D-02 0.785D-01 0.258D+00 0.660D+00
 Gap=     0.241 Goal=   None    Shift=    0.000
 RMSDP=1.79D-08 MaxDP=1.30D-06 DE=-2.31D-11 OVMax= 2.92D-07

 Cycle  13  Pass 1  IDiag  1:
 RMSU=  4.51D-09    CP:  9.60D-01  2.27D-01  1.02D+00  5.62D-01  8.89D-01
                    CP:  6.83D-01  8.98D-01  7.82D-01  7.00D-01  8.88D-01
                    CP:  8.04D-01  7.42D-01
 E= -399.046801428063     Delta-E=       -0.000000000002 Rises=F Damp=F
 DIIS: error= 1.02D-08 at cycle  13 NSaved=  13.
 NSaved=13 IEnMin=13 EnMin= -399.046801428063     IErMin=13 ErrMin= 1.02D-08
 ErrMax= 1.02D-08 EMaxC= 1.00D-01 BMatC= 1.99D-14 BMatP= 2.93D-12
 IDIUse=1 WtCom= 1.00D+00 WtEn= 0.00D+00
 Coeff-Com: -0.233D-06 0.547D-06-0.631D-06-0.361D-05-0.108D-04-0.421D-04
 Coeff-Com: -0.409D-03-0.767D-03-0.160D-02-0.565D-04 0.256D-01 0.116D+00
 Coeff-Com:  0.862D+00
 Coeff:     -0.233D-06 0.547D-06-0.631D-06-0.361D-05-0.108D-04-0.421D-04
 Coeff:     -0.409D-03-0.767D-03-0.160D-02-0.565D-04 0.256D-01 0.116D+00
 Coeff:      0.862D+00
 Gap=     0.241 Goal=   None    Shift=    0.000
 RMSDP=3.10D-09 MaxDP=2.91D-07 DE=-1.59D-12 OVMax= 5.76D-08

 Error on total polarization charges =  0.01145
 SCF Done:  E(RB3LYP) =  -399.046801428     A.U. after   13 cycles
             Convg  =    0.3099D-08             -V/T =  2.0036
 KE= 3.976155307540D+02 PE=-1.586224203304D+03 EE= 4.647764537492D+02
 Leave Link  502 at Thu Apr 07 11:59:45 2016, MaxMem=   33554432 cpu:     252.0
 (Enter c:\G09w04\l801.exe)
 Range of M.O.s used for correlation:     1   203
 NBasis=   203 NAE=    28 NBE=    28 NFC=     0 NFV=     0
 NROrb=    203 NOA=    28 NOB=    28 NVA=   175 NVB=   175

 **** Warning!!: The largest alpha MO coefficient is  0.76642558D+02

 Leave Link  801 at Thu Apr 07 11:59:46 2016, MaxMem=   33554432 cpu:       0.0
 (Enter c:\G09w04\l1101.exe)
 Using compressed storage, NAtomX=    14.
 Will process  15 centers per pass.
 Leave Link 1101 at Thu Apr 07 11:59:47 2016, MaxMem=   33554432 cpu:       1.0
 (Enter c:\G09w04\l1102.exe)
 Symmetrizing basis deriv contribution to polar:
 IMax=3 JMax=2 DiffMx= 0.00D+00
 Leave Link 1102 at Thu Apr 07 11:59:47 2016, MaxMem=   33554432 cpu:       0.0
 (Enter c:\G09w04\l1110.exe)
 Forming Gx(P) for the SCF density, NAtomX=    14.
 Integral derivatives from FoFDir/FoFCou, PRISM(SPDF).
 Do as many integral derivatives as possible in FoFDir.
 G2DrvN: MDV=      33554294.
 G2DrvN: will do    15 centers at a time, making    1 passes doing MaxLOS=2.
 Calling FoFCou, ICntrl=  3107 FMM=F I1Cent=   0 AccDes= 0.00D+00.
 FoFCou: FMM=F IPFlag=           0 FMFlag=      100000 FMFlg1=           0
         NFxFlg=           0 DoJE=F BraDBF=F KetDBF=F FulRan=T
         Omega=  0.000000  0.000000  1.000000  0.000000  0.000000 ICntrl=    3107 IOpCl=  0
         NMat0=    1 NMatS0=    1 NMatT0=    0 NMatD0=    1 NMtDS0=    0 NMtDT0=    0
         I1Cent=           0 NGrid=           0.
 Symmetry not used in FoFCou.
 FoFDir/FoFCou used for L=0 through L=2.
 G2PCM: DoFxE=T DoFxN=T DoGrad=T DoPD/DQ/DG=FFF NFrqRd=   0 IEInf=0 DoCFld=F IF1Alg=4.
 GePol: Maximum number of non-zero 1st derivatives   =     205
 End of G2Drv Frequency-dependent properties file   721 does not exist.
 End of G2Drv Frequency-dependent properties file   722 does not exist.
 Leave Link 1110 at Thu Apr 07 12:06:10 2016, MaxMem=   33554432 cpu:     383.0
 (Enter c:\G09w04\l1002.exe)
 Minotr:  Closed shell wavefunction.
          IDoAtm=11111111111111
 NEqPCM:  Using equilibrium solvation (IEInf=0, Eps=  78.3553, EpsInf=   1.7778)
          Direct CPHF calculation.
          Differentiating once with respect to nuclear coordinates.
          Requested convergence is 1.0D-06 RMS, and 1.0D-05 maximum.
          Secondary convergence is 1.0D-12 RMS, and 1.0D-12 maximum.
          NewPWx=T KeepS1=F KeepF1=F KeepIn=T MapXYZ=F SortEE=F KeepMc=T.
          MDV=      33554330 using IRadAn=       2.
 Generate precomputed XC quadrature information.
          Solving linear equations simultaneously, MaxMat=       0.
 Integrals replicated using symmetry in FoFDir.
 MinBra= 0 MaxBra= 2 Meth= 1.
 IRaf=       0 NMat=  45 IRICut=     112 DoRegI=T DoRafI=T ISym2E= 2 JSym2E=2.
          There are    45 degrees of freedom in the 1st order CPHF.  IDoFFX=5.
     39 vectors produced by pass  0 Test12= 1.09D-10 2.22D-07 XBig12= 2.48D-01 1.25D-01.
 AX will form    39 AO Fock derivatives at one time.
     39 vectors produced by pass  1 Test12= 1.09D-10 2.22D-07 XBig12= 1.11D-01 1.63D-01.
     39 vectors produced by pass  2 Test12= 1.09D-10 2.22D-07 XBig12= 4.15D-04 2.87D-03.
     39 vectors produced by pass  3 Test12= 1.09D-10 2.22D-07 XBig12= 2.79D-06 2.69D-04.
     26 vectors produced by pass  4 Test12= 1.09D-10 2.22D-07 XBig12= 6.68D-09 1.10D-05.
      2 vectors produced by pass  5 Test12= 1.09D-10 2.22D-07 XBig12= 1.24D-11 3.45D-07.
 Inverted reduced A of dimension   184 with in-core refinement.
 End of Minotr Frequency-dependent properties file   721 does not exist.
 End of Minotr Frequency-dependent properties file   722 does not exist.
 Leave Link 1002 at Thu Apr 07 12:15:28 2016, MaxMem=   33554432 cpu:     558.0
 (Enter c:\G09w04\l601.exe)
 Copying SCF densities to generalized density rwf, IOpCl= 0 IROHF=0.

 **********************************************************************

            Population analysis using the SCF density.

 **********************************************************************

 Orbital symmetries:
       Occupied  (A) (A) (A) (A) (A) (A) (A) (A) (A) (A) (A) (A)
                 (A) (A) (A) (A) (A) (A) (A) (A) (A) (A) (A) (A)
                 (A) (A) (A) (A)
       Virtual   (A) (A) (A) (A) (A) (A) (A) (A) (A) (A) (A) (A)
                 (A) (A) (A) (A) (A) (A) (A) (A) (A) (A) (A) (A)
                 (A) (A) (A) (A) (A) (A) (A) (A) (A) (A) (A) (A)
                 (A) (A) (A) (A) (A) (A) (A) (A) (A) (A) (A) (A)
                 (A) (A) (A) (A) (A) (A) (A) (A) (A) (A) (A) (A)
                 (A) (A) (A) (A) (A) (A) (A) (A) (A) (A) (A) (A)
                 (A) (A) (A) (A) (A) (A) (A) (A) (A) (A) (A) (A)
                 (A) (A) (A) (A) (A) (A) (A) (A) (A) (A) (A) (A)
                 (A) (A) (A) (A) (A) (A) (A) (A) (A) (A) (A) (A)
                 (A) (A) (A) (A) (A) (A) (A) (A) (A) (A) (A) (A)
                 (A) (A) (A) (A) (A) (A) (A) (A) (A) (A) (A) (A)
                 (A) (A) (A) (A) (A) (A) (A) (A) (A) (A) (A) (A)
                 (A) (A) (A) (A) (A) (A) (A) (A) (A) (A) (A) (A)
                 (A) (A) (A) (A) (A) (A) (A) (A) (A) (A) (A) (A)
                 (A) (A) (A) (A) (A) (A) (A)
 The electronic state is 1-A.
 Alpha  occ. eigenvalues --  -19.15917 -19.15715 -19.14129 -14.32213 -10.32874
 Alpha  occ. eigenvalues --  -10.23789 -10.23357  -1.15435  -1.04316  -1.00717
 Alpha  occ. eigenvalues --   -0.91836  -0.76349  -0.66985  -0.57514  -0.54766
 Alpha  occ. eigenvalues --   -0.53686  -0.51258  -0.48422  -0.48175  -0.46299
 Alpha  occ. eigenvalues --   -0.43641  -0.41619  -0.39643  -0.35765  -0.32987
 Alpha  occ. eigenvalues --   -0.31790  -0.29915  -0.27655
 Alpha virt. eigenvalues --   -0.03525  -0.01187   0.00125   0.00996   0.01614
 Alpha virt. eigenvalues --    0.03509   0.04897   0.05682   0.06422   0.07640
 Alpha virt. eigenvalues --    0.07875   0.08854   0.09410   0.10462   0.11169
 Alpha virt. eigenvalues --    0.11837   0.12303   0.13059   0.13232   0.14957
 Alpha virt. eigenvalues --    0.15245   0.16355   0.16952   0.17949   0.18640
 Alpha virt. eigenvalues --    0.19436   0.20848   0.21077   0.22287   0.22499
 Alpha virt. eigenvalues --    0.23991   0.24515   0.25183   0.26218   0.27364
 Alpha virt. eigenvalues --    0.27942   0.28237   0.28699   0.30363   0.30876
 Alpha virt. eigenvalues --    0.31534   0.33825   0.34490   0.35831   0.36214
 Alpha virt. eigenvalues --    0.37590   0.40148   0.40986   0.44610   0.46378
 Alpha virt. eigenvalues --    0.48737   0.53309   0.54036   0.55410   0.58222
 Alpha virt. eigenvalues --    0.59330   0.60941   0.62441   0.63790   0.66815
 Alpha virt. eigenvalues --    0.68152   0.69102   0.71360   0.73150   0.74712
 Alpha virt. eigenvalues --    0.79210   0.82331   0.85664   0.89341   0.97860
 Alpha virt. eigenvalues --    0.99998   1.01989   1.05304   1.07687   1.10113
 Alpha virt. eigenvalues --    1.10523   1.12567   1.13577   1.15109   1.18047
 Alpha virt. eigenvalues --    1.19396   1.21851   1.22997   1.26261   1.34174
 Alpha virt. eigenvalues --    1.35081   1.37547   1.40154   1.45844   1.48590
 Alpha virt. eigenvalues --    1.49665   1.52020   1.54662   1.57228   1.58611
 Alpha virt. eigenvalues --    1.61759   1.62976   1.64450   1.69233   1.69733
 Alpha virt. eigenvalues --    1.72486   1.73116   1.76520   1.77897   1.81806
 Alpha virt. eigenvalues --    1.83669   1.86014   1.88872   1.98902   2.03883
 Alpha virt. eigenvalues --    2.06753   2.08220   2.11221   2.18323   2.22869
 Alpha virt. eigenvalues --    2.31045   2.34931   2.42219   2.49855   2.51446
 Alpha virt. eigenvalues --    2.56057   2.57248   2.58754   2.62422   2.62823
 Alpha virt. eigenvalues --    2.69043   2.70729   2.75655   2.77554   2.79394
 Alpha virt. eigenvalues --    2.84874   2.87813   2.91914   2.94190   2.99792
 Alpha virt. eigenvalues --    3.01012   3.02563   3.10101   3.11939   3.18556
 Alpha virt. eigenvalues --    3.20895   3.21306   3.25376   3.29939   3.32367
 Alpha virt. eigenvalues --    3.38387   3.40671   3.57957   3.63119   3.73658
 Alpha virt. eigenvalues --    3.80633   3.86986   3.98004   4.03539   4.07507
 Alpha virt. eigenvalues --    4.12357   4.27318   4.72457   4.82804   4.98230
 Alpha virt. eigenvalues --    5.01737   5.04761   5.07577   5.28260   5.38486
 Alpha virt. eigenvalues --    5.50160   5.65605   5.79710  23.76245  23.80641
 Alpha virt. eigenvalues --   23.84589  35.58327  49.87210  49.90400  49.97329
          Condensed to atoms (all electrons):
              1          2          3          4          5          6
     1  N    6.668069   0.395179  -0.111034  -0.051459   0.044764  -0.000758
     2  H    0.395179   0.434447  -0.076270   0.007124   0.010492   0.000133
     3  C   -0.111034  -0.076270   8.238651   0.566749  -0.736601  -1.153958
     4  H   -0.051459   0.007124   0.566749   0.512672  -0.132201  -0.170633
     5  C    0.044764   0.010492  -0.736601  -0.132201   5.928809   0.251966
     6  C   -0.000758   0.000133  -1.153958  -0.170633   0.251966   6.424756
     7  H    0.031922   0.004567  -0.248554  -0.025816   0.536559   0.041278
     8  H   -0.020701  -0.002200   0.156497   0.023422   0.268524  -0.092583
     9  O    0.007060   0.001563  -0.087840  -0.003528   0.202014  -0.003249
    10  O   -0.011681   0.009448  -0.131975   0.007840  -0.027341   0.330680
    11  H    0.000854   0.000342  -0.028175   0.001177   0.019421   0.012751
    12  H    0.378265  -0.039330  -0.020015  -0.011942  -0.004554   0.009498
    13  O   -0.014593  -0.002206  -0.026891   0.005144  -0.030298   0.258035
    14  H    0.001407   0.000639   0.021527  -0.002025   0.002144  -0.019578
              7          8          9         10         11         12
     1  N    0.031922  -0.020701   0.007060  -0.011681   0.000854   0.378265
     2  H    0.004567  -0.002200   0.001563   0.009448   0.000342  -0.039330
     3  C   -0.248554   0.156497  -0.087840  -0.131975  -0.028175  -0.020015
     4  H   -0.025816   0.023422  -0.003528   0.007840   0.001177  -0.011942
     5  C    0.536559   0.268524   0.202014  -0.027341   0.019421  -0.004554
     6  C    0.041278  -0.092583  -0.003249   0.330680   0.012751   0.009498
     7  H    0.589605  -0.065120  -0.053425   0.000295   0.003530  -0.001514
     8  H   -0.065120   0.592340  -0.054767   0.002419  -0.012261   0.000587
     9  O   -0.053425  -0.054767   8.073838  -0.001352   0.248219  -0.000649
    10  O    0.000295   0.002419  -0.001352   8.216643   0.000009  -0.001621
    11  H    0.003530  -0.012261   0.248219   0.000009   0.456581  -0.000237
    12  H   -0.001514   0.000587  -0.000649  -0.001621  -0.000237   0.414105
    13  O   -0.000587   0.001115  -0.001388  -0.239091  -0.000028  -0.001028
    14  H   -0.000299  -0.000896  -0.000664   0.150485   0.000425   0.000255
             13         14
     1  N   -0.014593   0.001407
     2  H   -0.002206   0.000639
     3  C   -0.026891   0.021527
     4  H    0.005144  -0.002025
     5  C   -0.030298   0.002144
     6  C    0.258035  -0.019578
     7  H   -0.000587  -0.000299
     8  H    0.001115  -0.000896
     9  O   -0.001388  -0.000664
    10  O   -0.239091   0.150485
    11  H   -0.000028   0.000425
    12  H   -0.001028   0.000255
    13  O    8.205718   0.134894
    14  H    0.134894   0.387168
 Mulliken atomic charges:
              1
     1  N   -0.317295
     2  H    0.256070
     3  C   -0.362111
     4  H    0.273477
     5  C   -0.333696
     6  C    0.111663
     7  H    0.187560
     8  H    0.203622
     9  O   -0.325829
    10  O   -0.304758
    11  H    0.297392
    12  H    0.278182
    13  O   -0.288797
    14  H    0.324519
 Sum of Mulliken atomic charges =   0.00000
 Mulliken charges with hydrogens summed into heavy atoms:
              1
     1  N    0.216958
     3  C   -0.088634
     5  C    0.057486
     6  C    0.111663
     9  O   -0.028437
    10  O    0.019761
    13  O   -0.288797
 Sum of Mulliken charges with hydrogens summed into heavy atoms =   0.00000
 APT atomic charges:
              1
     1  N   -0.860885
     2  H    0.413367
     3  C   -0.743344
     4  H    0.441222
     5  C   -0.625756
     6  C    0.339181
     7  H    0.496122
     8  H    0.329091
     9  O   -0.899339
    10  O   -0.368923
    11  H    0.786830
    12  H    0.571622
    13  O   -0.285731
    14  H    0.406540
 Sum of APT charges=   0.00000
 APT Atomic charges with hydrogens summed into heavy atoms:
              1
     1  N    0.124104
     2  H    0.000000
     3  C   -0.302121
     4  H    0.000000
     5  C    0.199458
     6  C    0.339181
     7  H    0.000000
     8  H    0.000000
     9  O   -0.112509
    10  O    0.037618
    11  H    0.000000
    12  H    0.000000
    13  O   -0.285731
    14  H    0.000000
 Sum of APT charges=   0.00000
 Electronic spatial extent (au):  <R**2>=            768.4293
 Charge=              0.0000 electrons
 Dipole moment (field-independent basis, Debye):
    X=              1.5146    Y=              1.5753    Z=              1.4185  Tot=              2.6053
 Quadrupole moment (field-independent basis, Debye-Ang):
   XX=            -38.5876   YY=            -41.8316   ZZ=            -45.1818
   XY=             -5.7775   XZ=              2.0972   YZ=             -2.7639
 Traceless Quadrupole moment (field-independent basis, Debye-Ang):
   XX=              3.2794   YY=              0.0354   ZZ=             -3.3148
   XY=             -5.7775   XZ=              2.0972   YZ=             -2.7639
 Octapole moment (field-independent basis, Debye-Ang**2):
  XXX=             12.1006  YYY=             -9.7462  ZZZ=             -0.9118  XYY=             -8.4746
  XXY=            -11.2194  XXZ=             12.7535  XZZ=              6.8151  YZZ=              6.2451
  YYZ=              5.7174  XYZ=             -2.2639
 Hexadecapole moment (field-independent basis, Debye-Ang**3):
 XXXX=           -422.0362 YYYY=           -325.7258 ZZZZ=           -148.2284 XXXY=            -24.8849
 XXXZ=              1.7703 YYYX=            -48.2147 YYYZ=             -6.1503 ZZZX=              2.7564
 ZZZY=              0.2345 XXYY=           -114.0394 XXZZ=           -115.2575 YYZZ=            -74.1699
 XXYZ=            -18.2863 YYXZ=              8.0209 ZZXY=             -6.7641
 N-N= 3.247854173727D+02 E-N=-1.586224202673D+03  KE= 3.976155307540D+02
  Exact polarizability:   0.000   0.000   0.000   0.000   0.000   0.000
 Approx polarizability:  74.949   6.994  76.469   5.131   1.420  88.597
 No NMR shielding tensors so no spin-rotation constants.
 Leave Link  601 at Thu Apr 07 12:15:28 2016, MaxMem=   33554432 cpu:       0.0
 (Enter c:\G09w04\l701.exe)
 Compute integral second derivatives.
 ... and contract with generalized density number  0.
 D2PCM: C-PCM CHGder 2nd derivatives, FixD1E=F FixD2E=F DoIter=F DoCFld=F I1PDM=0
 GePol: Maximum number of non-zero 2nd derivatives   =     205
 Leave Link  701 at Thu Apr 07 12:15:57 2016, MaxMem=   33554432 cpu:      28.0
 (Enter c:\G09w04\l702.exe)
 L702 exits ... SP integral derivatives will be done elsewhere.
 Leave Link  702 at Thu Apr 07 12:15:57 2016, MaxMem=   33554432 cpu:       0.0
 (Enter c:\G09w04\l703.exe)
 Compute integral second derivatives, UseDBF=F ICtDFT=           0.
 Integral derivatives from FoFDir, PRISM(SPDF).
 Calling FoFJK, ICntrl=    100147 FMM=F ISym2X=0 I1Cent= 0 IOpClX= 0 NMat=1 NMatS=1 NMatT=0.
 FoFCou: FMM=F IPFlag=           0 FMFlag=      100000 FMFlg1=         800
         NFxFlg=           0 DoJE=F BraDBF=F KetDBF=F FulRan=T
         Omega=  0.000000  0.000000  1.000000  0.000000  0.000000 ICntrl=  100147 IOpCl=  0
         NMat0=    1 NMatS0=    1 NMatT0=    0 NMatD0=    1 NMtDS0=    0 NMtDT0=    0
         I1Cent=           0 NGrid=           0.
 Symmetry not used in FoFCou.
 Leave Link  703 at Thu Apr 07 12:25:57 2016, MaxMem=   33554432 cpu:     599.0
 (Enter c:\G09w04\l716.exe)
 Dipole        = 5.95895399D-01 6.19764275D-01 5.58073727D-01
 Polarizability= 0.00000000D+00 0.00000000D+00 0.00000000D+00
                 0.00000000D+00 0.00000000D+00 0.00000000D+00
 ***** Axes restored to original set *****
 -------------------------------------------------------------------
 Center     Atomic                   Forces (Hartrees/Bohr)
 Number     Number              X              Y              Z
 -------------------------------------------------------------------
      1        7           0.000583778   -0.000362469   -0.000285234
      2        1          -0.000207337    0.000462690    0.000116516
      3        6           0.001094131    0.000910705   -0.000642725
      4        1          -0.000330546    0.000405079    0.000010011
      5        6          -0.001203420    0.001692867    0.001116962
      6        6           0.004072443    0.004867098    0.000902956
      7        1          -0.000080443   -0.000798545    0.000169304
      8        1           0.000974408   -0.000400009   -0.000697605
      9        8          -0.000874249   -0.001527659   -0.001309397
     10        8          -0.002011843   -0.002221450   -0.001194596
     11        1           0.001472219   -0.000274497    0.001144631
     12        1          -0.000827929   -0.000154082    0.000064890
     13        8          -0.001542062   -0.002327262   -0.000777976
     14        1          -0.001119149   -0.000272466    0.001382266
 -------------------------------------------------------------------
 Cartesian Forces:  Max     0.004867098 RMS     0.001410688
 Leave Link  716 at Thu Apr 07 12:25:58 2016, MaxMem=   33554432 cpu:       0.0
 (Enter c:\G09w04\l103.exe)

 GradGradGradGradGradGradGradGradGradGradGradGradGradGradGradGradGradGrad
 Berny optimization.
 Red2BG is reusing G-inverse.
 Internal  Forces:  Max     0.002392477 RMS     0.000825312
 Search for a saddle point.
 Step number   1 out of a maximum of   72
 All quantities printed in internal units (Hartrees-Bohrs-Radians)
 Swaping is turned off.
 Second derivative matrix not updated -- analytic derivatives used.
 ITU=  0
     Eigenvalues ---   -0.09886   0.00087   0.00141   0.00314   0.00400
     Eigenvalues ---    0.02709   0.03131   0.04130   0.04820   0.04987
     Eigenvalues ---    0.05393   0.06467   0.07421   0.07669   0.09875
     Eigenvalues ---    0.12148   0.13952   0.14569   0.15011   0.15499
     Eigenvalues ---    0.15915   0.18253   0.21394   0.23617   0.27300
     Eigenvalues ---    0.29197   0.32273   0.32415   0.33677   0.35471
     Eigenvalues ---    0.38515   0.44879   0.45398   0.45847   0.53611
     Eigenvalues ---    0.53715
 Eigenvectors required to have negative eigenvalues:
                          R14       R15       A22       A21       R10
   1                   -0.64571   0.64506   0.35306  -0.10969   0.10203
                          R11       A17       A16       D25       A8
   1                   -0.09929  -0.06095   0.05954  -0.02040  -0.01813
 RFO step:  Lambda0=5.409351750D-06 Lambda=-4.49660229D-04.
 Linear search not attempted -- option 19 set.
 Iteration  1 RMS(Cart)=  0.04687459 RMS(Int)=  0.00280025
 Iteration  2 RMS(Cart)=  0.00243465 RMS(Int)=  0.00023309
 Iteration  3 RMS(Cart)=  0.00000920 RMS(Int)=  0.00023296
 Iteration  4 RMS(Cart)=  0.00000000 RMS(Int)=  0.00023296
 Variable       Old X    -DE/DX   Delta X   Delta X   Delta X     New X
                                 (Linear)    (Quad)   (Total)
    R1        1.91874   0.00020   0.00000   0.00104   0.00104   1.91978
    R2        2.76596  -0.00002   0.00000  -0.00253  -0.00254   2.76342
    R3        1.91563   0.00047   0.00000   0.00169   0.00169   1.91733
    R4        2.06189  -0.00006   0.00000  -0.00034  -0.00034   2.06155
    R5        2.88652   0.00090   0.00000   0.00272   0.00272   2.88924
    R6        2.85809   0.00051   0.00000   0.00144   0.00144   2.85953
    R7        2.06939  -0.00058   0.00000  -0.00185  -0.00185   2.06754
    R8        2.07246  -0.00079   0.00000  -0.00183  -0.00183   2.07063
    R9        2.69107   0.00183   0.00000   0.00640   0.00640   2.69746
   R10        2.41477   0.00033   0.00000   0.00038   0.00028   2.41505
   R11        2.40476   0.00230   0.00000   0.00667   0.00680   2.41156
   R12        2.86762   0.00239   0.00000   0.01224   0.01228   2.87989
   R13        1.81609   0.00176   0.00000   0.00375   0.00375   1.81984
   R14        2.46535  -0.00155   0.00000   0.00101   0.00134   2.46669
   R15        2.47127   0.00007   0.00000  -0.00383  -0.00425   2.46702
    A1        1.94240   0.00071   0.00000   0.00000  -0.00002   1.94238
    A2        1.88712  -0.00032   0.00000  -0.00741  -0.00744   1.87967
    A3        1.94565  -0.00056   0.00000  -0.00643  -0.00645   1.93920
    A4        1.89682  -0.00036   0.00000  -0.00203  -0.00201   1.89481
    A5        1.91305   0.00086   0.00000   0.00200   0.00200   1.91505
    A6        1.94765  -0.00016   0.00000   0.01130   0.01132   1.95897
    A7        1.89902   0.00009   0.00000   0.00286   0.00283   1.90186
    A8        1.87691  -0.00006   0.00000  -0.00553  -0.00553   1.87137
    A9        1.92919  -0.00038   0.00000  -0.00878  -0.00880   1.92039
   A10        1.88407  -0.00008   0.00000   0.00195   0.00195   1.88602
   A11        1.90797   0.00080   0.00000   0.00674   0.00674   1.91471
   A12        1.87468   0.00123   0.00000   0.00387   0.00387   1.87854
   A13        1.90157  -0.00023   0.00000  -0.00188  -0.00191   1.89967
   A14        1.95146  -0.00062   0.00000  -0.00416  -0.00417   1.94729
   A15        1.94270  -0.00101   0.00000  -0.00591  -0.00593   1.93677
   A16        2.16948   0.00169   0.00000   0.01023   0.01093   2.18041
   A17        2.19334   0.00061   0.00000   0.00017  -0.00084   2.19250
   A18        1.91799  -0.00225   0.00000  -0.00857  -0.00862   1.90936
   A19        1.90983  -0.00102   0.00000  -0.01039  -0.01039   1.89944
   A20        1.85192   0.00015   0.00000  -0.00259  -0.00261   1.84931
   A21        3.08780   0.00006   0.00000   0.01994   0.01979   3.10760
   A22        3.13467  -0.00051   0.00000  -0.00989  -0.00885   3.12582
    D1        2.96029  -0.00026   0.00000   0.02716   0.02718   2.98746
    D2       -1.24951   0.00013   0.00000   0.03058   0.03057  -1.21894
    D3        0.89347   0.00014   0.00000   0.02848   0.02850   0.92197
    D4        0.85185   0.00004   0.00000   0.04104   0.04104   0.89289
    D5        2.92524   0.00043   0.00000   0.04446   0.04444   2.96968
    D6       -1.21496   0.00044   0.00000   0.04236   0.04236  -1.17260
    D7       -0.98442  -0.00021   0.00000  -0.04700  -0.04701  -1.03143
    D8        1.08170  -0.00009   0.00000  -0.04437  -0.04438   1.03732
    D9       -3.09144  -0.00012   0.00000  -0.04531  -0.04531  -3.13675
   D10        1.08760  -0.00010   0.00000  -0.04660  -0.04659   1.04101
   D11       -3.12946   0.00002   0.00000  -0.04397  -0.04396   3.10977
   D12       -1.01941  -0.00001   0.00000  -0.04491  -0.04490  -1.06431
   D13       -3.13832  -0.00034   0.00000  -0.05671  -0.05671   3.08815
   D14       -1.07219  -0.00022   0.00000  -0.05408  -0.05409  -1.12628
   D15        1.03786  -0.00025   0.00000  -0.05503  -0.05502   0.98283
   D16       -1.19300  -0.00076   0.00000   0.09062   0.09079  -1.10221
   D17        1.86705   0.00011   0.00000   0.12171   0.12158   1.98863
   D18        3.01150  -0.00019   0.00000   0.09001   0.09018   3.10168
   D19       -0.21163   0.00069   0.00000   0.12109   0.12097  -0.09066
   D20        0.94073  -0.00004   0.00000   0.09482   0.09494   1.03568
   D21       -2.28240   0.00083   0.00000   0.12590   0.12573  -2.15666
   D22       -2.86682  -0.00047   0.00000  -0.11179  -0.11179  -2.97860
   D23        1.35246  -0.00078   0.00000  -0.11420  -0.11418   1.23828
   D24       -0.77880   0.00069   0.00000  -0.10458  -0.10460  -0.88340
   D25        0.00705  -0.00092   0.00000  -0.00500  -0.00553   0.00152
         Item               Value     Threshold  Converged?
 Maximum Force            0.002392     0.000450     NO 
 RMS     Force            0.000825     0.000300     NO 
 Maximum Displacement     0.169073     0.001800     NO 
 RMS     Displacement     0.046898     0.001200     NO 
 Predicted change in Energy=-2.531696D-04
 GradGradGradGradGradGradGradGradGradGradGradGradGradGradGradGradGradGrad

 Leave Link  103 at Thu Apr 07 12:25:58 2016, MaxMem=   33554432 cpu:       0.0
 (Enter c:\G09w04\l202.exe)
                          Input orientation:                          
 ---------------------------------------------------------------------
 Center     Atomic      Atomic             Coordinates (Angstroms)
 Number     Number       Type             X           Y           Z
 ---------------------------------------------------------------------
      1          7           0        0.120790    2.023103    0.013589
      2          1           0       -0.118096    2.086544    0.998964
      3          6           0        0.287577    0.631555   -0.403804
      4          1           0        0.385431    0.604091   -1.489983
      5          6           0        1.555791    0.052925    0.224222
      6          6           0       -0.907234   -0.222697   -0.039872
      7          1           0        2.404337    0.661020   -0.103252
      8          1           0        1.483933    0.104615    1.316370
      9          8           0        1.678197   -1.299332   -0.216221
     10          8           0       -1.302201   -0.458441    1.152472
     11          1           0        2.384636   -1.725330    0.280648
     12          1           0       -0.618706    2.476346   -0.512853
     13          8           0       -1.705800   -0.775123   -0.867918
     14          1           0       -2.138712   -1.038318    0.335254
 ---------------------------------------------------------------------
                    Distance matrix (angstroms):
                    1          2          3          4          5
     1  N    0.000000
     2  H    1.015901   0.000000
     3  C    1.462341   2.061388   0.000000
     4  H    2.084312   2.940418   1.090923   0.000000
     5  C    2.446466   2.745492   1.528919   2.147562   0.000000
     6  C    2.470488   2.652266   1.513198   2.111252   2.492429
     7  H    2.661487   3.099946   2.138194   2.449948   1.094097
     8  H    2.689981   2.568128   2.160540   3.054800   1.095730
     9  O    3.676535   4.020883   2.386909   2.629969   1.427436
    10  O    3.078964   2.811159   2.477394   3.310535   3.048157
    11  H    4.387148   4.616277   3.228162   3.543749   1.962742
    12  H    1.014605   1.639557   2.058274   2.338463   3.338365
    13  O    3.455945   3.767651   2.483485   2.581171   3.537853
    14  H    3.818522   3.779968   3.036702   3.521405   3.853892
                    6          7          8          9         10
     6  C    0.000000
     7  H    3.428043   0.000000
     8  H    2.768431   1.781027   0.000000
     9  O    2.806189   2.093567   2.087497   0.000000
    10  O    1.277990   4.070437   2.847181   3.385734   0.000000
    11  H    3.632774   2.417112   2.287506   0.963020   3.994728
    12  H    2.755321   3.549925   3.659543   4.429390   3.442883
    13  O    1.276143   4.420458   3.964777   3.485819   2.084503
    14  H    1.523973   4.870249   3.923320   3.865365   1.305317
                   11         12         13         14
    11  H    0.000000
    12  H    5.225302   0.000000
    13  O    4.353591   3.446722   0.000000
    14  H    4.575548   3.922061   1.305492   0.000000
 Stoichiometry    C3H7NO3
 Framework group  C1[X(C3H7NO3)]
 Deg. of freedom    36
 Full point group                 C1      NOp   1
 Largest Abelian subgroup         C1      NOp   1
 Largest concise Abelian subgroup C1      NOp   1
                         Standard orientation:                         
 ---------------------------------------------------------------------
 Center     Atomic      Atomic             Coordinates (Angstroms)
 Number     Number       Type             X           Y           Z
 ---------------------------------------------------------------------
      1          7           0        0.173858    2.021921   -0.052022
      2          1           0       -0.065189    2.121533    0.930317
      3          6           0        0.309647    0.614581   -0.425380
      4          1           0        0.408688    0.550968   -1.509935
      5          6           0        1.563302    0.027238    0.223442
      6          6           0       -0.904906   -0.200550   -0.037836
      7          1           0        2.426017    0.605391   -0.120810
      8          1           0        1.490791    0.114657    1.313270
      9          8           0        1.655653   -1.340554   -0.174287
     10          8           0       -1.307152   -0.389888    1.160333
     11          1           0        2.351375   -1.766732    0.337331
     12          1           0       -0.554241    2.475150   -0.594127
     13          8           0       -1.714432   -0.760326   -0.850153
     14          1           0       -2.155256   -0.975895    0.359605
 ---------------------------------------------------------------------
 Rotational constants (GHZ):      3.1590343      2.3010585      1.7084030
 Leave Link  202 at Thu Apr 07 12:25:58 2016, MaxMem=   33554432 cpu:       0.0
 (Enter c:\G09w04\l301.exe)
 Standard basis: 6-311++G(d,p) (5D, 7F)
 Ernie: Thresh=  0.10000D-02 Tol=  0.10000D-05 Strict=F.
 There are   203 symmetry adapted basis functions of A   symmetry.
 Integral buffers will be    262144 words long.
 Raffenetti 2 integral format.
 Two-electron integral symmetry is turned on.
   203 basis functions,   315 primitive gaussians,   210 cartesian basis functions
    28 alpha electrons       28 beta electrons
       nuclear repulsion energy       324.7261924440 Hartrees.
 IExCor=  402 DFT=T Ex+Corr=B3LYP ExCW=0 ScaHFX=  0.200000
 ScaDFX=  0.800000  0.720000  1.000000  0.810000 ScalE2=  1.000000  1.000000
 IRadAn=      0 IRanWt=     -1 IRanGd=            0 ICorTp=0
 NAtoms=   14 NActive=   14 NUniq=   14 SFac= 1.00D+00 NAtFMM=   50 NAOKFM=F Big=F
 ------------------------------------------------------------------------------
 Polarizable Continuum Model (PCM)
 =================================
 Model                : C-PCM.
 Atomic radii         : UFF (Universal Force Field).
 Polarization charges : Total charges.
 Charge compensation  : None.
 Solution method      : Matrix inversion.
 Cavity type          : Scaled VdW (van der Waals Surface) (Alpha=1.100).
 Cavity algorithm     : GePol (No added spheres)
                        Default sphere list used, NSphG=   14.
                        Lebedev-Laikov grids with approx.  5.0 points / Ang**2.
                        Smoothing algorithm: Karplus/York (Gamma=1.0000).
                        Polarization charges: spherical gaussians, with
                                              point-specific exponents (IZeta= 3).
                        Self-potential: point-specific (ISelfS= 7).
                        Self-field    : sphere-specific E.n sum rule (ISelfD= 2).
 1st derivatives      : Analytical E(r).r(x)/FMM algorithm (CHGder, D1EAlg=3).
                        Cavity 1st derivative terms included.
 Solvent              : Water, Eps=  78.355300 Eps(inf)=   1.777849
 ------------------------------------------------------------------------------
 Spheres list:
 ISph  on   Nord    Re0     Alpha      Xe            Ye            Ze
    1   N      1    1.830   1.100      0.173858      2.021921     -0.052022
    2   H      2    1.443   1.100     -0.065189      2.121533      0.930317
    3   C      3    1.926   1.100      0.309647      0.614581     -0.425380
    4   H      4    1.443   1.100      0.408688      0.550968     -1.509935
    5   C      5    1.926   1.100      1.563302      0.027238      0.223442
    6   C      6    1.926   1.100     -0.904906     -0.200550     -0.037836
    7   H      7    1.443   1.100      2.426017      0.605391     -0.120810
    8   H      8    1.443   1.100      1.490791      0.114657      1.313270
    9   O      9    1.750   1.100      1.655653     -1.340554     -0.174287
   10   O     10    1.750   1.100     -1.307152     -0.389888      1.160333
   11   H     11    1.443   1.100      2.351375     -1.766732      0.337331
   12   H     12    1.443   1.100     -0.554241      2.475150     -0.594127
   13   O     13    1.750   1.100     -1.714432     -0.760326     -0.850153
   14   H     14    1.443   1.100     -2.155256     -0.975895      0.359605
 ------------------------------------------------------------------------------
 GePol: Number of generator spheres                  =      14
 GePol: Total number of spheres                      =      14
 GePol: Number of exposed spheres                    =      14 (100.00%)
 GePol: Number of points                             =    1215
 GePol: Average weight of points                     =       0.13
 GePol: Minimum weight of points                     =   0.16D-10
 GePol: Maximum weight of points                     =    0.20577
 GePol: Number of points with low weight             =      71
 GePol: Fraction of low-weight points (<1% of avg)   =       5.84%
 GePol: Cavity surface area                          =    161.591 Ang**2
 GePol: Cavity volume                                =    150.207 Ang**3
 Leave Link  301 at Thu Apr 07 12:25:58 2016, MaxMem=   33554432 cpu:       0.0
 (Enter c:\G09w04\l302.exe)
 NPDir=0 NMtPBC=     1 NCelOv=     1 NCel=       1 NClECP=     1 NCelD=      1
         NCelK=      1 NCelE2=     1 NClLst=     1 CellRange=     0.0.
 One-electron integrals computed using PRISM.
 NBasis=   203 RedAO= T  NBF=   203
 NBsUse=   203 1.00D-06 NBFU=   203
 Precomputing XC quadrature grid using
 IXCGrd= 2 IRadAn=           0 IRanWt=          -1 IRanGd=           0 AccXCQ= 0.00D+00.
 NRdTot=     907 NPtTot=      115542 NUsed=      119776 NTot=      119792
 NSgBfM=   210   210   210   210   210 NAtAll=    14    14.
 Leave Link  302 at Thu Apr 07 12:25:59 2016, MaxMem=   33554432 cpu:       0.0
 (Enter c:\G09w04\l303.exe)
 DipDrv:  MaxL=1.
 Leave Link  303 at Thu Apr 07 12:25:59 2016, MaxMem=   33554432 cpu:       0.0
 (Enter c:\G09w04\l401.exe)
 Initial guess read from the read-write file.
 B after Tr=     0.000000    0.000000    0.000000
         Rot=    1.000000    0.000000    0.000000    0.000000 Ang=   0.00 deg.
 Guess basis will be translated and rotated to current coordinates.
 Initial guess orbital symmetries:
       Occupied  (A) (A) (A) (A) (A) (A) (A) (A) (A) (A) (A) (A)
                 (A) (A) (A) (A) (A) (A) (A) (A) (A) (A) (A) (A)
                 (A) (A) (A) (A)
       Virtual   (A) (A) (A) (A) (A) (A) (A) (A) (A) (A) (A) (A)
                 (A) (A) (A) (A) (A) (A) (A) (A) (A) (A) (A) (A)
                 (A) (A) (A) (A) (A) (A) (A) (A) (A) (A) (A) (A)
                 (A) (A) (A) (A) (A) (A) (A) (A) (A) (A) (A) (A)
                 (A) (A) (A) (A) (A) (A) (A) (A) (A) (A) (A) (A)
                 (A) (A) (A) (A) (A) (A) (A) (A) (A) (A) (A) (A)
                 (A) (A) (A) (A) (A) (A) (A) (A) (A) (A) (A) (A)
                 (A) (A) (A) (A) (A) (A) (A) (A) (A) (A) (A) (A)
                 (A) (A) (A) (A) (A) (A) (A) (A) (A) (A) (A) (A)
                 (A) (A) (A) (A) (A) (A) (A) (A) (A) (A) (A) (A)
                 (A) (A) (A) (A) (A) (A) (A) (A) (A) (A) (A) (A)
                 (A) (A) (A) (A) (A) (A) (A) (A) (A) (A) (A) (A)
                 (A) (A) (A) (A) (A) (A) (A) (A) (A) (A) (A) (A)
                 (A) (A) (A) (A) (A) (A) (A) (A) (A) (A) (A) (A)
                 (A) (A) (A) (A) (A) (A) (A)
 The electronic state of the initial guess is 1-A.
 Generating alternative initial guess.
 Harris functional with IExCor=  402 diagonalized for initial guess.
 ExpMin= 3.60D-02 ExpMax= 8.59D+03 ExpMxC= 1.30D+03 IAcc=3 IRadAn=         0 AccDes= 0.00D+00
 HarFok:  IExCor=  402 AccDes= 0.00D+00 IRadAn=         0 IDoV= 1
 ScaDFX=  1.000000  1.000000  1.000000  1.000000
 FoFCou: FMM=F IPFlag=           0 FMFlag=      100000 FMFlg1=           0
         NFxFlg=           0 DoJE=T BraDBF=F KetDBF=T FulRan=T
         Omega=  0.000000  0.000000  1.000000  0.000000  0.000000 ICntrl=     500 IOpCl=  0
         NMat0=    1 NMatS0=    1 NMatT0=    0 NMatD0=    1 NMtDS0=    0 NMtDT0=    0
         I1Cent=           4 NGrid=           0.
 Petite list used in FoFCou.
 Harris En= -399.038952917439    
 Leave Link  401 at Thu Apr 07 12:26:07 2016, MaxMem=   33554432 cpu:       7.0
 (Enter c:\G09w04\l502.exe)
 Closed shell SCF:
 Requested convergence on RMS density matrix=1.00D-08 within 128 cycles.
 Requested convergence on MAX density matrix=1.00D-06.
 Requested convergence on             energy=1.00D-06.
 No special actions if energy rises.
 Using DIIS extrapolation, IDIIS=  1040.
 Integral symmetry usage will be decided dynamically.
       119652 words used for storage of precomputed grid.
 IEnd=      272658 IEndB=      272658 NGot=    33554432 MDV=    33342725
 LenX=    33342725 LenY=    33298184
 Fock matrices will be formed incrementally for  20 cycles.

 Cycle   1  Pass 1  IDiag  1:
 FoFCou: FMM=F IPFlag=           0 FMFlag=      100000 FMFlg1=           0
         NFxFlg=           0 DoJE=F BraDBF=F KetDBF=F FulRan=T
         Omega=  0.000000  0.000000  1.000000  0.000000  0.000000 ICntrl=       0 IOpCl=  0
         NMat0=    1 NMatS0=    1 NMatT0=    0 NMatD0=    1 NMtDS0=    0 NMtDT0=    0
         I1Cent=           0 NGrid=           0.
 Symmetry not used in FoFCou.
 E= -399.027530125214    
 DIIS: error= 8.02D-03 at cycle   1 NSaved=   1.
 NSaved= 1 IEnMin= 1 EnMin= -399.027530125214     IErMin= 1 ErrMin= 8.02D-03
 ErrMax= 8.02D-03 EMaxC= 1.00D-01 BMatC= 1.16D-02 BMatP= 1.16D-02
 IDIUse=3 WtCom= 9.20D-01 WtEn= 8.02D-02
 Coeff-Com:  0.100D+01
 Coeff-En:   0.100D+01
 Coeff:      0.100D+01
 Gap=     0.257 Goal=   None    Shift=    0.000
 GapD=    0.257 DampG=1.000 DampE=1.000 DampFc=1.0000 IDamp=-1.
 RMSDP=1.95D-03 MaxDP=1.25D-01              OVMax= 4.22D-02

 Cycle   2  Pass 1  IDiag  1:
 RMSU=  1.30D-03    CP:  9.65D-01
 E= -399.046744631692     Delta-E=       -0.019214506478 Rises=F Damp=F
 DIIS: error= 7.91D-04 at cycle   2 NSaved=   2.
 NSaved= 2 IEnMin= 2 EnMin= -399.046744631692     IErMin= 2 ErrMin= 7.91D-04
 ErrMax= 7.91D-04 EMaxC= 1.00D-01 BMatC= 3.04D-04 BMatP= 1.16D-02
 IDIUse=3 WtCom= 9.92D-01 WtEn= 7.91D-03
 Coeff-Com: -0.556D-01 0.106D+01
 Coeff-En:   0.000D+00 0.100D+01
 Coeff:     -0.552D-01 0.106D+01
 Gap=     0.242 Goal=   None    Shift=    0.000
 RMSDP=2.52D-04 MaxDP=2.66D-02 DE=-1.92D-02 OVMax= 8.66D-03

 Cycle   3  Pass 1  IDiag  1:
 RMSU=  1.51D-04    CP:  9.59D-01  1.03D+00
 E= -399.046849417084     Delta-E=       -0.000104785392 Rises=F Damp=F
 DIIS: error= 1.24D-03 at cycle   3 NSaved=   3.
 NSaved= 3 IEnMin= 3 EnMin= -399.046849417084     IErMin= 2 ErrMin= 7.91D-04
 ErrMax= 1.24D-03 EMaxC= 1.00D-01 BMatC= 3.02D-04 BMatP= 3.04D-04
 IDIUse=3 WtCom= 9.88D-01 WtEn= 1.24D-02
 Coeff-Com: -0.406D-01 0.553D+00 0.488D+00
 Coeff-En:   0.000D+00 0.315D+00 0.685D+00
 Coeff:     -0.401D-01 0.550D+00 0.490D+00
 Gap=     0.240 Goal=   None    Shift=    0.000
 RMSDP=1.24D-04 MaxDP=9.54D-03 DE=-1.05D-04 OVMax= 7.18D-03

 Cycle   4  Pass 1  IDiag  1:
 RMSU=  5.78D-05    CP:  9.61D-01  1.04D+00  6.18D-01
 E= -399.046997950144     Delta-E=       -0.000148533060 Rises=F Damp=F
 DIIS: error= 8.49D-04 at cycle   4 NSaved=   4.
 NSaved= 4 IEnMin= 4 EnMin= -399.046997950144     IErMin= 2 ErrMin= 7.91D-04
 ErrMax= 8.49D-04 EMaxC= 1.00D-01 BMatC= 9.23D-05 BMatP= 3.02D-04
 IDIUse=3 WtCom= 9.92D-01 WtEn= 8.49D-03
 Coeff-Com: -0.141D-01 0.180D+00 0.350D+00 0.485D+00
 Coeff-En:   0.000D+00 0.000D+00 0.273D+00 0.727D+00
 Coeff:     -0.140D-01 0.178D+00 0.349D+00 0.487D+00
 Gap=     0.241 Goal=   None    Shift=    0.000
 RMSDP=4.85D-05 MaxDP=2.80D-03 DE=-1.49D-04 OVMax= 3.52D-03

 Cycle   5  Pass 1  IDiag  1:
 RMSU=  1.59D-05    CP:  9.60D-01  1.04D+00  6.94D-01  5.56D-01
 E= -399.047058528597     Delta-E=       -0.000060578453 Rises=F Damp=F
 DIIS: error= 1.97D-04 at cycle   5 NSaved=   5.
 NSaved= 5 IEnMin= 5 EnMin= -399.047058528597     IErMin= 5 ErrMin= 1.97D-04
 ErrMax= 1.97D-04 EMaxC= 1.00D-01 BMatC= 7.08D-06 BMatP= 9.23D-05
 IDIUse=3 WtCom= 9.98D-01 WtEn= 1.97D-03
 Coeff-Com: -0.584D-02 0.735D-01 0.190D+00 0.314D+00 0.429D+00
 Coeff-En:   0.000D+00 0.000D+00 0.000D+00 0.000D+00 0.100D+01
 Coeff:     -0.583D-02 0.734D-01 0.190D+00 0.313D+00 0.430D+00
 Gap=     0.241 Goal=   None    Shift=    0.000
 RMSDP=1.19D-05 MaxDP=5.79D-04 DE=-6.06D-05 OVMax= 7.10D-04

 Cycle   6  Pass 1  IDiag  1:
 RMSU=  6.65D-06    CP:  9.60D-01  1.04D+00  7.11D-01  5.69D-01  7.63D-01
 E= -399.047063565868     Delta-E=       -0.000005037271 Rises=F Damp=F
 DIIS: error= 4.33D-05 at cycle   6 NSaved=   6.
 NSaved= 6 IEnMin= 6 EnMin= -399.047063565868     IErMin= 6 ErrMin= 4.33D-05
 ErrMax= 4.33D-05 EMaxC= 1.00D-01 BMatC= 2.02D-07 BMatP= 7.08D-06
 IDIUse=1 WtCom= 1.00D+00 WtEn= 0.00D+00
 Coeff-Com:  0.363D-03-0.100D-01 0.382D-02 0.258D-01 0.151D+00 0.829D+00
 Coeff:      0.363D-03-0.100D-01 0.382D-02 0.258D-01 0.151D+00 0.829D+00
 Gap=     0.241 Goal=   None    Shift=    0.000
 RMSDP=3.69D-06 MaxDP=9.21D-05 DE=-5.04D-06 OVMax= 2.55D-04

 Cycle   7  Pass 1  IDiag  1:
 RMSU=  1.97D-06    CP:  9.60D-01  1.04D+00  7.17D-01  5.87D-01  8.17D-01
                    CP:  9.28D-01
 E= -399.047063730315     Delta-E=       -0.000000164447 Rises=F Damp=F
 DIIS: error= 1.77D-05 at cycle   7 NSaved=   7.
 NSaved= 7 IEnMin= 7 EnMin= -399.047063730315     IErMin= 7 ErrMin= 1.77D-05
 ErrMax= 1.77D-05 EMaxC= 1.00D-01 BMatC= 4.37D-08 BMatP= 2.02D-07
 IDIUse=1 WtCom= 1.00D+00 WtEn= 0.00D+00
 Coeff-Com:  0.595D-03-0.107D-01-0.998D-02-0.534D-02 0.581D-01 0.470D+00
 Coeff-Com:  0.497D+00
 Coeff:      0.595D-03-0.107D-01-0.998D-02-0.534D-02 0.581D-01 0.470D+00
 Coeff:      0.497D+00
 Gap=     0.241 Goal=   None    Shift=    0.000
 RMSDP=1.86D-06 MaxDP=1.16D-04 DE=-1.64D-07 OVMax= 5.33D-05

 Cycle   8  Pass 1  IDiag  1:
 RMSU=  6.46D-07    CP:  9.60D-01  1.04D+00  7.20D-01  5.87D-01  8.34D-01
                    CP:  9.66D-01  6.17D-01
 E= -399.047063766510     Delta-E=       -0.000000036195 Rises=F Damp=F
 DIIS: error= 2.64D-06 at cycle   8 NSaved=   8.
 NSaved= 8 IEnMin= 8 EnMin= -399.047063766510     IErMin= 8 ErrMin= 2.64D-06
 ErrMax= 2.64D-06 EMaxC= 1.00D-01 BMatC= 1.80D-09 BMatP= 4.37D-08
 IDIUse=1 WtCom= 1.00D+00 WtEn= 0.00D+00
 Coeff-Com:  0.188D-03-0.304D-02-0.422D-02-0.455D-02 0.826D-02 0.104D+00
 Coeff-Com:  0.198D+00 0.701D+00
 Coeff:      0.188D-03-0.304D-02-0.422D-02-0.455D-02 0.826D-02 0.104D+00
 Coeff:      0.198D+00 0.701D+00
 Gap=     0.241 Goal=   None    Shift=    0.000
 RMSDP=4.64D-07 MaxDP=3.77D-05 DE=-3.62D-08 OVMax= 2.06D-05

 Cycle   9  Pass 1  IDiag  1:
 RMSU=  2.31D-07    CP:  9.60D-01  1.04D+00  7.21D-01  5.86D-01  8.36D-01
                    CP:  9.84D-01  6.21D-01  1.03D+00
 E= -399.047063767782     Delta-E=       -0.000000001272 Rises=F Damp=F
 DIIS: error= 1.65D-06 at cycle   9 NSaved=   9.
 NSaved= 9 IEnMin= 9 EnMin= -399.047063767782     IErMin= 9 ErrMin= 1.65D-06
 ErrMax= 1.65D-06 EMaxC= 1.00D-01 BMatC= 4.55D-10 BMatP= 1.80D-09
 IDIUse=1 WtCom= 1.00D+00 WtEn= 0.00D+00
 Coeff-Com: -0.100D-04 0.403D-03-0.424D-03-0.145D-02-0.624D-02-0.315D-01
 Coeff-Com:  0.175D-01 0.382D+00 0.640D+00
 Coeff:     -0.100D-04 0.403D-03-0.424D-03-0.145D-02-0.624D-02-0.315D-01
 Coeff:      0.175D-01 0.382D+00 0.640D+00
 Gap=     0.241 Goal=   None    Shift=    0.000
 RMSDP=1.67D-07 MaxDP=1.09D-05 DE=-1.27D-09 OVMax= 7.94D-06

 Cycle  10  Pass 1  IDiag  1:
 RMSU=  4.24D-08    CP:  9.60D-01  1.04D+00  7.21D-01  5.87D-01  8.37D-01
                    CP:  9.83D-01  6.52D-01  1.06D+00  7.22D-01
 E= -399.047063768187     Delta-E=       -0.000000000405 Rises=F Damp=F
 DIIS: error= 7.94D-08 at cycle  10 NSaved=  10.
 NSaved=10 IEnMin=10 EnMin= -399.047063768187     IErMin=10 ErrMin= 7.94D-08
 ErrMax= 7.94D-08 EMaxC= 1.00D-01 BMatC= 1.62D-12 BMatP= 4.55D-10
 IDIUse=1 WtCom= 1.00D+00 WtEn= 0.00D+00
[...]
 RMS     Force            0.000001     0.000300     YES
 Maximum Displacement     0.000732     0.001800     YES
 RMS     Displacement     0.000184     0.001200     YES
 Predicted change in Energy=-1.729664D-09
 Optimization completed.
    -- Stationary point found.
                           ----------------------------
                           !   Optimized Parameters   !
                           ! (Angstroms and Degrees)  !
 --------------------------                            --------------------------
 ! Name  Definition              Value          Derivative Info.                !
 --------------------------------------------------------------------------------
 ! R1    R(1,2)                  1.016          -DE/DX =    0.0                 !
 ! R2    R(1,3)                  1.4614         -DE/DX =    0.0                 !
 ! R3    R(1,12)                 1.0146         -DE/DX =    0.0                 !
 ! R4    R(3,4)                  1.0909         -DE/DX =    0.0                 !
 ! R5    R(3,5)                  1.531          -DE/DX =    0.0                 !
 ! R6    R(3,6)                  1.5132         -DE/DX =    0.0                 !
 ! R7    R(5,7)                  1.0939         -DE/DX =    0.0                 !
 ! R8    R(5,8)                  1.0958         -DE/DX =    0.0                 !
 ! R9    R(5,9)                  1.427          -DE/DX =    0.0                 !
 ! R10   R(6,10)                 1.2781         -DE/DX =    0.0                 !
 ! R11   R(6,13)                 1.2759         -DE/DX =    0.0                 !
 ! R12   R(6,14)                 1.5237         -DE/DX =    0.0                 !
 ! R13   R(9,11)                 0.9631         -DE/DX =    0.0                 !
 ! R14   R(10,14)                1.3048         -DE/DX =    0.0                 !
 ! R15   R(13,14)                1.3061         -DE/DX =    0.0                 !
 ! A1    A(2,1,3)              111.2015         -DE/DX =    0.0                 !
 ! A2    A(2,1,12)             107.5995         -DE/DX =    0.0                 !
 ! A3    A(3,1,12)             111.0675         -DE/DX =    0.0                 !
 ! A4    A(1,3,4)              108.648          -DE/DX =    0.0                 !
 ! A5    A(1,3,5)              109.5028         -DE/DX =    0.0                 !
 ! A6    A(1,3,6)              112.6623         -DE/DX =    0.0                 !
 ! A7    A(4,3,5)              108.9226         -DE/DX =    0.0                 !
 ! A8    A(4,3,6)              107.188          -DE/DX =    0.0                 !
 ! A9    A(5,3,6)              109.8242         -DE/DX =    0.0                 !
 ! A10   A(3,5,7)              107.9501         -DE/DX =    0.0                 !
 ! A11   A(3,5,8)              109.5854         -DE/DX =    0.0                 !
 ! A12   A(3,5,9)              107.8862         -DE/DX =    0.0                 !
 ! A13   A(7,5,8)              108.8229         -DE/DX =    0.0                 !
 ! A14   A(7,5,9)              111.5863         -DE/DX =    0.0                 !
 ! A15   A(8,5,9)              110.9462         -DE/DX =    0.0                 !
 ! A16   A(3,6,10)             124.8102         -DE/DX =    0.0                 !
 ! A17   A(3,6,13)             125.7442         -DE/DX =    0.0                 !
 ! A18   A(10,6,13)            109.4165         -DE/DX =    0.0                 !
 ! A19   A(5,9,11)             108.775          -DE/DX =    0.0                 !
 ! A20   A(10,14,13)           105.9605         -DE/DX =    0.0                 !
 ! A21   L(3,6,14,1,-1)        178.5248         -DE/DX =    0.0                 !
 ! A22   L(3,6,14,1,-2)        179.4771         -DE/DX =    0.0                 !
 ! D1    D(2,1,3,4)            171.1972         -DE/DX =    0.0                 !
 ! D2    D(2,1,3,5)            -69.9465         -DE/DX =    0.0                 !
 ! D3    D(2,1,3,6)             52.5847         -DE/DX =    0.0                 !
 ! D4    D(12,1,3,4)            51.3974         -DE/DX =    0.0                 !
 ! D5    D(12,1,3,5)           170.2537         -DE/DX =    0.0                 !
 ! D6    D(12,1,3,6)           -67.2151         -DE/DX =    0.0                 !
 ! D7    D(1,3,5,7)            -60.0526         -DE/DX =    0.0                 !
 ! D8    D(1,3,5,8)             58.3226         -DE/DX =    0.0                 !
 ! D9    D(1,3,5,9)            179.2225         -DE/DX =    0.0                 !
 ! D10   D(4,3,5,7)             58.6336         -DE/DX =    0.0                 !
 ! D11   D(4,3,5,8)            177.0088         -DE/DX =    0.0                 !
 ! D12   D(4,3,5,9)            -62.0913         -DE/DX =    0.0                 !
 ! D13   D(6,3,5,7)            175.7407         -DE/DX =    0.0                 !
 ! D14   D(6,3,5,8)            -65.8841         -DE/DX =    0.0                 !
 ! D15   D(6,3,5,9)             55.0158         -DE/DX =    0.0                 !
 ! D16   D(1,3,6,10)           -57.5709         -DE/DX =    0.0                 !
 ! D17   D(1,3,6,13)           120.2527         -DE/DX =    0.0                 !
 ! D18   D(4,3,6,10)          -177.0338         -DE/DX =    0.0                 !
 ! D19   D(4,3,6,13)             0.7899         -DE/DX =    0.0                 !
 ! D20   D(5,3,6,10)            64.7796         -DE/DX =    0.0                 !
 ! D21   D(5,3,6,13)          -117.3967         -DE/DX =    0.0                 !
 ! D22   D(3,5,9,11)          -173.5918         -DE/DX =    0.0                 !
 ! D23   D(7,5,9,11)            67.9868         -DE/DX =    0.0                 !
 ! D24   D(8,5,9,11)           -53.5457         -DE/DX =    0.0                 !
 ! D25   D(13,10,14,6)           0.1465         -DE/DX =    0.0                 !
 --------------------------------------------------------------------------------
 GradGradGradGradGradGradGradGradGradGradGradGradGradGradGradGradGradGrad

 Leave Link  103 at Thu Apr 07 13:13:06 2016, MaxMem=   33554432 cpu:       0.0
 (Enter c:\G09w04\l9999.exe)

 Test job not archived.
 1|1|UNPC-WIN-20150318OUM|Freq|RB3LYP|6-311++G(d,p)|C3H7N1O3|ADMINISTRA
 TOR|07-Apr-2016|0||#P Geom=AllCheck Guess=TCheck SCRF=Check Test GenCh
 k RB3LYP/6-311++G(d,p) Freq||Ser-S-opt-freq-ts1-6-311++gdp||0,1|N,0.12
 77681294,2.0265446981,0.0271044198|H,-0.1084504669,2.0822745184,1.0136
 952587|C,0.2821307958,0.6380275722,-0.4017806149|H,0.3780470618,0.6171
 47145,-1.4882561102|C,1.5511109753,0.0490678855,0.2200692008|C,-0.9114
 556347,-0.2195262553,-0.0416930999|H,2.4020245085,0.645968338,-0.12100
 29715|H,1.4890509093,0.1136389766,1.3122500438|O,1.6581590226,-1.30884
 88722,-0.2054336351|O,-1.360062024,-0.3848429891,1.1436078455|H,2.3950
 911067,-1.7215149994,0.2573443095|H,-0.6115636485,2.4885507135,-0.4919
 419433|O,-1.6481983395,-0.8555996306,-0.8665874135|H,-2.1337093959,-1.
 0499301007,0.3302407102||Version=IA32W-G09RevB.01|State=1-A|HF=-399.04
 71081|RMSD=1.612e-009|RMSF=7.190e-006|ZeroPoint=0.1075938|Thermal=0.11
 55405|Dipole=0.713327,0.6687445,0.4876068|DipoleDeriv=-0.6346121,-0.13
 50309,0.0633859,-0.1204325,-0.812886,-0.0038035,0.0557554,-0.0481683,-
 0.3467867,0.2994519,0.0915854,0.0939737,0.0614996,0.2227987,0.0807259,
 0.0527127,0.0171867,0.1123117,0.2065949,-0.0771188,-0.065951,-0.054554
 8,0.533897,0.0183051,-0.1019721,0.1058273,0.2402837,0.0408964,-0.01476
 61,-0.0088368,-0.010831,0.0314507,-0.0077713,0.0127153,-0.0175784,-0.0
 895496,0.414231,-0.1481434,-0.0996413,-0.170935,0.9674663,0.1462778,-0
 .034451,0.1597344,0.4346527,1.1133359,0.6174811,0.0616438,0.5856925,0.
 6656133,0.2149747,-0.0036124,0.1898985,1.772565,-0.1119319,-0.1147082,
 0.0375064,-0.0547703,-0.0841191,0.0135908,0.0621163,0.0315949,0.047963
 1,0.0491084,0.0340517,0.0439856,0.0390675,-0.0298676,-0.0246705,-0.003
 274,-0.0703936,-0.1816953,-0.6099871,0.185155,0.1517745,0.1847171,-1.1
 885707,-0.0880843,0.1354932,-0.0760017,-0.5689808,-0.7537569,-0.230008
 1,0.1078338,-0.2136954,-0.6109768,-0.0763454,0.0735986,-0.0634309,-1.5
 556063,0.3164008,0.0102714,-0.0942386,-0.009766,0.3384572,-0.0419434,-
 0.0924168,-0.0339404,0.3376731,0.1430534,0.1345788,-0.0987488,0.047601
 8,0.2530145,-0.0665927,-0.0618984,-0.0721075,0.207104,-0.8275996,-0.37
 53159,-0.2824378,-0.3107247,-0.6653941,-0.3200295,-0.2008236,-0.283669
 2,-1.3898336,0.3548148,0.021968,0.0897505,0.027131,0.3791166,0.1553661
 ,0.106057,0.1610481,0.9798989|Polar=72.2465355,6.9162127,73.6605631,1.
 1355654,3.2203407,73.1766669|PG=C01 [X(C3H7N1O3)]|NImag=1||0.35170781,
 -0.19934632,0.42455139,0.06548555,-0.01459041,0.66733807,-0.05051485,0
 .02981630,0.11227915,0.04824033,0.02099913,-0.04962431,0.00552593,-0.0
 2255815,0.05819882,0.06987720,-0.01895633,-0.40250087,-0.08261620,0.01
 988323,0.42741534,-0.06186388,0.00880763,-0.00739651,-0.00396190,0.008
 17295,0.00382547,0.45338679,0.03866656,-0.19194495,-0.03868881,-0.0069
 5896,-0.00574750,0.00042190,-0.00733043,0.45049384,0.00150874,-0.02549
 624,-0.11220641,0.00219305,-0.04031135,-0.00947358,-0.01147347,0.00495
 589,0.63819030,0.00032487,0.00176285,0.00433764,0.00049686,0.00095097,
 0.00024334,-0.05213493,-0.00144189,0.02163369,0.05954001,0.00325725,-0
 .00665452,-0.03889678,0.00104619,-0.00608583,-0.00184170,-0.00164183,-
 0.04974530,0.00365211,0.00206087,0.06113220,0.00065761,-0.00412495,-0.
 00830223,0.00016372,-0.00117334,0.00156313,0.02711926,0.00008607,-0.31
 187717,-0.02652478,0.00368468,0.33695038,0.00047147,0.00558705,0.00057
 604,0.00026307,-0.00064123,0.00016188,-0.15180503,0.02177743,-0.042996
 52,0.00048219,-0.00084580,-0.00117097,0.53648584,0.02880464,-0.0246957
 6,0.01365712,0.00040368,0.00088221,-0.00003909,0.01724398,-0.07247595,
 0.01760298,0.00039056,-0.00013030,0.00049804,0.05178123,0.46939855,0.0
 0962874,-0.00766343,0.00536527,0.00222656,-0.00133119,0.00088836,-0.03
 925937,0.01619147,-0.10542722,-0.03073796,0.01280466,-0.01403599,-0.02
 380285,-0.02232017,0.57787941,0.01089614,0.00214585,-0.00519901,-0.000
 01607,-0.00083503,-0.00098311,-0.15337526,-0.04100752,0.02956255,-0.00
 350744,-0.00101856,-0.00004173,-0.04100824,-0.01058583,0.00279678,0.60
 032116,-0.02067917,-0.04079651,-0.00125216,-0.00011903,0.00029575,0.00
 042295,-0.03127474,-0.09837596,0.02389847,-0.00157431,0.00057854,0.000
 13985,0.00402437,0.02046328,-0.00922712,0.25685831,0.40697438,-0.00766
 670,-0.00843253,0.00293654,-0.00236357,-0.00335439,-0.00001461,0.01981
 869,0.01840074,-0.09480414,0.02902181,0.01948331,-0.01023659,-0.010904
 28,-0.01171358,0.00666593,-0.04890480,0.02289292,0.65408248,0.00254520
 ,-0.00053307,0.00031564,-0.00001903,-0.00006384,-0.00006904,-0.0258445
 9,-0.01330820,0.00908171,0.00142263,-0.00041673,-0.00002946,-0.2105666
 4,-0.10266941,0.06797179,-0.00116644,0.00505199,-0.00327326,0.22352583
 ,0.00020039,0.00118995,-0.00004913,0.00015409,-0.00004513,0.00005422,0
 .01031351,0.00608227,-0.00347852,-0.00052559,0.00045886,-0.00015619,-0
 .10151280,-0.11075633,0.04500771,0.00147279,-0.00343068,0.00119274,0.1
 1329417,0.13643815,0.00109166,-0.00086149,0.00023124,-0.00004672,0.000
 17668,-0.00001256,-0.01582492,-0.00556984,0.00352806,0.00030743,-0.000
 81783,0.00101498,0.07215633,0.04534060,-0.08371051,-0.00179378,0.00296
 205,-0.00160901,-0.07113400,-0.04537078,0.08210540,0.00150855,-0.00172
 897,0.00092834,-0.00001067,0.00030409,0.00030254,-0.00103118,0.0003801
 6,-0.03020624,-0.00414011,0.00218394,-0.00192389,-0.05493058,-0.001985
 16,0.01731085,0.00220479,0.00017199,-0.00158358,0.00016437,-0.00070368
 ,0.02557255,0.05313657,-0.00071447,0.00114807,0.00006236,0.00025692,0.
 00003657,-0.00014332,-0.00057718,0.00051831,0.01313072,0.00283406,-0.0
 0073559,0.00056344,-0.00035462,-0.04876796,0.00240791,-0.00077137,-0.0
 0011619,-0.00027489,-0.00063382,0.00317634,0.01531499,-0.00262709,0.06
 189681,0.00021586,0.00000823,0.00133044,-0.00050099,0.00085150,0.00008
 005,-0.00010080,0.00035945,-0.01442453,-0.00208769,0.00061601,0.000462
 55,0.01529011,-0.00239156,-0.29881761,0.00128391,0.00081598,-0.0010383
 4,0.00035177,0.00092768,-0.00940270,-0.01519604,0.01114282,0.32451601,
 -0.00663969,0.00555677,-0.00427457,-0.00011307,-0.00019804,-0.00024628
 ,0.00142390,0.03323357,0.01215193,0.00142053,-0.00059383,0.00055956,-0
 .08230326,0.02346840,-0.00855451,0.00348220,-0.00133594,0.00124457,0.0
 1044059,-0.02206485,-0.01032517,0.00237214,0.00390431,0.00178979,0.382
 86002,0.00611239,-0.00389013,0.00342477,-0.00005421,0.00021789,0.00028
 299,0.00464973,-0.02688487,-0.00817587,-0.00130023,0.00103177,0.000116
 41,-0.00793349,-0.19694398,-0.05759844,-0.00325723,-0.00253431,0.00084
 860,0.00211879,-0.03598778,-0.01021288,0.00406412,-0.01925103,-0.01146
 899,-0.18264077,0.39888647,-0.00330688,0.00289440,-0.00097132,-0.00061
 722,0.00052602,-0.00003039,0.00159585,0.01289838,0.00733994,0.00156486
 ,-0.00029923,0.00113317,-0.02117876,-0.03024207,-0.09011107,0.00079620
 ,-0.00048401,-0.00063696,-0.00301919,0.00282705,0.00696420,0.00333903,
 -0.04153128,-0.00536285,0.21503736,-0.01950751,0.21768253,-0.00194090,
 -0.00283626,0.00046834,0.00083393,0.00151666,0.00012445,-0.00019533,-0
 .00246769,0.03161608,-0.00593002,-0.00511108,0.00160885,0.00340850,-0.
 00158587,0.00098250,-0.14664906,-0.04098702,0.07024341,-0.00045921,0.0
 0035487,0.00026248,0.00067881,0.00019514,0.00013814,-0.00143678,0.0010
 6275,0.00025965,0.09747376,-0.00150337,0.00180583,0.00152553,0.0007466
 6,0.00140406,0.00040658,-0.00870053,0.00484862,0.01930148,-0.00458735,
 -0.00237235,0.00125566,-0.00035539,-0.00304857,0.00196772,-0.03297884,
 -0.10044569,0.00709434,-0.00075523,0.00073281,-0.00044820,0.00045721,-
 0.00002849,-0.00003948,0.00048300,0.00107685,-0.00025048,0.01914319,0.
 06571975,0.00116047,0.00043045,0.00070251,-0.00003725,0.00109791,0.000
 16752,0.00552842,0.00152563,-0.00790482,0.00132514,0.00107816,0.001685
 55,-0.00113259,0.00214318,-0.00201926,0.11802554,0.04156679,-0.4019494
 9,0.00041549,-0.00041444,0.00085548,0.00073854,-0.00024184,0.00105303,
 0.00021293,-0.00059925,0.00051054,-0.10670009,-0.00502678,0.60037024,-
 0.00001562,-0.00032735,-0.00056768,-0.00006145,0.00001216,0.00000856,0
 .00054774,0.00132162,0.00112343,0.00007292,-0.00013003,0.00001072,-0.0
 0137499,-0.00366676,-0.00136844,0.00024160,-0.00059441,-0.00012134,0.0
 0070768,-0.00111467,-0.00008856,0.00042570,-0.00146238,-0.00065181,-0.
 30967688,0.17486148,-0.19315810,0.00018808,0.00003581,-0.00002356,0.30
 880602,0.00161761,-0.00092747,0.00091526,0.00007421,-0.00005543,-0.000
 01171,-0.00210482,-0.00512850,-0.00312465,-0.00038622,0.00013680,-0.00
 004686,0.03266341,-0.02113405,0.01966268,0.00031840,-0.00044499,-0.000
 29382,-0.00010907,0.00081369,0.00083027,0.00012612,0.00193133,-0.00035
 128,0.13716357,-0.11603449,0.07193087,-0.00004455,0.00009613,0.0000218
 5,-0.16936318,0.14097468,0.00066513,-0.00081704,0.00092035,-0.00005308
 ,0.00014601,0.00002986,0.00022308,-0.00220719,-0.00117230,0.00013117,-
 0.00012046,0.00036068,0.01305696,-0.01092721,0.00426954,-0.00047569,-0
 .00028307,-0.00014847,-0.00057613,-0.00048430,-0.00002674,0.00069361,-
 0.00038133,0.00087995,-0.20874966,0.10441309,-0.13714376,0.00014319,0.
 00005636,0.00002922,0.19473455,-0.08922072,0.13206071,-0.23965534,0.15
 967748,-0.16654118,0.00461281,-0.00741366,0.00893825,-0.00499420,-0.00
 763315,-0.00045908,0.00003021,-0.00003152,0.00011514,0.00061957,0.0015
 0329,0.00139238,0.00203692,-0.00138316,0.00054833,0.00043000,-0.000129
 19,0.00012698,0.00009354,-0.00017819,-0.00009621,-0.00059177,0.0007597
 3,-0.00059737,-0.00028608,0.00007380,0.00008954,0.00014856,0.00025196,
 0.00007288,0.23742750,0.12201187,-0.10935169,0.06838758,-0.00268937,0.
 00104983,-0.00060485,0.02585121,-0.02048388,0.01826705,-0.00021470,0.0
 0156724,-0.00021619,-0.00252889,-0.00420886,-0.00300449,0.00116306,-0.
 00081115,0.00111601,0.00015927,0.00014804,-0.00010993,-0.00025547,0.00
 001146,0.00000978,0.00185823,-0.00084060,0.00080725,-0.00020075,0.0003
 0690,-0.00006896,0.00013525,-0.00036931,-0.00030155,-0.14593511,0.1329
 0238,-0.13886449,0.07770967,-0.15560234,-0.03071394,0.01772290,-0.0185
 3908,0.01186078,-0.00750528,0.00775780,0.00040735,0.00018632,0.0005133
 5,-0.00077537,-0.00210866,-0.00096335,0.00097955,0.00035501,-0.0001695
 9,-0.00017977,-0.00002096,-0.00014561,0.00019111,-0.00001461,0.0004156
 5,0.00114830,-0.00145714,0.00065256,-0.00011952,-0.00013314,0.00015181
 ,0.00004108,-0.00034359,-0.00009371,0.15664508,-0.08420170,0.16614164,
 -0.00624398,-0.00738886,0.00038338,0.00042213,0.00017598,0.00062139,-0
 .00323072,-0.01292928,-0.02325595,0.00166340,0.00093982,-0.00074937,0.
 00004400,-0.00317205,0.00147428,-0.21313781,-0.11162506,-0.08913060,-0
 .00127119,0.00033191,-0.00024837,-0.00034322,0.00010089,-0.00032276,-0
 .00150032,0.00150108,-0.00063613,0.07537083,0.01716851,-0.01239206,-0.
 00001321,-0.00027495,0.00016016,0.00005237,0.00054669,-0.00058186,0.18
 768625,-0.00062451,-0.00170180,0.00019189,0.00005042,-0.00009227,0.000
 23006,-0.01842958,0.00417776,-0.01772761,0.00140342,0.00045064,-0.0004
 1991,-0.00084070,-0.00756019,0.00282824,-0.11555371,-0.17229434,-0.090
 89657,-0.00186390,0.00108989,-0.00089025,-0.00010660,0.00016774,-0.000
 24619,0.00094062,0.00116217,0.00047868,0.00939821,0.05238324,-0.039017
 79,0.00030294,0.00016787,0.00012526,0.00035549,0.00023273,-0.00025615,
 0.12399768,0.16495800,-0.00023069,0.00091014,0.00172558,0.00063444,0.0
 0165142,0.00045948,0.00464198,0.00071319,0.00867590,-0.00194557,-0.001
 18246,0.00228420,0.00154061,0.00060981,-0.00008167,-0.13712092,-0.1238
 7247,-0.27798096,0.00023588,0.00002867,0.00043726,0.00048390,-0.000074
 42,0.00065645,0.00000563,0.00005625,0.00031577,-0.07236399,-0.08149214
 ,-0.17516029,0.00016422,0.00012532,0.00009260,-0.00031603,-0.00022369,
 -0.00008296,0.19065472,0.18560263,0.41871903,-0.00057979,-0.00119309,-
 0.00079512,-0.00017209,-0.00042200,-0.00018846,0.00307860,-0.00230223,
 -0.00047991,0.00025890,0.00030131,0.00020534,0.00021411,0.00006929,-0.
 00006074,-0.06032250,-0.05653382,0.04307133,0.00009081,-0.00007095,-0.
 00005591,-0.00012870,0.00002780,-0.00011329,0.00026238,0.00005586,-0.0
 0007932,-0.02105653,0.01077254,-0.00721053,0.00000386,0.00006751,-0.00
 002616,0.00007592,0.00009872,-0.00003831,-0.03949853,0.00097022,0.0136
 1580,0.11777355,0.00119802,0.00089190,-0.00021314,-0.00016875,-0.00043
 466,-0.00010492,-0.00497990,0.00466611,-0.00249443,0.00062756,0.000367
 86,-0.00020670,-0.00082057,-0.00102208,0.00027446,-0.05595032,-0.00906
 214,0.04393712,-0.00027097,0.00008994,-0.00034339,-0.00028065,0.000012
 61,-0.00023393,0.00022496,-0.00000796,-0.00004805,0.02156239,-0.022479
 10,-0.00249490,-0.00001048,-0.00002626,0.00000216,0.00008221,-0.000153
 10,0.00006734,-0.00937235,-0.04314145,0.01714775,0.04815885,0.07029833
 ,-0.00022222,-0.00101047,-0.00096681,-0.00054797,-0.00141132,-0.000032
 66,-0.00055845,-0.00158159,-0.00820184,0.00232357,0.00165323,-0.001515
 99,-0.00082058,-0.00010937,0.00009818,0.04107452,0.04206482,0.12490321
 ,-0.00009143,-0.00006375,-0.00022948,-0.00065073,0.00003947,-0.0003481
 0,0.00000011,-0.00012202,-0.00034235,0.07333651,0.05578256,-0.01849203
 ,-0.00010307,-0.00009361,-0.00005794,0.00008129,0.00014368,-0.00003617
 ,-0.06597683,-0.04000228,0.01993962,-0.04784471,-0.05528935,-0.1147176
 4||0.00000230,0.00000185,0.00000908,-0.00000220,-0.00000558,0.00001071
 ,0.00000374,0.00000373,0.00000084,0.00000772,0.00001051,0.00000401,0.0
 0000049,-0.00000016,0.00000539,-0.00000101,0.00000046,-0.00000793,0.00
 000203,-0.00000417,0.00001300,-0.00000536,-0.00001069,0.00000377,-0.00
 000021,-0.00000258,0.00000012,-0.00000978,-0.00000715,-0.00001343,-0.0
 0000534,-0.00000544,-0.00000295,0.00000553,0.00000454,0.00000987,0.000
 00481,0.00001236,-0.00001826,-0.00000271,0.00000234,-0.00001422|||@


 THE GREAT THING ABOUT BEING IMPERFECT IS THE JOY IT BRINGS OTHERS.
   -- SIGN OUTSIDE LAKE AGASSIZ JR. HIGH SCHOOL, FARGO, N.D.
 Job cpu time:  0 days  0 hours 27 minutes 54.0 seconds.
 File lengths (MBytes):  RWF=     78 Int=      0 D2E=      0 Chk=     10 Scr=      1
 Normal termination of Gaussian 09 at Thu Apr 07 13:13:06 2016.
