 Entering Link 1 = c:\GAUSSION09\l1.exe PID=      4044.
  
 Copyright (c) 1988,1990,1992,1993,1995,1998,2003,2009,2010,
            Gaussian, Inc.  All Rights Reserved.
  
 This is part of the Gaussian(R) 09 program.  It is based on
 the Gaussian(R) 03 system (copyright 2003, Gaussian, Inc.),
 the Gaussian(R) 98 system (copyright 1998, Gaussian, Inc.),
 the Gaussian(R) 94 system (copyright 1995, Gaussian, Inc.),
 the Gaussian 92(TM) system (copyright 1992, Gaussian, Inc.),
 the Gaussian 90(TM) system (copyright 1990, Gaussian, Inc.),
 the Gaussian 88(TM) system (copyright 1988, Gaussian, Inc.),
 the Gaussian 86(TM) system (copyright 1986, Carnegie Mellon
 University), and the Gaussian 82(TM) system (copyright 1983,
 Carnegie Mellon University). Gaussian is a federally registered
 trademark of Gaussian, Inc.
  
 This software contains proprietary and confidential information,
 including trade secrets, belonging to Gaussian, Inc.
  
 This software is provided under written license and may be
 used, copied, transmitted, or stored only in accord with that
 written license.
  
 The following legend is applicable only to US Government
 contracts under FAR:
  
                    RESTRICTED RIGHTS LEGEND
  
 Use, reproduction and disclosure by the US Government is
 subject to restrictions as set forth in subparagraphs (a)
 and (c) of the Commercial Computer Software - Restricted
 Rights clause in FAR 52.227-19.
  
 Gaussian, Inc.
 340 Quinnipiac St., Bldg. 40, Wallingford CT 06492
  
  
 ---------------------------------------------------------------
 Warning -- This program may not be used in any manner that
 competes with the business of Gaussian, Inc. or will provide
 assistance to any competitor of Gaussian, Inc.  The licensee
 of this program is prohibited from giving any competitor of
 Gaussian, Inc. access to this program.  By using this program,
 the user acknowledges that Gaussian, Inc. is engaged in the
 business of creating and licensing software in the field of
 computational chemistry and represents and warrants to the
 licensee that it is not a competitor of Gaussian, Inc. and that
 it will not use this program in any manner prohibited above.
 ---------------------------------------------------------------
  

 Cite this work as:
 Gaussian 09, Revision B.01,
 M. J. Frisch, G. W. Trucks, H. B. Schlegel, G. E. Scuseria, 
 M. A. Robb, J. R. Cheeseman, G. Scalmani, V. Barone, B. Mennucci, 
 G. A. Petersson, H. Nakatsuji, M. Caricato, X. Li, H. P. Hratchian, 
 A. F. Izmaylov, J. Bloino, G. Zheng, J. L. Sonnenberg, M. Hada, 
 M. Ehara, K. Toyota, R. Fukuda, J. Hasegawa, M. Ishida, T. Nakajima, 
 Y. Honda, O. Kitao, H. Nakai, T. Vreven, J. A. Montgomery, Jr., 
 J. E. Peralta, F. Ogliaro, M. Bearpark, J. J. Heyd, E. Brothers, 
 K. N. Kudin, V. N. Staroverov, T. Keith, R. Kobayashi, J. Normand, 
 K. Raghavachari, A. Rendell, J. C. Burant, S. S. Iyengar, J. Tomasi, 
 M. Cossi, N. Rega, J. M. Millam, M. Klene, J. E. Knox, J. B. Cross, 
 V. Bakken, C. Adamo, J. Jaramillo, R. Gomperts, R. E. Stratmann, 
 O. Yazyev, A. J. Austin, R. Cammi, C. Pomelli, J. W. Ochterski, 
 R. L. Martin, K. Morokuma, V. G. Zakrzewski, G. A. Voth, 
 P. Salvador, J. J. Dannenberg, S. Dapprich, A. D. Daniels, 
 O. Farkas, J. B. Foresman, J. V. Ortiz, J. Cioslowski, 
 and D. J. Fox, Gaussian, Inc., Wallingford CT, 2010.
 
 ******************************************
 Gaussian 09:  IA32W-G09RevB.01 12-Aug-2010
                01-Apr-2016 
 ******************************************
 %chk=E:\YangJ\Amiano\ser\ts1\s\Ser-S-opt-freq-ts1-6-311++gdp.chk
 ----------------------------------------------------------------------
 # opt=(calcfc,ts) freq rb3lyp/6-311++g(d,p) iop(1/11=1) geom=connectiv
 ity
 ----------------------------------------------------------------------
 1/5=1,10=4,11=1,14=-1,18=20,26=3,38=1,57=2/1,3;
 2/9=110,12=2,17=6,18=5,40=1/2;
 3/5=4,6=6,7=1111,11=2,16=1,25=1,30=1,71=2,74=-5,116=1/1,2,3;
 4//1;
 5/5=2,38=5/2;
 8/6=4,10=90,11=11/1;
 11/6=1,8=1,9=11,15=111,16=1/1,2,10;
 10/6=1,7=6,13=1/2;
 6/7=2,8=2,9=2,10=2,28=1/1;
 7/10=1,18=20,25=1/1,2,3,16;
 1/5=1,10=4,11=1,14=-1,18=20/3(2);
 2/9=110/2;
 99//99;
 2/9=110/2;
 3/5=4,6=6,7=1111,11=2,16=1,25=1,30=1,71=1,74=-5,116=1/1,2,3;
 4/5=5,16=3/1;
 5/5=2,38=5/2;
 7//1,2,3,16;
 1/5=1,11=1,14=-1,18=20/3(-5);
 2/9=110/2;
 6/7=2,8=2,9=2,10=2,19=2,28=1/1;
 99/9=1/99;
 -----------------------------
 Ser-S-opt-freq-ts1-6-311++gdp
 -----------------------------
 Symbolic Z-matrix:
 Charge =  0 Multiplicity = 1
 N                     0.11975   2.00898   0.04633 
 H                    -0.09763   2.12451   1.0287 
 C                     0.31098   0.63163  -0.39753 
 H                     0.41957   0.62158  -1.48387 
 C                     1.5764    0.04431   0.22596 
 C                    -0.88322  -0.21943  -0.04621 
 H                     2.42948   0.66901  -0.06112 
 H                     1.47953   0.04614   1.3199 
 O                     1.69171  -1.30495  -0.29842 
 O                    -1.20536  -0.58628   1.16957 
 H                     2.26638  -1.85664   0.26494 
 H                    -0.4259    2.60134  -0.56415 
 O                    -1.82691  -0.60655  -0.85815 
 H                    -2.21022  -1.02565   0.37398 
 

 GradGradGradGradGradGradGradGradGradGradGradGradGradGradGradGradGradGrad
 Berny optimization.
 Initialization pass.
                           ----------------------------
                           !    Initial Parameters    !
                           ! (Angstroms and Degrees)  !
 --------------------------                            --------------------------
 ! Name  Definition              Value          Derivative Info.                !
 --------------------------------------------------------------------------------
 ! R1    R(1,2)                  1.0127         calculate D2E/DX2 analytically  !
 ! R2    R(1,3)                  1.4597         calculate D2E/DX2 analytically  !
 ! R3    R(1,12)                 1.0106         calculate D2E/DX2 analytically  !
 ! R4    R(3,4)                  1.0918         calculate D2E/DX2 analytically  !
 ! R5    R(3,5)                  1.5281         calculate D2E/DX2 analytically  !
 ! R6    R(3,6)                  1.5079         calculate D2E/DX2 analytically  !
 ! R7    R(5,7)                  1.0956         calculate D2E/DX2 analytically  !
 ! R8    R(5,8)                  1.0982         calculate D2E/DX2 analytically  !
 ! R9    R(5,9)                  1.4522         calculate D2E/DX2 analytically  !
 ! R10   R(6,10)                 1.3101         calculate D2E/DX2 analytically  !
 ! R11   R(6,13)                 1.3037         calculate D2E/DX2 analytically  !
 ! R12   R(6,14)                 1.6086         calculate D2E/DX2 analytically  !
 ! R13   R(9,11)                 0.9757         calculate D2E/DX2 analytically  !
 ! R14   R(10,14)                1.3549         calculate D2E/DX2 analytically  !
 ! R15   R(13,14)                1.3567         calculate D2E/DX2 analytically  !
 ! A1    A(2,1,3)              115.5133         calculate D2E/DX2 analytically  !
 ! A2    A(2,1,12)             113.7787         calculate D2E/DX2 analytically  !
 ! A3    A(3,1,12)             116.1126         calculate D2E/DX2 analytically  !
 ! A4    A(1,3,4)              108.9215         calculate D2E/DX2 analytically  !
 ! A5    A(1,3,5)              110.31           calculate D2E/DX2 analytically  !
 ! A6    A(1,3,6)              110.975          calculate D2E/DX2 analytically  !
 ! A7    A(4,3,5)              108.6676         calculate D2E/DX2 analytically  !
 ! A8    A(4,3,6)              107.7814         calculate D2E/DX2 analytically  !
 ! A9    A(5,3,6)              110.1112         calculate D2E/DX2 analytically  !
 ! A10   A(3,5,7)              108.5862         calculate D2E/DX2 analytically  !
 ! A11   A(3,5,8)              109.4357         calculate D2E/DX2 analytically  !
 ! A12   A(3,5,9)              105.9943         calculate D2E/DX2 analytically  !
 ! A13   A(7,5,8)              109.1914         calculate D2E/DX2 analytically  !
 ! A14   A(7,5,9)              111.9211         calculate D2E/DX2 analytically  !
 ! A15   A(8,5,9)              111.6073         calculate D2E/DX2 analytically  !
 ! A16   A(3,6,10)             124.6775         calculate D2E/DX2 analytically  !
 ! A17   A(3,6,13)             126.5659         calculate D2E/DX2 analytically  !
 ! A18   A(10,6,13)            108.47           calculate D2E/DX2 analytically  !
 ! A19   A(5,9,11)             111.3238         calculate D2E/DX2 analytically  !
 ! A20   A(10,14,13)           102.9181         calculate D2E/DX2 analytically  !
 ! A21   L(3,6,14,1,-1)        175.6091         calculate D2E/DX2 analytically  !
 ! A22   L(3,6,14,1,-2)        179.7015         calculate D2E/DX2 analytically  !
 ! D1    D(2,1,3,4)            173.2982         calculate D2E/DX2 analytically  !
 ! D2    D(2,1,3,5)            -67.5146         calculate D2E/DX2 analytically  !
 ! D3    D(2,1,3,6)             54.7984         calculate D2E/DX2 analytically  !
 ! D4    D(12,1,3,4)            36.2862         calculate D2E/DX2 analytically  !
 ! D5    D(12,1,3,5)           155.4734         calculate D2E/DX2 analytically  !
 ! D6    D(12,1,3,6)           -82.2136         calculate D2E/DX2 analytically  !
 ! D7    D(1,3,5,7)            -58.3101         calculate D2E/DX2 analytically  !
 ! D8    D(1,3,5,8)             60.7958         calculate D2E/DX2 analytically  !
 ! D9    D(1,3,5,9)           -178.7159         calculate D2E/DX2 analytically  !
 ! D10   D(4,3,5,7)             61.0313         calculate D2E/DX2 analytically  !
 ! D11   D(4,3,5,8)           -179.8628         calculate D2E/DX2 analytically  !
 ! D12   D(4,3,5,9)            -59.3745         calculate D2E/DX2 analytically  !
 ! D13   D(6,3,5,7)            178.8701         calculate D2E/DX2 analytically  !
 ! D14   D(6,3,5,8)            -62.024          calculate D2E/DX2 analytically  !
 ! D15   D(6,3,5,9)             58.4643         calculate D2E/DX2 analytically  !
 ! D16   D(1,3,6,10)           -70.6965         calculate D2E/DX2 analytically  !
 ! D17   D(1,3,6,13)           102.4345         calculate D2E/DX2 analytically  !
 ! D18   D(4,3,6,10)           170.1169         calculate D2E/DX2 analytically  !
 ! D19   D(4,3,6,13)           -16.752          calculate D2E/DX2 analytically  !
 ! D20   D(5,3,6,10)            51.732          calculate D2E/DX2 analytically  !
 ! D21   D(5,3,6,13)          -135.137          calculate D2E/DX2 analytically  !
 ! D22   D(3,5,9,11)          -159.8131         calculate D2E/DX2 analytically  !
 ! D23   D(7,5,9,11)            81.9734         calculate D2E/DX2 analytically  !
 ! D24   D(8,5,9,11)           -40.7455         calculate D2E/DX2 analytically  !
 ! D25   D(13,10,14,6)           0.5828         calculate D2E/DX2 analytically  !
 --------------------------------------------------------------------------------
 Trust Radius=3.00D-01 FncErr=1.00D-07 GrdErr=1.00D-06
 Number of steps in this run=     72 maximum allowed number of steps=    100.
 Search for a saddle point of order  1.
 GradGradGradGradGradGradGradGradGradGradGradGradGradGradGradGradGradGrad

                          Input orientation:                          
 ---------------------------------------------------------------------
 Center     Atomic      Atomic             Coordinates (Angstroms)
 Number     Number       Type             X           Y           Z
 ---------------------------------------------------------------------
      1          7           0        0.119746    2.008978    0.046329
      2          1           0       -0.097628    2.124511    1.028699
      3          6           0        0.310979    0.631631   -0.397525
      4          1           0        0.419572    0.621580   -1.483866
      5          6           0        1.576401    0.044311    0.225958
      6          6           0       -0.883220   -0.219427   -0.046212
      7          1           0        2.429476    0.669011   -0.061116
      8          1           0        1.479534    0.046138    1.319899
      9          8           0        1.691713   -1.304952   -0.298421
     10          8           0       -1.205357   -0.586276    1.169566
     11          1           0        2.266382   -1.856640    0.264935
     12          1           0       -0.425900    2.601337   -0.564151
     13          8           0       -1.826906   -0.606550   -0.858147
     14          1           0       -2.210216   -1.025649    0.373982
 ---------------------------------------------------------------------
                    Distance matrix (angstroms):
                    1          2          3          4          5
     1  N    0.000000
     2  H    1.012744   0.000000
     3  C    1.459678   2.104701   0.000000
     4  H    2.087167   2.973093   1.091801   0.000000
     5  C    2.452351   2.788189   1.528060   2.143593   0.000000
     6  C    2.445464   2.695669   1.507923   2.114571   2.488648
     7  H    2.672435   3.113267   2.145367   2.462962   1.095627
     8  H    2.706242   2.625237   2.158209   3.052172   1.098223
     9  O    3.684028   4.089524   2.380462   2.595216   1.452164
    10  O    3.122964   2.931770   2.497668   3.337666   3.004366
    11  H    4.427057   4.692701   3.233256   3.551139   2.022673
    12  H    1.010596   1.694785   2.109620   2.340969   3.342434
    13  O    3.383566   3.742898   2.513129   2.635620   3.630620
    14  H    3.839927   3.849051   3.114197   3.616732   3.937663
                    6          7          8          9         10
     6  C    0.000000
     7  H    3.429796   0.000000
     8  H    2.742151   1.788173   0.000000
     9  O    2.805754   2.120646   2.118826   0.000000
    10  O    1.310140   4.037615   2.762460   3.326334   0.000000
    11  H    3.563323   2.551827   2.313578   0.975692   3.805937
    12  H    2.904154   3.484265   3.702616   4.451291   3.711362
    13  O    1.303705   4.514322   4.012784   3.630666   2.120932
    14  H    1.608563   4.958621   3.956986   3.969280   1.354896
                   11         12         13         14
    11  H    0.000000
    12  H    5.273455   0.000000
    13  O    4.424821   3.512804   0.000000
    14  H    4.554379   4.149567   1.356729   0.000000
 Stoichiometry    C3H7NO3
 Framework group  C1[X(C3H7NO3)]
 Deg. of freedom    36
 Full point group                 C1      NOp   1
 Largest Abelian subgroup         C1      NOp   1
 Largest concise Abelian subgroup C1      NOp   1
                         Standard orientation:                         
 ---------------------------------------------------------------------
 Center     Atomic      Atomic             Coordinates (Angstroms)
 Number     Number       Type             X           Y           Z
 ---------------------------------------------------------------------
      1          7           0        0.119746    2.008978    0.046329
      2          1           0       -0.097628    2.124511    1.028699
      3          6           0        0.310979    0.631631   -0.397525
      4          1           0        0.419572    0.621580   -1.483866
      5          6           0        1.576401    0.044311    0.225958
      6          6           0       -0.883220   -0.219427   -0.046212
      7          1           0        2.429476    0.669011   -0.061116
      8          1           0        1.479534    0.046138    1.319899
      9          8           0        1.691713   -1.304952   -0.298421
     10          8           0       -1.205357   -0.586276    1.169566
     11          1           0        2.266382   -1.856640    0.264935
     12          1           0       -0.425901    2.601337   -0.564151
     13          8           0       -1.826906   -0.606550   -0.858147
     14          1           0       -2.210216   -1.025649    0.373982
 ---------------------------------------------------------------------
 Rotational constants (GHZ):      3.1514417      2.2496146      1.6923386
 Standard basis: 6-311++G(d,p) (5D, 7F)
 There are   203 symmetry adapted basis functions of A   symmetry.
 Integral buffers will be    262144 words long.
 Raffenetti 2 integral format.
 Two-electron integral symmetry is turned on.
   203 basis functions,   315 primitive gaussians,   210 cartesian basis functions
    28 alpha electrons       28 beta electrons
       nuclear repulsion energy       322.0332265495 Hartrees.
 NAtoms=   14 NActive=   14 NUniq=   14 SFac= 1.00D+00 NAtFMM=   50 NAOKFM=F Big=F
 One-electron integrals computed using PRISM.
 NBasis=   203 RedAO= T  NBF=   203
 NBsUse=   203 1.00D-06 NBFU=   203
 Harris functional with IExCor=  402 diagonalized for initial guess.
 ExpMin= 3.60D-02 ExpMax= 8.59D+03 ExpMxC= 1.30D+03 IAcc=3 IRadAn=         0 AccDes= 0.00D+00
 HarFok:  IExCor=  402 AccDes= 0.00D+00 IRadAn=         0 IDoV= 1
 ScaDFX=  1.000000  1.000000  1.000000  1.000000
 FoFCou: FMM=F IPFlag=           0 FMFlag=      100000 FMFlg1=           0
         NFxFlg=           0 DoJE=T BraDBF=F KetDBF=T FulRan=T
         Omega=  0.000000  0.000000  1.000000  0.000000  0.000000 ICntrl=     500 IOpCl=  0
         NMat0=    1 NMatS0=    1 NMatT0=    0 NMatD0=    1 NMtDS0=    0 NMtDT0=    0
         I1Cent=           4 NGrid=           0.
 Petite list used in FoFCou.
 Initial guess orbital symmetries:
       Occupied  (A) (A) (A) (A) (A) (A) (A) (A) (A) (A) (A) (A)
                 (A) (A) (A) (A) (A) (A) (A) (A) (A) (A) (A) (A)
                 (A) (A) (A) (A)
       Virtual   (A) (A) (A) (A) (A) (A) (A) (A) (A) (A) (A) (A)
                 (A) (A) (A) (A) (A) (A) (A) (A) (A) (A) (A) (A)
                 (A) (A) (A) (A) (A) (A) (A) (A) (A) (A) (A) (A)
                 (A) (A) (A) (A) (A) (A) (A) (A) (A) (A) (A) (A)
                 (A) (A) (A) (A) (A) (A) (A) (A) (A) (A) (A) (A)
                 (A) (A) (A) (A) (A) (A) (A) (A) (A) (A) (A) (A)
                 (A) (A) (A) (A) (A) (A) (A) (A) (A) (A) (A) (A)
                 (A) (A) (A) (A) (A) (A) (A) (A) (A) (A) (A) (A)
                 (A) (A) (A) (A) (A) (A) (A) (A) (A) (A) (A) (A)
                 (A) (A) (A) (A) (A) (A) (A) (A) (A) (A) (A) (A)
                 (A) (A) (A) (A) (A) (A) (A) (A) (A) (A) (A) (A)
                 (A) (A) (A) (A) (A) (A) (A) (A) (A) (A) (A) (A)
                 (A) (A) (A) (A) (A) (A) (A) (A) (A) (A) (A) (A)
                 (A) (A) (A) (A) (A) (A) (A) (A) (A) (A) (A) (A)
                 (A) (A) (A) (A) (A) (A) (A)
 The electronic state of the initial guess is 1-A.
 Requested convergence on RMS density matrix=1.00D-08 within 128 cycles.
 Requested convergence on MAX density matrix=1.00D-06.
 Requested convergence on             energy=1.00D-06.
 No special actions if energy rises.
 SCF Done:  E(RB3LYP) =  -399.027690538     A.U. after   13 cycles
             Convg  =    0.6690D-08             -V/T =  2.0044
 Range of M.O.s used for correlation:     1   203
 NBasis=   203 NAE=    28 NBE=    28 NFC=     0 NFV=     0
 NROrb=    203 NOA=    28 NOB=    28 NVA=   175 NVB=   175

 **** Warning!!: The largest alpha MO coefficient is  0.76772639D+02

 Symmetrizing basis deriv contribution to polar:
 IMax=3 JMax=2 DiffMx= 0.00D+00
 G2DrvN: will do    15 centers at a time, making    1 passes doing MaxLOS=2.
 Calling FoFCou, ICntrl=  3107 FMM=F I1Cent=   0 AccDes= 0.00D+00.
 FoFDir/FoFCou used for L=0 through L=2.
 End of G2Drv Frequency-dependent properties file   721 does not exist.
 End of G2Drv Frequency-dependent properties file   722 does not exist.
          IDoAtm=11111111111111
          Differentiating once with respect to nuclear coordinates.
          There are    45 degrees of freedom in the 1st order CPHF.  IDoFFX=5.
     39 vectors produced by pass  0 Test12= 1.09D-10 2.22D-07 XBig12= 2.53D-01 1.38D-01.
 AX will form    39 AO Fock derivatives at one time.
     39 vectors produced by pass  1 Test12= 1.09D-10 2.22D-07 XBig12= 1.28D-01 1.41D-01.
     39 vectors produced by pass  2 Test12= 1.09D-10 2.22D-07 XBig12= 2.67D-04 4.21D-03.
     39 vectors produced by pass  3 Test12= 1.09D-10 2.22D-07 XBig12= 2.01D-06 2.94D-04.
     29 vectors produced by pass  4 Test12= 1.09D-10 2.22D-07 XBig12= 3.36D-09 6.55D-06.
      1 vectors produced by pass  5 Test12= 1.09D-10 2.22D-07 XBig12= 4.41D-12 2.68D-07.
 Inverted reduced A of dimension   186 with in-core refinement.
 End of Minotr Frequency-dependent properties file   721 does not exist.
 End of Minotr Frequency-dependent properties file   722 does not exist.

 **********************************************************************

            Population analysis using the SCF density.

 **********************************************************************

 Orbital symmetries:
       Occupied  (A) (A) (A) (A) (A) (A) (A) (A) (A) (A) (A) (A)
                 (A) (A) (A) (A) (A) (A) (A) (A) (A) (A) (A) (A)
                 (A) (A) (A) (A)
       Virtual   (A) (A) (A) (A) (A) (A) (A) (A) (A) (A) (A) (A)
                 (A) (A) (A) (A) (A) (A) (A) (A) (A) (A) (A) (A)
                 (A) (A) (A) (A) (A) (A) (A) (A) (A) (A) (A) (A)
                 (A) (A) (A) (A) (A) (A) (A) (A) (A) (A) (A) (A)
                 (A) (A) (A) (A) (A) (A) (A) (A) (A) (A) (A) (A)
                 (A) (A) (A) (A) (A) (A) (A) (A) (A) (A) (A) (A)
                 (A) (A) (A) (A) (A) (A) (A) (A) (A) (A) (A) (A)
                 (A) (A) (A) (A) (A) (A) (A) (A) (A) (A) (A) (A)
                 (A) (A) (A) (A) (A) (A) (A) (A) (A) (A) (A) (A)
                 (A) (A) (A) (A) (A) (A) (A) (A) (A) (A) (A) (A)
                 (A) (A) (A) (A) (A) (A) (A) (A) (A) (A) (A) (A)
                 (A) (A) (A) (A) (A) (A) (A) (A) (A) (A) (A) (A)
                 (A) (A) (A) (A) (A) (A) (A) (A) (A) (A) (A) (A)
                 (A) (A) (A) (A) (A) (A) (A) (A) (A) (A) (A) (A)
                 (A) (A) (A) (A) (A) (A) (A)
 The electronic state is 1-A.
 Alpha  occ. eigenvalues --  -19.14967 -19.14789 -19.14329 -14.32743 -10.32399
 Alpha  occ. eigenvalues --  -10.24641 -10.24155  -1.11803  -1.03361  -0.98113
 Alpha  occ. eigenvalues --   -0.92063  -0.76818  -0.67188  -0.57646  -0.55042
 Alpha  occ. eigenvalues --   -0.52304  -0.51042  -0.47759  -0.47141  -0.45604
 Alpha  occ. eigenvalues --   -0.43312  -0.41235  -0.39592  -0.35977  -0.31293
 Alpha  occ. eigenvalues --   -0.30319  -0.29811  -0.27132
 Alpha virt. eigenvalues --   -0.03773  -0.01827  -0.01008   0.00429   0.01101
 Alpha virt. eigenvalues --    0.02475   0.04387   0.04828   0.06846   0.07338
 Alpha virt. eigenvalues --    0.07631   0.08489   0.09211   0.10045   0.10579
 Alpha virt. eigenvalues --    0.11443   0.11926   0.12324   0.12455   0.14405
 Alpha virt. eigenvalues --    0.15300   0.15867   0.16429   0.17299   0.18554
 Alpha virt. eigenvalues --    0.18720   0.20061   0.20997   0.21687   0.22137
 Alpha virt. eigenvalues --    0.23760   0.24052   0.25471   0.26427   0.27460
 Alpha virt. eigenvalues --    0.28380   0.29048   0.29379   0.29928   0.30892
 Alpha virt. eigenvalues --    0.32343   0.33848   0.34630   0.35120   0.35840
 Alpha virt. eigenvalues --    0.37788   0.39622   0.40600   0.43036   0.46018
 Alpha virt. eigenvalues --    0.48780   0.52433   0.54041   0.54785   0.57182
 Alpha virt. eigenvalues --    0.59018   0.61129   0.61328   0.63436   0.65791
 Alpha virt. eigenvalues --    0.67239   0.68784   0.72575   0.73007   0.74711
 Alpha virt. eigenvalues --    0.79293   0.81648   0.83402   0.89285   0.96745
 Alpha virt. eigenvalues --    0.99199   1.03361   1.05779   1.08332   1.11479
 Alpha virt. eigenvalues --    1.12464   1.13075   1.13970   1.16510   1.18252
 Alpha virt. eigenvalues --    1.20693   1.21526   1.23395   1.29174   1.33794
 Alpha virt. eigenvalues --    1.34958   1.37412   1.38819   1.44451   1.47843
 Alpha virt. eigenvalues --    1.49532   1.51190   1.53555   1.55559   1.59196
 Alpha virt. eigenvalues --    1.60662   1.61635   1.64431   1.66268   1.69192
 Alpha virt. eigenvalues --    1.71669   1.73857   1.74205   1.78140   1.79754
 Alpha virt. eigenvalues --    1.83002   1.85100   1.89446   1.99701   2.03282
 Alpha virt. eigenvalues --    2.04813   2.07753   2.09141   2.15699   2.22512
 Alpha virt. eigenvalues --    2.27759   2.30959   2.41866   2.48012   2.50057
 Alpha virt. eigenvalues --    2.53563   2.55603   2.57138   2.59207   2.61431
 Alpha virt. eigenvalues --    2.64722   2.71275   2.75557   2.79011   2.80179
 Alpha virt. eigenvalues --    2.85471   2.85744   2.90460   2.93398   2.95276
 Alpha virt. eigenvalues --    2.98403   3.02716   3.05181   3.10431   3.16723
 Alpha virt. eigenvalues --    3.17995   3.19256   3.23898   3.26586   3.30274
 Alpha virt. eigenvalues --    3.33675   3.35803   3.56646   3.61665   3.71648
 Alpha virt. eigenvalues --    3.78652   3.85277   3.96309   3.97539   4.06537
 Alpha virt. eigenvalues --    4.11758   4.25589   4.74267   4.83912   4.99265
 Alpha virt. eigenvalues --    5.02200   5.03545   5.08193   5.26482   5.34651
 Alpha virt. eigenvalues --    5.47035   5.61623   5.77891  23.70419  23.79551
 Alpha virt. eigenvalues --   23.82858  35.58643  49.87646  49.89350  49.95462
          Condensed to atoms (all electrons):
              1          2          3          4          5          6
     1  N    6.690712   0.384819  -0.146725  -0.057746   0.142125  -0.092752
     2  H    0.384819   0.446058  -0.068984   0.006768   0.014347   0.004465
     3  C   -0.146725  -0.068984   8.611661   0.544278  -1.191785  -1.024566
     4  H   -0.057746   0.006768   0.544278   0.520437  -0.158409  -0.108140
     5  C    0.142125   0.014347  -1.191785  -0.158409   6.424356   0.132124
     6  C   -0.092752   0.004465  -1.024566  -0.108140   0.132124   6.473190
     7  H    0.035248   0.005611  -0.269824  -0.026733   0.589604  -0.000858
     8  H   -0.024463  -0.002260   0.173355   0.025611   0.199872  -0.054841
     9  O    0.008766   0.001405  -0.057148  -0.002382   0.230879  -0.050452
    10  O   -0.015117   0.007591  -0.175849   0.005560  -0.017262   0.362018
    11  H    0.000883   0.000385  -0.042980   0.000452   0.032804   0.023696
    12  H    0.370335  -0.036136  -0.003302  -0.008446  -0.015002   0.005019
    13  O   -0.018540  -0.002536  -0.030866   0.003762  -0.024159   0.255994
    14  H   -0.002183   0.000403   0.044027  -0.000677  -0.007726  -0.024460
              7          8          9         10         11         12
     1  N    0.035248  -0.024463   0.008766  -0.015117   0.000883   0.370335
     2  H    0.005611  -0.002260   0.001405   0.007591   0.000385  -0.036136
     3  C   -0.269824   0.173355  -0.057148  -0.175849  -0.042980  -0.003302
     4  H   -0.026733   0.025611  -0.002382   0.005560   0.000452  -0.008446
     5  C    0.589604   0.199872   0.230879  -0.017262   0.032804  -0.015002
     6  C   -0.000858  -0.054841  -0.050452   0.362018   0.023696   0.005019
     7  H    0.629677  -0.089919  -0.063255   0.001348   0.007249  -0.003960
     8  H   -0.089919   0.644990  -0.044843   0.000170  -0.018481   0.002043
     9  O   -0.063255  -0.044843   8.049131  -0.001295   0.212574  -0.000672
    10  O    0.001348   0.000170  -0.001295   8.215361  -0.000220  -0.000275
    11  H    0.007249  -0.018481   0.212574  -0.000220   0.519847  -0.000275
    12  H   -0.003960   0.002043  -0.000672  -0.000275  -0.000275   0.427879
    13  O    0.000388   0.000895  -0.001237  -0.234670  -0.000357  -0.001567
    14  H   -0.001181  -0.000023  -0.002781   0.135987   0.000619   0.000404
             13         14
     1  N   -0.018540  -0.002183
     2  H   -0.002536   0.000403
     3  C   -0.030866   0.044027
     4  H    0.003762  -0.000677
     5  C   -0.024159  -0.007726
     6  C    0.255994  -0.024460
     7  H    0.000388  -0.001181
     8  H    0.000895  -0.000023
     9  O   -0.001237  -0.002781
    10  O   -0.234670   0.135987
    11  H   -0.000357   0.000619
    12  H   -0.001567   0.000404
    13  O    8.187442   0.127180
    14  H    0.127180   0.413776
 Mulliken atomic charges:
              1
     1  N   -0.275361
     2  H    0.238065
     3  C   -0.361293
     4  H    0.255665
     5  C   -0.351766
     6  C    0.099563
     7  H    0.186604
     8  H    0.187893
     9  O   -0.278689
    10  O   -0.283346
    11  H    0.263804
    12  H    0.263954
    13  O   -0.261730
    14  H    0.316636
 Sum of Mulliken atomic charges =   0.00000
 Mulliken charges with hydrogens summed into heavy atoms:
              1
     1  N    0.226658
     3  C   -0.105628
     5  C    0.022731
     6  C    0.099563
     9  O   -0.014886
    10  O    0.033291
    13  O   -0.261730
 Sum of Mulliken charges with hydrogens summed into heavy atoms =   0.00000
 APT atomic charges:
              1
     1  N   -0.904203
     2  H    0.432382
     3  C   -0.789502
     4  H    0.428156
     5  C   -0.620166
     6  C    0.321265
     7  H    0.500622
     8  H    0.321332
     9  O   -0.850371
    10  O   -0.358303
    11  H    0.748651
    12  H    0.621890
    13  O   -0.275297
    14  H    0.423542
 Sum of APT charges=   0.00000
 APT Atomic charges with hydrogens summed into heavy atoms:
              1
     1  N    0.150070
     2  H    0.000000
     3  C   -0.361346
     4  H    0.000000
     5  C    0.201788
     6  C    0.321265
     7  H    0.000000
     8  H    0.000000
     9  O   -0.101720
    10  O    0.065240
    11  H    0.000000
    12  H    0.000000
    13  O   -0.275297
    14  H    0.000000
 Sum of APT charges=   0.00000
 Electronic spatial extent (au):  <R**2>=            775.8093
 Charge=              0.0000 electrons
 Dipole moment (field-independent basis, Debye):
    X=              1.6778    Y=              1.5619    Z=              1.0900  Tot=              2.5382
 Quadrupole moment (field-independent basis, Debye-Ang):
   XX=            -40.2777   YY=            -39.6992   ZZ=            -45.0840
   XY=             -4.4113   XZ=              1.4219   YZ=             -2.6601
 Traceless Quadrupole moment (field-independent basis, Debye-Ang):
   XX=              1.4093   YY=              1.9878   ZZ=             -3.3971
   XY=             -4.4113   XZ=              1.4219   YZ=             -2.6601
 Octapole moment (field-independent basis, Debye-Ang**2):
  XXX=              7.8355  YYY=             -5.7896  ZZZ=             -1.4139  XYY=             -5.7643
  XXY=            -12.4824  XXZ=             12.1046  XZZ=              6.3937  YZZ=              6.7674
  YYZ=              3.9880  XYZ=             -2.7582
 Hexadecapole moment (field-independent basis, Debye-Ang**3):
 XXXX=           -438.1959 YYYY=           -305.6489 ZZZZ=           -149.9501 XXXY=            -16.3748
 XXXZ=             -3.4429 YYYX=            -45.1341 YYYZ=             -9.2337 ZZZX=              1.8509
 ZZZY=              1.1152 XXYY=           -116.9374 XXZZ=           -116.6736 YYZZ=            -73.7906
 XXYZ=            -16.5429 YYXZ=              7.3626 ZZXY=             -5.4064
 N-N= 3.220332265495D+02 E-N=-1.580608851569D+03  KE= 3.972889216128D+02
  Exact polarizability:   0.000   0.000   0.000   0.000   0.000   0.000
 Approx polarizability:  78.382   7.076  79.012   6.647  -0.351  92.294
 Calling FoFJK, ICntrl=    100147 FMM=F ISym2X=0 I1Cent= 0 IOpClX= 0 NMat=1 NMatS=1 NMatT=0.
 ***** Axes restored to original set *****
 -------------------------------------------------------------------
 Center     Atomic                   Forces (Hartrees/Bohr)
 Number     Number              X              Y              Z
 -------------------------------------------------------------------
      1        7           0.009906382   -0.000159818   -0.001871557
      2        1          -0.003624242   -0.001328579   -0.003388114
      3        6          -0.001080470    0.004122194    0.001709010
      4        1          -0.000751449    0.000372554    0.000682475
      5        6           0.001113682   -0.013008987   -0.002535978
      6        6          -0.047537077   -0.025031758    0.014975666
      7        1          -0.000584463   -0.001748364   -0.000345106
      8        1           0.000462637   -0.001413184   -0.001989804
      9        8           0.006732658    0.005021871    0.010390123
     10        8           0.004147104    0.006478309   -0.033321626
     11        1          -0.007843279    0.011036239   -0.005798094
     12        1          -0.002700163   -0.003675354    0.002849598
     13        8           0.022504482    0.007342464    0.024532422
     14        1           0.019254198    0.011992412   -0.005889016
 -------------------------------------------------------------------
 Cartesian Forces:  Max     0.047537077 RMS     0.012679942

 GradGradGradGradGradGradGradGradGradGradGradGradGradGradGradGradGradGrad
 Berny optimization.
 Internal  Forces:  Max     0.026769320 RMS     0.006699622
 Search for a saddle point.
 Step number   1 out of a maximum of   72
 All quantities printed in internal units (Hartrees-Bohrs-Radians)
 Swaping is turned off.
 Second derivative matrix not updated -- analytic derivatives used.
 ITU=  0
     Eigenvalues ---   -0.10525   0.00073   0.00178   0.00285   0.00490
     Eigenvalues ---    0.00713   0.03073   0.04118   0.04671   0.04903
     Eigenvalues ---    0.05304   0.05476   0.06398   0.07205   0.09661
     Eigenvalues ---    0.11738   0.12505   0.13952   0.14342   0.14732
     Eigenvalues ---    0.16819   0.16890   0.20674   0.22551   0.26709
     Eigenvalues ---    0.29295   0.31254   0.32207   0.33506   0.34117
     Eigenvalues ---    0.36609   0.36932   0.45742   0.46218   0.46488
     Eigenvalues ---    0.48407
 Eigenvectors required to have negative eigenvalues:
                          R14       R15       A22       R10       R11
   1                   -0.64489   0.64425   0.34221   0.13380  -0.13059
                          A21       A17       A16       A8        A9
   1                   -0.08653  -0.05962   0.05786  -0.02012   0.01556
 RFO step:  Lambda0=8.017516408D-08 Lambda=-1.19199006D-02.
 Linear search not attempted -- option 19 set.
 Iteration  1 RMS(Cart)=  0.04423278 RMS(Int)=  0.00384305
 Iteration  2 RMS(Cart)=  0.00286184 RMS(Int)=  0.00280691
 Iteration  3 RMS(Cart)=  0.00002932 RMS(Int)=  0.00280682
 Iteration  4 RMS(Cart)=  0.00000052 RMS(Int)=  0.00280682
 Variable       Old X    -DE/DX   Delta X   Delta X   Delta X     New X
                                 (Linear)    (Quad)   (Total)
    R1        1.91381  -0.00266   0.00000   0.00171   0.00171   1.91552
    R2        2.75839  -0.00607   0.00000   0.00290   0.00290   2.76129
    R3        1.90975  -0.00242   0.00000   0.00254   0.00254   1.91229
    R4        2.06321  -0.00076   0.00000  -0.00137  -0.00137   2.06183
    R5        2.88762  -0.00017   0.00000  -0.00098  -0.00098   2.88664
    R6        2.84956   0.00092   0.00000   0.00830   0.00830   2.85787
    R7        2.07043  -0.00136   0.00000  -0.00135  -0.00135   2.06908
    R8        2.07534  -0.00202   0.00000  -0.00352  -0.00352   2.07182
    R9        2.74419  -0.01666   0.00000  -0.05495  -0.05495   2.68924
   R10        2.47581  -0.02663   0.00000  -0.06592  -0.06643   2.40937
   R11        2.46364  -0.02677   0.00000  -0.06260  -0.06310   2.40054
   R12        3.03974  -0.01718   0.00000  -0.17125  -0.17067   2.86907
   R13        1.84379  -0.01421   0.00000  -0.02889  -0.02889   1.81490
   R14        2.56038  -0.01073   0.00000  -0.09602  -0.09585   2.46453
   R15        2.56385  -0.01029   0.00000  -0.09370  -0.09355   2.47030
    A1        2.01609  -0.00147   0.00000  -0.05685  -0.06559   1.95050
    A2        1.98581  -0.00008   0.00000  -0.06007  -0.07555   1.91026
    A3        2.02655  -0.00257   0.00000  -0.06676  -0.07550   1.95105
    A4        1.90104  -0.00012   0.00000  -0.00445  -0.00445   1.89659
    A5        1.92527  -0.00018   0.00000  -0.00886  -0.00889   1.91639
    A6        1.93688  -0.00061   0.00000   0.00624   0.00626   1.94314
    A7        1.89661   0.00014   0.00000   0.00310   0.00308   1.89968
    A8        1.88114  -0.00034   0.00000  -0.00472  -0.00473   1.87641
    A9        1.92180   0.00111   0.00000   0.00862   0.00862   1.93043
   A10        1.89519  -0.00019   0.00000  -0.00947  -0.00948   1.88571
   A11        1.91001   0.00030   0.00000  -0.00205  -0.00210   1.90791
   A12        1.84995   0.00275   0.00000   0.02422   0.02421   1.87416
   A13        1.90575   0.00047   0.00000  -0.00348  -0.00353   1.90221
   A14        1.95339  -0.00173   0.00000  -0.00447  -0.00444   1.94895
   A15        1.94792  -0.00151   0.00000  -0.00429  -0.00436   1.94355
   A16        2.17603  -0.00278   0.00000  -0.00611  -0.00614   2.16989
   A17        2.20899  -0.00341   0.00000  -0.01667  -0.01674   2.19225
   A18        1.89316   0.00625   0.00000   0.02462   0.02457   1.91773
   A19        1.94297  -0.00716   0.00000  -0.03139  -0.03139   1.91158
   A20        1.79626  -0.01120   0.00000   0.04989   0.05109   1.84735
   A21        3.06496  -0.00003   0.00000   0.01242   0.01261   3.07756
   A22        3.13638  -0.00033   0.00000  -0.00316  -0.00310   3.13328
    D1        3.02462  -0.00276   0.00000  -0.10969  -0.10575   2.91887
    D2       -1.17835  -0.00277   0.00000  -0.11394  -0.10996  -1.28832
    D3        0.95641  -0.00190   0.00000  -0.10486  -0.10091   0.85551
    D4        0.63331   0.00234   0.00000   0.14162   0.13765   0.77096
    D5        2.71352   0.00233   0.00000   0.13737   0.13343   2.84696
    D6       -1.43490   0.00319   0.00000   0.14645   0.14249  -1.29241
    D7       -1.01770  -0.00026   0.00000   0.01678   0.01675  -1.00095
    D8        1.06109   0.00038   0.00000   0.00578   0.00577   1.06685
    D9       -3.11918   0.00034   0.00000   0.01356   0.01358  -3.10560
   D10        1.06520  -0.00043   0.00000   0.00798   0.00794   1.07314
   D11       -3.13920   0.00021   0.00000  -0.00303  -0.00304   3.14095
   D12       -1.03628   0.00017   0.00000   0.00476   0.00478  -1.03151
   D13        3.12187  -0.00011   0.00000   0.00906   0.00905   3.13092
   D14       -1.08252   0.00052   0.00000  -0.00195  -0.00194  -1.08446
   D15        1.02039   0.00048   0.00000   0.00584   0.00588   1.02628
   D16       -1.23389  -0.00079   0.00000  -0.00624  -0.00621  -1.24009
   D17        1.78782   0.00028   0.00000   0.01741   0.01735   1.80517
   D18        2.96910  -0.00008   0.00000  -0.00152  -0.00148   2.96762
   D19       -0.29238   0.00099   0.00000   0.02213   0.02207  -0.27031
   D20        0.90289  -0.00068   0.00000  -0.00732  -0.00724   0.89565
   D21       -2.35859   0.00039   0.00000   0.01633   0.01631  -2.34228
   D22       -2.78927  -0.00020   0.00000  -0.00711  -0.00711  -2.79638
   D23        1.43071  -0.00073   0.00000  -0.00805  -0.00805   1.42266
   D24       -0.71114   0.00102   0.00000   0.00289   0.00288  -0.70826
   D25        0.01017  -0.00047   0.00000  -0.00319  -0.00336   0.00681
         Item               Value     Threshold  Converged?
 Maximum Force            0.026769     0.000450     NO 
 RMS     Force            0.006700     0.000300     NO 
 Maximum Displacement     0.149910     0.001800     NO 
 RMS     Displacement     0.045287     0.001200     NO 
 Predicted change in Energy=-6.989362D-03
 GradGradGradGradGradGradGradGradGradGradGradGradGradGradGradGradGradGrad

                          Input orientation:                          
 ---------------------------------------------------------------------
 Center     Atomic      Atomic             Coordinates (Angstroms)
 Number     Number       Type             X           Y           Z
 ---------------------------------------------------------------------
      1          7           0        0.161038    2.010334    0.047719
      2          1           0       -0.137152    2.064250    1.015013
      3          6           0        0.313069    0.626392   -0.395823
      4          1           0        0.408645    0.616503   -1.482659
      5          6           0        1.575823    0.022668    0.216022
      6          6           0       -0.900304   -0.202417   -0.038184
      7          1           0        2.426423    0.646697   -0.077061
      8          1           0        1.488216    0.029418    1.308857
      9          8           0        1.699319   -1.303254   -0.285828
     10          8           0       -1.205149   -0.556050    1.148240
     11          1           0        2.277331   -1.811382    0.288698
     12          1           0       -0.489556    2.522008   -0.534471
     13          8           0       -1.812714   -0.564166   -0.844618
     14          1           0       -2.160412   -0.952999    0.354027
 ---------------------------------------------------------------------
                    Distance matrix (angstroms):
                    1          2          3          4          5
     1  N    0.000000
     2  H    1.013648   0.000000
     3  C    1.461211   2.064120   0.000000
     4  H    2.084738   2.938066   1.091075   0.000000
     5  C    2.445559   2.782216   1.527542   2.144869   0.000000
     6  C    2.455625   2.613313   1.512317   2.114352   2.499298
     7  H    2.647082   3.126339   2.137355   2.459277   1.094911
     8  H    2.697388   2.620822   2.154827   3.050033   1.096361
     9  O    3.668437   4.050296   2.378513   2.604556   1.423087
    10  O    3.108688   2.832727   2.467242   3.301641   2.989607
    11  H    4.375189   4.623611   3.204627   3.538971   1.964977
    12  H    1.011943   1.653672   2.063199   2.310146   3.328022
    13  O    3.364523   3.629643   2.477458   2.595286   3.598821
    14  H    3.776811   3.692462   3.029003   3.526585   3.863991
                    6          7          8          9         10
     6  C    0.000000
     7  H    3.433601   0.000000
     8  H    2.751962   1.783825   0.000000
     9  O    2.833939   2.091548   2.088923   0.000000
    10  O    1.274985   4.016998   2.760939   3.324274   0.000000
    11  H    3.576728   2.489610   2.247658   0.960401   3.800307
    12  H    2.799555   3.496991   3.677288   4.414253   3.580228
    13  O    1.270312   4.474999   3.985716   3.632200   2.083431
    14  H    1.518247   4.876876   3.897349   3.928055   1.304174
                   11         12         13         14
    11  H    0.000000
    12  H    5.206874   0.000000
    13  O    4.423620   3.372152   0.000000
    14  H    4.520470   3.956875   1.307224   0.000000
 Stoichiometry    C3H7NO3
 Framework group  C1[X(C3H7NO3)]
 Deg. of freedom    36
 Full point group                 C1      NOp   1
 Largest Abelian subgroup         C1      NOp   1
 Largest concise Abelian subgroup C1      NOp   1
                         Standard orientation:                         
 ---------------------------------------------------------------------
 Center     Atomic      Atomic             Coordinates (Angstroms)
 Number     Number       Type             X           Y           Z
 ---------------------------------------------------------------------
      1          7           0        0.089384    2.005692    0.051513
      2          1           0       -0.210111    2.047581    1.019000
      3          6           0        0.286683    0.628506   -0.395218
      4          1           0        0.382187    0.624230   -1.482097
      5          6           0        1.568794    0.065229    0.214943
      6          6           0       -0.898676   -0.240551   -0.039174
      7          1           0        2.398328    0.717546   -0.076924
      8          1           0        1.481360    0.066616    1.307811
      9          8           0        1.735649   -1.254775   -0.289958
     10          8           0       -1.191355   -0.606706    1.146514
     11          1           0        2.330233   -1.744930    0.283268
     12          1           0       -0.577863    2.497023   -0.529351
     13          8           0       -1.798958   -0.630266   -0.846210
     14          1           0       -2.133307   -1.033037    0.351631
 ---------------------------------------------------------------------
 Rotational constants (GHZ):      3.2302850      2.2637895      1.7062996
 Standard basis: 6-311++G(d,p) (5D, 7F)
 There are   203 symmetry adapted basis functions of A   symmetry.
 Integral buffers will be    262144 words long.
 Raffenetti 2 integral format.
 Two-electron integral symmetry is turned on.
   203 basis functions,   315 primitive gaussians,   210 cartesian basis functions
    28 alpha electrons       28 beta electrons
       nuclear repulsion energy       325.1423128569 Hartrees.
 NAtoms=   14 NActive=   14 NUniq=   14 SFac= 1.00D+00 NAtFMM=   50 NAOKFM=F Big=F
 One-electron integrals computed using PRISM.
 NBasis=   203 RedAO= T  NBF=   203
 NBsUse=   203 1.00D-06 NBFU=   203
 Initial guess read from the read-write file.
 B after Tr=     0.000000    0.000000    0.000000
         Rot=    1.000000    0.000000    0.000000    0.000000 Ang=   0.00 deg.
 Initial guess orbital symmetries:
       Occupied  (A) (A) (A) (A) (A) (A) (A) (A) (A) (A) (A) (A)
                 (A) (A) (A) (A) (A) (A) (A) (A) (A) (A) (A) (A)
                 (A) (A) (A) (A)
       Virtual   (A) (A) (A) (A) (A) (A) (A) (A) (A) (A) (A) (A)
                 (A) (A) (A) (A) (A) (A) (A) (A) (A) (A) (A) (A)
                 (A) (A) (A) (A) (A) (A) (A) (A) (A) (A) (A) (A)
                 (A) (A) (A) (A) (A) (A) (A) (A) (A) (A) (A) (A)
                 (A) (A) (A) (A) (A) (A) (A) (A) (A) (A) (A) (A)
                 (A) (A) (A) (A) (A) (A) (A) (A) (A) (A) (A) (A)
                 (A) (A) (A) (A) (A) (A) (A) (A) (A) (A) (A) (A)
                 (A) (A) (A) (A) (A) (A) (A) (A) (A) (A) (A) (A)
                 (A) (A) (A) (A) (A) (A) (A) (A) (A) (A) (A) (A)
                 (A) (A) (A) (A) (A) (A) (A) (A) (A) (A) (A) (A)
                 (A) (A) (A) (A) (A) (A) (A) (A) (A) (A) (A) (A)
                 (A) (A) (A) (A) (A) (A) (A) (A) (A) (A) (A) (A)
                 (A) (A) (A) (A) (A) (A) (A) (A) (A) (A) (A) (A)
                 (A) (A) (A) (A) (A) (A) (A) (A) (A) (A) (A) (A)
                 (A) (A) (A) (A) (A) (A) (A)
 Harris functional with IExCor=  402 diagonalized for initial guess.
 ExpMin= 3.60D-02 ExpMax= 8.59D+03 ExpMxC= 1.30D+03 IAcc=3 IRadAn=         0 AccDes= 0.00D+00
 HarFok:  IExCor=  402 AccDes= 0.00D+00 IRadAn=         0 IDoV= 1
 ScaDFX=  1.000000  1.000000  1.000000  1.000000
 FoFCou: FMM=F IPFlag=           0 FMFlag=      100000 FMFlg1=           0
         NFxFlg=           0 DoJE=T BraDBF=F KetDBF=T FulRan=T
         Omega=  0.000000  0.000000  1.000000  0.000000  0.000000 ICntrl=     500 IOpCl=  0
         NMat0=    1 NMatS0=    1 NMatT0=    0 NMatD0=    1 NMtDS0=    0 NMtDT0=    0
         I1Cent=           4 NGrid=           0.
 Petite list used in FoFCou.
 Requested convergence on RMS density matrix=1.00D-08 within 128 cycles.
 Requested convergence on MAX density matrix=1.00D-06.
 Requested convergence on             energy=1.00D-06.
 No special actions if energy rises.
 SCF Done:  E(RB3LYP) =  -399.033979355     A.U. after   12 cycles
             Convg  =    0.4328D-08             -V/T =  2.0035
 Calling FoFJK, ICntrl=      2127 FMM=F ISym2X=0 I1Cent= 0 IOpClX= 0 NMat=1 NMatS=1 NMatT=0.
 ***** Axes restored to original set *****
 -------------------------------------------------------------------
 Center     Atomic                   Forces (Hartrees/Bohr)
 Number     Number              X              Y              Z
 -------------------------------------------------------------------
      1        7           0.002310361    0.000083300   -0.000974722
      2        1          -0.000943485    0.000625302    0.000281193
      3        6           0.000524332   -0.000881326   -0.000118729
      4        1           0.000086496   -0.000038405   -0.000026050
      5        6          -0.000340169    0.000347119    0.000074892
      6        6           0.001577515    0.001942688   -0.000703883
      7        1           0.000022731    0.000193489    0.000193019
      8        1          -0.000005498    0.000045432    0.000019834
      9        8          -0.000071546   -0.000684170   -0.000582865
     10        8          -0.000301063   -0.000842952    0.003791476
     11        1           0.000354397   -0.000232291    0.000216479
     12        1          -0.001420695    0.000406211    0.000859855
     13        8          -0.002072984   -0.001067291   -0.002896084
     14        1           0.000279608    0.000102894   -0.000134415
 -------------------------------------------------------------------
 Cartesian Forces:  Max     0.003791476 RMS     0.001078768

 GradGradGradGradGradGradGradGradGradGradGradGradGradGradGradGradGradGrad
 Berny optimization.
 Internal  Forces:  Max     0.002750832 RMS     0.000658324
 Search for a saddle point.
 Step number   2 out of a maximum of   72
 All quantities printed in internal units (Hartrees-Bohrs-Radians)
 Swaping is turned off.
 Update second derivatives using D2CorX and points    1    2
 ITU=  0  0
     Eigenvalues ---   -0.10522   0.00073   0.00178   0.00287   0.00488
     Eigenvalues ---    0.00986   0.03070   0.04118   0.04672   0.04903
     Eigenvalues ---    0.05306   0.05724   0.06398   0.07206   0.09659
     Eigenvalues ---    0.11703   0.12433   0.13957   0.14342   0.14729
     Eigenvalues ---    0.16816   0.16893   0.20783   0.22567   0.26729
     Eigenvalues ---    0.29293   0.31263   0.32207   0.33502   0.34124
     Eigenvalues ---    0.36609   0.37022   0.45757   0.46485   0.47152
     Eigenvalues ---    0.48451
 Eigenvectors required to have negative eigenvalues:
                          R14       R15       A22       R10       R11
   1                   -0.64110   0.64063   0.35260   0.13278  -0.12954
                          A21       A17       A16       A8        D25
   1                   -0.08978  -0.06807   0.06659  -0.02014  -0.01647
 RFO step:  Lambda0=1.865355370D-10 Lambda=-3.61438205D-04.
 Linear search not attempted -- option 19 set.
 Iteration  1 RMS(Cart)=  0.03214232 RMS(Int)=  0.00178140
 Iteration  2 RMS(Cart)=  0.00164052 RMS(Int)=  0.00044603
 Iteration  3 RMS(Cart)=  0.00000374 RMS(Int)=  0.00044601
 Iteration  4 RMS(Cart)=  0.00000000 RMS(Int)=  0.00044601
 Variable       Old X    -DE/DX   Delta X   Delta X   Delta X     New X
                                 (Linear)    (Quad)   (Total)
    R1        1.91552   0.00058   0.00000   0.00509   0.00509   1.92060
    R2        2.76129   0.00111   0.00000   0.01016   0.01016   2.77144
    R3        1.91229   0.00062   0.00000   0.00548   0.00548   1.91777
    R4        2.06183   0.00003   0.00000   0.00011   0.00011   2.06194
    R5        2.88664   0.00007   0.00000  -0.00137  -0.00137   2.88527
    R6        2.85787   0.00035   0.00000  -0.00087  -0.00087   2.85700
    R7        2.06908   0.00007   0.00000   0.00023   0.00023   2.06931
    R8        2.07182   0.00002   0.00000   0.00049   0.00049   2.07231
    R9        2.68924   0.00101   0.00000   0.00346   0.00346   2.69271
   R10        2.40937   0.00275   0.00000   0.00801   0.00799   2.41736
   R11        2.40054   0.00256   0.00000   0.00720   0.00722   2.40776
   R12        2.86907  -0.00008   0.00000   0.00313   0.00313   2.87220
   R13        1.81490   0.00047   0.00000   0.00160   0.00160   1.81650
   R14        2.46453   0.00093   0.00000   0.00423   0.00430   2.46883
   R15        2.47030   0.00089   0.00000   0.00348   0.00341   2.47370
    A1        1.95050   0.00051   0.00000  -0.02839  -0.02962   1.92088
    A2        1.91026  -0.00115   0.00000  -0.04871  -0.05123   1.85904
    A3        1.95105   0.00051   0.00000  -0.02759  -0.02882   1.92223
    A4        1.89659  -0.00001   0.00000  -0.00022  -0.00023   1.89636
    A5        1.91639   0.00012   0.00000  -0.00652  -0.00653   1.90986
    A6        1.94314  -0.00010   0.00000   0.00555   0.00555   1.94869
    A7        1.89968  -0.00006   0.00000  -0.00049  -0.00050   1.89919
    A8        1.87641   0.00000   0.00000   0.00129   0.00129   1.87770
    A9        1.93043   0.00005   0.00000   0.00045   0.00046   1.93088
   A10        1.88571  -0.00013   0.00000  -0.00151  -0.00151   1.88420
   A11        1.90791  -0.00009   0.00000   0.00089   0.00089   1.90880
   A12        1.87416   0.00032   0.00000  -0.00070  -0.00070   1.87346
   A13        1.90221  -0.00004   0.00000  -0.00040  -0.00040   1.90182
   A14        1.94895  -0.00005   0.00000   0.00285   0.00285   1.95181
   A15        1.94355  -0.00002   0.00000  -0.00118  -0.00118   1.94238
   A16        2.16989  -0.00001   0.00000   0.00143   0.00157   2.17147
   A17        2.19225  -0.00010   0.00000  -0.00025  -0.00044   2.19181
   A18        1.91773   0.00012   0.00000  -0.00032  -0.00033   1.91741
   A19        1.91158   0.00003   0.00000  -0.00186  -0.00186   1.90972
   A20        1.84735   0.00206   0.00000   0.00394   0.00393   1.85128
   A21        3.07756   0.00018   0.00000   0.00937   0.00934   3.08690
   A22        3.13328   0.00001   0.00000  -0.00124  -0.00104   3.13224
    D1        2.91887  -0.00020   0.00000   0.02758   0.02827   2.94714
    D2       -1.28832  -0.00022   0.00000   0.02304   0.02373  -1.26458
    D3        0.85551  -0.00013   0.00000   0.02284   0.02352   0.87902
    D4        0.77096   0.00056   0.00000   0.13236   0.13167   0.90263
    D5        2.84696   0.00054   0.00000   0.12782   0.12713   2.97409
    D6       -1.29241   0.00062   0.00000   0.12761   0.12692  -1.16549
    D7       -1.00095   0.00015   0.00000   0.02048   0.02048  -0.98048
    D8        1.06685  -0.00002   0.00000   0.01963   0.01963   1.08648
    D9       -3.10560   0.00010   0.00000   0.01832   0.01831  -3.08728
   D10        1.07314   0.00017   0.00000   0.01609   0.01609   1.08923
   D11        3.14095  -0.00001   0.00000   0.01524   0.01525  -3.12699
   D12       -1.03151   0.00012   0.00000   0.01393   0.01393  -1.01758
   D13        3.13092   0.00016   0.00000   0.01763   0.01762  -3.13464
   D14       -1.08446  -0.00002   0.00000   0.01678   0.01678  -1.06768
   D15        1.02628   0.00010   0.00000   0.01546   0.01546   1.04174
   D16       -1.24009  -0.00010   0.00000   0.03064   0.03066  -1.20943
   D17        1.80517   0.00017   0.00000   0.04324   0.04323   1.84840
   D18        2.96762  -0.00003   0.00000   0.02690   0.02692   2.99453
   D19       -0.27031   0.00024   0.00000   0.03950   0.03949  -0.23082
   D20        0.89565   0.00002   0.00000   0.02646   0.02648   0.92214
   D21       -2.34228   0.00029   0.00000   0.03907   0.03906  -2.30322
   D22       -2.79638  -0.00008   0.00000  -0.06885  -0.06885  -2.86522
   D23        1.42266  -0.00009   0.00000  -0.06820  -0.06820   1.35446
   D24       -0.70826   0.00001   0.00000  -0.06888  -0.06888  -0.77714
   D25        0.00681  -0.00001   0.00000   0.00031   0.00026   0.00707
         Item               Value     Threshold  Converged?
 Maximum Force            0.002751     0.000450     NO 
 RMS     Force            0.000658     0.000300     NO 
 Maximum Displacement     0.116714     0.001800     NO 
 RMS     Displacement     0.032275     0.001200     NO 
 Predicted change in Energy=-1.951441D-04
 GradGradGradGradGradGradGradGradGradGradGradGradGradGradGradGradGradGrad

                          Input orientation:                          
 ---------------------------------------------------------------------
 Center     Atomic      Atomic             Coordinates (Angstroms)
 Number     Number       Type             X           Y           Z
 ---------------------------------------------------------------------
      1          7           0        0.183841    2.020875    0.031264
      2          1           0       -0.093823    2.058352    1.008220
      3          6           0        0.316483    0.625668   -0.400797
      4          1           0        0.417401    0.604801   -1.487051
      5          6           0        1.571176    0.018254    0.222076
      6          6           0       -0.905150   -0.188608   -0.039853
      7          1           0        2.424730    0.643525   -0.060014
      8          1           0        1.472843    0.021051    1.314275
      9          8           0        1.696380   -1.308356   -0.282724
     10          8           0       -1.235607   -0.505792    1.154542
     11          1           0        2.316428   -1.800570    0.262494
     12          1           0       -0.551319    2.481320   -0.495457
     13          8           0       -1.799129   -0.585766   -0.856235
     14          1           0       -2.169680   -0.936749    0.349191
 ---------------------------------------------------------------------
                    Distance matrix (angstroms):
                    1          2          3          4          5
     1  N    0.000000
     2  H    1.016339   0.000000
     3  C    1.466585   2.050918   0.000000
     4  H    2.089281   2.932667   1.091132   0.000000
     5  C    2.443685   2.748135   1.526819   2.143910   0.000000
     6  C    2.464300   2.608742   1.511858   2.114952   2.498718
     7  H    2.631921   3.079931   2.135686   2.463190   1.095031
     8  H    2.703135   2.588186   2.155041   3.049943   1.096620
     9  O    3.670169   4.025678   2.378761   2.597376   1.424919
    10  O    3.108155   2.810678   2.471490   3.308151   3.003689
    11  H    4.382332   4.610499   3.213466   3.528884   1.966000
    12  H    1.014842   1.627651   2.050728   2.333023   3.329644
    13  O    3.393287   3.657269   2.480083   2.593912   3.589784
    14  H    3.793109   3.703259   3.030617   3.527201   3.862926
                    6          7          8          9         10
     6  C    0.000000
     7  H    3.432340   0.000000
     8  H    2.744535   1.783882   0.000000
     9  O    2.842672   2.095217   2.089904   0.000000
    10  O    1.279212   4.024195   2.763834   3.362498   0.000000
    11  H    3.615025   2.467659   2.266314   0.961248   3.884476
    12  H    2.731535   3.524765   3.664053   4.411241   3.480457
    13  O    1.274132   4.470583   3.973052   3.615195   2.089779
    14  H    1.519903   4.875789   3.888025   3.934950   1.306448
                   11         12         13         14
    11  H    0.000000
    12  H    5.208939   0.000000
    13  O    4.434536   3.330797   0.000000
    14  H    4.569340   3.875012   1.309026   0.000000
 Stoichiometry    C3H7NO3
 Framework group  C1[X(C3H7NO3)]
 Deg. of freedom    36
 Full point group                 C1      NOp   1
 Largest Abelian subgroup         C1      NOp   1
 Largest concise Abelian subgroup C1      NOp   1
                         Standard orientation:                         
 ---------------------------------------------------------------------
 Center     Atomic      Atomic             Coordinates (Angstroms)
 Number     Number       Type             X           Y           Z
 ---------------------------------------------------------------------
      1          7           0        0.110465    2.012609    0.011322
      2          1           0       -0.170256    2.051100    0.987364
      3          6           0        0.291152    0.618158   -0.405490
      4          1           0        0.394884    0.589107   -1.491291
      5          6           0        1.564456    0.060315    0.225924
      6          6           0       -0.902915   -0.233147   -0.037799
      7          1           0        2.396901    0.711103   -0.061484
      8          1           0        1.463908    0.071458    1.317868
      9          8           0        1.735530   -1.266613   -0.264372
     10          8           0       -1.224818   -0.548556    1.159398
     11          1           0        2.370808   -1.731670    0.287119
     12          1           0       -0.638818    2.442214   -0.521519
     13          8           0       -1.781299   -0.669085   -0.851318
     14          1           0       -2.142150   -1.019513    0.357209
 ---------------------------------------------------------------------
 Rotational constants (GHZ):      3.2199863      2.2533530      1.7031429
 Standard basis: 6-311++G(d,p) (5D, 7F)
 There are   203 symmetry adapted basis functions of A   symmetry.
 Integral buffers will be    262144 words long.
 Raffenetti 2 integral format.
 Two-electron integral symmetry is turned on.
   203 basis functions,   315 primitive gaussians,   210 cartesian basis functions
    28 alpha electrons       28 beta electrons
       nuclear repulsion energy       324.6995249789 Hartrees.
 NAtoms=   14 NActive=   14 NUniq=   14 SFac= 1.00D+00 NAtFMM=   50 NAOKFM=F Big=F
 One-electron integrals computed using PRISM.
 NBasis=   203 RedAO= T  NBF=   203
 NBsUse=   203 1.00D-06 NBFU=   203
 Initial guess read from the read-write file.
 B after Tr=     0.000000    0.000000    0.000000
         Rot=    1.000000    0.000000    0.000000    0.000000 Ang=   0.00 deg.
 Initial guess orbital symmetries:
       Occupied  (A) (A) (A) (A) (A) (A) (A) (A) (A) (A) (A) (A)
                 (A) (A) (A) (A) (A) (A) (A) (A) (A) (A) (A) (A)
                 (A) (A) (A) (A)
       Virtual   (A) (A) (A) (A) (A) (A) (A) (A) (A) (A) (A) (A)
                 (A) (A) (A) (A) (A) (A) (A) (A) (A) (A) (A) (A)
                 (A) (A) (A) (A) (A) (A) (A) (A) (A) (A) (A) (A)
                 (A) (A) (A) (A) (A) (A) (A) (A) (A) (A) (A) (A)
                 (A) (A) (A) (A) (A) (A) (A) (A) (A) (A) (A) (A)
                 (A) (A) (A) (A) (A) (A) (A) (A) (A) (A) (A) (A)
                 (A) (A) (A) (A) (A) (A) (A) (A) (A) (A) (A) (A)
                 (A) (A) (A) (A) (A) (A) (A) (A) (A) (A) (A) (A)
                 (A) (A) (A) (A) (A) (A) (A) (A) (A) (A) (A) (A)
                 (A) (A) (A) (A) (A) (A) (A) (A) (A) (A) (A) (A)
                 (A) (A) (A) (A) (A) (A) (A) (A) (A) (A) (A) (A)
                 (A) (A) (A) (A) (A) (A) (A) (A) (A) (A) (A) (A)
                 (A) (A) (A) (A) (A) (A) (A) (A) (A) (A) (A) (A)
                 (A) (A) (A) (A) (A) (A) (A) (A) (A) (A) (A) (A)
                 (A) (A) (A) (A) (A) (A) (A)
 Harris functional with IExCor=  402 diagonalized for initial guess.
 ExpMin= 3.60D-02 ExpMax= 8.59D+03 ExpMxC= 1.30D+03 IAcc=3 IRadAn=         0 AccDes= 0.00D+00
 HarFok:  IExCor=  402 AccDes= 0.00D+00 IRadAn=         0 IDoV= 1
 ScaDFX=  1.000000  1.000000  1.000000  1.000000
 FoFCou: FMM=F IPFlag=           0 FMFlag=      100000 FMFlg1=           0
         NFxFlg=           0 DoJE=T BraDBF=F KetDBF=T FulRan=T
         Omega=  0.000000  0.000000  1.000000  0.000000  0.000000 ICntrl=     500 IOpCl=  0
         NMat0=    1 NMatS0=    1 NMatT0=    0 NMatD0=    1 NMtDS0=    0 NMtDT0=    0
         I1Cent=           4 NGrid=           0.
 Petite list used in FoFCou.
 Requested convergence on RMS density matrix=1.00D-08 within 128 cycles.
 Requested convergence on MAX density matrix=1.00D-06.
 Requested convergence on             energy=1.00D-06.
 No special actions if energy rises.
 SCF Done:  E(RB3LYP) =  -399.033967763     A.U. after   12 cycles
             Convg  =    0.4025D-08             -V/T =  2.0035
 Calling FoFJK, ICntrl=      2127 FMM=F ISym2X=0 I1Cent= 0 IOpClX= 0 NMat=1 NMatS=1 NMatT=0.
 ***** Axes restored to original set *****
 -------------------------------------------------------------------
 Center     Atomic                   Forces (Hartrees/Bohr)
 Number     Number              X              Y              Z
 -------------------------------------------------------------------
      1        7          -0.003912718   -0.001462361    0.000511997
      2        1           0.001442885    0.000654075    0.000936477
      3        6           0.001393810   -0.000342484   -0.000249831
      4        1          -0.000063235   -0.000061928   -0.000005282
      5        6          -0.000091625   -0.000697068   -0.000241138
      6        6          -0.001744024   -0.000951845    0.000482946
      7        1           0.000049169   -0.000066108   -0.000018035
      8        1          -0.000014483   -0.000002580    0.000001476
      9        8           0.000243248    0.000303239    0.000262126
     10        8           0.000218872    0.000454893   -0.001858257
     11        1          -0.000106997    0.000114399   -0.000112957
     12        1           0.000928277    0.001387900   -0.001019455
     13        8           0.001098990    0.000371208    0.001600737
     14        1           0.000557831    0.000298660   -0.000290803
 -------------------------------------------------------------------
 Cartesian Forces:  Max     0.003912718 RMS     0.000977763

 GradGradGradGradGradGradGradGradGradGradGradGradGradGradGradGradGradGrad
 Berny optimization.
 Internal  Forces:  Max     0.001649324 RMS     0.000532372
 Search for a saddle point.
 Step number   3 out of a maximum of   72
 All quantities printed in internal units (Hartrees-Bohrs-Radians)
 Swaping is turned off.
 Update second derivatives using D2CorX and points    2    3
 ITU=  0  0  0
     Eigenvalues ---   -0.10521  -0.00204   0.00147   0.00221   0.00469
     Eigenvalues ---    0.02047   0.03069   0.04119   0.04672   0.04903
     Eigenvalues ---    0.05306   0.05725   0.06398   0.07205   0.09659
     Eigenvalues ---    0.11647   0.12338   0.13957   0.14346   0.14728
     Eigenvalues ---    0.16813   0.16885   0.20793   0.22567   0.26745
     Eigenvalues ---    0.29298   0.31267   0.32207   0.33509   0.34126
     Eigenvalues ---    0.36617   0.37024   0.45775   0.46494   0.47332
     Eigenvalues ---    0.48458
 Eigenvectors required to have negative eigenvalues:
                          R14       R15       A22       R10       R11
   1                   -0.64107   0.64042   0.35226   0.13263  -0.12962
                          A21       A17       A16       A8        A9
   1                   -0.09361  -0.06822   0.06704  -0.02016   0.01559
 RFO step:  Lambda0=1.241612992D-07 Lambda=-2.25106045D-03.
 Linear search not attempted -- option 19 set.
 Iteration  1 RMS(Cart)=  0.07698818 RMS(Int)=  0.02554093
 Iteration  2 RMS(Cart)=  0.02194164 RMS(Int)=  0.00223233
 Iteration  3 RMS(Cart)=  0.00092088 RMS(Int)=  0.00202448
 Iteration  4 RMS(Cart)=  0.00000249 RMS(Int)=  0.00202448
 Iteration  5 RMS(Cart)=  0.00000003 RMS(Int)=  0.00202448
 Variable       Old X    -DE/DX   Delta X   Delta X   Delta X     New X
                                 (Linear)    (Quad)   (Total)
    R1        1.92060   0.00053   0.00000  -0.00325  -0.00325   1.91735
    R2        2.77144   0.00082   0.00000  -0.01590  -0.01590   2.75554
    R3        1.91777   0.00048   0.00000  -0.00360  -0.00360   1.91417
    R4        2.06194   0.00000   0.00000  -0.00001  -0.00001   2.06193
    R5        2.88527   0.00016   0.00000   0.00179   0.00179   2.88706
    R6        2.85700  -0.00022   0.00000   0.00547   0.00548   2.86247
    R7        2.06931   0.00000   0.00000   0.00116   0.00116   2.07047
    R8        2.07231   0.00000   0.00000   0.00272   0.00272   2.07503
    R9        2.69271  -0.00042   0.00000  -0.00896  -0.00896   2.68375
   R10        2.41736  -0.00144   0.00000  -0.01074  -0.01085   2.40652
   R11        2.40776  -0.00139   0.00000  -0.00912  -0.00902   2.39874
   R12        2.87220  -0.00050   0.00000  -0.02207  -0.02204   2.85016
   R13        1.81650  -0.00019   0.00000  -0.00030  -0.00030   1.81620
   R14        2.46883  -0.00049   0.00000  -0.01402  -0.01370   2.45513
   R15        2.47370  -0.00068   0.00000  -0.01414  -0.01448   2.45922
    A1        1.92088   0.00128   0.00000   0.07339   0.06640   1.98728
    A2        1.85904   0.00015   0.00000   0.07164   0.06082   1.91986
    A3        1.92223   0.00165   0.00000   0.08505   0.07812   2.00035
    A4        1.89636   0.00000   0.00000   0.00249   0.00249   1.89886
    A5        1.90986   0.00035   0.00000   0.00293   0.00293   1.91279
    A6        1.94869  -0.00025   0.00000   0.00503   0.00504   1.95373
    A7        1.89919  -0.00010   0.00000  -0.00490  -0.00491   1.89428
    A8        1.87770   0.00007   0.00000   0.00140   0.00136   1.87906
    A9        1.93088  -0.00008   0.00000  -0.00709  -0.00710   1.92378
   A10        1.88420   0.00000   0.00000  -0.00201  -0.00201   1.88219
   A11        1.90880  -0.00007   0.00000  -0.00187  -0.00189   1.90691
   A12        1.87346   0.00025   0.00000  -0.00451  -0.00452   1.86894
   A13        1.90182   0.00003   0.00000   0.00221   0.00221   1.90402
   A14        1.95181  -0.00016   0.00000   0.01053   0.01054   1.96234
   A15        1.94238  -0.00004   0.00000  -0.00461  -0.00463   1.93775
   A16        2.17147  -0.00014   0.00000  -0.00013   0.00055   2.17201
   A17        2.19181   0.00001   0.00000  -0.00058  -0.00140   2.19041
   A18        1.91741   0.00013   0.00000   0.00196   0.00194   1.91935
   A19        1.90972  -0.00001   0.00000  -0.00197  -0.00197   1.90775
   A20        1.85128  -0.00081   0.00000   0.00604   0.00606   1.85734
   A21        3.08690   0.00001   0.00000   0.01460   0.01437   3.10127
   A22        3.13224   0.00007   0.00000  -0.00330  -0.00240   3.12984
    D1        2.94714   0.00090   0.00000   0.26443   0.26695  -3.06909
    D2       -1.26458   0.00099   0.00000   0.26167   0.26419  -1.00040
    D3        0.87902   0.00096   0.00000   0.25811   0.26062   1.13965
    D4        0.90263  -0.00103   0.00000   0.08206   0.07955   0.98218
    D5        2.97409  -0.00095   0.00000   0.07930   0.07678   3.05087
    D6       -1.16549  -0.00097   0.00000   0.07574   0.07322  -1.09227
    D7       -0.98048  -0.00009   0.00000   0.02992   0.02992  -0.95056
    D8        1.08648  -0.00009   0.00000   0.03036   0.03036   1.11684
    D9       -3.08728  -0.00004   0.00000   0.02105   0.02105  -3.06623
   D10        1.08923   0.00005   0.00000   0.03175   0.03174   1.12097
   D11       -3.12699   0.00005   0.00000   0.03219   0.03218  -3.09481
   D12       -1.01758   0.00010   0.00000   0.02288   0.02288  -0.99470
   D13       -3.13464   0.00004   0.00000   0.02633   0.02634  -3.10830
   D14       -1.06768   0.00003   0.00000   0.02677   0.02678  -1.04090
   D15        1.04174   0.00009   0.00000   0.01746   0.01748   1.05922
   D16       -1.20943  -0.00005   0.00000   0.10104   0.10117  -1.10827
   D17        1.84840  -0.00007   0.00000   0.12211   0.12204   1.97044
   D18        2.99453   0.00005   0.00000   0.09417   0.09427   3.08880
   D19       -0.23082   0.00003   0.00000   0.11524   0.11514  -0.11568
   D20        0.92214   0.00017   0.00000   0.10328   0.10338   1.02551
   D21       -2.30322   0.00015   0.00000   0.12435   0.12425  -2.17897
   D22       -2.86522   0.00000   0.00000  -0.28872  -0.28874   3.12922
   D23        1.35446  -0.00007   0.00000  -0.28946  -0.28946   1.06500
   D24       -0.77714   0.00004   0.00000  -0.29650  -0.29649  -1.07363
   D25        0.00707   0.00005   0.00000  -0.00034  -0.00070   0.00636
         Item               Value     Threshold  Converged?
 Maximum Force            0.001649     0.000450     NO 
 RMS     Force            0.000532     0.000300     NO 
 Maximum Displacement     0.398913     0.001800     NO 
 RMS     Displacement     0.094090     0.001200     NO 
 Predicted change in Energy=-1.225145D-03
 GradGradGradGradGradGradGradGradGradGradGradGradGradGradGradGradGradGrad

                          Input orientation:                          
 ---------------------------------------------------------------------
 Center     Atomic      Atomic             Coordinates (Angstroms)
 Number     Number       Type             X           Y           Z
 ---------------------------------------------------------------------
      1          7           0        0.167229    2.005987    0.004655
      2          1           0        0.117272    2.139964    1.009148
      3          6           0        0.295355    0.610586   -0.398709
      4          1           0        0.416194    0.567520   -1.482267
      5          6           0        1.535345    0.000689    0.252841
      6          6           0       -0.935089   -0.197222   -0.041023
      7          1           0        2.393552    0.632310   -0.002070
      8          1           0        1.405451   -0.005820    1.343170
      9          8           0        1.665337   -1.320086   -0.252694
     10          8           0       -1.339519   -0.405240    1.148473
     11          1           0        2.445342   -1.731319    0.129631
     12          1           0       -0.585359    2.509086   -0.449812
     13          8           0       -1.747531   -0.709462   -0.870971
     14          1           0       -2.189003   -0.948990    0.329557
 ---------------------------------------------------------------------
                    Distance matrix (angstroms):
                    1          2          3          4          5
     1  N    0.000000
     2  H    1.014619   0.000000
     3  C    1.458171   2.086330   0.000000
     4  H    2.083773   2.961264   1.091126   0.000000
     5  C    2.440197   2.675711   1.527766   2.141120   0.000000
     6  C    2.464005   2.769975   1.514756   2.118486   2.495711
     7  H    2.616018   2.911534   2.135468   2.470855   1.095647
     8  H    2.715177   2.524949   2.155554   3.048022   1.098058
     9  O    3.656955   3.995084   2.371849   2.575901   1.420179
    10  O    3.064739   2.935935   2.469511   3.309015   3.038384
    11  H    4.378684   4.602205   3.222749   3.464148   1.960389
    12  H    1.012935   1.660875   2.093458   2.416351   3.359042
    13  O    3.436087   3.889932   2.477689   2.585744   3.541828
    14  H    3.793321   3.914383   3.022364   3.517039   3.844288
                    6          7          8          9         10
     6  C    0.000000
     7  H    3.430669   0.000000
     8  H    2.725941   1.786958   0.000000
     9  O    2.840395   2.098799   2.083654   0.000000
    10  O    1.273473   4.041791   2.780702   3.439385   0.000000
    11  H    3.716167   2.367862   2.351892   0.961090   4.137837
    12  H    2.759261   3.549179   3.674624   4.446014   3.408308
    13  O    1.269357   4.438908   3.916482   3.521760   2.082590
    14  H    1.508239   4.859043   3.851893   3.915695   1.299196
                   11         12         13         14
    11  H    0.000000
    12  H    5.244229   0.000000
    13  O    4.430077   3.447763   0.000000
    14  H    4.704165   3.890679   1.301361   0.000000
 Stoichiometry    C3H7NO3
 Framework group  C1[X(C3H7NO3)]
 Deg. of freedom    36
 Full point group                 C1      NOp   1
 Largest Abelian subgroup         C1      NOp   1
 Largest concise Abelian subgroup C1      NOp   1
                         Standard orientation:                         
 ---------------------------------------------------------------------
 Center     Atomic      Atomic             Coordinates (Angstroms)
 Number     Number       Type             X           Y           Z
 ---------------------------------------------------------------------
      1          7           0        0.157419    2.001867   -0.098961
      2          1           0        0.100255    2.187503    0.896892
      3          6           0        0.304856    0.589012   -0.428150
      4          1           0        0.432222    0.490912   -1.507367
      5          6           0        1.548589    0.029556    0.260476
      6          6           0       -0.917569   -0.214345   -0.034731
      7          1           0        2.400398    0.657690   -0.022916
      8          1           0        1.412739    0.078392    1.349004
      9          8           0        1.697545   -1.314095   -0.174637
     10          8           0       -1.326012   -0.364983    1.162022
     11          1           0        2.480395   -1.694996    0.232492
     12          1           0       -0.598741    2.471076   -0.582802
     13          8           0       -1.719062   -0.779375   -0.840719
     14          1           0       -2.164220   -0.961365    0.368518
 ---------------------------------------------------------------------
 Rotational constants (GHZ):      3.2051107      2.2661758      1.7033477
 Standard basis: 6-311++G(d,p) (5D, 7F)
 There are   203 symmetry adapted basis functions of A   symmetry.
 Integral buffers will be    262144 words long.
 Raffenetti 2 integral format.
 Two-electron integral symmetry is turned on.
   203 basis functions,   315 primitive gaussians,   210 cartesian basis functions
    28 alpha electrons       28 beta electrons
       nuclear repulsion energy       324.9454762780 Hartrees.
 NAtoms=   14 NActive=   14 NUniq=   14 SFac= 1.00D+00 NAtFMM=   50 NAOKFM=F Big=F
 One-electron integrals computed using PRISM.
 NBasis=   203 RedAO= T  NBF=   203
 NBsUse=   203 1.00D-06 NBFU=   203
 Initial guess read from the read-write file.
 B after Tr=     0.000000    0.000000    0.000000
         Rot=    1.000000    0.000000    0.000000    0.000000 Ang=   0.00 deg.
 Initial guess orbital symmetries:
       Occupied  (A) (A) (A) (A) (A) (A) (A) (A) (A) (A) (A) (A)
                 (A) (A) (A) (A) (A) (A) (A) (A) (A) (A) (A) (A)
                 (A) (A) (A) (A)
       Virtual   (A) (A) (A) (A) (A) (A) (A) (A) (A) (A) (A) (A)
                 (A) (A) (A) (A) (A) (A) (A) (A) (A) (A) (A) (A)
                 (A) (A) (A) (A) (A) (A) (A) (A) (A) (A) (A) (A)
                 (A) (A) (A) (A) (A) (A) (A) (A) (A) (A) (A) (A)
                 (A) (A) (A) (A) (A) (A) (A) (A) (A) (A) (A) (A)
                 (A) (A) (A) (A) (A) (A) (A) (A) (A) (A) (A) (A)
                 (A) (A) (A) (A) (A) (A) (A) (A) (A) (A) (A) (A)
                 (A) (A) (A) (A) (A) (A) (A) (A) (A) (A) (A) (A)
                 (A) (A) (A) (A) (A) (A) (A) (A) (A) (A) (A) (A)
                 (A) (A) (A) (A) (A) (A) (A) (A) (A) (A) (A) (A)
                 (A) (A) (A) (A) (A) (A) (A) (A) (A) (A) (A) (A)
                 (A) (A) (A) (A) (A) (A) (A) (A) (A) (A) (A) (A)
                 (A) (A) (A) (A) (A) (A) (A) (A) (A) (A) (A) (A)
                 (A) (A) (A) (A) (A) (A) (A) (A) (A) (A) (A) (A)
                 (A) (A) (A) (A) (A) (A) (A)
 Harris functional with IExCor=  402 diagonalized for initial guess.
 ExpMin= 3.60D-02 ExpMax= 8.59D+03 ExpMxC= 1.30D+03 IAcc=3 IRadAn=         0 AccDes= 0.00D+00
 HarFok:  IExCor=  402 AccDes= 0.00D+00 IRadAn=         0 IDoV= 1
 ScaDFX=  1.000000  1.000000  1.000000  1.000000
 FoFCou: FMM=F IPFlag=           0 FMFlag=      100000 FMFlg1=           0
         NFxFlg=           0 DoJE=T BraDBF=F KetDBF=T FulRan=T
         Omega=  0.000000  0.000000  1.000000  0.000000  0.000000 ICntrl=     500 IOpCl=  0
         NMat0=    1 NMatS0=    1 NMatT0=    0 NMatD0=    1 NMtDS0=    0 NMtDT0=    0
         I1Cent=           4 NGrid=           0.
 Petite list used in FoFCou.
 Requested convergence on RMS density matrix=1.00D-08 within 128 cycles.
 Requested convergence on MAX density matrix=1.00D-06.
 Requested convergence on             energy=1.00D-06.
 No special actions if energy rises.
 SCF Done:  E(RB3LYP) =  -399.032943041     A.U. after   12 cycles
             Convg  =    0.7916D-08             -V/T =  2.0035
 Calling FoFJK, ICntrl=      2127 FMM=F ISym2X=0 I1Cent= 0 IOpClX= 0 NMat=1 NMatS=1 NMatT=0.
 ***** Axes restored to original set *****
 -------------------------------------------------------------------
 Center     Atomic                   Forces (Hartrees/Bohr)
 Number     Number              X              Y              Z
 -------------------------------------------------------------------
      1        7           0.006054934    0.004006659   -0.000001790
      2        1          -0.003059716   -0.002584755   -0.001442324
      3        6          -0.003033358    0.002563020    0.001392968
      4        1          -0.000547557   -0.000129437   -0.000072002
      5        6          -0.000796622    0.001464289    0.000563466
      6        6           0.005347395    0.001981750   -0.001714077
      7        1          -0.000035076   -0.000545140   -0.000432645
      8        1           0.000436877    0.000454838   -0.000034273
      9        8           0.001197479   -0.001009002   -0.000937174
     10        8          -0.000402248   -0.000202364    0.005172743
     11        1          -0.000196888   -0.000512555    0.000529347
[...]
     Eigenvalues ---    0.12133   0.14025   0.14732   0.15074   0.15621
     Eigenvalues ---    0.16272   0.18254   0.21809   0.23645   0.27539
     Eigenvalues ---    0.29335   0.32236   0.32455   0.33708   0.35608
     Eigenvalues ---    0.38599   0.44846   0.45354   0.47507   0.53598
     Eigenvalues ---    0.53910
 Eigenvectors required to have negative eigenvalues:
                          R14       R15       A22       R10       A21
   1                   -0.64364   0.64322   0.35415   0.11102  -0.10981
                          R11       A17       A16       A8        D25
   1                   -0.10796  -0.06083   0.05932  -0.02081  -0.01931
 Angle between quadratic step and forces=  79.12 degrees.
 Linear search not attempted -- option 19 set.
 Iteration  1 RMS(Cart)=  0.00043401 RMS(Int)=  0.00000048
 Iteration  2 RMS(Cart)=  0.00000047 RMS(Int)=  0.00000000
 Variable       Old X    -DE/DX   Delta X   Delta X   Delta X     New X
                                 (Linear)    (Quad)   (Total)
    R1        1.91874   0.00000   0.00000   0.00000   0.00000   1.91874
    R2        2.76596   0.00001   0.00000   0.00000   0.00000   2.76597
    R3        1.91563   0.00000   0.00000   0.00000   0.00000   1.91563
    R4        2.06189   0.00000   0.00000   0.00000   0.00000   2.06188
    R5        2.88652  -0.00001   0.00000  -0.00001  -0.00001   2.88651
    R6        2.85809   0.00000   0.00000  -0.00001  -0.00001   2.85808
    R7        2.06939   0.00000   0.00000   0.00001   0.00001   2.06940
    R8        2.07245   0.00000   0.00000   0.00002   0.00002   2.07247
    R9        2.69107   0.00000   0.00000   0.00000   0.00000   2.69107
   R10        2.41477   0.00000   0.00000   0.00000   0.00000   2.41477
   R11        2.40476   0.00000   0.00000   0.00001   0.00001   2.40477
   R12        2.86762  -0.00001   0.00000  -0.00017  -0.00017   2.86745
   R13        1.81609   0.00001   0.00000   0.00002   0.00002   1.81611
   R14        2.46535  -0.00001   0.00000  -0.00016  -0.00016   2.46520
   R15        2.47127  -0.00001   0.00000  -0.00013  -0.00013   2.47113
    A1        1.94240   0.00001   0.00000   0.00005   0.00005   1.94245
    A2        1.88712  -0.00001   0.00000  -0.00005  -0.00005   1.88707
    A3        1.94565   0.00001   0.00000   0.00005   0.00005   1.94570
    A4        1.89682   0.00000   0.00000   0.00003   0.00003   1.89685
    A5        1.91305   0.00000   0.00000  -0.00001  -0.00001   1.91304
    A6        1.94765   0.00000   0.00000   0.00000   0.00000   1.94765
    A7        1.89903   0.00000   0.00000   0.00000   0.00000   1.89902
    A8        1.87691   0.00000   0.00000   0.00001   0.00001   1.87691
    A9        1.92919   0.00000   0.00000  -0.00002  -0.00002   1.92916
   A10        1.88407   0.00000   0.00000  -0.00001  -0.00001   1.88406
   A11        1.90797   0.00000   0.00000  -0.00001  -0.00001   1.90796
   A12        1.87468  -0.00002   0.00000  -0.00013  -0.00013   1.87455
   A13        1.90157   0.00000   0.00000   0.00003   0.00003   1.90160
   A14        1.95146   0.00001   0.00000   0.00011   0.00011   1.95157
   A15        1.94270   0.00001   0.00000   0.00000   0.00000   1.94270
   A16        2.16948   0.00000   0.00000  -0.00001  -0.00001   2.16947
   A17        2.19335   0.00001   0.00000   0.00006   0.00006   2.19340
   A18        1.91799  -0.00001   0.00000  -0.00004  -0.00004   1.91795
   A19        1.90983   0.00000   0.00000  -0.00001  -0.00001   1.90982
   A20        1.85192   0.00001   0.00000   0.00012   0.00012   1.85204
   A21        3.08781   0.00000   0.00000   0.00001   0.00001   3.08782
   A22        3.13467   0.00000   0.00000   0.00003   0.00003   3.13469
    D1        2.96029   0.00000   0.00000  -0.00028  -0.00028   2.96001
    D2       -1.24951   0.00000   0.00000  -0.00027  -0.00027  -1.24977
    D3        0.89347   0.00000   0.00000  -0.00030  -0.00030   0.89317
    D4        0.85185   0.00000   0.00000  -0.00028  -0.00028   0.85158
    D5        2.92524   0.00000   0.00000  -0.00027  -0.00027   2.92498
    D6       -1.21496   0.00000   0.00000  -0.00030  -0.00030  -1.21526
    D7       -0.98442   0.00000   0.00000  -0.00013  -0.00013  -0.98455
    D8        1.08170   0.00000   0.00000  -0.00010  -0.00010   1.08160
    D9       -3.09144   0.00000   0.00000  -0.00018  -0.00018  -3.09162
   D10        1.08760   0.00000   0.00000  -0.00010  -0.00010   1.08751
   D11       -3.12946   0.00000   0.00000  -0.00007  -0.00007  -3.12953
   D12       -1.01941   0.00000   0.00000  -0.00015  -0.00015  -1.01956
   D13       -3.13832   0.00000   0.00000  -0.00010  -0.00010  -3.13842
   D14       -1.07219   0.00000   0.00000  -0.00008  -0.00008  -1.07227
   D15        1.03786   0.00000   0.00000  -0.00016  -0.00016   1.03770
   D16       -1.19300   0.00000   0.00000   0.00055   0.00055  -1.19245
   D17        1.86705   0.00000   0.00000   0.00055   0.00055   1.86760
   D18        3.01150   0.00000   0.00000   0.00051   0.00051   3.01201
   D19       -0.21163   0.00000   0.00000   0.00051   0.00051  -0.21112
   D20        0.94073   0.00000   0.00000   0.00052   0.00052   0.94125
   D21       -2.28240   0.00000   0.00000   0.00052   0.00052  -2.28188
   D22       -2.86681   0.00000   0.00000  -0.00220  -0.00220  -2.86902
   D23        1.35246   0.00000   0.00000  -0.00218  -0.00218   1.35029
   D24       -0.77880  -0.00001   0.00000  -0.00229  -0.00229  -0.78109
   D25        0.00705   0.00000   0.00000   0.00003   0.00003   0.00708
         Item               Value     Threshold  Converged?
 Maximum Force            0.000017     0.000450     YES
 RMS     Force            0.000005     0.000300     YES
 Maximum Displacement     0.001861     0.001800     NO 
 RMS     Displacement     0.000434     0.001200     YES
 Predicted change in Energy=-1.530658D-08
 GradGradGradGradGradGradGradGradGradGradGradGradGradGradGradGradGradGrad


 Test job not archived.
 1|1|UNPC-WIN-20150318OUM|Freq|RB3LYP|6-311++G(d,p)|C3H7N1O3|ADMINISTRA
 TOR|01-Apr-2016|0||#N Geom=AllCheck Guess=TCheck SCRF=Check Test GenCh
 k RB3LYP/6-311++G(d,p) Freq||Ser-S-opt-freq-ts1-6-311++gdp||0,1|N,0.17
 36960578,2.0160921413,0.0374775252|H,-0.0904467377,2.0711892603,1.0163
 208927|C,0.3118846837,0.6256246453,-0.3982671356|H,0.4113740547,0.6081
 119066,-1.4846841409|C,1.5683862213,0.0167470865,0.2211464065|C,-0.907
 3513422,-0.1940255342,-0.0389621601|H,2.4213420208,0.6425557995,-0.061
 7269391|H,1.4718953836,0.0187934676,1.3135869874|O,1.6936276717,-1.308
 4870363,-0.2848102698|O,-1.2432616184,-0.4995681004,1.1554762414|H,2.3
 159491788,-1.8002904225,0.2578060455|H,-0.5265785843,2.5075903748,-0.5
 062598044|O,-1.7901529067,-0.6084239404,-0.8564609635|H,-2.1657880833,
 -0.9479066481,0.3492873146||Version=IA32W-G09RevB.01|State=1-A|HF=-399
 .0340995|RMSD=8.528e-010|RMSF=8.232e-006|ZeroPoint=0.1079173|Thermal=0
 .1158485|Dipole=0.555239,0.4639865,0.4476091|DipoleDeriv=-0.5191291,-0
 .1480186,0.0530228,-0.103807,-0.6635108,-0.0120375,0.0380366,-0.036651
 ,-0.2373081,0.2357194,0.071783,0.0771246,0.0493014,0.1839676,0.0725903
 ,0.0528863,0.0189577,0.0850766,0.2194536,-0.0644264,-0.052902,-0.08608
 54,0.3996034,0.0234296,-0.0779241,0.0790778,0.1675531,0.0253136,-0.010
 4699,-0.0076318,-0.0053627,0.0263121,-0.0021811,0.0125887,-0.0069588,-
 0.0531269,0.3330734,-0.1106133,-0.0952386,-0.1376764,0.7625902,0.12267
 18,-0.0502279,0.1404211,0.3148093,0.9481835,0.4599585,0.1690444,0.4266
 876,0.4240249,-0.0274826,0.1223867,-0.0586199,1.2698061,-0.0926607,-0.
 092059,0.0199578,-0.0574493,-0.0759777,0.000663,0.0479045,0.0164008,0.
 043555,0.048904,0.0255749,0.0437447,0.0370338,-0.0247824,-0.0110861,0.
 0047946,-0.0503647,-0.1371964,-0.5151669,0.1381204,0.1415123,0.1704424
 ,-0.932371,-0.0957601,0.1378691,-0.111947,-0.3837055,-0.6317488,-0.175
 6987,0.0020654,-0.1535362,-0.4487936,0.0699753,-0.0351758,0.105447,-1.
 1612581,0.273577,0.0195892,-0.0803096,-0.0005044,0.283291,-0.0225895,-
 0.0895097,-0.0016281,0.2301054,0.1130621,0.1254067,-0.0813501,0.054461
 8,0.2118655,-0.051378,-0.056811,-0.0491486,0.1533581,-0.7564229,-0.250
 4763,-0.3097207,-0.2086189,-0.4240392,-0.0908335,-0.2479809,-0.0754522
 ,-1.0097684,0.3178418,0.0113295,0.1206808,0.0151134,0.2778201,0.024018
 3,0.1411629,0.030466,0.7180999|Polar=59.7870416,3.8102252,58.0714446,2
 .136069,0.1162115,54.9913888|PG=C01 [X(C3H7N1O3)]|NImag=1||0.32821838,
 -0.20167252,0.43803184,0.05433355,-0.02759002,0.67493184,-0.05460847,0
 .03052204,0.12341496,0.05271792,0.02165331,-0.05101574,0.00487331,-0.0
 2311229,0.05899524,0.07928370,-0.01725538,-0.39794792,-0.09372261,0.01
 895764,0.42395580,-0.06001475,0.00699294,-0.00849416,-0.00400025,0.008
 90406,0.00440594,0.47028603,0.03618073,-0.19348280,-0.03612638,-0.0073
 4562,-0.00476644,0.00037010,-0.00866892,0.44720782,0.00136934,-0.02714
 513,-0.11201776,0.00151977,-0.03953085,-0.00996642,-0.00934102,-0.0032
 4178,0.64033358,0.00028848,0.00193791,0.00399762,0.00036742,0.00087620
 ,0.00024423,-0.05337793,-0.00123929,0.02213006,0.05923777,0.00339271,-
 0.00619332,-0.03860591,0.00075791,-0.00637992,-0.00203313,-0.00144670,
 -0.04894799,0.00493272,0.00151701,0.06021872,0.00070485,-0.00361199,-0
 .00806313,-0.00000032,-0.00123774,0.00157449,0.02776990,0.00090145,-0.
 31154690,-0.02714479,0.00236065,0.33665835,0.00034426,0.00583525,0.001
 14193,0.00041081,-0.00060967,0.00015168,-0.15475917,0.02324179,-0.0428
 1717,0.00116045,-0.00100727,-0.00108299,0.53453201,0.02722333,-0.02638
 545,0.01335609,0.00072047,0.00092287,-0.00008713,0.02208210,-0.0726730
 1,0.02055832,0.00061682,0.00024581,0.00079376,0.05230405,0.48456024,0.
 00944032,-0.00812071,0.00571716,0.00267510,-0.00154953,0.00095357,-0.0
 4099461,0.01801513,-0.10766326,-0.03067640,0.01348460,-0.01450176,-0.0
 2055554,-0.02739875,0.57728357,0.00856196,0.00010254,-0.00446273,0.000
 94826,-0.00002689,-0.00087893,-0.16018165,-0.04101236,0.03096651,-0.00
 268328,-0.00118289,-0.00016412,-0.03852463,-0.01096533,0.00260914,0.66
 072716,-0.02089051,-0.04181088,-0.00150108,-0.00003787,0.00048525,0.00
 049148,-0.03262518,-0.09296622,0.02050859,-0.00080591,0.00092306,0.000
 78712,0.00644988,0.01980957,-0.00775865,0.24297972,0.36312612,-0.00796
 355,-0.00932266,0.00162425,-0.00316213,-0.00453816,0.00031531,0.024152
 12,0.01901985,-0.09363431,0.02974278,0.01978123,-0.01066537,-0.0119950
 4,-0.01091691,0.00796266,0.00376863,-0.04416859,0.68450445,0.00304395,
 -0.00051450,0.00031450,-0.00018755,-0.00010831,-0.00006646,-0.02608985
 ,-0.01418003,0.00865373,0.00125873,-0.00039109,-0.00017677,-0.20987813
 ,-0.10612952,0.05689778,-0.00165776,0.00413444,-0.00311586,0.22324739,
 0.00017156,0.00135025,-0.00004755,0.00017327,-0.00007069,0.00003280,0.
 01065564,0.00645337,-0.00315273,-0.00055572,0.00044031,-0.00014569,-0.
 10684507,-0.11714060,0.04094410,0.00169397,-0.00354492,0.00117678,0.11
 779514,0.14305716,0.00102595,-0.00086669,-0.00001553,0.00018460,0.0002
 5263,-0.00003183,-0.01563204,-0.00578786,0.00353301,0.00025831,-0.0007
 7679,0.00082038,0.06068066,0.04113893,-0.07571481,-0.00173285,0.002798
 07,-0.00218734,-0.05938413,-0.03916034,0.07409608,0.00112050,-0.001650
 74,0.00083439,0.00003612,0.00053480,0.00034637,0.00067526,0.00170737,-
 0.03039289,-0.00434718,0.00234487,-0.00200495,-0.05592952,-0.00253003,
 0.02537945,0.00192124,0.00016302,-0.00225370,-0.00059128,-0.00205911,0
 .02565417,0.05445943,-0.00075367,0.00110832,-0.00023321,0.00053071,-0.
 00016089,-0.00011510,-0.00131523,-0.00003622,0.01405172,0.00288525,-0.
 00097658,0.00047765,-0.00117159,-0.05117215,0.01679211,-0.00064725,-0.
 00004216,-0.00063605,-0.00096362,0.00223567,0.01632006,-0.00210002,0.0
 6165107,0.00013517,0.00000155,0.00144054,-0.00068980,0.00082451,0.0000
 4986,0.00032031,0.00101192,-0.01528566,-0.00195698,0.00074736,0.000536
 80,0.02223883,0.01050461,-0.29469241,0.00104681,0.00080931,-0.00194439
 ,0.00055489,0.00159681,-0.00774734,-0.02371605,-0.00388246,0.32233870,
 -0.00524483,0.00514310,-0.00401303,-0.00032538,-0.00022975,-0.00025702
 ,0.00074315,0.03215165,0.01296956,0.00131289,-0.00063138,0.00056432,-0
 .07592287,0.02474828,-0.00578495,0.00286526,-0.00278640,0.00249887,0.0
 1157715,-0.01997360,-0.01114633,0.00171204,0.00477166,0.00228949,0.287
 50719,0.00659877,-0.00314268,0.00349817,-0.00034097,0.00002713,0.00019
 851,0.00539950,-0.02974378,-0.00960081,-0.00147827,0.00094010,-0.00013
 024,0.00044461,-0.20152190,-0.06835180,-0.00360661,-0.00388820,0.00122
 035,0.00237396,-0.03460222,-0.01281489,0.00380551,-0.01531259,-0.01070
 090,-0.19625151,0.43899402,-0.00328682,0.00316541,-0.00065739,-0.00090
 026,0.00068185,-0.00006035,0.00157018,0.01228154,0.00814402,0.00183318
 ,-0.00045024,0.00132963,-0.01987091,-0.03245974,-0.10199715,0.00037781
 ,0.00008421,-0.00262642,-0.00311339,-0.00072635,0.00618824,0.00361071,
 -0.04159233,-0.00831720,0.21294518,-0.05403471,0.28657646,-0.00064709,
 -0.00263976,0.00058663,0.00021977,0.00128824,-0.00000224,0.00128018,-0
 .00594339,0.03104379,-0.00608635,-0.00497274,0.00196568,0.00268815,-0.
 00105174,0.00000647,-0.14056096,-0.03999198,0.03516413,-0.00004455,0.0
 0014385,0.00077139,0.00057420,0.00025236,0.00098304,-0.00147086,0.0011
 3203,0.00087150,0.08730943,-0.00131123,0.00214119,0.00126375,0.0009009
 4,0.00132969,0.00041771,-0.00743302,0.00143499,0.02088049,-0.00453815,
 -0.00234543,0.00070801,-0.00000707,-0.00355488,0.00110117,-0.04234848,
 -0.10789614,0.05387168,-0.00029219,0.00071807,-0.00024127,0.00019755,-
 0.00013395,0.00008555,0.00118954,0.00252198,-0.00070136,0.02419919,0.0
 7651202,0.00148193,0.00078900,0.00126749,0.00042422,0.00173172,0.00002
 360,0.00306378,0.00365145,-0.00900950,0.00077834,0.00061638,0.00211058
 ,-0.00114144,0.00173963,-0.00265794,0.08478549,0.08186876,-0.42365318,
 0.00012364,-0.00031572,0.00108298,0.00129220,-0.00016906,0.00164677,-0
 .00037826,-0.00085692,0.00173222,-0.04820132,-0.08480452,0.61798320,-0
 .00040996,-0.00016171,-0.00066505,-0.00007030,0.00010455,0.00001597,0.
 00011395,0.00245757,0.00148867,0.00020306,-0.00026714,0.00011681,-0.00
 323954,-0.00336286,-0.00274909,0.00045969,0.00030556,-0.00128162,0.000
 41082,-0.00165967,-0.00000094,0.00079782,-0.00129984,-0.00057716,-0.22
 246041,0.17900307,-0.19287046,0.00036507,-0.00053829,0.00065793,0.2239
 9245,0.00139466,-0.00091797,0.00086849,0.00020915,-0.00007735,-0.00000
 651,-0.00217433,-0.00487739,-0.00351989,-0.00044576,0.00011991,-0.0000
 5820,0.02653239,-0.02083420,0.02347591,0.00053830,-0.00003376,-0.00045
 107,-0.00001703,-0.00034162,0.00056854,0.00013523,0.00258343,-0.000588
 77,0.14896640,-0.15472753,0.11228365,-0.00024601,-0.00015657,0.0001561
 3,-0.17493196,0.17962062,0.00089607,-0.00088137,0.00101645,-0.00003429
 ,0.00011381,0.00003503,0.00016502,-0.00281787,-0.00171198,0.00003218,-
 0.00012313,0.00040724,0.01364994,-0.01488995,0.00666718,-0.00035584,-0
 .00064011,0.00050209,-0.00054264,-0.00024456,-0.00020003,0.00095374,-0
 .00098517,0.00098530,-0.21059701,0.15280015,-0.19147444,-0.00001883,0.
 00032563,-0.00044769,0.19547160,-0.13243686,0.18445731,-0.21565552,0.1
 6287854,-0.16608690,0.00463023,-0.00852215,0.01011964,-0.00584592,-0.0
 0757362,-0.00088927,0.00019298,0.00024963,0.00029204,0.00039899,0.0018
 4910,0.00164222,0.00260972,-0.00138941,0.00054462,0.00041291,-0.000152
 34,0.00004320,0.00010018,-0.00023007,-0.00007092,-0.00055809,0.0007906
 9,-0.00064780,-0.00075219,-0.00010385,0.00015137,0.00010462,0.00029318
 ,0.00013758,0.21454140,0.12599231,-0.12143210,0.08039789,-0.00259233,0
 .00130512,-0.00093178,0.02476499,-0.02000640,0.01957577,-0.00007109,0.
 00170893,-0.00031164,-0.00284851,-0.00422368,-0.00341418,0.00199877,-0
 .00125258,0.00162082,0.00013919,0.00013527,-0.00014766,-0.00026874,0.0
 0004988,0.00010011,0.00166905,-0.00092163,0.00100237,-0.00071326,0.000
 23605,-0.00040604,0.00029860,-0.00037006,-0.00040048,-0.14847190,0.144
 53425,-0.13753225,0.08989416,-0.16812340,-0.02978753,0.01902450,-0.019
 18911,0.01090997,-0.00818093,0.00860310,0.00054067,-0.00012467,0.00050
 922,-0.00057907,-0.00231089,-0.00107937,0.00064400,0.00026418,-0.00003
 034,-0.00009356,-0.00004138,-0.00011400,0.00012572,-0.00002772,0.00041
 619,0.00099597,-0.00120908,0.00061446,0.00011170,-0.00010610,-0.000164
 45,0.00010391,-0.00034701,-0.00011818,0.15495706,-0.09696016,0.1788334
 4,-0.00429156,-0.00542284,0.00002946,0.00001617,-0.00003884,0.00044574
 ,-0.01034181,-0.00811359,-0.02439015,0.00176450,0.00113142,-0.00076164
 ,-0.00128275,-0.00482139,0.00164201,-0.27420600,-0.09935773,-0.1287451
 0,-0.00147117,0.00055206,-0.00041226,-0.00010041,0.00004569,-0.0001781
 6,-0.00033481,0.00179933,-0.00007972,0.06814474,0.01322754,-0.03506951
 ,-0.00001215,-0.00031589,0.00011761,-0.00032647,-0.00000590,-0.0003479
 9,0.26956995,0.00016890,0.00036513,-0.00005074,-0.00013904,-0.00039627
 ,0.00018837,-0.01997050,0.00629279,-0.01480036,0.00127865,0.00035042,-
 0.00064790,-0.00167756,-0.00742791,0.00233394,-0.09242587,-0.12540606,
 -0.05118429,-0.00160639,0.00124438,-0.00090515,-0.00008493,0.00023783,
 -0.00023684,0.00104117,0.00179324,0.00052614,0.02047527,0.06326353,0.0
 0155607,0.00003126,-0.00003651,0.00016484,0.00043788,0.00052548,-0.000
 09468,0.09865615,0.09827375,0.00028456,0.00119472,0.00221352,0.0006207
 9,0.00198811,0.00016780,0.00479103,0.00015479,0.00829126,-0.00260306,-
 0.00171352,0.00267185,0.00154788,0.00057531,-0.00144786,-0.17714192,-0
 .07693494,-0.29651480,0.00024322,0.00001653,0.00093301,0.00126665,0.00
 008818,0.00147319,-0.00059243,0.00015934,0.00165980,-0.10297983,-0.037
 69745,-0.16170120,0.00071320,0.00012825,-0.00029937,-0.00046437,-0.000
 67229,-0.00029365,0.25521865,0.10731702,0.43057355,-0.00070535,-0.0013
 5026,-0.00093118,-0.00015475,-0.00071325,-0.00008601,0.00151277,-0.001
 66229,-0.00231095,0.00070847,0.00050565,-0.00007802,0.00000195,-0.0006
 8327,0.00046810,-0.06027901,-0.05614763,0.06264585,-0.00003066,0.00006
 002,-0.00030974,-0.00042838,-0.00000438,-0.00037948,0.00059956,0.00032
 989,-0.00043919,-0.01101954,0.01685752,-0.00796837,-0.00025511,0.00006
 167,0.00012489,0.00014717,0.00010882,-0.00004860,-0.04712823,-0.006184
 99,0.01909562,0.11703111,0.00185165,0.00138424,-0.00010281,-0.00024638
 ,-0.00019800,-0.00022759,-0.00516534,0.00611129,0.00048393,0.00002236,
 -0.00010402,0.00011476,-0.00064125,-0.00060470,0.00044666,-0.05509761,
 -0.00750308,0.02452702,-0.00024007,0.00006556,-0.00037758,-0.00019477,
 -0.00003166,-0.00027277,0.00019176,-0.00041594,-0.00006045,0.00806794,
 -0.03407055,-0.00555688,0.00002087,0.00004899,0.00001507,-0.00005568,-
 0.00028853,0.00021977,0.00266399,-0.03907981,0.00539593,0.04882251,0.0
 7468620,-0.00017283,-0.00025088,-0.00138613,-0.00054251,-0.00159180,0.
 00012016,-0.00268643,0.00074857,-0.00806918,0.00282385,0.00190446,-0.0
 0184139,-0.00136875,-0.00060329,0.00117043,0.06053802,0.02339165,0.136
 34740,-0.00029497,0.00006729,-0.00064283,-0.00109583,-0.00008864,-0.00
 090036,0.00050564,-0.00017718,-0.00111188,0.07969789,0.04489671,-0.028
 21289,-0.00042377,-0.00007266,0.00018110,0.00027153,0.00054726,0.00013
 609,-0.06746894,-0.04416642,0.01227289,-0.06978291,-0.02460506,-0.1080
 6343||0.00000343,0.00000853,-0.00000042,0.00000773,-0.00000692,0.00000
 303,-0.00000558,0.00001049,0.00000477,0.00000181,0.00000251,0.00000148
 ,-0.00000904,-0.00000808,-0.00000350,-0.00000460,0.00000513,-0.0000057
 4,-0.00000036,-0.00001065,0.00000038,0.00000247,-0.00000350,-0.0000008
 6,0.00001436,-0.00000077,0.00000452,0.00001132,0.00000679,0.00000852,-
 0.00001120,-0.00000307,-0.00000112,0.00000500,-0.00000350,-0.00000408,
 0.00001252,0.00001196,-0.00001474,-0.00002785,-0.00000893,0.00000777||
 |@


 There are more things in heaven and earth, Horatio,
 than are dreamt of in your philosophy.
                   -- Hamlet, Act I, Scene 5
 The chemist is a guest at the physicist's table and
 frequently dines well.
                   -- Richard Bersohn
 Job cpu time:  0 days  0 hours 19 minutes 36.0 seconds.
 File lengths (MBytes):  RWF=     64 Int=      0 D2E=      0 Chk=      4 Scr=      1
 Normal termination of Gaussian 09 at Fri Apr 01 17:14:03 2016.
