 Entering Link 1 = c:\G03W06\l1.exe PID=      6112.
  
 Copyright (c) 1988,1990,1992,1993,1995,1998,2003,2004,2007, Gaussian, Inc.
                  All Rights Reserved.
  
 This is the Gaussian(R) 03 program.  It is based on the
 the Gaussian(R) 98 system (copyright 1998, Gaussian, Inc.),
 the Gaussian(R) 94 system (copyright 1995, Gaussian, Inc.),
 the Gaussian 92(TM) system (copyright 1992, Gaussian, Inc.),
 the Gaussian 90(TM) system (copyright 1990, Gaussian, Inc.),
 the Gaussian 88(TM) system (copyright 1988, Gaussian, Inc.),
 the Gaussian 86(TM) system (copyright 1986, Carnegie Mellon
 University), and the Gaussian 82(TM) system (copyright 1983,
 Carnegie Mellon University). Gaussian is a federally registered
 trademark of Gaussian, Inc.
  
 This software contains proprietary and confidential information,
 including trade secrets, belonging to Gaussian, Inc.
  
 This software is provided under written license and may be
 used, copied, transmitted, or stored only in accord with that
 written license.
  
 The following legend is applicable only to US Government
 contracts under FAR:
  
                    RESTRICTED RIGHTS LEGEND
  
 Use, reproduction and disclosure by the US Government is
 subject to restrictions as set forth in subparagraphs (a)
 and (c) of the Commercial Computer Software - Restricted
 Rights clause in FAR 52.227-19.
  
 Gaussian, Inc.
 340 Quinnipiac St., Bldg. 40, Wallingford CT 06492
  
  
 ---------------------------------------------------------------
 Warning -- This program may not be used in any manner that
 competes with the business of Gaussian, Inc. or will provide
 assistance to any competitor of Gaussian, Inc.  The licensee
 of this program is prohibited from giving any competitor of
 Gaussian, Inc. access to this program.  By using this program,
 the user acknowledges that Gaussian, Inc. is engaged in the
 business of creating and licensing software in the field of
 computational chemistry and represents and warrants to the
 licensee that it is not a competitor of Gaussian, Inc. and that
 it will not use this program in any manner prohibited above.
 ---------------------------------------------------------------
  

 Cite this work as:
 Gaussian 03, Revision E.01,
 M. J. Frisch, G. W. Trucks, H. B. Schlegel, G. E. Scuseria, 
 M. A. Robb, J. R. Cheeseman, J. A. Montgomery, Jr., T. Vreven, 
 K. N. Kudin, J. C. Burant, J. M. Millam, S. S. Iyengar, J. Tomasi, 
 V. Barone, B. Mennucci, M. Cossi, G. Scalmani, N. Rega, 
 G. A. Petersson, H. Nakatsuji, M. Hada, M. Ehara, K. Toyota, 
 R. Fukuda, J. Hasegawa, M. Ishida, T. Nakajima, Y. Honda, O. Kitao, 
 H. Nakai, M. Klene, X. Li, J. E. Knox, H. P. Hratchian, J. B. Cross, 
 V. Bakken, C. Adamo, J. Jaramillo, R. Gomperts, R. E. Stratmann, 
 O. Yazyev, A. J. Austin, R. Cammi, C. Pomelli, J. W. Ochterski, 
 P. Y. Ayala, K. Morokuma, G. A. Voth, P. Salvador, J. J. Dannenberg, 
 V. G. Zakrzewski, S. Dapprich, A. D. Daniels, M. C. Strain, 
 O. Farkas, D. K. Malick, A. D. Rabuck, K. Raghavachari, 
 J. B. Foresman, J. V. Ortiz, Q. Cui, A. G. Baboul, S. Clifford, 
 J. Cioslowski, B. B. Stefanov, G. Liu, A. Liashenko, P. Piskorz, 
 I. Komaromi, R. L. Martin, D. J. Fox, T. Keith, M. A. Al-Laham, 
 C. Y. Peng, A. Nanayakkara, M. Challacombe, P. M. W. Gill, 
 B. Johnson, W. Chen, M. W. Wong, C. Gonzalez, and J. A. Pople, 
 Gaussian, Inc., Wallingford CT, 2004.
 
 ******************************************
 Gaussian 03:  IA32W-G03RevE.01 11-Sep-2007
                01-Apr-2016 
 ******************************************
 %chk=E:\YangJ\Amiano\ser\ts1\s\Ser-S-opt-freq-ts1-6-31g.chk
 -----------------------------------------------
 # opt=(calcfc,ts) freq rb3lyp/6-31g iop(1/11=1)
 -----------------------------------------------
 1/5=1,10=4,11=1,14=-1,18=20,26=3,38=1/1,3;
 2/9=110,17=6,18=5,40=1/2;
 3/5=1,6=6,11=2,16=1,25=1,30=1,74=-5/1,2,3;
 4/7=1/1;
 5/5=2,38=5/2;
 8/6=4,10=90,11=11/1;
 11/6=1,8=1,9=11,15=111,16=1/1,2,10;
 10/6=1,7=6/2;
 6/7=2,8=2,9=2,10=2,28=1/1;
 7/10=1,18=20,25=1/1,2,3,16;
 1/5=1,10=4,11=1,14=-1,18=20/3(3);
 2/9=110/2;
 6/7=2,8=2,9=2,10=2,19=2,28=1/1;
 99//99;
 2/9=110/2;
 3/5=1,6=6,11=2,16=1,25=1,30=1,74=-5/1,2,3;
 4/5=5,7=1,16=3/1;
 5/5=2,38=5/2;
 7//1,2,3,16;
 1/5=1,11=1,14=-1,18=20/3(-5);
 2/9=110/2;
 6/7=2,8=2,9=2,10=2,19=2,28=1/1;
 99/9=1/99;
 ------------------------
 Ser-S-opt-freq-ts1-6-31g
 ------------------------
 Symbolic Z-matrix:
 Charge =  0 Multiplicity = 1
 N                     0.        0.        0. 
 H                     0.        0.        1.01609 
 C                     1.37125   0.       -0.50807 
 H                     1.3553   -0.23755  -1.57288 
 C                     1.96171   1.39905  -0.325 
 C                     2.25647  -1.02023   0.21213 
 H                     1.32344   2.10907  -0.86107 
 H                     1.95464   1.65064   0.74292 
 O                     3.29033   1.38707  -0.84189 
 O                     2.39729  -1.06438   1.41047 
 H                     3.73452   2.20082  -0.5884 
 H                    -0.50523  -0.82329  -0.30807 
 O                     2.8374   -1.90058  -0.62926 
 H                     3.03382  -2.42852   0.8683 
 

 GradGradGradGradGradGradGradGradGradGradGradGradGradGradGradGradGradGrad
 Berny optimization.
 Initialization pass.
                           ----------------------------
                           !    Initial Parameters    !
                           ! (Angstroms and Degrees)  !
 --------------------------                            --------------------------
 ! Name  Definition              Value          Derivative Info.                !
 --------------------------------------------------------------------------------
 ! R1    R(1,2)                  1.0161         calculate D2E/DX2 analytically  !
 ! R2    R(1,3)                  1.4623         calculate D2E/DX2 analytically  !
 ! R3    R(1,12)                 1.0139         calculate D2E/DX2 analytically  !
 ! R4    R(3,4)                  1.0911         calculate D2E/DX2 analytically  !
 ! R5    R(3,5)                  1.5295         calculate D2E/DX2 analytically  !
 ! R6    R(3,6)                  1.5307         calculate D2E/DX2 analytically  !
 ! R7    R(5,7)                  1.0949         calculate D2E/DX2 analytically  !
 ! R8    R(5,8)                  1.0972         calculate D2E/DX2 analytically  !
 ! R9    R(5,9)                  1.4257         calculate D2E/DX2 analytically  !
 ! R10   R(6,10)                 1.2074         calculate D2E/DX2 analytically  !
 ! R11   R(6,13)                 1.3492         calculate D2E/DX2 analytically  !
 ! R12   R(6,14)                 1.7373         calculate D2E/DX2 analytically  !
 ! R13   R(9,11)                 0.9611         calculate D2E/DX2 analytically  !
 ! R14   R(10,14)                1.6            calculate D2E/DX2 analytically  !
 ! R15   R(13,14)                1.6            calculate D2E/DX2 analytically  !
 ! A1    A(2,1,3)              110.3305         calculate D2E/DX2 analytically  !
 ! A2    A(2,1,12)             107.6889         calculate D2E/DX2 analytically  !
 ! A3    A(3,1,12)             111.2045         calculate D2E/DX2 analytically  !
 ! A4    A(1,3,4)              108.9871         calculate D2E/DX2 analytically  !
 ! A5    A(1,3,5)              108.6875         calculate D2E/DX2 analytically  !
 ! A6    A(1,3,6)              112.2597         calculate D2E/DX2 analytically  !
 ! A7    A(4,3,5)              108.7589         calculate D2E/DX2 analytically  !
 ! A8    A(4,3,6)              108.8141         calculate D2E/DX2 analytically  !
 ! A9    A(5,3,6)              109.2735         calculate D2E/DX2 analytically  !
 ! A10   A(3,5,7)              108.0297         calculate D2E/DX2 analytically  !
 ! A11   A(3,5,8)              108.8899         calculate D2E/DX2 analytically  !
 ! A12   A(3,5,9)              107.9798         calculate D2E/DX2 analytically  !
 ! A13   A(7,5,8)              108.9095         calculate D2E/DX2 analytically  !
 ! A14   A(7,5,9)              111.7889         calculate D2E/DX2 analytically  !
 ! A15   A(8,5,9)              111.1508         calculate D2E/DX2 analytically  !
 ! A16   A(3,6,10)             123.9711         calculate D2E/DX2 analytically  !
 ! A17   A(3,6,13)             112.9832         calculate D2E/DX2 analytically  !
 ! A18   A(3,6,14)             167.6201         calculate D2E/DX2 analytically  !
 ! A19   A(10,6,13)            123.0154         calculate D2E/DX2 analytically  !
 ! A20   A(5,9,11)             109.1452         calculate D2E/DX2 analytically  !
 ! A21   A(10,14,13)            89.2552         calculate D2E/DX2 analytically  !
 ! D1    D(2,1,3,4)            166.6886         calculate D2E/DX2 analytically  !
 ! D2    D(2,1,3,5)            -74.9261         calculate D2E/DX2 analytically  !
 ! D3    D(2,1,3,6)             46.068          calculate D2E/DX2 analytically  !
 ! D4    D(12,1,3,4)            47.2617         calculate D2E/DX2 analytically  !
 ! D5    D(12,1,3,5)           165.6469         calculate D2E/DX2 analytically  !
 ! D6    D(12,1,3,6)           -73.359          calculate D2E/DX2 analytically  !
 ! D7    D(1,3,5,7)            -58.1236         calculate D2E/DX2 analytically  !
 ! D8    D(1,3,5,8)             60.0137         calculate D2E/DX2 analytically  !
 ! D9    D(1,3,5,9)           -179.1899         calculate D2E/DX2 analytically  !
 ! D10   D(4,3,5,7)             60.4056         calculate D2E/DX2 analytically  !
 ! D11   D(4,3,5,8)            178.5429         calculate D2E/DX2 analytically  !
 ! D12   D(4,3,5,9)            -60.6607         calculate D2E/DX2 analytically  !
 ! D13   D(6,3,5,7)            179.0631         calculate D2E/DX2 analytically  !
 ! D14   D(6,3,5,8)            -62.7996         calculate D2E/DX2 analytically  !
 ! D15   D(6,3,5,9)             57.9968         calculate D2E/DX2 analytically  !
 ! D16   D(1,3,6,10)           -54.3683         calculate D2E/DX2 analytically  !
 ! D17   D(1,3,6,13)           123.6806         calculate D2E/DX2 analytically  !
 ! D18   D(1,3,6,14)            65.7022         calculate D2E/DX2 analytically  !
 ! D19   D(4,3,6,10)          -175.0888         calculate D2E/DX2 analytically  !
 ! D20   D(4,3,6,13)             2.96           calculate D2E/DX2 analytically  !
 ! D21   D(4,3,6,14)           -55.0183         calculate D2E/DX2 analytically  !
 ! D22   D(5,3,6,10)            66.288          calculate D2E/DX2 analytically  !
 ! D23   D(5,3,6,13)          -115.6631         calculate D2E/DX2 analytically  !
 ! D24   D(5,3,6,14)          -173.6414         calculate D2E/DX2 analytically  !
 ! D25   D(3,5,9,11)          -169.3839         calculate D2E/DX2 analytically  !
 ! D26   D(7,5,9,11)            71.9199         calculate D2E/DX2 analytically  !
 ! D27   D(8,5,9,11)           -50.0095         calculate D2E/DX2 analytically  !
 --------------------------------------------------------------------------------
 Trust Radius=3.00D-01 FncErr=1.00D-07 GrdErr=1.00D-06
 Number of steps in this run=  73 maximum allowed number of steps= 100.
 Search for a saddle point of order  1.
 GradGradGradGradGradGradGradGradGradGradGradGradGradGradGradGradGradGrad

                          Input orientation:                          
 ---------------------------------------------------------------------
 Center     Atomic     Atomic              Coordinates (Angstroms)
 Number     Number      Type              X           Y           Z
 ---------------------------------------------------------------------
    1          7             0        0.000000    0.000000    0.000000
    2          1             0        0.000000    0.000000    1.016089
    3          6             0        1.371249    0.000000   -0.508070
    4          1             0        1.355301   -0.237551   -1.572879
    5          6             0        1.961710    1.399048   -0.325004
    6          6             0        2.256473   -1.020235    0.212132
    7          1             0        1.323439    2.109075   -0.861071
    8          1             0        1.954637    1.650640    0.742924
    9          8             0        3.290330    1.387072   -0.841894
   10          8             0        2.397288   -1.064377    1.410470
   11          1             0        3.734524    2.200825   -0.588402
   12          1             0       -0.505226   -0.823288   -0.308067
   13          8             0        2.837398   -1.900579   -0.629262
   14          1             0        3.033819   -2.428518    0.868301
 ---------------------------------------------------------------------
                    Distance matrix (angstroms):
                    1          2          3          4          5
     1  N    0.000000
     2  H    1.016089   0.000000
     3  C    1.462347   2.050216   0.000000
     4  H    2.089789   2.931898   1.091102   0.000000
     5  C    2.431310   2.757566   1.529540   2.145548   0.000000
     6  C    2.485467   2.603631   1.530748   2.147317   2.495662
     7  H    2.634602   3.118239   2.138946   2.452414   1.094941
     8  H    2.664048   2.572904   2.151729   3.047525   1.097187
     9  O    3.668655   4.025213   2.391292   2.630223   1.425675
    10  O    2.978139   2.652437   2.422075   3.266458   3.044677
    11  H    4.374531   4.622196   3.230348   3.546205   1.963440
    12  H    1.013885   1.639038   2.058875   2.324736   3.320367
    13  O    3.472607   3.790806   2.403431   2.419233   3.427381
    14  H    3.981922   3.888907   3.249036   3.684714   4.150139
                    6          7          8          9         10
     6  C    0.000000
     7  H    3.437280   0.000000
     8  H    2.739784   1.783640   0.000000
     9  O    2.823997   2.095308   2.089304   0.000000
    10  O    1.207390   4.047696   2.830702   3.446777   0.000000
    11  H    3.633279   2.428189   2.289788   0.961125   4.055272
    12  H    2.817157   3.499797   3.643601   4.424580   3.381727
    13  O    1.349231   4.292218   3.908110   3.325509   2.247985
    14  H    1.737264   5.148385   4.221361   4.189187   1.600000
                   11         12         13         14
    11  H    0.000000
    12  H    5.215298   0.000000
    13  O    4.198573   3.526593   0.000000
    14  H    4.903446   4.060227   1.599998   0.000000
 Stoichiometry    C3H7NO3
 Framework group  C1[X(C3H7NO3)]
 Deg. of freedom    36
 Full point group                 C1
 Largest Abelian subgroup         C1      NOp   1
 Largest concise Abelian subgroup C1      NOp   1
                         Standard orientation:                         
 ---------------------------------------------------------------------
 Center     Atomic     Atomic              Coordinates (Angstroms)
 Number     Number      Type              X           Y           Z
 ---------------------------------------------------------------------
    1          7             0        0.087871    2.008839   -0.172335
    2          1             0       -0.221070    2.148907    0.785461
    3          6             0        0.255627    0.582667   -0.448652
    4          1             0        0.352934    0.438815   -1.525843
    5          6             0        1.538427    0.099571    0.229975
    6          6             0       -0.926661   -0.248664    0.055605
    7          1             0        2.371614    0.695287   -0.157088
    8          1             0        1.453325    0.267380    1.310908
    9          8             0        1.697044   -1.286305   -0.064540
   10          8             0       -1.331700   -0.225121    1.192785
   11          1             0        2.399458   -1.646674    0.483647
   12          1             0       -0.607624    2.421529   -0.783839
   13          8             0       -1.503833   -0.986756   -0.915228
   14          1             0       -2.460181   -1.003108    0.367396
 ---------------------------------------------------------------------
 Rotational constants (GHZ):      3.0694266      2.3422617      1.7447117
 Standard basis: 6-31G (6D, 7F)
 There are    77 symmetry adapted basis functions of A   symmetry.
 Integral buffers will be    262144 words long.
 Raffenetti 2 integral format.
 Two-electron integral symmetry is turned on.
    77 basis functions,   182 primitive gaussians,    77 cartesian basis functions
    28 alpha electrons       28 beta electrons
       nuclear repulsion energy       323.3919449852 Hartrees.
 NAtoms=   14 NActive=   14 NUniq=   14 SFac= 7.50D-01 NAtFMM=   80 NAOKFM=F Big=F
 One-electron integrals computed using PRISM.
 NBasis=    77 RedAO= T  NBF=    77
 NBsUse=    77 1.00D-06 NBFU=    77
 Harris functional with IExCor=  402 diagonalized for initial guess.
 ExpMin= 1.61D-01 ExpMax= 5.48D+03 ExpMxC= 8.25D+02 IAcc=1 IRadAn=         1 AccDes= 1.00D-06
 HarFok:  IExCor= 402 AccDes= 1.00D-06 IRadAn=         1 IDoV=1
 ScaDFX=  1.000000  1.000000  1.000000  1.000000
 Initial guess orbital symmetries:
       Occupied  (A) (A) (A) (A) (A) (A) (A) (A) (A) (A) (A) (A)
                 (A) (A) (A) (A) (A) (A) (A) (A) (A) (A) (A) (A)
                 (A) (A) (A) (A)
       Virtual   (A) (A) (A) (A) (A) (A) (A) (A) (A) (A) (A) (A)
                 (A) (A) (A) (A) (A) (A) (A) (A) (A) (A) (A) (A)
                 (A) (A) (A) (A) (A) (A) (A) (A) (A) (A) (A) (A)
                 (A) (A) (A) (A) (A) (A) (A) (A) (A) (A) (A) (A)
                 (A)
 The electronic state of the initial guess is 1-A.
 Requested convergence on RMS density matrix=1.00D-08 within 128 cycles.
 Requested convergence on MAX density matrix=1.00D-06.
 Requested convergence on             energy=1.00D-06.
 No special actions if energy rises.
 Integral accuracy reduced to 1.0D-05 until final iterations.
 EnCoef did   100 forward-backward iterations
 Initial convergence to 1.0D-05 achieved.  Increase integral accuracy.
 SCF Done:  E(RB+HF-LYP) =  -398.711028831     A.U. after   16 cycles
             Convg  =    0.8671D-08             -V/T =  2.0053
             S**2   =   0.0000
 Range of M.O.s used for correlation:     1    77
 NBasis=    77 NAE=    28 NBE=    28 NFC=     0 NFV=     0
 NROrb=     77 NOA=    28 NOB=    28 NVA=    49 NVB=    49
 Symmetrizing basis deriv contribution to polar:
 IMax=3 JMax=2 DiffMx= 0.00D+00
 G2DrvN: will do   15 centers at a time, making    1 passes doing MaxLOS=1.
 FoFDir/FoFCou used for L=0 through L=1.
 DoAtom=TTTTTTTTTTTTTT
          Differentiating once with respect to electric field.
                with respect to dipole field.
          Differentiating once with respect to nuclear coordinates.
          Store integrals in memory, NReq=     5311154.
          There are  45 degrees of freedom in the 1st order CPHF.
    42 vectors were produced by pass  0.
 AX will form  42 AO Fock derivatives at one time.
    42 vectors were produced by pass  1.
    42 vectors were produced by pass  2.
    42 vectors were produced by pass  3.
    12 vectors were produced by pass  4.
     3 vectors were produced by pass  5.
 Inv2:  IOpt= 1 Iter= 1 AM= 2.33D-15 Conv= 1.00D-12.
 Inverted reduced A of dimension  183 with in-core refinement.
 Isotropic polarizability for W=    0.000000       49.96 Bohr**3.
 End of Minotr Frequency-dependent properties file   721 does not exist.

 **********************************************************************

            Population analysis using the SCF density.

 **********************************************************************

 Orbital symmetries:
       Occupied  (A) (A) (A) (A) (A) (A) (A) (A) (A) (A) (A) (A)
                 (A) (A) (A) (A) (A) (A) (A) (A) (A) (A) (A) (A)
                 (A) (A) (A) (A)
       Virtual   (A) (A) (A) (A) (A) (A) (A) (A) (A) (A) (A) (A)
                 (A) (A) (A) (A) (A) (A) (A) (A) (A) (A) (A) (A)
                 (A) (A) (A) (A) (A) (A) (A) (A) (A) (A) (A) (A)
                 (A) (A) (A) (A) (A) (A) (A) (A) (A) (A) (A) (A)
                 (A)
 The electronic state is 1-A.
 Alpha  occ. eigenvalues --  -19.19895 -19.18464 -19.14889 -14.33465 -10.33527
 Alpha  occ. eigenvalues --  -10.24246 -10.24115  -1.14905  -1.04017  -1.01048
 Alpha  occ. eigenvalues --   -0.91988  -0.75757  -0.65691  -0.56474  -0.54028
 Alpha  occ. eigenvalues --   -0.51863  -0.49849  -0.47615  -0.47209  -0.45762
 Alpha  occ. eigenvalues --   -0.41802  -0.39323  -0.36838  -0.33476  -0.31430
 Alpha  occ. eigenvalues --   -0.30768  -0.27790  -0.25234
 Alpha virt. eigenvalues --   -0.07319  -0.01440   0.06287   0.07679   0.11988
 Alpha virt. eigenvalues --    0.13698   0.16637   0.18340   0.19698   0.20048
 Alpha virt. eigenvalues --    0.23535   0.24575   0.30527   0.37668   0.53733
 Alpha virt. eigenvalues --    0.55720   0.56784   0.59595   0.61139   0.61366
 Alpha virt. eigenvalues --    0.64273   0.70595   0.73521   0.74503   0.77260
 Alpha virt. eigenvalues --    0.80051   0.83270   0.86354   0.87085   0.87542
 Alpha virt. eigenvalues --    0.90622   0.93668   0.94056   0.96023   0.98108
 Alpha virt. eigenvalues --    1.01471   1.04458   1.05616   1.07445   1.09818
 Alpha virt. eigenvalues --    1.12980   1.18327   1.31010   1.38383   1.47979
 Alpha virt. eigenvalues --    1.53604   1.77888   1.83202   2.04824
          Condensed to atoms (all electrons):
              1          2          3          4          5          6
     1  N    6.888433   0.318048   0.265503  -0.039251  -0.052082  -0.065128
     2  H    0.318048   0.467728  -0.045500   0.006020  -0.005471  -0.003334
     3  C    0.265503  -0.045500   5.488147   0.375673   0.207015   0.121971
     4  H   -0.039251   0.006020   0.375673   0.541927  -0.031967  -0.043536
     5  C   -0.052082  -0.005471   0.207015  -0.031967   5.056119  -0.074838
     6  C   -0.065128  -0.003334   0.121971  -0.043536  -0.074838   4.977351
     7  H    0.007697  -0.000612  -0.046414  -0.008273   0.364705   0.008794
     8  H    0.000464   0.005135  -0.041242   0.006343   0.355218  -0.015560
     9  O    0.002093  -0.000065  -0.066041   0.003045   0.199348   0.020932
    10  O   -0.005162   0.007659  -0.097745   0.003016   0.003732   0.318346
    11  H   -0.000219   0.000001   0.008300  -0.000158  -0.030598  -0.000303
    12  H    0.326789  -0.037585  -0.046717  -0.007608   0.007379   0.003052
    13  O    0.002337   0.000079  -0.074866   0.000269   0.001643   0.247512
    14  H   -0.001620  -0.000089   0.019769  -0.000462  -0.000994   0.013248
              7          8          9         10         11         12
     1  N    0.007697   0.000464   0.002093  -0.005162  -0.000219   0.326789
     2  H   -0.000612   0.005135  -0.000065   0.007659   0.000001  -0.037585
     3  C   -0.046414  -0.041242  -0.066041  -0.097745   0.008300  -0.046717
     4  H   -0.008273   0.006343   0.003045   0.003016  -0.000158  -0.007608
     5  C    0.364705   0.355218   0.199348   0.003732  -0.030598   0.007379
     6  C    0.008794  -0.015560   0.020932   0.318346  -0.000303   0.003052
     7  H    0.617200  -0.051029  -0.043902  -0.000053  -0.001318  -0.000199
     8  H   -0.051029   0.654639  -0.045359   0.005140  -0.006177  -0.000192
     9  O   -0.043902  -0.045359   8.293625  -0.001191   0.241408  -0.000087
    10  O   -0.000053   0.005140  -0.001191   8.289374  -0.000013   0.000000
    11  H   -0.001318  -0.006177   0.241408  -0.000013   0.421933   0.000005
    12  H   -0.000199  -0.000192  -0.000087   0.000000   0.000005   0.463676
    13  O   -0.000162   0.000119  -0.000365  -0.141704   0.000042   0.000475
    14  H    0.000020  -0.000032   0.000056   0.042004  -0.000004  -0.000067
             13         14
     1  N    0.002337  -0.001620
     2  H    0.000079  -0.000089
     3  C   -0.074866   0.019769
     4  H    0.000269  -0.000462
     5  C    0.001643  -0.000994
     6  C    0.247512   0.013248
     7  H   -0.000162   0.000020
     8  H    0.000119  -0.000032
     9  O   -0.000365   0.000056
    10  O   -0.141704   0.042004
    11  H    0.000042  -0.000004
    12  H    0.000475  -0.000067
    13  O    8.347227   0.085991
    14  H    0.085991   0.550423
 Mulliken atomic charges:
              1
     1  N   -0.647901
     2  H    0.287984
     3  C   -0.067853
     4  H    0.194962
     5  C    0.000792
     6  C    0.491493
     7  H    0.153547
     8  H    0.132533
     9  O   -0.603497
    10  O   -0.423402
    11  H    0.367101
    12  H    0.291080
    13  O   -0.468596
    14  H    0.291757
 Sum of Mulliken charges=   0.00000
 Atomic charges with hydrogens summed into heavy atoms:
              1
     1  N   -0.068836
     2  H    0.000000
     3  C    0.127109
     4  H    0.000000
     5  C    0.286873
     6  C    0.491493
     7  H    0.000000
     8  H    0.000000
     9  O   -0.236396
    10  O   -0.423402
    11  H    0.000000
    12  H    0.000000
    13  O   -0.176839
    14  H    0.000000
 Sum of Mulliken charges=   0.00000
 APT atomic charges:
              1
     1  N   -0.497364
     2  H    0.175425
     3  C    0.350318
     4  H    0.018368
     5  C    0.466364
     6  C    0.555450
     7  H   -0.059594
     8  H   -0.063448
     9  O   -0.566706
    10  O   -0.554585
    11  H    0.247114
    12  H    0.159495
    13  O   -0.481713
    14  H    0.250875
 Sum of APT charges=   0.00000
 APT Atomic charges with hydrogens summed into heavy atoms:
              1
     1  N   -0.162444
     2  H    0.000000
     3  C    0.368686
     4  H    0.000000
     5  C    0.343322
     6  C    0.555450
     7  H    0.000000
     8  H    0.000000
     9  O   -0.319592
    10  O   -0.554585
    11  H    0.000000
    12  H    0.000000
    13  O   -0.230838
    14  H    0.000000
 Sum of APT charges=   0.00000
 Electronic spatial extent (au):  <R**2>=   761.6405
 Charge=     0.0000 electrons
 Dipole moment (field-independent basis, Debye):
    X=     0.6225    Y=     1.5270    Z=     1.4455  Tot=     2.1928
 Quadrupole moment (field-independent basis, Debye-Ang):
   XX=   -34.7292   YY=   -43.2900   ZZ=   -44.1762
   XY=    -5.5662   XZ=     2.5411   YZ=    -3.7583
 Traceless Quadrupole moment (field-independent basis, Debye-Ang):
   XX=     6.0026   YY=    -2.5582   ZZ=    -3.4444
   XY=    -5.5662   XZ=     2.5411   YZ=    -3.7583
 Octapole moment (field-independent basis, Debye-Ang**2):
  XXX=     6.1865  YYY=    -6.6088  ZZZ=    -2.3726  XYY=    -7.7341
  XXY=   -11.9573  XXZ=    10.5514  XZZ=     7.6788  YZZ=     4.0080
  YYZ=     7.8597  XYZ=     0.4400
 Hexadecapole moment (field-independent basis, Debye-Ang**3):
 XXXX=  -364.0406 YYYY=  -326.7415 ZZZZ=  -145.0457 XXXY=   -21.9774
 XXXZ=     6.0241 YYYX=   -45.2483 YYYZ=    -4.5772 ZZZX=     3.6823
 ZZZY=    -1.8055 XXYY=  -111.4602 XXZZ=  -106.2034 YYZZ=   -72.3680
 XXYZ=   -18.9075 YYXZ=     7.3953 ZZXY=    -8.8165
 N-N= 3.233919449852D+02 E-N=-1.582062475132D+03  KE= 3.966181119026D+02
  Exact polarizability:  54.349   6.709  49.371  -1.079   1.406  46.174
 Approx polarizability:  69.337  12.091  67.883  -3.852  11.363  91.002
 ***** Axes restored to original set *****
 -------------------------------------------------------------------
 Center     Atomic                   Forces (Hartrees/Bohr)
 Number     Number              X              Y              Z
 -------------------------------------------------------------------
    1          7           0.002293565   -0.009614782    0.005152626
    2          1          -0.002899187    0.005721067    0.004683993
    3          6           0.004542540    0.012825199    0.000741469
    4          1           0.001481548   -0.000878073    0.001628327
    5          6          -0.013892938    0.000012340    0.002060580
    6          6          -0.011530468    0.014435873   -0.147282402
    7          1          -0.002127923    0.000801857    0.000355622
    8          1          -0.001789366    0.000887421    0.002460739
    9          8           0.005871549   -0.010345363   -0.006066727
   10          8           0.017105530   -0.034494914    0.086284297
   11          1           0.010845110    0.011265247    0.001351191
   12          1          -0.005831495   -0.000182521   -0.004849387
   13          8          -0.009663452   -0.008574079    0.083175548
   14          1           0.005594986    0.018140728   -0.029695876
 -------------------------------------------------------------------
 Cartesian Forces:  Max     0.147282402 RMS     0.030999871

 GradGradGradGradGradGradGradGradGradGradGradGradGradGradGradGradGradGrad
 Berny optimization.
 Internal  Forces:  Max     0.086693159 RMS     0.015897875
 Search for a saddle point.
 Step number   1 out of a maximum of  73
 All quantities printed in internal units (Hartrees-Bohrs-Radians)
 Swaping is turned off.
 Second derivative matrix not updated -- analytic derivatives used.
     Eigenvalues ---   -0.06564   0.00043   0.00223   0.00347   0.00407
     Eigenvalues ---    0.00679   0.01896   0.03175   0.04221   0.04654
     Eigenvalues ---    0.05070   0.05269   0.06555   0.06733   0.10519
     Eigenvalues ---    0.12843   0.14625   0.15139   0.15400   0.16204
     Eigenvalues ---    0.16396   0.19002   0.21854   0.24109   0.27825
     Eigenvalues ---    0.30490   0.32989   0.33664   0.34771   0.35040
     Eigenvalues ---    0.38455   0.41698   0.45439   0.46215   0.53933
     Eigenvalues ---    0.811541000.000001000.000001000.000001000.00000
     Eigenvalues --- 1000.000001000.000001000.000001000.000001000.00000
     Eigenvalues --- 1000.000001000.000001000.000001000.000001000.00000
     Eigenvalues --- 1000.000001000.000001000.000001000.000001000.00000
     Eigenvalues --- 1000.000001000.000001000.000001000.000001000.00000
     Eigenvalues --- 1000.000001000.000001000.00000
 Eigenvectors required to have negative eigenvalues:
                          R1        R2        R3        R4        R5
         1             -0.00072   0.00650  -0.00037  -0.00562   0.00715
                          R6        R7        R8        R9        R10
         1              0.00056   0.00025   0.00148  -0.00197   0.05315
                          R11       R12       R13       R14       R15
         1             -0.09606   0.00235   0.00043  -0.62698   0.63180
                          A1        A2        A3        A4        A5
         1              0.00981  -0.00211  -0.00290   0.00054  -0.01599
                          A6        A7        A8        A9        A10
         1              0.02686   0.00877  -0.02524   0.00487  -0.00802
                          A11       A12       A13       A14       A15
         1              0.00030   0.01185  -0.00181   0.00003  -0.00244
                          A16       A17       A18       A19       A20
         1              0.09315  -0.09335   0.30502   0.00380  -0.00188
                          A21       D1        D2        D3        D4
         1             -0.01806  -0.00255  -0.00087   0.01157  -0.00446
                          D5        D6        D7        D8        D9
         1             -0.00278   0.00966   0.01097   0.00447   0.00872
                          D10       D11       D12       D13       D14
         1              0.00750   0.00100   0.00525  -0.01503  -0.02153
                          D15       D16       D17       D18       D19
         1             -0.01728  -0.00304   0.11274  -0.11967  -0.00377
                          D20       D21       D22       D23       D24
         1              0.11201  -0.12041  -0.00243   0.11335  -0.11907
                          D25       D26       D27
         1             -0.00570  -0.00339   0.00066
 RFO step:  Lambda0=7.531831297D-04 Lambda=-5.37633342D-02.
 Linear search not attempted -- option 19 set.
 Maximum step size (   0.300) exceeded in Quadratic search.
    -- Step size scaled by   0.492
 Iteration  1 RMS(Cart)=  0.04120267 RMS(Int)=  0.00411349
 Iteration  2 RMS(Cart)=  0.00214813 RMS(Int)=  0.00044305
 Iteration  3 RMS(Cart)=  0.00000430 RMS(Int)=  0.00044304
 Iteration  4 RMS(Cart)=  0.00000001 RMS(Int)=  0.00044304
 Variable       Old X    -DE/DX   Delta X   Delta X   Delta X     New X
                                 (Linear)    (Quad)   (Total)
    R1        1.92013   0.00468   0.00000   0.00232   0.00232   1.92245
    R2        2.76344   0.00777   0.00000   0.00643   0.00643   2.76986
    R3        1.91596   0.00453   0.00000   0.00240   0.00240   1.91836
    R4        2.06188  -0.00142   0.00000  -0.00026  -0.00026   2.06162
    R5        2.89041   0.00200   0.00000   0.00213   0.00213   2.89254
    R6        2.89269   0.00433   0.00000  -0.01964  -0.01964   2.87306
    R7        2.06914   0.00159   0.00000   0.00084   0.00084   2.06998
    R8        2.07338   0.00261   0.00000   0.00194   0.00194   2.07532
    R9        2.69414   0.01728   0.00000   0.01855   0.01855   2.71268
   R10        2.28164   0.08669   0.00000   0.06485   0.06487   2.34650
   R11        2.54968  -0.04261   0.00000  -0.05504  -0.05499   2.49468
   R12        3.28295   0.02041   0.00000  -0.03476  -0.03671   3.24624
   R13        1.81626   0.01491   0.00000   0.01214   0.01214   1.82840
   R14        3.02356  -0.01156   0.00000  -0.16672  -0.16548   2.85808
   R15        3.02356  -0.04097   0.00000  -0.13561  -0.13469   2.88886
    A1        1.92563   0.00563   0.00000   0.01342   0.01324   1.93887
    A2        1.87953   0.00012   0.00000   0.01158   0.01125   1.89078
    A3        1.94088   0.00447   0.00000   0.01258   0.01240   1.95329
    A4        1.90218   0.00094   0.00000   0.00164   0.00164   1.90383
    A5        1.89695  -0.00115   0.00000  -0.00202  -0.00204   1.89492
    A6        1.95930  -0.00054   0.00000   0.00237   0.00237   1.96167
    A7        1.89820  -0.00004   0.00000   0.00089   0.00091   1.89911
    A8        1.89916  -0.00185   0.00000  -0.00887  -0.00887   1.89030
    A9        1.90718   0.00265   0.00000   0.00599   0.00599   1.91317
   A10        1.88547  -0.00013   0.00000  -0.00007  -0.00007   1.88540
   A11        1.90049   0.00014   0.00000   0.00171   0.00172   1.90220
   A12        1.88460  -0.00266   0.00000  -0.00786  -0.00786   1.87674
   A13        1.90083  -0.00083   0.00000  -0.00084  -0.00084   1.89999
   A14        1.95108   0.00196   0.00000   0.00435   0.00435   1.95543
   A15        1.93995   0.00143   0.00000   0.00257   0.00256   1.94251
   A16        2.16370   0.00425   0.00000   0.00517   0.00630   2.17000
   A17        1.97193   0.02885   0.00000   0.08888   0.08944   2.06137
   A18        2.92552   0.02910   0.00000   0.10514   0.10560   3.03112
   A19        2.14702  -0.03357   0.00000  -0.09470  -0.09654   2.05048
   A20        1.90494   0.00891   0.00000   0.01335   0.01335   1.91830
   A21        1.55780   0.01637   0.00000   0.05137   0.05046   1.60826
    D1        2.90926   0.00278   0.00000   0.01240   0.01248   2.92174
    D2       -1.30771   0.00261   0.00000   0.01325   0.01333  -1.29437
    D3        0.80404   0.00481   0.00000   0.02091   0.02099   0.82503
    D4        0.82487  -0.00395   0.00000  -0.01898  -0.01906   0.80581
    D5        2.89108  -0.00411   0.00000  -0.01813  -0.01821   2.87287
    D6       -1.28036  -0.00191   0.00000  -0.01047  -0.01055  -1.29091
    D7       -1.01445   0.00027   0.00000  -0.00022  -0.00022  -1.01467
    D8        1.04744  -0.00071   0.00000  -0.00031  -0.00031   1.04712
    D9       -3.12745  -0.00047   0.00000  -0.00087  -0.00087  -3.12833
   D10        1.05428   0.00073   0.00000   0.00111   0.00111   1.05538
   D11        3.11616  -0.00025   0.00000   0.00102   0.00101   3.11717
   D12       -1.05873  -0.00002   0.00000   0.00046   0.00045  -1.05828
   D13        3.12524   0.00000   0.00000  -0.00562  -0.00561   3.11963
   D14       -1.09606  -0.00098   0.00000  -0.00571  -0.00571  -1.10177
   D15        1.01224  -0.00074   0.00000  -0.00627  -0.00627   1.00597
   D16       -0.94891   0.00640   0.00000   0.01074   0.01081  -0.93809
   D17        2.15863  -0.00916   0.00000  -0.01206  -0.01212   2.14651
   D18        1.14672   0.00103   0.00000  -0.01462  -0.01464   1.13208
   D19       -3.05588   0.00682   0.00000   0.01318   0.01325  -3.04263
   D20        0.05166  -0.00874   0.00000  -0.00962  -0.00969   0.04197
   D21       -0.96025   0.00145   0.00000  -0.01218  -0.01220  -0.97246
   D22        1.15694   0.00641   0.00000   0.01382   0.01390   1.17085
   D23       -2.01870  -0.00915   0.00000  -0.00898  -0.00903  -2.02773
   D24       -3.03061   0.00104   0.00000  -0.01154  -0.01155  -3.04216
   D25       -2.95631  -0.00018   0.00000  -0.00122  -0.00122  -2.95753
   D26        1.25524   0.00051   0.00000   0.00129   0.00130   1.25654
   D27       -0.87283  -0.00083   0.00000  -0.00253  -0.00254  -0.87537
         Item               Value     Threshold  Converged?
 Maximum Force            0.086693     0.000450     NO 
 RMS     Force            0.015898     0.000300     NO 
 Maximum Displacement     0.183957     0.001800     NO 
 RMS     Displacement     0.041583     0.001200     NO 
 Predicted change in Energy=-2.199346D-02
 GradGradGradGradGradGradGradGradGradGradGradGradGradGradGradGradGradGrad

                          Input orientation:                          
 ---------------------------------------------------------------------
 Center     Atomic     Atomic              Coordinates (Angstroms)
 Number     Number      Type              X           Y           Z
 ---------------------------------------------------------------------
    1          7             0       -0.009836    0.002949   -0.000654
    2          1             0       -0.018195    0.002908    1.016627
    3          6             0        1.362026    0.001625   -0.516804
    4          1             0        1.341281   -0.223150   -1.584160
    5          6             0        1.959097    1.396913   -0.317770
    6          6             0        2.239031   -1.031844    0.171882
    7          1             0        1.320993    2.116589   -0.841949
    8          1             0        1.958222    1.636400    0.754010
    9          8             0        3.293635    1.375520   -0.846149
   10          8             0        2.387781   -1.116283    1.401762
   11          1             0        3.761435    2.183589   -0.592509
   12          1             0       -0.537219   -0.801803   -0.324347
   13          8             0        2.835554   -1.940130   -0.577731
   14          1             0        3.117136   -2.331172    0.873057
 ---------------------------------------------------------------------
                    Distance matrix (angstroms):
                    1          2          3          4          5
     1  N    0.000000
     2  H    1.017315   0.000000
     3  C    1.465747   2.063110   0.000000
     4  H    2.093831   2.943361   1.090964   0.000000
     5  C    2.433186   2.762888   1.530666   2.147101   0.000000
     6  C    2.481525   2.622856   1.520357   2.131578   2.493388
     7  H    2.635594   3.116951   2.140205   2.454724   1.095388
     8  H    2.666633   2.577497   2.154741   3.050505   1.098211
     9  O    3.675830   4.040076   2.393150   2.629085   1.435491
    10  O    2.994665   2.681350   2.445974   3.287640   3.075178
    11  H    4.396358   4.650838   3.244051   3.554280   1.985639
    12  H    1.015153   1.647773   2.071150   2.334680   3.326557
    13  O    3.493539   3.802796   2.438321   2.488729   3.460002
    14  H    3.998680   3.911374   3.233275   3.692605   4.081390
                    6          7          8          9         10
     6  C    0.000000
     7  H    3.432678   0.000000
     8  H    2.745406   1.784301   0.000000
     9  O    2.818506   2.107254   2.100451   0.000000
    10  O    1.241717   4.077222   2.860310   3.476026   0.000000
    11  H    3.638821   2.454071   2.316053   0.967547   4.093067
    12  H    2.829616   3.498267   3.651700   4.437166   3.410861
    13  O    1.320130   4.338280   3.915969   3.357889   2.190346
    14  H    1.717838   5.094110   4.135080   4.089790   1.512429
                   11         12         13         14
    11  H    0.000000
    12  H    5.240505   0.000000
    13  O    4.226409   3.568695   0.000000
    14  H    4.790206   4.138485   1.528721   0.000000
 Stoichiometry    C3H7NO3
 Framework group  C1[X(C3H7NO3)]
 Deg. of freedom    36
 Full point group                 C1
 Largest Abelian subgroup         C1      NOp   1
 Largest concise Abelian subgroup C1      NOp   1
                         Standard orientation:                         
 ---------------------------------------------------------------------
 Center     Atomic     Atomic              Coordinates (Angstroms)
 Number     Number      Type              X           Y           Z
 ---------------------------------------------------------------------
    1          7             0        0.143248    2.013400   -0.154906
    2          1             0       -0.165491    2.160936    0.803136
    3          6             0        0.285378    0.584532   -0.449098
    4          1             0        0.395399    0.451411   -1.526306
    5          6             0        1.548577    0.067488    0.243674
    6          6             0       -0.916809   -0.224120    0.011678
    7          1             0        2.399546    0.651613   -0.123101
    8          1             0        1.451440    0.223111    1.326454
    9          8             0        1.675659   -1.326778   -0.073354
   10          8             0       -1.372011   -0.205854    1.166805
   11          1             0        2.364049   -1.728070    0.475491
   12          1             0       -0.520141    2.464203   -0.777183
   13          8             0       -1.560437   -0.947784   -0.885426
   14          1             0       -2.376100   -1.041072    0.404139
 ---------------------------------------------------------------------
 Rotational constants (GHZ):      3.0841689      2.3255506      1.7190388
 Standard basis: 6-31G (6D, 7F)
 There are    77 symmetry adapted basis functions of A   symmetry.
 Integral buffers will be    262144 words long.
 Raffenetti 2 integral format.
 Two-electron integral symmetry is turned on.
    77 basis functions,   182 primitive gaussians,    77 cartesian basis functions
    28 alpha electrons       28 beta electrons
       nuclear repulsion energy       322.8938235064 Hartrees.
 NAtoms=   14 NActive=   14 NUniq=   14 SFac= 7.50D-01 NAtFMM=   80 NAOKFM=F Big=F
 One-electron integrals computed using PRISM.
 NBasis=    77 RedAO= T  NBF=    77
 NBsUse=    77 1.00D-06 NBFU=    77
 Initial guess read from the read-write file:
 Initial guess orbital symmetries:
       Occupied  (A) (A) (A) (A) (A) (A) (A) (A) (A) (A) (A) (A)
                 (A) (A) (A) (A) (A) (A) (A) (A) (A) (A) (A) (A)
                 (A) (A) (A) (A)
       Virtual   (A) (A) (A) (A) (A) (A) (A) (A) (A) (A) (A) (A)
                 (A) (A) (A) (A) (A) (A) (A) (A) (A) (A) (A) (A)
                 (A) (A) (A) (A) (A) (A) (A) (A) (A) (A) (A) (A)
                 (A) (A) (A) (A) (A) (A) (A) (A) (A) (A) (A) (A)
                 (A)
 Harris functional with IExCor=  402 diagonalized for initial guess.
 ExpMin= 1.61D-01 ExpMax= 5.48D+03 ExpMxC= 8.25D+02 IAcc=1 IRadAn=         1 AccDes= 1.00D-06
 HarFok:  IExCor= 402 AccDes= 1.00D-06 IRadAn=         1 IDoV=1
 ScaDFX=  1.000000  1.000000  1.000000  1.000000
 Requested convergence on RMS density matrix=1.00D-08 within 128 cycles.
 Requested convergence on MAX density matrix=1.00D-06.
 Requested convergence on             energy=1.00D-06.
 No special actions if energy rises.
 Integral accuracy reduced to 1.0D-05 until final iterations.
 Initial convergence to 1.0D-05 achieved.  Increase integral accuracy.
 SCF Done:  E(RB+HF-LYP) =  -398.732664035     A.U. after   14 cycles
             Convg  =    0.7960D-08             -V/T =  2.0054
             S**2   =   0.0000
 ***** Axes restored to original set *****
 -------------------------------------------------------------------
 Center     Atomic                   Forces (Hartrees/Bohr)
 Number     Number              X              Y              Z
 -------------------------------------------------------------------
    1          7           0.002010067   -0.008745274    0.004167698
    2          1          -0.001720126    0.004622332    0.002549832
    3          6           0.002223348    0.008321464    0.001976189
    4          1           0.001024639   -0.000548100    0.000840034
    5          6          -0.008218008    0.000289051    0.001394206
    6          6          -0.008053234    0.006747043   -0.086241978
    7          1          -0.001146480    0.000368960    0.000108426
    8          1          -0.001067808    0.000482309    0.001362946
    9          8           0.003363629   -0.005859400   -0.003281914
   10          8           0.015050982   -0.024543935    0.051870496
   11          1           0.006351360    0.006164697    0.000594414
   12          1          -0.003800372    0.000912119   -0.003801562
   13          8          -0.000541490   -0.006334776    0.050178997
   14          1          -0.005476509    0.018123510   -0.021717785
 -------------------------------------------------------------------
 Cartesian Forces:  Max     0.086241978 RMS     0.018837637

 GradGradGradGradGradGradGradGradGradGradGradGradGradGradGradGradGradGrad
 Berny optimization.
 Internal  Forces:  Max     0.052805456 RMS     0.009565719
 Search for a saddle point.
 Step number   2 out of a maximum of  73
 All quantities printed in internal units (Hartrees-Bohrs-Radians)
 Swaping is turned off.
 Update second derivatives using D2CorX and points  1  2
     Eigenvalues ---   -0.06539   0.00042   0.00223   0.00347   0.00407
     Eigenvalues ---    0.00678   0.01997   0.03138   0.04221   0.04652
     Eigenvalues ---    0.05068   0.05269   0.06527   0.06732   0.10519
     Eigenvalues ---    0.12842   0.14736   0.15223   0.16186   0.16221
     Eigenvalues ---    0.16408   0.19010   0.22406   0.24206   0.27770
     Eigenvalues ---    0.30505   0.32989   0.33674   0.34937   0.35214
     Eigenvalues ---    0.38454   0.41685   0.45438   0.46215   0.53928
     Eigenvalues ---    0.811241000.000001000.000001000.000001000.00000
     Eigenvalues --- 1000.000001000.000001000.000001000.000001000.00000
     Eigenvalues --- 1000.000001000.000001000.000001000.000001000.00000
     Eigenvalues --- 1000.000001000.000001000.000001000.000001000.00000
     Eigenvalues --- 1000.000001000.000001000.000001000.000001000.00000
     Eigenvalues --- 1000.000001000.000001000.00000
 Eigenvectors required to have negative eigenvalues:
                          R1        R2        R3        R4        R5
         1             -0.00071   0.00650  -0.00038  -0.00575   0.00717
                          R6        R7        R8        R9        R10
         1              0.00213   0.00028   0.00150  -0.00170   0.05538
                          R11       R12       R13       R14       R15
         1             -0.09007   0.00091   0.00058  -0.61787   0.63504
                          A1        A2        A3        A4        A5
         1              0.01028  -0.00195  -0.00255   0.00055  -0.01598
                          A6        A7        A8        A9        A10
         1              0.02684   0.00890  -0.02503   0.00458  -0.00805
                          A11       A12       A13       A14       A15
         1              0.00036   0.01177  -0.00178   0.00005  -0.00240
                          A16       A17       A18       A19       A20
         1              0.10360  -0.10561   0.30686   0.00772  -0.00175
                          A21       D1        D2        D3        D4
         1             -0.01917  -0.00203  -0.00021   0.01189  -0.00500
                          D5        D6        D7        D8        D9
         1             -0.00318   0.00892   0.01084   0.00437   0.00862
                          D10       D11       D12       D13       D14
         1              0.00743   0.00096   0.00521  -0.01495  -0.02142
                          D15       D16       D17       D18       D19
         1             -0.01717  -0.00581   0.11574  -0.12008  -0.00647
                          D20       D21       D22       D23       D24
         1              0.11508  -0.12074  -0.00515   0.11641  -0.11942
                          D25       D26       D27
         1             -0.00575  -0.00336   0.00064
 RFO step:  Lambda0=3.390929026D-04 Lambda=-2.81299839D-02.
 Linear search not attempted -- option 19 set.
 Maximum step size (   0.300) exceeded in Quadratic search.
    -- Step size scaled by   0.498
 Iteration  1 RMS(Cart)=  0.03163423 RMS(Int)=  0.00471926
 Iteration  2 RMS(Cart)=  0.00110332 RMS(Int)=  0.00042206
 Iteration  3 RMS(Cart)=  0.00001454 RMS(Int)=  0.00040296
 Iteration  4 RMS(Cart)=  0.00000013 RMS(Int)=  0.00040296
 Variable       Old X    -DE/DX   Delta X   Delta X   Delta X     New X
                                 (Linear)    (Quad)   (Total)
    R1        1.92245   0.00256   0.00000   0.00017   0.00017   1.92262
    R2        2.76986   0.00431   0.00000   0.00340   0.00340   2.77326
    R3        1.91836   0.00246   0.00000   0.00012   0.00012   1.91848
    R4        2.06162  -0.00073   0.00000   0.00027   0.00027   2.06189
    R5        2.89254   0.00106   0.00000   0.00193   0.00193   2.89447
    R6        2.87306   0.00197   0.00000  -0.02072  -0.02072   2.85234
    R7        2.06998   0.00086   0.00000   0.00033   0.00033   2.07031
    R8        2.07532   0.00144   0.00000   0.00104   0.00104   2.07636
    R9        2.71268   0.01002   0.00000   0.01202   0.01202   2.72471
   R10        2.34650   0.05281   0.00000   0.04857   0.04762   2.39413
   R11        2.49468  -0.02109   0.00000  -0.02003  -0.02088   2.47380
   R12        3.24624   0.00688   0.00000  -0.09741  -0.09762   3.14862
   R13        1.82840   0.00838   0.00000   0.00747   0.00747   1.83587
   R14        2.85808  -0.01026   0.00000  -0.17185  -0.17070   2.68738
   R15        2.88886  -0.02728   0.00000  -0.14849  -0.14778   2.74109
    A1        1.93887   0.00357   0.00000   0.01343   0.01319   1.95206
    A2        1.89078   0.00053   0.00000   0.01612   0.01570   1.90648
    A3        1.95329   0.00297   0.00000   0.01286   0.01262   1.96591
    A4        1.90383   0.00050   0.00000   0.00062   0.00062   1.90445
    A5        1.89492  -0.00053   0.00000  -0.00056  -0.00058   1.89434
    A6        1.96167  -0.00024   0.00000   0.00271   0.00271   1.96438
    A7        1.89911   0.00000   0.00000   0.00004   0.00005   1.89916
    A8        1.89030  -0.00118   0.00000  -0.00669  -0.00668   1.88361
    A9        1.91317   0.00146   0.00000   0.00381   0.00381   1.91697
   A10        1.88540  -0.00006   0.00000  -0.00037  -0.00037   1.88503
   A11        1.90220   0.00017   0.00000   0.00144   0.00144   1.90364
   A12        1.87674  -0.00186   0.00000  -0.00631  -0.00631   1.87043
   A13        1.89999  -0.00046   0.00000   0.00009   0.00008   1.90007
   A14        1.95543   0.00126   0.00000   0.00336   0.00335   1.95879
   A15        1.94251   0.00088   0.00000   0.00166   0.00166   1.94417
   A16        2.17000   0.00341   0.00000   0.01303   0.01413   2.18413
   A17        2.06137   0.01817   0.00000   0.06645   0.06651   2.12788
   A18        3.03112   0.01584   0.00000   0.06713   0.06764   3.09877
   A19        2.05048  -0.02188   0.00000  -0.07926  -0.08043   1.97005
   A20        1.91830   0.00533   0.00000   0.00965   0.00965   1.92795
   A21        1.60826   0.01306   0.00000   0.07772   0.07959   1.68785
    D1        2.92174   0.00220   0.00000   0.01640   0.01651   2.93825
    D2       -1.29437   0.00218   0.00000   0.01648   0.01659  -1.27779
    D3        0.82503   0.00350   0.00000   0.02265   0.02275   0.84778
    D4        0.80581  -0.00305   0.00000  -0.02267  -0.02277   0.78303
    D5        2.87287  -0.00308   0.00000  -0.02259  -0.02269   2.85018
    D6       -1.29091  -0.00175   0.00000  -0.01643  -0.01653  -1.30744
    D7       -1.01467   0.00008   0.00000  -0.00160  -0.00160  -1.01626
    D8        1.04712  -0.00040   0.00000  -0.00091  -0.00091   1.04621
    D9       -3.12833  -0.00034   0.00000  -0.00180  -0.00180  -3.13013
   D10        1.05538   0.00037   0.00000  -0.00115  -0.00115   1.05423
   D11        3.11717  -0.00011   0.00000  -0.00046  -0.00046   3.11671
   D12       -1.05828  -0.00004   0.00000  -0.00136  -0.00136  -1.05963
   D13        3.11963  -0.00021   0.00000  -0.00701  -0.00700   3.11263
   D14       -1.10177  -0.00070   0.00000  -0.00632  -0.00632  -1.10808
   D15        1.00597  -0.00063   0.00000  -0.00721  -0.00721   0.99876
   D16       -0.93809   0.00263   0.00000  -0.00389  -0.00388  -0.94198
   D17        2.14651  -0.00435   0.00000  -0.00159  -0.00160   2.14491
   D18        1.13208   0.00005   0.00000  -0.01769  -0.01771   1.11437
   D19       -3.04263   0.00296   0.00000  -0.00186  -0.00185  -3.04448
   D20        0.04197  -0.00402   0.00000   0.00044   0.00044   0.04241
   D21       -0.97246   0.00037   0.00000  -0.01566  -0.01568  -0.98813
   D22        1.17085   0.00282   0.00000  -0.00017  -0.00015   1.17069
   D23       -2.02773  -0.00416   0.00000   0.00213   0.00213  -2.02560
   D24       -3.04216   0.00023   0.00000  -0.01397  -0.01398  -3.05614
   D25       -2.95753  -0.00015   0.00000  -0.00148  -0.00148  -2.95901
   D26        1.25654   0.00036   0.00000   0.00102   0.00103   1.25757
   D27       -0.87537  -0.00058   0.00000  -0.00270  -0.00270  -0.87807
         Item               Value     Threshold  Converged?
 Maximum Force            0.052805     0.000450     NO 
 RMS     Force            0.009566     0.000300     NO 
 Maximum Displacement     0.181712     0.001800     NO 
 RMS     Displacement     0.031834     0.001200     NO 
 Predicted change in Energy=-1.163813D-02
 GradGradGradGradGradGradGradGradGradGradGradGradGradGradGradGradGradGrad

                          Input orientation:                          
 ---------------------------------------------------------------------
 Center     Atomic     Atomic              Coordinates (Angstroms)
 Number     Number      Type              X           Y           Z
 ---------------------------------------------------------------------
    1          7             0       -0.015470   -0.000131    0.000858
    2          1             0       -0.034817    0.008391    1.018046
    3          6             0        1.356831   -0.001303   -0.519221
    4          1             0        1.333647   -0.218559   -1.588226
    5          6             0        1.957590    1.392227   -0.311290
    6          6             0        2.227413   -1.038927    0.146882
    7          1             0        1.320353    2.116600   -0.830397
    8          1             0        1.959385    1.625850    0.762347
    9          8             0        3.296583    1.362452   -0.845286
   10          8             0        2.398304   -1.153858    1.396948
   11          1             0        3.780433    2.166525   -0.593946
   12          1             0       -0.562253   -0.785772   -0.337462
   13          8             0        2.846620   -1.966369   -0.538775
   14          1             0        3.146324   -2.235014    0.854788
 ---------------------------------------------------------------------
                    Distance matrix (angstroms):
                    1          2          3          4          5
     1  N    0.000000
     2  H    1.017407   0.000000
     3  C    1.467547   2.073636   0.000000
     4  H    2.095952   2.952432   1.091105   0.000000
     5  C    2.434966   2.766193   1.531689   2.148139   0.000000
     6  C    2.476075   2.640736   1.509394   2.117173   2.488622
     7  H    2.637415   3.114125   2.140951   2.455086   1.095563
     8  H    2.669032   2.580388   2.157108   3.052636   1.098763
     9  O    3.679984   4.050149   2.393487   2.627675   1.441853
    10  O    3.017691   2.722952   2.466729   3.304474   3.097557
    11  H    4.411017   4.670352   3.252523   3.558649   2.000547
    12  H    1.015217   1.657192   2.081181   2.341064   3.330762
    13  O    3.514094   3.824401   2.466037   2.538755   3.481709
    14  H    3.964952   3.896046   3.174847   3.649686   3.991204
                    6          7          8          9         10
     6  C    0.000000
     7  H    3.425665   0.000000
     8  H    2.748031   1.784946   0.000000
     9  O    2.809652   2.115288   2.107595   0.000000
    10  O    1.266917   4.101090   2.884813   3.488027   0.000000
    11  H    3.638079   2.471921   2.334110   0.971502   4.110825
    12  H    2.842695   3.494418   3.658438   4.445601   3.450879
    13  O    1.309080   4.368658   3.922263   3.373050   2.146668
    14  H    1.666179   5.011044   4.040253   3.981783   1.422100
                   11         12         13         14
    11  H    0.000000
    12  H    5.257449   0.000000
    13  O    4.237436   3.613136   0.000000
    14  H    4.677015   4.156357   1.450521   0.000000
 Stoichiometry    C3H7NO3
 Framework group  C1[X(C3H7NO3)]
 Deg. of freedom    36
 Full point group                 C1
 Largest Abelian subgroup         C1      NOp   1
 Largest concise Abelian subgroup C1      NOp   1
                         Standard orientation:                         
 ---------------------------------------------------------------------
 Center     Atomic     Atomic              Coordinates (Angstroms)
 Number     Number      Type              X           Y           Z
 ---------------------------------------------------------------------
    1          7             0        0.192465    2.017458   -0.140225
    2          1             0       -0.106681    2.175601    0.819264
    3          6             0        0.307675    0.587091   -0.447586
    4          1             0        0.424927    0.461444   -1.525072
    5          6             0        1.554293    0.037468    0.252364
    6          6             0       -0.908446   -0.197047   -0.018113
    7          1             0        2.420529    0.606693   -0.102425
    8          1             0        1.451871    0.185134    1.336331
    9          8             0        1.647464   -1.362156   -0.081271
   10          8             0       -1.401368   -0.197064    1.148980
   11          1             0        2.322906   -1.797270    0.464870
   12          1             0       -0.437212    2.503262   -0.771230
   13          8             0       -1.602984   -0.915385   -0.863866
   14          1             0       -2.289622   -1.025292    0.409106
 ---------------------------------------------------------------------
 Rotational constants (GHZ):      3.0886001      2.3196468      1.7028630
 Standard basis: 6-31G (6D, 7F)
 There are    77 symmetry adapted basis functions of A   symmetry.
 Integral buffers will be    262144 words long.
 Raffenetti 2 integral format.
 Two-electron integral symmetry is turned on.
    77 basis functions,   182 primitive gaussians,    77 cartesian basis functions
    28 alpha electrons       28 beta electrons
       nuclear repulsion energy       322.7223718669 Hartrees.
 NAtoms=   14 NActive=   14 NUniq=   14 SFac= 7.50D-01 NAtFMM=   80 NAOKFM=F Big=F
 One-electron integrals computed using PRISM.
 NBasis=    77 RedAO= T  NBF=    77
 NBsUse=    77 1.00D-06 NBFU=    77
 Initial guess read from the read-write file:
 Initial guess orbital symmetries:
       Occupied  (A) (A) (A) (A) (A) (A) (A) (A) (A) (A) (A) (A)
                 (A) (A) (A) (A) (A) (A) (A) (A) (A) (A) (A) (A)
                 (A) (A) (A) (A)
       Virtual   (A) (A) (A) (A) (A) (A) (A) (A) (A) (A) (A) (A)
                 (A) (A) (A) (A) (A) (A) (A) (A) (A) (A) (A) (A)
                 (A) (A) (A) (A) (A) (A) (A) (A) (A) (A) (A) (A)
                 (A) (A) (A) (A) (A) (A) (A) (A) (A) (A) (A) (A)
                 (A)
 Harris functional with IExCor=  402 diagonalized for initial guess.
 ExpMin= 1.61D-01 ExpMax= 5.48D+03 ExpMxC= 8.25D+02 IAcc=1 IRadAn=         1 AccDes= 1.00D-06
 HarFok:  IExCor= 402 AccDes= 1.00D-06 IRadAn=         1 IDoV=1
 ScaDFX=  1.000000  1.000000  1.000000  1.000000
 Requested convergence on RMS density matrix=1.00D-08 within 128 cycles.
 Requested convergence on MAX density matrix=1.00D-06.
 Requested convergence on             energy=1.00D-06.
 No special actions if energy rises.
 Integral accuracy reduced to 1.0D-05 until final iterations.
 Initial convergence to 1.0D-05 achieved.  Increase integral accuracy.
 SCF Done:  E(RB+HF-LYP) =  -398.743584584     A.U. after   13 cycles
             Convg  =    0.8286D-08             -V/T =  2.0054
             S**2   =   0.0000
 ***** Axes restored to original set *****
 -------------------------------------------------------------------
 Center     Atomic                   Forces (Hartrees/Bohr)
 Number     Number              X              Y              Z
 -------------------------------------------------------------------
    1          7           0.001906894   -0.007208115    0.003169544
    2          1          -0.001029960    0.003438001    0.001322327
    3          6          -0.000548109    0.005774935    0.001652092
    4          1           0.000564438   -0.000081407    0.000369465
    5          6          -0.004515718    0.000293114    0.000923350
    6          6          -0.004114250    0.000872926   -0.050839585
    7          1          -0.000553675    0.000141161   -0.000063078
    8          1          -0.000635795    0.000244249    0.000711588
    9          8           0.001836312   -0.003191542   -0.001628285
   10          8           0.011438825   -0.012449476    0.034162362
   11          1           0.003489753    0.003236605    0.000227275
   12          1          -0.002433965    0.001216778   -0.002803066
   13          8           0.002305036   -0.002760296    0.024518060
   14          1          -0.007709786    0.010473066   -0.011722049
 -------------------------------------------------------------------
 Cartesian Forces:  Max     0.050839585 RMS     0.011094586

 GradGradGradGradGradGradGradGradGradGradGradGradGradGradGradGradGradGrad
 Berny optimization.
 Internal  Forces:  Max     0.033666738 RMS     0.005504387
 Search for a saddle point.
 Step number   3 out of a maximum of  73
 All quantities printed in internal units (Hartrees-Bohrs-Radians)
 Swaping is turned off.
 Update second derivatives using D2CorX and points  1  2  3
     Eigenvalues ---   -0.06528   0.00040   0.00223   0.00346   0.00407
     Eigenvalues ---    0.00670   0.03005   0.03221   0.04222   0.04651
     Eigenvalues ---    0.05068   0.05269   0.06500   0.06732   0.10519
     Eigenvalues ---    0.12840   0.14750   0.15233   0.16179   0.16391
     Eigenvalues ---    0.17100   0.19019   0.22781   0.24306   0.27707
     Eigenvalues ---    0.30508   0.32989   0.33677   0.34957   0.35330
     Eigenvalues ---    0.38448   0.41678   0.45437   0.46214   0.53926
     Eigenvalues ---    0.816161000.000001000.000001000.000001000.00000
     Eigenvalues --- 1000.000001000.000001000.000001000.000001000.00000
     Eigenvalues --- 1000.000001000.000001000.000001000.000001000.00000
     Eigenvalues --- 1000.000001000.000001000.000001000.000001000.00000
     Eigenvalues --- 1000.000001000.000001000.000001000.000001000.00000
     Eigenvalues --- 1000.000001000.000001000.00000
 Eigenvectors required to have negative eigenvalues:
                          R1        R2        R3        R4        R5
         1             -0.00074   0.00610  -0.00043  -0.00584   0.00711
                          R6        R7        R8        R9        R10
         1              0.00433   0.00031   0.00151  -0.00159   0.05721
                          R11       R12       R13       R14       R15
         1             -0.08730   0.00252   0.00065  -0.60693   0.64027
                          A1        A2        A3        A4        A5
         1              0.01087  -0.00163  -0.00202   0.00061  -0.01567
                          A6        A7        A8        A9        A10
         1              0.02649   0.00896  -0.02491   0.00439  -0.00805
                          A11       A12       A13       A14       A15
         1              0.00042   0.01165  -0.00175   0.00004  -0.00234
                          A16       A17       A18       A19       A20
         1              0.11145  -0.11648   0.31043   0.01018  -0.00162
                          A21       D1        D2        D3        D4
         1             -0.02464  -0.00137   0.00072   0.01263  -0.00600
                          D5        D6        D7        D8        D9
         1             -0.00390   0.00800   0.01053   0.00412   0.00837
                          D10       D11       D12       D13       D14
         1              0.00740   0.00099   0.00524  -0.01491  -0.02133
                          D15       D16       D17       D18       D19
         1             -0.01707  -0.00820   0.11671  -0.11965  -0.00864
                          D20       D21       D22       D23       D24
         1              0.11627  -0.12008  -0.00731   0.11761  -0.11875
                          D25       D26       D27
         1             -0.00579  -0.00334   0.00062
 RFO step:  Lambda0=1.454566945D-04 Lambda=-9.87082129D-03.
 Linear search not attempted -- option 19 set.
 Maximum step size (   0.300) exceeded in Quadratic search.
    -- Step size scaled by   0.719
 Iteration  1 RMS(Cart)=  0.00288046 RMS(Int)=  0.03401727
 Iteration  2 RMS(Cart)=  0.00096437 RMS(Int)=  0.03275184
 Iteration  3 RMS(Cart)=  0.00113377 RMS(Int)=  0.03126408
 Iteration  4 RMS(Cart)=  0.00138902 RMS(Int)=  0.02944132
 Iteration  5 RMS(Cart)=  0.00178305 RMS(Int)=  0.02710136
 Iteration  6 RMS(Cart)=  0.00240963 RMS(Int)=  0.02393881
 Iteration  7 RMS(Cart)=  0.00343536 RMS(Int)=  0.01942910
 Iteration  8 RMS(Cart)=  0.00511563 RMS(Int)=  0.01271038
 Iteration  9 RMS(Cart)=  0.00718825 RMS(Int)=  0.00338792
 Iteration 10 RMS(Cart)=  0.00167831 RMS(Int)=  0.00125717
 Iteration 11 RMS(Cart)=  0.00074625 RMS(Int)=  0.00059640
 Iteration 12 RMS(Cart)=  0.00006480 RMS(Int)=  0.00057006
 Iteration 13 RMS(Cart)=  0.00000367 RMS(Int)=  0.00057004
 Iteration 14 RMS(Cart)=  0.00000000 RMS(Int)=  0.00057004
 Variable       Old X    -DE/DX   Delta X   Delta X   Delta X     New X
                                 (Linear)    (Quad)   (Total)
    R1        1.92262   0.00137   0.00000  -0.00221  -0.00221   1.92042
    R2        2.77326   0.00205   0.00000  -0.00173  -0.00173   2.77153
    R3        1.91848   0.00130   0.00000  -0.00235  -0.00235   1.91613
    R4        2.06189  -0.00036   0.00000   0.00003   0.00003   2.06192
    R5        2.89447   0.00054   0.00000   0.00142   0.00142   2.89589
    R6        2.85234   0.00205   0.00000  -0.01116  -0.01116   2.84118
    R7        2.07031   0.00044   0.00000   0.00034   0.00034   2.07066
    R8        2.07636   0.00075   0.00000   0.00071   0.00071   2.07707
    R9        2.72471   0.00546   0.00000   0.01031   0.01031   2.73502
   R10        2.39413   0.03367   0.00000   0.04732   0.04589   2.44002
   R11        2.47380  -0.00955   0.00000  -0.00977  -0.01118   2.46263
   R12        3.14862   0.00154   0.00000  -0.11609  -0.11539   3.03324
   R13        1.83587   0.00448   0.00000   0.00612   0.00612   1.84199
   R14        2.68738  -0.00461   0.00000  -0.16038  -0.15945   2.52793
   R15        2.74109  -0.01435   0.00000  -0.12650  -0.12558   2.61551
    A1        1.95206   0.00223   0.00000   0.02187   0.02109   1.97315
    A2        1.90648   0.00054   0.00000   0.02922   0.02799   1.93447
    A3        1.96591   0.00193   0.00000   0.02054   0.01977   1.98568
    A4        1.90445   0.00022   0.00000   0.00024   0.00023   1.90468
    A5        1.89434  -0.00001   0.00000   0.00347   0.00347   1.89781
    A6        1.96438  -0.00029   0.00000   0.00046   0.00045   1.96483
    A7        1.89916  -0.00008   0.00000   0.00019   0.00019   1.89935
    A8        1.88361  -0.00049   0.00000  -0.00660  -0.00660   1.87702
    A9        1.91697   0.00066   0.00000   0.00218   0.00218   1.91915
   A10        1.88503  -0.00003   0.00000   0.00006   0.00006   1.88509
   A11        1.90364   0.00012   0.00000   0.00161   0.00161   1.90525
   A12        1.87043  -0.00116   0.00000  -0.00696  -0.00696   1.86347
   A13        1.90007  -0.00022   0.00000   0.00096   0.00096   1.90103
   A14        1.95879   0.00074   0.00000   0.00265   0.00265   1.96143
   A15        1.94417   0.00051   0.00000   0.00154   0.00154   1.94571
   A16        2.18413   0.00308   0.00000   0.02052   0.02090   2.20503
   A17        2.12788   0.00812   0.00000   0.04108   0.04135   2.16923
   A18        3.09877   0.00565   0.00000   0.04145   0.04153   3.14029
   A19        1.97005  -0.01123   0.00000  -0.06025  -0.06132   1.90873
   A20        1.92795   0.00299   0.00000   0.00915   0.00915   1.93710
   A21        1.68785   0.01051   0.00000   0.09097   0.09408   1.78193
    D1        2.93825   0.00168   0.00000   0.02685   0.02714   2.96539
    D2       -1.27779   0.00169   0.00000   0.02921   0.02951  -1.24828
    D3        0.84778   0.00234   0.00000   0.03469   0.03498   0.88276
    D4        0.78303  -0.00221   0.00000  -0.04403  -0.04432   0.73871
    D5        2.85018  -0.00219   0.00000  -0.04167  -0.04196   2.80822
    D6       -1.30744  -0.00155   0.00000  -0.03620  -0.03649  -1.34392
    D7       -1.01626  -0.00010   0.00000  -0.00928  -0.00928  -1.02554
    D8        1.04621  -0.00031   0.00000  -0.00721  -0.00721   1.03901
    D9       -3.13013  -0.00031   0.00000  -0.00853  -0.00853  -3.13866
   D10        1.05423   0.00010   0.00000  -0.00691  -0.00691   1.04733
   D11        3.11671  -0.00011   0.00000  -0.00484  -0.00484   3.11187
   D12       -1.05963  -0.00010   0.00000  -0.00616  -0.00616  -1.06579
   D13        3.11263  -0.00016   0.00000  -0.01352  -0.01352   3.09911
   D14       -1.10808  -0.00037   0.00000  -0.01145  -0.01145  -1.11953
   D15        0.99876  -0.00037   0.00000  -0.01277  -0.01277   0.98599
   D16       -0.94198  -0.00013   0.00000  -0.04176  -0.04175  -0.98372
   D17        2.14491  -0.00114   0.00000  -0.01080  -0.01080   2.13411
   D18        1.11437  -0.00025   0.00000  -0.02390  -0.02390   1.09047
   D19       -3.04448   0.00011   0.00000  -0.03790  -0.03790  -3.08237
   D20        0.04241  -0.00090   0.00000  -0.00694  -0.00695   0.03546
   D21       -0.98813  -0.00001   0.00000  -0.02005  -0.02005  -1.00818
   D22        1.17069   0.00013   0.00000  -0.03549  -0.03548   1.13521
   D23       -2.02560  -0.00088   0.00000  -0.00453  -0.00454  -2.03014
   D24       -3.05614   0.00001   0.00000  -0.01764  -0.01764  -3.07378
   D25       -2.95901  -0.00011   0.00000  -0.00200  -0.00200  -2.96101
   D26        1.25757   0.00024   0.00000   0.00081   0.00081   1.25838
   D27       -0.87807  -0.00039   0.00000  -0.00349  -0.00349  -0.88156
         Item               Value     Threshold  Converged?
 Maximum Force            0.033667     0.000450     NO 
 RMS     Force            0.005504     0.000300     NO 
 Maximum Displacement     0.148850     0.001800     NO 
 RMS     Displacement     0.028786     0.001200     NO 
 Predicted change in Energy=-4.919131D-03
 GradGradGradGradGradGradGradGradGradGradGradGradGradGradGradGradGradGrad

                          Input orientation:                          
 ---------------------------------------------------------------------
 Center     Atomic     Atomic              Coordinates (Angstroms)
 Number     Number      Type              X           Y           Z
 ---------------------------------------------------------------------
    1          7             0       -0.018218   -0.011968    0.003523
    2          1             0       -0.058054    0.018289    1.018532
    3          6             0        1.352591   -0.005864   -0.517873
    4          1             0        1.329238   -0.219605   -1.587597
    5          6             0        1.953989    1.387474   -0.305042
    6          6             0        2.222380   -1.045175    0.133108
    7          1             0        1.320804    2.113157   -0.827647
    8          1             0        1.952041    1.621073    0.768987
    9          8             0        3.299706    1.347019   -0.836185
   10          8             0        2.449180   -1.169859    1.398105
   11          1             0        3.796734    2.148337   -0.589254
   12          1             0       -0.589449   -0.767954   -0.357476
   13          8             0        2.850271   -1.986565   -0.513252
   14          1             0        3.149729   -2.156246    0.827336
 ---------------------------------------------------------------------
                    Distance matrix (angstroms):
                    1          2          3          4          5
     1  N    0.000000
     2  H    1.016240   0.000000
     3  C    1.466632   2.085915   0.000000
     4  H    2.095332   2.961939   1.091119   0.000000
     5  C    2.437879   2.770349   1.532438   2.148945   0.000000
     6  C    2.470747   2.667454   1.503488   2.107153   2.486320
     7  H    2.645748   3.114177   2.141780   2.453442   1.095744
     8  H    2.671082   2.582958   2.159229   3.054418   1.099141
     9  O    3.682469   4.059563   2.392253   2.627105   1.447309
    10  O    3.061637   2.800356   2.495669   3.327412   3.112214
    11  H    4.424044   4.688440   3.258759   3.562636   2.013802
    12  H    1.013972   1.671513   2.092374   2.344193   3.334321
    13  O    3.520557   3.850215   2.483192   2.567081   3.497257
    14  H    3.913117   3.880081   3.108607   3.591194   3.907688
                    6          7          8          9         10
     6  C    0.000000
     7  H    3.422127   0.000000
     8  H    2.754325   1.786013   0.000000
     9  O    2.796919   2.122049   2.113737   0.000000
    10  O    1.291202   4.123760   2.903832   3.471329   0.000000
    11  H    3.633031   2.487629   2.350684   0.974742   4.095842
    12  H    2.867735   3.488686   3.665452   4.452842   3.532260
    13  O    1.303166   4.387007   3.932684   3.379210   2.116877
    14  H    1.605120   4.930694   3.963080   3.881065   1.337725
                   11         12         13         14
    11  H    0.000000
    12  H    5.272293   0.000000
    13  O    4.242520   3.652527   0.000000
    14  H    4.577639   4.160840   1.384068   0.000000
 Stoichiometry    C3H7NO3
 Framework group  C1[X(C3H7NO3)]
 Deg. of freedom    36
 Full point group                 C1
 Largest Abelian subgroup         C1      NOp   1
 Largest concise Abelian subgroup C1      NOp   1
                         Standard orientation:                         
 ---------------------------------------------------------------------
 Center     Atomic     Atomic              Coordinates (Angstroms)
 Number     Number      Type              X           Y           Z
 ---------------------------------------------------------------------
    1          7             0        0.249790    2.021199   -0.112039
    2          1             0       -0.022470    2.192626    0.851928
    3          6             0        0.330684    0.594199   -0.440881
    4          1             0        0.448266    0.481993   -1.519828
    5          6             0        1.558703   -0.002473    0.255049
    6          6             0       -0.905071   -0.161801   -0.038578
    7          1             0        2.443424    0.542145   -0.093257
    8          1             0        1.460240    0.134971    1.341108
    9          8             0        1.599645   -1.404926   -0.100130
   10          8             0       -1.415351   -0.218870    1.146142
   11          1             0        2.259751   -1.881646    0.435705
   12          1             0       -0.328667    2.555651   -0.750699
   13          8             0       -1.645479   -0.849445   -0.861490
   14          1             0       -2.225496   -0.967748    0.389601
 ---------------------------------------------------------------------
 Rotational constants (GHZ):      3.0789786      2.3179087      1.6958659
 Standard basis: 6-31G (6D, 7F)
 There are    77 symmetry adapted basis functions of A   symmetry.
 Integral buffers will be    262144 words long.
 Raffenetti 2 integral format.
 Two-electron integral symmetry is turned on.
    77 basis functions,   182 primitive gaussians,    77 cartesian basis functions
    28 alpha electrons       28 beta electrons
       nuclear repulsion energy       322.5706409922 Hartrees.
 NAtoms=   14 NActive=   14 NUniq=   14 SFac= 7.50D-01 NAtFMM=   80 NAOKFM=F Big=F
 One-electron integrals computed using PRISM.
 NBasis=    77 RedAO= T  NBF=    77
 NBsUse=    77 1.00D-06 NBFU=    77
 Initial guess read from the read-write file:
 Initial guess orbital symmetries:
       Occupied  (A) (A) (A) (A) (A) (A) (A) (A) (A) (A) (A) (A)
                 (A) (A) (A) (A) (A) (A) (A) (A) (A) (A) (A) (A)
                 (A) (A) (A) (A)
       Virtual   (A) (A) (A) (A) (A) (A) (A) (A) (A) (A) (A) (A)
                 (A) (A) (A) (A) (A) (A) (A) (A) (A) (A) (A) (A)
                 (A) (A) (A) (A) (A) (A) (A) (A) (A) (A) (A) (A)
                 (A) (A) (A) (A) (A) (A) (A) (A) (A) (A) (A) (A)
                 (A)
 Harris functional with IExCor=  402 diagonalized for initial guess.
 ExpMin= 1.61D-01 ExpMax= 5.48D+03 ExpMxC= 8.25D+02 IAcc=1 IRadAn=         1 AccDes= 1.00D-06
 HarFok:  IExCor= 402 AccDes= 1.00D-06 IRadAn=         1 IDoV=1
 ScaDFX=  1.000000  1.000000  1.000000  1.000000
 Requested convergence on RMS density matrix=1.00D-08 within 128 cycles.
 Requested convergence on MAX density matrix=1.00D-06.
 Requested convergence on             energy=1.00D-06.
 No special actions if energy rises.
 Integral accuracy reduced to 1.0D-05 until final iterations.
 Initial convergence to 1.0D-05 achieved.  Increase integral accuracy.
 SCF Done:  E(RB+HF-LYP) =  -398.747947370     A.U. after   14 cycles
             Convg  =    0.3908D-08             -V/T =  2.0053
             S**2   =   0.0000
 ***** Axes restored to original set *****
 -------------------------------------------------------------------
 Center     Atomic                   Forces (Hartrees/Bohr)
 Number     Number              X              Y              Z
 -------------------------------------------------------------------
    1          7           0.001545936   -0.004401993    0.001719199
    2          1          -0.000560227    0.001821265    0.000431897
    3          6          -0.002803551    0.003430194    0.002732430
    4          1           0.000277050    0.000158037    0.000028860
    5          6          -0.001420827    0.000077248    0.000474642
    6          6           0.000505612   -0.000024435   -0.027550310
    7          1          -0.000082654    0.000034507   -0.000136600
    8          1          -0.000271977    0.000090180    0.000186923
    9          8           0.000581316   -0.000963859   -0.000423756
   10          8           0.004082879   -0.001703799    0.018916493
   11          1           0.001063205    0.000938318    0.000041676
   12          1          -0.001256429    0.000957745   -0.001475251
   13          8          -0.000037321   -0.000494431    0.002879325
   14          1          -0.001623011    0.000081023    0.002174471
 -------------------------------------------------------------------
 Cartesian Forces:  Max     0.027550310 RMS     0.005387040

 GradGradGradGradGradGradGradGradGradGradGradGradGradGradGradGradGradGrad
 Berny optimization.
 Internal  Forces:  Max     0.017192180 RMS     0.002411783
 Search for a saddle point.
 Step number   4 out of a maximum of  73
 All quantities printed in internal units (Hartrees-Bohrs-Radians)
 Swaping is turned off.
 Update second derivatives using D2CorX and points  2  3  4
     Eigenvalues ---   -0.06603   0.00008   0.00223   0.00336   0.00407
     Eigenvalues ---    0.00640   0.02907   0.04217   0.04646   0.05051
     Eigenvalues ---    0.05269   0.05436   0.06480   0.06731   0.10519
     Eigenvalues ---    0.12838   0.14739   0.15228   0.16135   0.16390
[...]
 Maximum Force            0.000023     0.000450     YES
 RMS     Force            0.000005     0.000300     YES
 Maximum Displacement     0.000580     0.001800     YES
 RMS     Displacement     0.000133     0.001200     YES
 Predicted change in Energy=-2.196539D-09
 Optimization completed.
    -- Stationary point found.
                           ----------------------------
                           !   Optimized Parameters   !
                           ! (Angstroms and Degrees)  !
 --------------------------                            --------------------------
 ! Name  Definition              Value          Derivative Info.                !
 --------------------------------------------------------------------------------
 ! R1    R(1,2)                  1.0127         -DE/DX =    0.0                 !
 ! R2    R(1,3)                  1.4597         -DE/DX =    0.0                 !
 ! R3    R(1,12)                 1.0106         -DE/DX =    0.0                 !
 ! R4    R(3,4)                  1.0918         -DE/DX =    0.0                 !
 ! R5    R(3,5)                  1.5281         -DE/DX =    0.0                 !
 ! R6    R(3,6)                  1.5079         -DE/DX =    0.0                 !
 ! R7    R(5,7)                  1.0956         -DE/DX =    0.0                 !
 ! R8    R(5,8)                  1.0982         -DE/DX =    0.0                 !
 ! R9    R(5,9)                  1.4522         -DE/DX =    0.0                 !
 ! R10   R(6,10)                 1.3101         -DE/DX =    0.0                 !
 ! R11   R(6,13)                 1.3037         -DE/DX =    0.0                 !
 ! R12   R(6,14)                 1.6086         -DE/DX =    0.0                 !
 ! R13   R(9,11)                 0.9757         -DE/DX =    0.0                 !
 ! R14   R(10,14)                1.3549         -DE/DX =    0.0                 !
 ! R15   R(13,14)                1.3567         -DE/DX =    0.0                 !
 ! A1    A(2,1,3)              115.5133         -DE/DX =    0.0                 !
 ! A2    A(2,1,12)             113.7787         -DE/DX =    0.0                 !
 ! A3    A(3,1,12)             116.1126         -DE/DX =    0.0                 !
 ! A4    A(1,3,4)              108.9215         -DE/DX =    0.0                 !
 ! A5    A(1,3,5)              110.31           -DE/DX =    0.0                 !
 ! A6    A(1,3,6)              110.975          -DE/DX =    0.0                 !
 ! A7    A(4,3,5)              108.6675         -DE/DX =    0.0                 !
 ! A8    A(4,3,6)              107.7814         -DE/DX =    0.0                 !
 ! A9    A(5,3,6)              110.1113         -DE/DX =    0.0                 !
 ! A10   A(3,5,7)              108.5862         -DE/DX =    0.0                 !
 ! A11   A(3,5,8)              109.4357         -DE/DX =    0.0                 !
 ! A12   A(3,5,9)              105.9943         -DE/DX =    0.0                 !
 ! A13   A(7,5,8)              109.1914         -DE/DX =    0.0                 !
 ! A14   A(7,5,9)              111.9212         -DE/DX =    0.0                 !
 ! A15   A(8,5,9)              111.6073         -DE/DX =    0.0                 !
 ! A16   A(3,6,10)             124.6775         -DE/DX =    0.0                 !
 ! A17   A(3,6,13)             126.5659         -DE/DX =    0.0                 !
 ! A18   A(3,6,14)             175.6056         -DE/DX =    0.0                 !
 ! A19   A(10,6,13)            108.47           -DE/DX =    0.0                 !
 ! A20   A(5,9,11)             111.3238         -DE/DX =    0.0                 !
 ! A21   A(10,14,13)           102.9181         -DE/DX =    0.0                 !
 ! D1    D(2,1,3,4)            173.2982         -DE/DX =    0.0                 !
 ! D2    D(2,1,3,5)            -67.5147         -DE/DX =    0.0                 !
 ! D3    D(2,1,3,6)             54.7983         -DE/DX =    0.0                 !
 ! D4    D(12,1,3,4)            36.2863         -DE/DX =    0.0                 !
 ! D5    D(12,1,3,5)           155.4734         -DE/DX =    0.0                 !
 ! D6    D(12,1,3,6)           -82.2135         -DE/DX =    0.0                 !
 ! D7    D(1,3,5,7)            -58.3101         -DE/DX =    0.0                 !
 ! D8    D(1,3,5,8)             60.7958         -DE/DX =    0.0                 !
 ! D9    D(1,3,5,9)           -178.7159         -DE/DX =    0.0                 !
 ! D10   D(4,3,5,7)             61.0313         -DE/DX =    0.0                 !
 ! D11   D(4,3,5,8)           -179.8628         -DE/DX =    0.0                 !
 ! D12   D(4,3,5,9)            -59.3745         -DE/DX =    0.0                 !
 ! D13   D(6,3,5,7)            178.8701         -DE/DX =    0.0                 !
 ! D14   D(6,3,5,8)            -62.024          -DE/DX =    0.0                 !
 ! D15   D(6,3,5,9)             58.4643         -DE/DX =    0.0                 !
 ! D16   D(1,3,6,10)           -70.6965         -DE/DX =    0.0                 !
 ! D17   D(1,3,6,13)           102.4346         -DE/DX =    0.0                 !
 ! D18   D(1,3,6,14)             2.413          -DE/DX =    0.0                 !
 ! D19   D(4,3,6,10)           170.1169         -DE/DX =    0.0                 !
 ! D20   D(4,3,6,13)           -16.752          -DE/DX =    0.0                 !
 ! D21   D(4,3,6,14)          -116.7736         -DE/DX =    0.0                 !
 ! D22   D(5,3,6,10)            51.7319         -DE/DX =    0.0                 !
 ! D23   D(5,3,6,13)          -135.137          -DE/DX =    0.0                 !
 ! D24   D(5,3,6,14)           124.8415         -DE/DX =    0.0                 !
 ! D25   D(3,5,9,11)          -159.8132         -DE/DX =    0.0                 !
 ! D26   D(7,5,9,11)            81.9734         -DE/DX =    0.0                 !
 ! D27   D(8,5,9,11)           -40.7456         -DE/DX =    0.0                 !
 --------------------------------------------------------------------------------
 GradGradGradGradGradGradGradGradGradGradGradGradGradGradGradGradGradGrad


 Test job not archived.
 1|1|UNPC-UNK|Freq|RB3LYP|6-31G|C3H7N1O3|PCUSER|01-Apr-2016|0||#N Geom=
 AllCheck Guess=Read SCRF=Check Test GenChk RB3LYP/6-31G Freq||Ser-S-op
 t-freq-ts1-6-31g||0,1|N,0.0070249281,-0.0768944299,-0.0082628645|H,-0.
 0773460668,-0.0185470485,0.9992723347|C,1.3670325699,0.0093496574,-0.5
 313338857|H,1.3460739408,-0.1839457318,-1.6056845241|C,1.9377902738,1.
 40730105,-0.2969451304|C,2.2572005898,-1.0276728738,0.1058591848|H,1.2
 842245076,2.1379011245,-0.7863050278|H,1.966865281,1.6140987225,0.7812
 394261|O,3.2695819996,1.3979743859,-0.8757583151|O,2.6636351133,-0.997
 6196418,1.3509996299|H,3.8208395321,2.1146484051,-0.509059981|H,-0.586
 8427208,-0.7792954143,-0.4269010133|O,2.6471116478,-2.150908947,-0.428
 8887077|H,3.107749814,-2.1742767581,0.8470335743||Version=IA32W-G03Rev
 E.01|State=1-A|HF=-398.7493117|RMSD=5.511e-009|RMSF=6.555e-006|ZeroPoi
 nt=0.1071181|Thermal=0.115156|Dipole=-0.642126,0.7281529,0.3439356|Dip
 oleDeriv=-0.7272111,0.1890621,-0.0361939,0.2849255,-0.6935591,0.206607
 8,-0.0170241,0.1835145,-0.2813323,0.2029443,-0.0911149,-0.0439948,-0.1
 103484,0.3364226,0.0179654,0.0053185,-0.0200852,0.0624837,0.4617647,0.
 0151956,-0.0427867,-0.0233809,0.3324804,-0.127064,-0.0497575,-0.126757
 6,0.2309755,0.0408532,0.0123977,0.0016428,0.0157602,0.0435258,-0.03982
 05,-0.0095987,-0.007719,-0.0419276,0.6679987,0.0553205,-0.0802684,0.05
 5571,0.3183329,-0.1125838,-0.1162623,-0.0817143,0.373387,0.393696,-0.2
 510737,0.1547431,-0.2997124,0.8424625,0.1814965,0.1748298,0.1491639,0.
 8811556,-0.0827286,0.0704939,-0.025906,0.0807778,-0.0774808,0.0634981,
 -0.0244246,0.0765677,0.0055091,-0.0366923,-0.0331674,0.0224783,-0.0149
 71,0.0533053,-0.0112536,0.0328413,-0.0453602,-0.1459102,-0.8095409,-0.
 0492888,0.1055836,-0.020264,-0.4215081,0.232655,0.1385257,0.2315904,-0
 .4841267,-0.4734542,0.0559627,-0.1049017,0.0824614,-0.6186774,-0.08776
 ,-0.1527019,-0.1387539,-0.8770572,0.2679644,-0.0606016,-0.0014619,-0.1
 014553,0.1682593,-0.1254004,-0.0321508,-0.148737,0.2957169,0.2212344,-
 0.0750452,0.059804,-0.167761,0.1544091,-0.0985458,0.0908766,-0.0573832
 ,0.1918239,-0.4285478,0.1416116,0.0051473,0.1831094,-0.7892024,-0.2482
 856,-0.0174922,-0.1692339,-0.6797532,0.3017191,0.0202476,-0.0138857,0.
 0352878,0.3512298,0.148491,-0.0229799,0.1549079,0.4690553|Polar=48.369
 7083,-3.1597108,48.3799333,1.8716523,1.5304452,43.5859942|PG=C01 [X(C3
 H7N1O3)]|NImag=1||0.51355797,0.23905952,0.29456840,-0.01738840,0.17868
 607,0.68493304,-0.05786960,-0.02339539,0.02003588,0.06385306,-0.026326
 66,-0.02195759,-0.01044701,0.01875437,0.02625626,0.03791070,-0.0508451
 9,-0.43894140,-0.03824286,0.03889283,0.45854218,-0.19724332,-0.0377311
 8,0.04810609,-0.00681617,0.00715039,-0.00628284,0.45830485,-0.01735694
 ,-0.06136357,-0.01887125,0.00334915,-0.00147524,0.00250568,0.01691027,
 0.48626641,0.04089651,-0.01014658,-0.11873145,0.03921310,0.00195814,-0
 .01081280,0.00677486,0.03713626,0.64906496,-0.00649655,0.00742736,0.03
 971994,-0.00564119,-0.00094040,0.00217473,-0.05038784,-0.00137154,-0.0
 1429509,0.06327326,-0.00161257,0.00104539,0.00356028,-0.00077150,0.000
 44945,0.00055375,-0.00096906,-0.05921277,-0.04868300,-0.00028690,0.067
 86866,0.00254686,-0.00313647,-0.01114371,0.00135214,0.00054666,0.00146
 749,-0.00926013,-0.04294142,-0.31245889,0.00813945,0.04876754,0.339289
 12,-0.02979356,-0.02945277,-0.00424604,0.00110131,-0.00079155,0.000448
 73,-0.06928730,-0.02652520,-0.01445966,0.00023729,-0.00293674,-0.00036
 587,0.48263527,-0.00396940,0.00098706,0.00114406,0.00146417,0.00120246
 ,0.00005416,-0.02494268,-0.17896843,-0.02344878,-0.00339928,-0.0099785
 4,-0.00162397,-0.04544491,0.53531288,0.01194880,0.01183846,0.00240426,
 0.00134448,0.00272979,0.00003447,-0.01205497,-0.02438437,-0.09153223,-
 0.01279916,-0.03495648,-0.00531592,0.05482413,-0.00606123,0.58767191,-
 0.04877309,0.01704576,-0.00000864,0.00099246,0.00011354,-0.00052611,-0
 .09275644,0.03668981,-0.03513955,-0.00115583,0.00359281,-0.00234681,0.
 01644149,-0.00234064,0.00532434,0.36590282,0.00481354,0.00404303,-0.00
 417471,0.00022967,0.00023356,-0.00103273,0.04048711,-0.14325132,0.0426
 7844,-0.00261455,0.00197012,-0.00418033,0.02167041,-0.04170809,0.01839
 862,-0.22099167,0.63697385,0.01050366,-0.00705454,0.00537015,0.0047115
 5,-0.00296042,0.00150117,-0.03542530,0.03833672,-0.11411166,-0.0234608
 2,0.02744869,-0.01803107,0.00434854,-0.00042647,0.00589634,0.13977319,
 0.00327334,0.60769073,0.00149429,0.00007478,0.00000388,-0.00004606,-0.
 00017939,0.00006256,0.00626929,-0.01072068,0.00486168,0.00034348,0.000
 56677,0.00002957,-0.12996005,0.09869590,-0.07282417,-0.00301050,-0.002
 57019,-0.00022588,0.15423683,0.00021487,0.00431425,-0.00133317,0.00007
 734,-0.00039274,0.00005124,0.01799610,-0.02680494,0.01735433,0.0004990
 9,0.00146106,-0.00020296,0.09652474,-0.16784995,0.08098642,-0.00397014
 ,-0.00383406,-0.00214722,-0.10865689,0.18143309,0.00089784,-0.00001175
 ,-0.00028364,-0.00024153,0.00031738,-0.00010782,0.00065825,-0.00780159
 ,0.00339696,0.00077195,0.00006354,0.00094983,-0.07225006,0.08381787,-0
 .11526019,-0.00083347,-0.00172521,-0.00066007,0.07345350,-0.08718642,0
 .11707063,0.00127374,0.00092615,-0.00003170,-0.00022634,-0.00062380,0.
 00044139,0.00001615,-0.00358665,-0.01400607,-0.00088855,-0.00287865,0.
 00040956,-0.05336218,-0.00358466,-0.02075295,-0.00028958,0.00054368,0.
 00079678,0.00221631,-0.00336396,-0.01861459,0.06270534,0.00194488,0.00
 136234,0.00093779,-0.00072143,-0.00013382,0.00046024,-0.00356323,-0.01
 023620,-0.03431399,-0.00222945,-0.00512029,-0.00032550,-0.00082656,-0.
 06233975,-0.04105750,-0.00078392,0.00143588,-0.00310668,0.00282347,0.0
 0544246,0.02276301,0.00409535,0.06498534,-0.00044887,-0.00004037,0.001
 41410,-0.00072021,-0.00077838,0.00013097,0.00005973,0.00030205,-0.0062
 9402,0.00000072,-0.00023502,0.00127036,-0.01603292,-0.04417457,-0.2935
 6343,-0.00081377,-0.00023656,-0.00123525,-0.00181089,-0.00457892,-0.01
 458754,0.01065724,0.05093208,0.32080268,-0.00209111,-0.00716501,-0.001
 54111,0.00001192,0.00043305,-0.00023225,-0.03286159,-0.00209380,0.0127
 0464,0.00096683,0.00207202,-0.00010539,-0.18291503,0.01239624,0.063003
 78,-0.00291135,0.00220136,-0.00182287,-0.03233731,-0.00089340,0.015778
 11,-0.01436199,-0.00119451,0.00853060,0.43350735,-0.00626630,-0.005482
 18,-0.00253042,0.00011559,-0.00067449,-0.00000123,-0.03438609,0.001970
 37,0.01462579,0.00060638,0.00168309,0.00012982,-0.02516612,-0.07660665
 ,-0.00503792,0.00322997,0.00365122,0.00111298,0.01810397,0.00716210,-0
 .01051495,0.00745811,0.00235321,-0.00257839,0.20466745,0.32792006,-0.0
 0150134,-0.00191970,0.00139794,-0.00073683,-0.00064473,0.00031635,-0.0
 0138435,0.00222440,0.00316750,0.00000238,0.00150776,0.00062454,0.02669
 629,-0.02198515,-0.08810986,-0.00165081,-0.00207549,-0.00290149,-0.002
 76733,-0.00320161,0.00898277,0.04054568,0.00078354,-0.01071652,0.00628
 775,0.15490030,0.16829947,0.00200486,0.00149296,-0.00179959,0.00139307
 ,-0.00107708,0.00012353,-0.00247658,-0.00090154,-0.02270317,-0.0024070
 4,0.00385566,-0.00120491,-0.00294884,-0.00063128,-0.00034201,-0.109108
 95,0.02335770,-0.07538809,0.00057165,0.00018726,-0.00007508,-0.0001605
 4,-0.00032276,0.00004642,0.00249155,-0.00118764,0.00134793,0.08367647,
 0.00184736,0.00083313,0.00019315,-0.00139218,-0.00002718,-0.00011926,0
 .00525102,0.00861667,0.02474315,0.00425554,-0.00406554,0.00317017,-0.0
 0045865,0.00194652,-0.00127509,0.01182429,-0.12331665,-0.05089958,0.00
 010351,0.00027634,0.00111324,-0.00034305,0.00146197,0.00123119,-0.0001
 0049,-0.00142143,0.00211650,0.01229197,0.09381717,-0.00095416,0.001366
 28,0.00037333,-0.00141080,0.00038789,-0.00018126,-0.00553684,-0.003976
 73,-0.01304765,-0.00125307,0.00159326,0.00139926,-0.00108462,-0.001787
 94,-0.00108083,-0.09784571,-0.00904572,-0.37060254,0.00019577,0.000033
 38,0.00045744,0.00022943,0.00114231,0.00069010,0.00079308,0.00040288,0
 .00096628,0.10855272,0.09972059,0.51455432,-0.00106281,-0.00130780,-0.
 00054037,-0.00008297,-0.00024490,0.00008761,-0.00462381,0.00386763,0.0
 0305353,0.00005542,0.00047505,-0.00005256,-0.02233293,-0.03233463,-0.0
 1695352,0.00007820,-0.00049830,0.00041222,-0.00094822,-0.00042968,-0.0
 0019575,0.00280838,0.00014153,0.00030811,-0.16970324,-0.16458389,-0.06
 653374,-0.00019002,0.00026597,-0.00009970,0.19626774,0.00029558,-0.000
 36183,-0.00032220,-0.00024240,-0.00015554,0.00005958,-0.00223376,0.000
 81091,0.00082053,0.00043065,0.00042844,0.00028457,0.01160739,-0.002669
 24,-0.00401480,-0.00044248,0.00046732,-0.00182663,0.00194012,0.0000148
 5,-0.00056270,0.00102600,0.00110248,0.00026688,-0.20769555,-0.26010975
 ,-0.13090625,0.00079920,0.00059978,0.00049905,0.19476365,0.26001101,0.
 00078872,0.00146524,0.00085020,-0.00002496,-0.00010920,0.00001163,0.00
 398725,-0.00081225,-0.00207979,0.00021532,0.00023534,0.00036687,0.0201
 3917,0.01519905,0.00112998,0.00068574,0.00019265,0.00080380,-0.0008957
 6,-0.00020110,-0.00018142,0.00052181,0.00108918,0.00112723,-0.10531508
 ,-0.15190590,-0.08284834,-0.00058224,-0.00058882,-0.00039216,0.0801719
 9,0.13502590,0.08169434,-0.17697739,-0.16505806,-0.08281917,0.00393004
 ,0.00327498,0.00392223,-0.02021275,-0.02423923,-0.01405135,0.00161473,
 0.00016372,-0.00004935,-0.00296828,0.00320601,0.00242853,-0.00190454,-
 0.00252582,-0.00015281,0.00010792,-0.00000238,0.00006581,-0.00001807,0
 .00019640,-0.00018919,-0.00064730,-0.00111621,-0.00048132,0.00021535,0
 .00076673,0.00003676,-0.00015501,-0.00022359,0.00039594,0.19668748,-0.
 19780621,-0.21508358,-0.14663085,0.00187841,-0.00312996,0.00884372,0.0
 1205537,-0.00528806,-0.00013869,-0.00035433,0.00056180,0.00056032,-0.0
 0254478,0.00103173,0.00118475,0.00250750,0.00284487,-0.00094797,0.0002
 1321,0.00000028,-0.00001490,0.00035836,0.00020942,0.00006468,-0.000846
 24,-0.00092894,-0.00029396,0.00003897,-0.00064235,0.00073587,-0.000340
 97,0.00011400,0.00019402,0.18541900,0.22108165,-0.08211032,-0.12134250
 ,-0.12871251,-0.02462974,-0.02987175,-0.01208259,0.01199848,0.01357114
 ,0.00751800,0.00019011,0.00044741,0.00043347,0.00327898,-0.00121605,-0
 .00119536,-0.00099481,0.00035806,-0.00075942,-0.00009155,0.00000720,-0
 .00012670,-0.00008600,0.00008279,0.00032367,0.00129566,0.00142831,0.00
 011907,-0.00011283,0.00016059,-0.00007721,0.00042774,0.00013578,-0.000
 17629,0.09085586,0.13644346,0.13471904,0.00016051,0.00048506,-0.000361
 22,-0.00040648,0.00007790,-0.00012539,0.00401590,0.02181090,0.00997346
 ,0.00072001,-0.00148587,0.00117741,-0.00623712,0.00046898,-0.00249393,
 -0.10869914,0.08284778,0.00935224,0.00101301,0.00151192,0.00037036,0.0
 0029601,0.00025463,0.00026282,0.00134158,-0.00130274,0.00009508,0.0608
 0772,-0.02808129,-0.00772956,-0.00017797,0.00007984,-0.00012239,0.0006
 2503,-0.00058392,0.00017938,0.08021726,0.00344094,-0.00209367,0.000839
 03,-0.00034582,0.00000111,0.00050114,0.00483310,-0.01210994,-0.0160451
 1,-0.00090901,0.00155182,-0.00017632,0.00322499,-0.00007589,0.00091943
 ,0.09843321,-0.32652906,-0.10031976,-0.00030372,-0.00103069,0.00014097
 ,-0.00008333,0.00036645,0.00017280,-0.00121098,-0.00025762,0.00045261,
 -0.00523587,0.00732830,-0.07719975,0.00022405,0.00014021,-0.00011510,0
 .00034756,-0.00084328,-0.00011756,-0.09374728,0.38466482,-0.00256987,0
 .00121129,0.00162749,-0.00168198,0.00024811,-0.00007023,-0.00080972,0.
 01177351,0.01168796,0.00228757,-0.00213931,0.00306815,-0.00186577,0.00
 184236,-0.00235283,0.02817485,-0.14064547,-0.18946854,0.00006803,0.000
 78747,0.00073918,-0.00029127,0.00160525,0.00101192,0.00041735,-0.00013
 674,0.00146569,0.02593280,-0.14208269,-0.09093298,-0.00007119,0.000826
 79,-0.00047184,0.00042860,-0.00020283,0.00004346,-0.05444816,0.2339151
 5,0.24105432,0.00181604,-0.00240135,0.00087045,-0.00019305,0.00037953,
 0.00023797,0.00805960,0.00416782,-0.00282289,-0.00023403,0.00021525,-0
 .00026998,-0.00061008,0.00041618,-0.00065336,-0.01480555,0.05304930,-0
 .03342240,0.00004937,0.00030513,0.00021465,-0.00000871,0.00018561,0.00
 015022,-0.00049031,-0.00017247,0.00008059,-0.03386871,-0.00623074,0.00
 610669,0.00006723,-0.00010464,0.00003450,-0.00029721,0.00000563,-0.000
 20095,-0.03367632,-0.00866783,0.00442876,0.07419175,0.00172139,-0.0008
 1120,-0.00105078,0.00100003,-0.00019627,0.00007607,-0.00085736,0.00104
 611,-0.00654047,-0.00111354,0.00135730,-0.00087210,0.00111976,-0.00028
 413,0.00072992,0.05509194,-0.01298069,0.09951753,-0.00009085,-0.000192
 05,-0.00039850,0.00005647,-0.00088949,-0.00034747,-0.00057013,0.000741
 01,-0.00095821,-0.03266755,0.01459327,-0.01387140,0.00000230,-0.000392
 62,0.00033099,-0.00020912,0.00007243,-0.00008689,0.01766408,-0.0511125
 5,0.03299710,-0.04114742,0.04904888,-0.00052013,-0.00007026,-0.0005577
 9,0.00103174,-0.00026932,0.00019183,-0.00083051,-0.00706216,-0.0057669
 1,-0.00169402,0.00183625,-0.00191951,0.00056910,-0.00133334,0.00127368
 ,-0.03379844,0.09821509,0.07650785,-0.00005942,-0.00036865,-0.00038943
 ,0.00018068,-0.00099251,-0.00037426,0.00020572,0.00010547,-0.00076340,
 -0.03379547,0.06251687,-0.04212610,-0.00001437,-0.00028650,0.00016579,
 -0.00039053,0.00020238,-0.00002663,0.04386989,-0.04296753,0.02259825,0
 .02524576,-0.10952580,-0.04881337||-0.00000417,0.00001087,-0.00000278,
 0.00000109,-0.00000285,-0.00000258,-0.00000401,-0.00000578,-0.00000599
 ,0.00000079,0.00000219,-0.00000031,0.00000109,0.00000013,0.00000169,-0
 .00000897,-0.00000302,0.00000431,0.00000339,0.00000158,0.00000242,0.00
 000151,-0.00000101,0.00000227,0.00000179,-0.00000058,0.00000218,0.0000
 0804,0.00001213,0.00001041,0.00000279,-0.00000247,0.00000337,0.0000023
 5,0.00000266,-0.00000035,0.00000748,0.00000612,0.00000442,-0.00001317,
 -0.00001995,-0.00001906|||@


 It takes a long time to grow an old friend.
                            -- John Leonard
 Job cpu time:  0 days  0 hours  2 minutes 36.0 seconds.
 File lengths (MBytes):  RWF=     18 Int=      0 D2E=      0 Chk=      7 Scr=      1
 Normal termination of Gaussian 03 at Fri Apr 01 15:59:39 2016.
