 Entering Gaussian System, Link 0=g09
 Input=Ala-S-opt-freq-tsa3-6-31g.com
 Output=Ala-S-opt-freq-tsa3-6-31g.log
 Initial command:
 /usr/local/gau/g09/l1.exe "/tmp/Gau-2490.inp" -scrdir="/tmp/"
 Entering Link 1 = /usr/local/gau/g09/l1.exe PID=      2492.
  
 Copyright (c) 1988,1990,1992,1993,1995,1998,2003,2009,2013,
            Gaussian, Inc.  All Rights Reserved.
  
 This is part of the Gaussian(R) 09 program.  It is based on
 the Gaussian(R) 03 system (copyright 2003, Gaussian, Inc.),
 the Gaussian(R) 98 system (copyright 1998, Gaussian, Inc.),
 the Gaussian(R) 94 system (copyright 1995, Gaussian, Inc.),
 the Gaussian 92(TM) system (copyright 1992, Gaussian, Inc.),
 the Gaussian 90(TM) system (copyright 1990, Gaussian, Inc.),
 the Gaussian 88(TM) system (copyright 1988, Gaussian, Inc.),
 the Gaussian 86(TM) system (copyright 1986, Carnegie Mellon
 University), and the Gaussian 82(TM) system (copyright 1983,
 Carnegie Mellon University). Gaussian is a federally registered
 trademark of Gaussian, Inc.
  
 This software contains proprietary and confidential information,
 including trade secrets, belonging to Gaussian, Inc.
  
 This software is provided under written license and may be
 used, copied, transmitted, or stored only in accord with that
 written license.
  
 The following legend is applicable only to US Government
 contracts under FAR:
  
                    RESTRICTED RIGHTS LEGEND
  
 Use, reproduction and disclosure by the US Government is
 subject to restrictions as set forth in subparagraphs (a)
 and (c) of the Commercial Computer Software - Restricted
 Rights clause in FAR 52.227-19.
  
 Gaussian, Inc.
 340 Quinnipiac St., Bldg. 40, Wallingford CT 06492
  
  
 ---------------------------------------------------------------
 Warning -- This program may not be used in any manner that
 competes with the business of Gaussian, Inc. or will provide
 assistance to any competitor of Gaussian, Inc.  The licensee
 of this program is prohibited from giving any competitor of
 Gaussian, Inc. access to this program.  By using this program,
 the user acknowledges that Gaussian, Inc. is engaged in the
 business of creating and licensing software in the field of
 computational chemistry and represents and warrants to the
 licensee that it is not a competitor of Gaussian, Inc. and that
 it will not use this program in any manner prohibited above.
 ---------------------------------------------------------------
  

 Cite this work as:
 Gaussian 09, Revision D.01,
 M. J. Frisch, G. W. Trucks, H. B. Schlegel, G. E. Scuseria, 
 M. A. Robb, J. R. Cheeseman, G. Scalmani, V. Barone, B. Mennucci, 
 G. A. Petersson, H. Nakatsuji, M. Caricato, X. Li, H. P. Hratchian, 
 A. F. Izmaylov, J. Bloino, G. Zheng, J. L. Sonnenberg, M. Hada, 
 M. Ehara, K. Toyota, R. Fukuda, J. Hasegawa, M. Ishida, T. Nakajima, 
 Y. Honda, O. Kitao, H. Nakai, T. Vreven, J. A. Montgomery, Jr., 
 J. E. Peralta, F. Ogliaro, M. Bearpark, J. J. Heyd, E. Brothers, 
 K. N. Kudin, V. N. Staroverov, T. Keith, R. Kobayashi, J. Normand, 
 K. Raghavachari, A. Rendell, J. C. Burant, S. S. Iyengar, J. Tomasi, 
 M. Cossi, N. Rega, J. M. Millam, M. Klene, J. E. Knox, J. B. Cross, 
 V. Bakken, C. Adamo, J. Jaramillo, R. Gomperts, R. E. Stratmann, 
 O. Yazyev, A. J. Austin, R. Cammi, C. Pomelli, J. W. Ochterski, 
 R. L. Martin, K. Morokuma, V. G. Zakrzewski, G. A. Voth, 
 P. Salvador, J. J. Dannenberg, S. Dapprich, A. D. Daniels, 
 O. Farkas, J. B. Foresman, J. V. Ortiz, J. Cioslowski, 
 and D. J. Fox, Gaussian, Inc., Wallingford CT, 2013.
 
 ******************************************
 Gaussian 09:  ES64L-G09RevD.01 24-Apr-2013
                13-Apr-2016 
 ******************************************
 %chk=Ala-S-opt-freq-tsa3-6-31g.chk
 ------------------------------------------------
 #p opt=(calcfc,ts) freq rb3lyp/6-31g iop(1/11=1)
 ------------------------------------------------
 1/5=1,10=4,11=1,14=-1,18=20,26=3,38=1/1,3;
 2/9=110,12=2,17=6,18=5,40=1/2;
 3/5=1,6=6,11=2,16=1,25=1,30=1,71=2,74=-5,116=1,140=1/1,2,3;
 4//1;
 5/5=2,38=5/2;
 8/6=4,10=90,11=11/1;
 11/6=1,8=1,9=11,15=111,16=1/1,2,10;
 10/6=1,13=1/2;
 6/7=2,8=2,9=2,10=2,28=1/1;
 7/10=1,18=20,25=1/1,2,3,16;
 1/5=1,10=4,11=1,14=-1,18=20,26=3/3(2);
 2/9=110/2;
 99//99;
 2/9=110/2;
 3/5=1,6=6,11=2,16=1,25=1,30=1,71=1,74=-5,116=1/1,2,3;
 4/5=5,16=3,69=1/1;
 5/5=2,38=5/2;
 7//1,2,3,16;
 1/5=1,11=1,14=-1,18=20,26=3/3(-5);
 2/9=110/2;
 6/7=2,8=2,9=2,10=2,19=2,28=1/1;
 99/9=1/99;
 Leave Link    1 at Wed Apr 13 08:54:05 2016, MaxMem=           0 cpu:         0.0
 (Enter /usr/local/gau/g09/l101.exe)
 -------------------------
 Ala-S-opt-freq-tsa3-6-31g
 -------------------------
 Symbolic Z-matrix:
 Charge =  0 Multiplicity = 1
 N                     1.0947    1.25928   0.13501 
 H                     2.09193   1.3352    0.05255 
 C                     0.47676   0.01086   0.10978 
 H                    -2.09655  -1.47125  -0.59585 
 C                     1.38478  -1.18723   0.1021 
 C                    -0.86429  -0.09564   0.1033 
 H                     2.0303   -1.19014   0.99075 
 H                     0.80352  -2.10974   0.09912 
 H                     2.04001  -1.18018  -0.78043 
 O                    -1.64104   1.11938  -0.02281 
 H                     0.53235   2.08706   0.03829 
 O                    -1.55453  -1.31117   0.20741 
 H                    -0.26567   0.70705   0.07449 
 
 NAtoms=     13 NQM=       13 NQMF=       0 NMMI=      0 NMMIF=      0
                NMic=       0 NMicF=      0.
                    Isotopes and Nuclear Properties:
 (Nuclear quadrupole moments (NQMom) in fm**2, nuclear magnetic moments (NMagM)
  in nuclear magnetons)

  Atom         1           2           3           4           5           6           7           8           9          10
 IAtWgt=          14           1          12           1          12          12           1           1           1          16
 AtmWgt=  14.0030740   1.0078250  12.0000000   1.0078250  12.0000000  12.0000000   1.0078250   1.0078250   1.0078250  15.9949146
 NucSpn=           2           1           0           1           0           0           1           1           1           0
 AtZEff=   0.0000000   0.0000000   0.0000000   0.0000000   0.0000000   0.0000000   0.0000000   0.0000000   0.0000000   0.0000000
 NQMom=    2.0440000   0.0000000   0.0000000   0.0000000   0.0000000   0.0000000   0.0000000   0.0000000   0.0000000   0.0000000
 NMagM=    0.4037610   2.7928460   0.0000000   2.7928460   0.0000000   0.0000000   2.7928460   2.7928460   2.7928460   0.0000000
 AtZNuc=   7.0000000   1.0000000   6.0000000   1.0000000   6.0000000   6.0000000   1.0000000   1.0000000   1.0000000   8.0000000

  Atom        11          12          13
 IAtWgt=           1          16           1
 AtmWgt=   1.0078250  15.9949146   1.0078250
 NucSpn=           1           0           1
 AtZEff=   0.0000000   0.0000000   0.0000000
 NQMom=    0.0000000   0.0000000   0.0000000
 NMagM=    2.7928460   0.0000000   2.7928460
 AtZNuc=   1.0000000   8.0000000   1.0000000
 Leave Link  101 at Wed Apr 13 08:54:05 2016, MaxMem=    33554432 cpu:         0.1
 (Enter /usr/local/gau/g09/l103.exe)

 GradGradGradGradGradGradGradGradGradGradGradGradGradGradGradGradGradGrad
 Berny optimization.
 Initialization pass.
                           ----------------------------
                           !    Initial Parameters    !
                           ! (Angstroms and Degrees)  !
 --------------------------                            --------------------------
 ! Name  Definition              Value          Derivative Info.                !
 --------------------------------------------------------------------------------
 ! R1    R(1,2)                  1.0035         calculate D2E/DX2 analytically  !
 ! R2    R(1,3)                  1.3932         calculate D2E/DX2 analytically  !
 ! R3    R(1,11)                 1.0054         calculate D2E/DX2 analytically  !
 ! R4    R(3,5)                  1.5033         calculate D2E/DX2 analytically  !
 ! R5    R(3,6)                  1.3453         calculate D2E/DX2 analytically  !
 ! R6    R(3,13)                 1.0184         calculate D2E/DX2 analytically  !
 ! R7    R(4,12)                 0.9822         calculate D2E/DX2 analytically  !
 ! R8    R(5,7)                  1.0984         calculate D2E/DX2 analytically  !
 ! R9    R(5,8)                  1.0904         calculate D2E/DX2 analytically  !
 ! R10   R(5,9)                  1.0992         calculate D2E/DX2 analytically  !
 ! R11   R(6,10)                 1.4476         calculate D2E/DX2 analytically  !
 ! R12   R(6,12)                 1.4017         calculate D2E/DX2 analytically  !
 ! R13   R(6,13)                 1.0017         calculate D2E/DX2 analytically  !
 ! A1    A(2,1,3)              120.4689         calculate D2E/DX2 analytically  !
 ! A2    A(2,1,11)             119.0538         calculate D2E/DX2 analytically  !
 ! A3    A(3,1,11)             119.2059         calculate D2E/DX2 analytically  !
 ! A4    A(1,3,5)              116.508          calculate D2E/DX2 analytically  !
 ! A5    A(1,3,6)              120.8748         calculate D2E/DX2 analytically  !
 ! A6    A(1,3,13)              73.226          calculate D2E/DX2 analytically  !
 ! A7    A(5,3,6)              122.6153         calculate D2E/DX2 analytically  !
 ! A8    A(3,5,7)              110.6686         calculate D2E/DX2 analytically  !
 ! A9    A(3,5,8)              110.6273         calculate D2E/DX2 analytically  !
 ! A10   A(3,5,9)              111.0413         calculate D2E/DX2 analytically  !
 ! A11   A(7,5,8)              108.2564         calculate D2E/DX2 analytically  !
 ! A12   A(7,5,9)              107.4144         calculate D2E/DX2 analytically  !
 ! A13   A(8,5,9)              108.7238         calculate D2E/DX2 analytically  !
 ! A14   A(3,6,10)             117.9609         calculate D2E/DX2 analytically  !
 ! A15   A(3,6,12)             123.9986         calculate D2E/DX2 analytically  !
 ! A16   A(10,6,12)            118.0403         calculate D2E/DX2 analytically  !
 ! A17   A(10,6,13)             69.2424         calculate D2E/DX2 analytically  !
 ! A18   A(4,12,6)             110.6311         calculate D2E/DX2 analytically  !
 ! A19   L(5,3,13,1,-1)        189.734          calculate D2E/DX2 analytically  !
 ! A20   L(12,6,13,10,-1)      187.2827         calculate D2E/DX2 analytically  !
 ! A21   L(5,3,13,1,-2)        177.803          calculate D2E/DX2 analytically  !
 ! A22   L(12,6,13,10,-2)      177.6984         calculate D2E/DX2 analytically  !
 ! D1    D(2,1,3,5)              6.2762         calculate D2E/DX2 analytically  !
 ! D2    D(2,1,3,6)           -174.2135         calculate D2E/DX2 analytically  !
 ! D3    D(2,1,3,13)          -171.5268         calculate D2E/DX2 analytically  !
 ! D4    D(11,1,3,5)           173.2777         calculate D2E/DX2 analytically  !
 ! D5    D(11,1,3,6)            -7.2119         calculate D2E/DX2 analytically  !
 ! D6    D(11,1,3,13)           -4.5253         calculate D2E/DX2 analytically  !
 ! D7    D(1,3,5,7)             59.0596         calculate D2E/DX2 analytically  !
 ! D8    D(1,3,5,8)            179.0434         calculate D2E/DX2 analytically  !
 ! D9    D(1,3,5,9)            -60.1392         calculate D2E/DX2 analytically  !
 ! D10   D(6,3,5,7)           -120.4415         calculate D2E/DX2 analytically  !
 ! D11   D(6,3,5,8)             -0.4577         calculate D2E/DX2 analytically  !
 ! D12   D(6,3,5,9)            120.3597         calculate D2E/DX2 analytically  !
 ! D13   D(1,3,6,10)             6.5574         calculate D2E/DX2 analytically  !
 ! D14   D(1,3,6,12)          -173.6291         calculate D2E/DX2 analytically  !
 ! D15   D(5,3,6,10)          -173.9628         calculate D2E/DX2 analytically  !
 ! D16   D(5,3,6,12)             5.8507         calculate D2E/DX2 analytically  !
 ! D17   D(3,6,12,4)          -118.4765         calculate D2E/DX2 analytically  !
 ! D18   D(10,6,12,4)           61.3369         calculate D2E/DX2 analytically  !
 --------------------------------------------------------------------------------
 Trust Radius=3.00D-01 FncErr=1.00D-07 GrdErr=1.00D-06
 Number of steps in this run=     63 maximum allowed number of steps=    100.
 Search for a saddle point of order  1.
 GradGradGradGradGradGradGradGradGradGradGradGradGradGradGradGradGradGrad

 Leave Link  103 at Wed Apr 13 08:54:05 2016, MaxMem=    33554432 cpu:         0.0
 (Enter /usr/local/gau/g09/l202.exe)
                          Input orientation:                          
 ---------------------------------------------------------------------
 Center     Atomic      Atomic             Coordinates (Angstroms)
 Number     Number       Type             X           Y           Z
 ---------------------------------------------------------------------
      1          7           0        1.094698    1.259277    0.135011
      2          1           0        2.091928    1.335203    0.052547
      3          6           0        0.476757    0.010857    0.109777
      4          1           0       -2.096545   -1.471249   -0.595849
      5          6           0        1.384783   -1.187227    0.102097
      6          6           0       -0.864285   -0.095641    0.103300
      7          1           0        2.030300   -1.190139    0.990753
      8          1           0        0.803516   -2.109735    0.099117
      9          1           0        2.040008   -1.180177   -0.780432
     10          8           0       -1.641041    1.119378   -0.022808
     11          1           0        0.532350    2.087061    0.038289
     12          8           0       -1.554533   -1.311172    0.207406
     13          1           0       -0.265671    0.707050    0.074487
 ---------------------------------------------------------------------
                    Distance matrix (angstroms):
                    1          2          3          4          5
     1  N    0.000000
     2  H    1.003510   0.000000
     3  C    1.393212   2.089484   0.000000
     4  H    4.263093   5.083296   3.052283   0.000000
     5  C    2.463862   2.620145   1.503321   3.561944   0.000000
     6  C    2.382105   3.284674   1.345280   1.974733   2.499974
     7  H    2.758131   2.694695   2.152210   4.430257   1.098367
     8  H    3.381762   3.678284   2.145646   3.049753   1.090367
     9  H    2.771747   2.650224   2.157496   4.150887   1.099194
    10  O    2.743856   3.739962   2.394048   2.692064   3.806789
    11  H    1.005394   1.731409   2.078178   4.469317   3.384032
    12  O    3.692001   4.508210   2.425579   0.982151   2.943812
    13  H    1.469429   2.439945   1.018396   2.923429   2.512578
                    6          7          8          9         10
     6  C    0.000000
     7  H    3.219335   0.000000
     8  H    2.614986   1.773604   0.000000
     9  H    3.223681   1.771240   1.779493   0.000000
    10  O    1.447593   4.454203   4.051901   4.405914   0.000000
    11  H    2.592104   3.727074   4.205987   3.690282   2.379868
    12  O    1.401712   3.671418   2.491952   3.730108   2.442961
    13  H    1.001740   3.116144   3.012980   3.099785   1.439140
                   11         12         13
    11  H    0.000000
    12  O    3.991449   0.000000
    13  H    1.594546   2.398344   0.000000
 Stoichiometry    C3H7NO2
 Framework group  C1[X(C3H7NO2)]
 Deg. of freedom    33
 Full point group                 C1      NOp   1
 Largest Abelian subgroup         C1      NOp   1
 Largest concise Abelian subgroup C1      NOp   1
                         Standard orientation:                         
 ---------------------------------------------------------------------
 Center     Atomic      Atomic             Coordinates (Angstroms)
 Number     Number       Type             X           Y           Z
 ---------------------------------------------------------------------
      1          7           0        1.332382   -1.205980   -0.046899
      2          1           0        2.330516   -1.208185    0.056817
      3          6           0        0.620872   -0.008738   -0.009432
      4          1           0       -2.072152    1.258128    0.668140
      5          6           0        1.434763    1.254057    0.044465
      6          6           0       -0.724219   -0.004074   -0.031499
      7          1           0        2.096963    1.326058   -0.828873
      8          1           0        0.785077    2.129686    0.053629
      9          1           0        2.069687    1.276380    0.941460
     10          8           0       -1.408811   -1.276888    0.050982
     11          1           0        0.832698   -2.075892    0.019334
     12          8           0       -1.502554    1.157874   -0.125666
     13          1           0       -0.067031   -0.759675   -0.005950
 ---------------------------------------------------------------------
 Rotational constants (GHZ):      4.8092638      3.3645638      2.0172288
 Leave Link  202 at Wed Apr 13 08:54:05 2016, MaxMem=    33554432 cpu:         0.0
 (Enter /usr/local/gau/g09/l301.exe)
 Standard basis: 6-31G (6D, 7F)
 Ernie: Thresh=  0.10000D-02 Tol=  0.10000D-05 Strict=F.
 There are    68 symmetry adapted cartesian basis functions of A   symmetry.
 There are    68 symmetry adapted basis functions of A   symmetry.
    68 basis functions,   160 primitive gaussians,    68 cartesian basis functions
    24 alpha electrons       24 beta electrons
       nuclear repulsion energy       249.3029302688 Hartrees.
 IExCor=  402 DFT=T Ex+Corr=B3LYP ExCW=0 ScaHFX=  0.200000
 ScaDFX=  0.800000  0.720000  1.000000  0.810000 ScalE2=  1.000000  1.000000
 IRadAn=      0 IRanWt=     -1 IRanGd=            0 ICorTp=0 IEmpDi=  4
 NAtoms=   13 NActive=   13 NUniq=   13 SFac= 1.00D+00 NAtFMM=   60 NAOKFM=F Big=F
 Integral buffers will be    131072 words long.
 Raffenetti 2 integral format.
 Two-electron integral symmetry is turned on.
 Leave Link  301 at Wed Apr 13 08:54:05 2016, MaxMem=    33554432 cpu:         0.0
 (Enter /usr/local/gau/g09/l302.exe)
 NPDir=0 NMtPBC=     1 NCelOv=     1 NCel=       1 NClECP=     1 NCelD=      1
         NCelK=      1 NCelE2=     1 NClLst=     1 CellRange=     0.0.
 One-electron integrals computed using PRISM.
 NBasis=    68 RedAO= T EigKep=  2.87D-03  NBF=    68
 NBsUse=    68 1.00D-06 EigRej= -1.00D+00 NBFU=    68
 Precomputing XC quadrature grid using
 IXCGrd= 4 IRadAn=           0 IRanWt=          -1 IRanGd=           0 AccXCQ= 0.00D+00.
 Generated NRdTot=       0 NPtTot=           0 NUsed=           0 NTot=          32
 NSgBfM=    68    68    68    68    68 MxSgAt=    13 MxSgA2=    13.
 Leave Link  302 at Wed Apr 13 08:54:05 2016, MaxMem=    33554432 cpu:         0.2
 (Enter /usr/local/gau/g09/l303.exe)
 DipDrv:  MaxL=1.
 Leave Link  303 at Wed Apr 13 08:54:05 2016, MaxMem=    33554432 cpu:         0.0
 (Enter /usr/local/gau/g09/l401.exe)
 ExpMin= 1.61D-01 ExpMax= 5.48D+03 ExpMxC= 8.25D+02 IAcc=1 IRadAn=         1 AccDes= 0.00D+00
 Harris functional with IExCor=  402 and IRadAn=       1 diagonalized for initial guess.
 HarFok:  IExCor=  402 AccDes= 0.00D+00 IRadAn=         1 IDoV= 1 UseB2=F ITyADJ=14
 ICtDFT=  3500011 ScaDFX=  1.000000  1.000000  1.000000  1.000000
 FoFCou: FMM=F IPFlag=           0 FMFlag=      100000 FMFlg1=           0
         NFxFlg=           0 DoJE=T BraDBF=F KetDBF=T FulRan=T
         wScrn=  0.000000 ICntrl=     500 IOpCl=  0 I1Cent=   200000004 NGrid=           0
         NMat0=    1 NMatS0=      1 NMatT0=    0 NMatD0=    1 NMtDS0=    0 NMtDT0=    0
 Petite list used in FoFCou.
 Harris En= -323.353708693375    
 JPrj=0 DoOrth=F DoCkMO=F.
 Leave Link  401 at Wed Apr 13 08:54:06 2016, MaxMem=    33554432 cpu:         0.4
 (Enter /usr/local/gau/g09/l502.exe)
 Closed shell SCF:
 Using DIIS extrapolation, IDIIS=  1040.
 Integral symmetry usage will be decided dynamically.
 Keep R1 ints in memory in canonical form, NReq=3676491.
 IVT=       33364 IEndB=       33364 NGot=    33554432 MDV=    30768038
 LenX=    30768038 LenY=    30762973
 Requested convergence on RMS density matrix=1.00D-08 within 128 cycles.
 Requested convergence on MAX density matrix=1.00D-06.
 Requested convergence on             energy=1.00D-06.
 No special actions if energy rises.
 FoFCou: FMM=F IPFlag=           0 FMFlag=           0 FMFlg1=           0
         NFxFlg=           0 DoJE=F BraDBF=F KetDBF=F FulRan=T
         wScrn=  0.000000 ICntrl=     600 IOpCl=  0 I1Cent=           0 NGrid=           0
         NMat0=    1 NMatS0=   2346 NMatT0=    0 NMatD0=    1 NMtDS0=    0 NMtDT0=    0
 Symmetry not used in FoFCou.
 Integral accuracy reduced to 1.0D-05 until final iterations.

 Cycle   1  Pass 0  IDiag  1:
 E= -323.127297047057    
 DIIS: error= 3.64D-02 at cycle   1 NSaved=   1.
 NSaved= 1 IEnMin= 1 EnMin= -323.127297047057     IErMin= 1 ErrMin= 3.64D-02
 ErrMax= 3.64D-02  0.00D+00 EMaxC= 1.00D-01 BMatC= 1.95D-01 BMatP= 1.95D-01
 IDIUse=3 WtCom= 6.36D-01 WtEn= 3.64D-01
 Coeff-Com:  0.100D+01
 Coeff-En:   0.100D+01
 Coeff:      0.100D+01
 Gap=     0.208 Goal=   None    Shift=    0.000
 GapD=    0.208 DampG=1.000 DampE=0.500 DampFc=0.5000 IDamp=-1.
 Damping current iteration by 5.00D-01
 RMSDP=2.80D-02 MaxDP=5.60D-01              OVMax= 3.03D-01

 Cycle   2  Pass 0  IDiag  1:
 E= -323.138035950891     Delta-E=       -0.010738903834 Rises=F Damp=T
 DIIS: error= 2.84D-02 at cycle   2 NSaved=   2.
 NSaved= 2 IEnMin= 2 EnMin= -323.138035950891     IErMin= 2 ErrMin= 2.84D-02
 ErrMax= 2.84D-02  0.00D+00 EMaxC= 1.00D-01 BMatC= 5.66D-02 BMatP= 1.95D-01
 IDIUse=3 WtCom= 7.16D-01 WtEn= 2.84D-01
 Coeff-Com:  0.309D+00 0.691D+00
 Coeff-En:   0.474D+00 0.526D+00
 Coeff:      0.356D+00 0.644D+00
 Gap=     0.216 Goal=   None    Shift=    0.000
 RMSDP=9.20D-03 MaxDP=1.40D-01 DE=-1.07D-02 OVMax= 2.50D-01

 Cycle   3  Pass 0  IDiag  1:
 E= -323.244416707183     Delta-E=       -0.106380756293 Rises=F Damp=F
 DIIS: error= 2.69D-02 at cycle   3 NSaved=   3.
 NSaved= 3 IEnMin= 3 EnMin= -323.244416707183     IErMin= 3 ErrMin= 2.69D-02
 ErrMax= 2.69D-02  0.00D+00 EMaxC= 1.00D-01 BMatC= 6.42D-02 BMatP= 5.66D-02
 IDIUse=2 WtCom= 0.00D+00 WtEn= 1.00D+00
 EnCoef did     2 forward-backward iterations
 Coeff-En:   0.366D-01 0.115D+00 0.849D+00
 Coeff:      0.366D-01 0.115D+00 0.849D+00
 Gap=     0.200 Goal=   None    Shift=    0.000
 RMSDP=1.64D-02 MaxDP=2.41D-01 DE=-1.06D-01 OVMax= 3.21D-01

 Cycle   4  Pass 0  IDiag  1:
 E= -322.973417063201     Delta-E=        0.270999643982 Rises=F Damp=F
 DIIS: error= 8.41D-02 at cycle   4 NSaved=   4.
 NSaved= 4 IEnMin= 3 EnMin= -323.244416707183     IErMin= 3 ErrMin= 2.69D-02
 ErrMax= 8.41D-02  0.00D+00 EMaxC= 1.00D-01 BMatC= 3.78D-01 BMatP= 5.66D-02
 IDIUse=2 WtCom= 0.00D+00 WtEn= 1.00D+00
 Coeff-En:   0.000D+00 0.000D+00 0.778D+00 0.222D+00
 Coeff:      0.000D+00 0.000D+00 0.778D+00 0.222D+00
 Gap=     0.190 Goal=   None    Shift=    0.000
 RMSDP=1.02D-02 MaxDP=1.68D-01 DE= 2.71D-01 OVMax= 1.89D-01

 Cycle   5  Pass 0  IDiag  1:
 E= -323.286090590945     Delta-E=       -0.312673527743 Rises=F Damp=F
 DIIS: error= 1.75D-02 at cycle   5 NSaved=   5.
 NSaved= 5 IEnMin= 5 EnMin= -323.286090590945     IErMin= 5 ErrMin= 1.75D-02
 ErrMax= 1.75D-02  0.00D+00 EMaxC= 1.00D-01 BMatC= 2.05D-02 BMatP= 5.66D-02
 IDIUse=3 WtCom= 8.25D-01 WtEn= 1.75D-01
 Coeff-Com: -0.319D-01 0.105D+00 0.280D+00-0.849D-01 0.732D+00
 Coeff-En:   0.000D+00 0.000D+00 0.288D+00 0.000D+00 0.712D+00
 Coeff:     -0.263D-01 0.868D-01 0.281D+00-0.701D-01 0.728D+00
 Gap=     0.198 Goal=   None    Shift=    0.000
 RMSDP=2.46D-03 MaxDP=2.81D-02 DE=-3.13D-01 OVMax= 5.27D-02

 Cycle   6  Pass 0  IDiag  1:
 E= -323.304628606467     Delta-E=       -0.018538015522 Rises=F Damp=F
 DIIS: error= 2.11D-03 at cycle   6 NSaved=   6.
 NSaved= 6 IEnMin= 6 EnMin= -323.304628606467     IErMin= 6 ErrMin= 2.11D-03
 ErrMax= 2.11D-03  0.00D+00 EMaxC= 1.00D-01 BMatC= 1.62D-04 BMatP= 2.05D-02
 IDIUse=3 WtCom= 9.79D-01 WtEn= 2.11D-02
 Coeff-Com: -0.195D-01 0.328D-01 0.123D+00-0.373D-01 0.378D+00 0.523D+00
 Coeff-En:   0.000D+00 0.000D+00 0.000D+00 0.000D+00 0.000D+00 0.100D+01
 Coeff:     -0.191D-01 0.322D-01 0.121D+00-0.365D-01 0.370D+00 0.533D+00
 Gap=     0.196 Goal=   None    Shift=    0.000
 RMSDP=2.86D-04 MaxDP=4.06D-03 DE=-1.85D-02 OVMax= 7.56D-03

 Cycle   7  Pass 0  IDiag  1:
 E= -323.304778597635     Delta-E=       -0.000149991168 Rises=F Damp=F
 DIIS: error= 7.16D-04 at cycle   7 NSaved=   7.
 NSaved= 7 IEnMin= 7 EnMin= -323.304778597635     IErMin= 7 ErrMin= 7.16D-04
 ErrMax= 7.16D-04  0.00D+00 EMaxC= 1.00D-01 BMatC= 1.18D-05 BMatP= 1.62D-04
 IDIUse=3 WtCom= 9.93D-01 WtEn= 7.16D-03
 Coeff-Com: -0.496D-02 0.562D-02 0.229D-01-0.930D-02 0.918D-01 0.325D+00
 Coeff-Com:  0.569D+00
 Coeff-En:   0.000D+00 0.000D+00 0.000D+00 0.000D+00 0.000D+00 0.580D-01
 Coeff-En:   0.942D+00
 Coeff:     -0.493D-02 0.558D-02 0.227D-01-0.923D-02 0.912D-01 0.323D+00
 Coeff:      0.572D+00
 Gap=     0.196 Goal=   None    Shift=    0.000
 RMSDP=7.07D-05 MaxDP=1.16D-03 DE=-1.50D-04 OVMax= 2.36D-03

 Cycle   8  Pass 0  IDiag  1:
 E= -323.304790554917     Delta-E=       -0.000011957283 Rises=F Damp=F
 DIIS: error= 1.02D-04 at cycle   8 NSaved=   8.
 NSaved= 8 IEnMin= 8 EnMin= -323.304790554917     IErMin= 8 ErrMin= 1.02D-04
 ErrMax= 1.02D-04  0.00D+00 EMaxC= 1.00D-01 BMatC= 1.08D-06 BMatP= 1.18D-05
 IDIUse=3 WtCom= 9.99D-01 WtEn= 1.02D-03
 Coeff-Com: -0.382D-03-0.974D-03-0.243D-02-0.488D-03 0.521D-02 0.131D+00
 Coeff-Com:  0.339D+00 0.529D+00
 Coeff-En:   0.000D+00 0.000D+00 0.000D+00 0.000D+00 0.000D+00 0.000D+00
 Coeff-En:   0.000D+00 0.100D+01
 Coeff:     -0.381D-03-0.973D-03-0.243D-02-0.487D-03 0.521D-02 0.131D+00
 Coeff:      0.339D+00 0.530D+00
 Gap=     0.197 Goal=   None    Shift=    0.000
 RMSDP=1.75D-05 MaxDP=2.18D-04 DE=-1.20D-05 OVMax= 2.72D-04

 Cycle   9  Pass 0  IDiag  1:
 E= -323.304791520875     Delta-E=       -0.000000965958 Rises=F Damp=F
 DIIS: error= 2.33D-05 at cycle   9 NSaved=   9.
 NSaved= 9 IEnMin= 9 EnMin= -323.304791520875     IErMin= 9 ErrMin= 2.33D-05
 ErrMax= 2.33D-05  0.00D+00 EMaxC= 1.00D-01 BMatC= 3.94D-08 BMatP= 1.08D-06
 IDIUse=1 WtCom= 1.00D+00 WtEn= 0.00D+00
 Coeff-Com:  0.348D-04-0.802D-03-0.243D-02 0.389D-03-0.326D-02 0.289D-01
 Coeff-Com:  0.978D-01 0.198D+00 0.681D+00
 Coeff:      0.348D-04-0.802D-03-0.243D-02 0.389D-03-0.326D-02 0.289D-01
 Coeff:      0.978D-01 0.198D+00 0.681D+00
 Gap=     0.197 Goal=   None    Shift=    0.000
 RMSDP=3.70D-06 MaxDP=4.84D-05 DE=-9.66D-07 OVMax= 4.53D-05

 Initial convergence to 1.0D-05 achieved.  Increase integral accuracy.
 Cycle  10  Pass 1  IDiag  1:
 E= -323.304814705320     Delta-E=       -0.000023184445 Rises=F Damp=F
 DIIS: error= 1.05D-05 at cycle   1 NSaved=   1.
 NSaved= 1 IEnMin= 1 EnMin= -323.304814705320     IErMin= 1 ErrMin= 1.05D-05
 ErrMax= 1.05D-05  0.00D+00 EMaxC= 1.00D-01 BMatC= 1.58D-08 BMatP= 1.58D-08
 IDIUse=1 WtCom= 1.00D+00 WtEn= 0.00D+00
 Coeff-Com:  0.100D+01
 Coeff:      0.100D+01
 Gap=     0.196 Goal=   None    Shift=    0.000
 RMSDP=3.70D-06 MaxDP=4.84D-05 DE=-2.32D-05 OVMax= 7.92D-05

 Cycle  11  Pass 1  IDiag  1:
 E= -323.304814702670     Delta-E=        0.000000002650 Rises=F Damp=F
 DIIS: error= 2.24D-05 at cycle   2 NSaved=   2.
 NSaved= 2 IEnMin= 1 EnMin= -323.304814705320     IErMin= 1 ErrMin= 1.05D-05
 ErrMax= 2.24D-05  0.00D+00 EMaxC= 1.00D-01 BMatC= 2.83D-08 BMatP= 1.58D-08
 IDIUse=1 WtCom= 1.00D+00 WtEn= 0.00D+00
 Coeff-Com:  0.586D+00 0.414D+00
 Coeff:      0.586D+00 0.414D+00
 Gap=     0.197 Goal=   None    Shift=    0.000
 RMSDP=4.88D-06 MaxDP=8.79D-05 DE= 2.65D-09 OVMax= 8.80D-05

 Cycle  12  Pass 1  IDiag  1:
 E= -323.304814722649     Delta-E=       -0.000000019980 Rises=F Damp=F
 DIIS: error= 1.09D-05 at cycle   3 NSaved=   3.
 NSaved= 3 IEnMin= 3 EnMin= -323.304814722649     IErMin= 1 ErrMin= 1.05D-05
 ErrMax= 1.09D-05  0.00D+00 EMaxC= 1.00D-01 BMatC= 5.85D-09 BMatP= 1.58D-08
 IDIUse=1 WtCom= 1.00D+00 WtEn= 0.00D+00
 Coeff-Com:  0.196D+00 0.301D+00 0.503D+00
 Coeff:      0.196D+00 0.301D+00 0.503D+00
 Gap=     0.197 Goal=   None    Shift=    0.000
 RMSDP=1.95D-06 MaxDP=3.14D-05 DE=-2.00D-08 OVMax= 3.58D-05

 Cycle  13  Pass 1  IDiag  1:
 E= -323.304814727094     Delta-E=       -0.000000004445 Rises=F Damp=F
 DIIS: error= 3.06D-06 at cycle   4 NSaved=   4.
 NSaved= 4 IEnMin= 4 EnMin= -323.304814727094     IErMin= 4 ErrMin= 3.06D-06
 ErrMax= 3.06D-06  0.00D+00 EMaxC= 1.00D-01 BMatC= 9.05D-10 BMatP= 5.85D-09
 IDIUse=1 WtCom= 1.00D+00 WtEn= 0.00D+00
 Coeff-Com: -0.166D-01 0.102D+00 0.339D+00 0.576D+00
 Coeff:     -0.166D-01 0.102D+00 0.339D+00 0.576D+00
 Gap=     0.197 Goal=   None    Shift=    0.000
 RMSDP=5.54D-07 MaxDP=8.06D-06 DE=-4.44D-09 OVMax= 8.28D-06

 Cycle  14  Pass 1  IDiag  1:
 E= -323.304814727842     Delta-E=       -0.000000000747 Rises=F Damp=F
 DIIS: error= 7.90D-07 at cycle   5 NSaved=   5.
 NSaved= 5 IEnMin= 5 EnMin= -323.304814727842     IErMin= 5 ErrMin= 7.90D-07
 ErrMax= 7.90D-07  0.00D+00 EMaxC= 1.00D-01 BMatC= 5.94D-11 BMatP= 9.05D-10
 IDIUse=1 WtCom= 1.00D+00 WtEn= 0.00D+00
 Coeff-Com: -0.170D-01 0.521D-01 0.190D+00 0.358D+00 0.417D+00
 Coeff:     -0.170D-01 0.521D-01 0.190D+00 0.358D+00 0.417D+00
 Gap=     0.197 Goal=   None    Shift=    0.000
 RMSDP=1.28D-07 MaxDP=1.61D-06 DE=-7.47D-10 OVMax= 1.91D-06

 Cycle  15  Pass 1  IDiag  1:
 E= -323.304814727890     Delta-E=       -0.000000000048 Rises=F Damp=F
 DIIS: error= 1.85D-07 at cycle   6 NSaved=   6.
 NSaved= 6 IEnMin= 6 EnMin= -323.304814727890     IErMin= 6 ErrMin= 1.85D-07
 ErrMax= 1.85D-07  0.00D+00 EMaxC= 1.00D-01 BMatC= 1.29D-12 BMatP= 5.94D-11
 IDIUse=1 WtCom= 1.00D+00 WtEn= 0.00D+00
 Coeff-Com: -0.557D-02 0.136D-01 0.476D-01 0.102D+00 0.167D+00 0.675D+00
 Coeff:     -0.557D-02 0.136D-01 0.476D-01 0.102D+00 0.167D+00 0.675D+00
 Gap=     0.197 Goal=   None    Shift=    0.000
 RMSDP=2.55D-08 MaxDP=6.30D-07 DE=-4.80D-11 OVMax= 6.14D-07

 Cycle  16  Pass 1  IDiag  1:
 E= -323.304814727893     Delta-E=       -0.000000000004 Rises=F Damp=F
 DIIS: error= 5.70D-08 at cycle   7 NSaved=   7.
 NSaved= 7 IEnMin= 7 EnMin= -323.304814727893     IErMin= 7 ErrMin= 5.70D-08
 ErrMax= 5.70D-08  0.00D+00 EMaxC= 1.00D-01 BMatC= 3.99D-13 BMatP= 1.29D-12
 IDIUse=1 WtCom= 1.00D+00 WtEn= 0.00D+00
 Coeff-Com: -0.547D-03-0.859D-04-0.278D-02 0.426D-02 0.334D-01 0.410D+00
 Coeff-Com:  0.556D+00
 Coeff:     -0.547D-03-0.859D-04-0.278D-02 0.426D-02 0.334D-01 0.410D+00
 Coeff:      0.556D+00
 Gap=     0.197 Goal=   None    Shift=    0.000
 RMSDP=1.27D-08 MaxDP=2.07D-07 DE=-3.52D-12 OVMax= 2.56D-07

 Cycle  17  Pass 1  IDiag  1:
 E= -323.304814727892     Delta-E=        0.000000000001 Rises=F Damp=F
 DIIS: error= 1.78D-08 at cycle   8 NSaved=   8.
 NSaved= 8 IEnMin= 7 EnMin= -323.304814727893     IErMin= 8 ErrMin= 1.78D-08
 ErrMax= 1.78D-08  0.00D+00 EMaxC= 1.00D-01 BMatC= 2.36D-14 BMatP= 3.99D-13
 IDIUse=1 WtCom= 1.00D+00 WtEn= 0.00D+00
 Coeff-Com:  0.100D-03-0.879D-03-0.467D-02-0.434D-02 0.596D-02 0.147D+00
 Coeff-Com:  0.278D+00 0.579D+00
 Coeff:      0.100D-03-0.879D-03-0.467D-02-0.434D-02 0.596D-02 0.147D+00
 Coeff:      0.278D+00 0.579D+00
 Gap=     0.197 Goal=   None    Shift=    0.000
 RMSDP=2.59D-09 MaxDP=3.84D-08 DE= 1.14D-12 OVMax= 3.66D-08

 SCF Done:  E(RB3LYP) =  -323.304814728     A.U. after   17 cycles
            NFock= 17  Conv=0.26D-08     -V/T= 2.0033
 KE= 3.222417235743D+02 PE=-1.255627818810D+03 EE= 3.607783502389D+02
 Leave Link  502 at Wed Apr 13 08:54:22 2016, MaxMem=    33554432 cpu:        12.6
 (Enter /usr/local/gau/g09/l801.exe)
 DoSCS=F DFT=T ScalE2(SS,OS)=  1.000000  1.000000
 Range of M.O.s used for correlation:     1    68
 NBasis=    68 NAE=    24 NBE=    24 NFC=     0 NFV=     0
 NROrb=     68 NOA=    24 NOB=    24 NVA=    44 NVB=    44
 Leave Link  801 at Wed Apr 13 08:54:22 2016, MaxMem=    33554432 cpu:         0.0
 (Enter /usr/local/gau/g09/l1101.exe)
 Using compressed storage, NAtomX=    13.
 Will process     14 centers per pass.
 Leave Link 1101 at Wed Apr 13 08:54:22 2016, MaxMem=    33554432 cpu:         0.1
 (Enter /usr/local/gau/g09/l1102.exe)
 Symmetrizing basis deriv contribution to polar:
 IMax=3 JMax=2 DiffMx= 0.00D+00
 Leave Link 1102 at Wed Apr 13 08:54:22 2016, MaxMem=    33554432 cpu:         0.0
 (Enter /usr/local/gau/g09/l1110.exe)
 Forming Gx(P) for the SCF density, NAtomX=    13.
 Integral derivatives from FoFJK, PRISM(SPDF).
 Do as many integral derivatives as possible in FoFJK.
 G2DrvN: MDV=      33554224.
 G2DrvN: will do    14 centers at a time, making    1 passes.
 Calling FoFCou, ICntrl=  3107 FMM=F I1Cent=   0 AccDes= 0.00D+00.
 FoFJK:  IHMeth= 1 ICntrl=    3107 DoSepK=F KAlg= 0 I1Cent=   0 FoldK=F
 IRaf=         0 NMat=   1 IRICut=       1 DoRegI=T DoRafI=F ISym2E= 0.
 FoFCou: FMM=F IPFlag=           0 FMFlag=      100000 FMFlg1=           0
         NFxFlg=           0 DoJE=F BraDBF=F KetDBF=F FulRan=T
         wScrn=  0.000000 ICntrl=    3107 IOpCl=  0 I1Cent=           0 NGrid=           0
         NMat0=    1 NMatS0=      1 NMatT0=    0 NMatD0=    1 NMtDS0=    0 NMtDT0=    0
 Symmetry not used in FoFCou.
 End of G2Drv F.D. properties file   721 does not exist.
 End of G2Drv F.D. properties file   722 does not exist.
 End of G2Drv F.D. properties file   788 does not exist.
 Leave Link 1110 at Wed Apr 13 08:54:51 2016, MaxMem=    33554432 cpu:        25.3
 (Enter /usr/local/gau/g09/l1002.exe)
 Minotr:  Closed shell wavefunction.
          IDoAtm=1111111111111
          Direct CPHF calculation.
          Differentiating once with respect to nuclear coordinates.
          Requested convergence is 1.0D-08 RMS, and 1.0D-07 maximum.
          Secondary convergence is 1.0D-12 RMS, and 1.0D-12 maximum.
          NewPWx=T KeepS1=F KeepF1=F KeepIn=T MapXYZ=F SortEE=F KeepMc=T.
          MDV=      33554230 using IRadAn=       2.
 Generate precomputed XC quadrature information.
 Keep R1 ints in memory in canonical form, NReq=3645290.
 FoFCou: FMM=F IPFlag=           0 FMFlag=           0 FMFlg1=           0
         NFxFlg=           0 DoJE=F BraDBF=F KetDBF=F FulRan=T
         wScrn=  0.000000 ICntrl=     600 IOpCl=  0 I1Cent=           0 NGrid=           0
         NMat0=    1 NMatS0=   2346 NMatT0=    0 NMatD0=    1 NMtDS0=    0 NMtDT0=    0
 Symmetry not used in FoFCou.
          Solving linear equations simultaneously, MaxMat=       0.
          There are    42 degrees of freedom in the 1st order CPHF.  IDoFFX=6 NUNeed=     0.
     36 vectors produced by pass  0 Test12= 2.51D-15 2.38D-09 XBig12= 1.95D-01 1.62D-01.
 AX will form    36 AO Fock derivatives at one time.
     36 vectors produced by pass  1 Test12= 2.51D-15 2.38D-09 XBig12= 3.23D-02 3.32D-02.
     36 vectors produced by pass  2 Test12= 2.51D-15 2.38D-09 XBig12= 1.29D-04 1.97D-03.
     36 vectors produced by pass  3 Test12= 2.51D-15 2.38D-09 XBig12= 2.59D-07 8.44D-05.
     36 vectors produced by pass  4 Test12= 2.51D-15 2.38D-09 XBig12= 2.47D-10 2.19D-06.
     17 vectors produced by pass  5 Test12= 2.51D-15 2.38D-09 XBig12= 1.45D-13 5.17D-08.
 InvSVY:  IOpt=1 It=  1 EMax= 1.44D-15
 Solved reduced A of dimension   197 with    36 vectors.
 End of Minotr F.D. properties file   721 does not exist.
 End of Minotr F.D. properties file   722 does not exist.
 End of Minotr F.D. properties file   788 does not exist.
 Leave Link 1002 at Wed Apr 13 08:55:07 2016, MaxMem=    33554432 cpu:        15.0
 (Enter /usr/local/gau/g09/l601.exe)
 Copying SCF densities to generalized density rwf, IOpCl= 0 IROHF=0.

 **********************************************************************

            Population analysis using the SCF density.

 **********************************************************************

 Orbital symmetries:
       Occupied  (A) (A) (A) (A) (A) (A) (A) (A) (A) (A) (A) (A)
                 (A) (A) (A) (A) (A) (A) (A) (A) (A) (A) (A) (A)
       Virtual   (A) (A) (A) (A) (A) (A) (A) (A) (A) (A) (A) (A)
                 (A) (A) (A) (A) (A) (A) (A) (A) (A) (A) (A) (A)
                 (A) (A) (A) (A) (A) (A) (A) (A) (A) (A) (A) (A)
                 (A) (A) (A) (A) (A) (A) (A) (A)
 The electronic state is 1-A.
 Alpha  occ. eigenvalues --  -19.17942 -19.10556 -14.36201 -10.30843 -10.26334
 Alpha  occ. eigenvalues --  -10.21333  -1.10145  -1.04111  -0.92712  -0.82266
 Alpha  occ. eigenvalues --   -0.75412  -0.61600  -0.57742  -0.53631  -0.48645
 Alpha  occ. eigenvalues --   -0.46526  -0.43014  -0.41512  -0.39270  -0.36004
 Alpha  occ. eigenvalues --   -0.31993  -0.28100  -0.25695  -0.18708
 Alpha virt. eigenvalues --    0.00942   0.03258   0.06392   0.09432   0.11634
 Alpha virt. eigenvalues --    0.14398   0.16026   0.16583   0.19543   0.23018
 Alpha virt. eigenvalues --    0.30943   0.35213   0.43378   0.50688   0.52842
 Alpha virt. eigenvalues --    0.55079   0.61743   0.62103   0.64297   0.65579
 Alpha virt. eigenvalues --    0.73130   0.73989   0.75637   0.79080   0.82128
 Alpha virt. eigenvalues --    0.86188   0.88555   0.90393   0.92542   0.95008
 Alpha virt. eigenvalues --    0.96079   1.00213   1.01750   1.07388   1.11352
 Alpha virt. eigenvalues --    1.13148   1.16885   1.23015   1.28500   1.43094
 Alpha virt. eigenvalues --    1.46033   1.56748   1.94511   1.99239
          Condensed to atoms (all electrons):
               1          2          3          4          5          6
     1  N    7.197886   0.327845   0.228830   0.000031  -0.052626  -0.142028
     2  H    0.327845   0.366740  -0.021248   0.000002  -0.005209   0.006075
     3  C    0.228830  -0.021248   5.955833   0.003088   0.284322   0.237852
     4  H    0.000031   0.000002   0.003088   0.410299   0.000495  -0.030796
     5  C   -0.052626  -0.005209   0.284322   0.000495   5.093335   0.007536
     6  C   -0.142028   0.006075   0.237852  -0.030796   0.007536   5.233695
     7  H    0.001525   0.000784  -0.040337  -0.000076   0.368395  -0.002801
     8  H    0.003325   0.000023  -0.032872  -0.000429   0.373327  -0.002497
     9  H    0.001138   0.001752  -0.045897   0.000135   0.368939   0.000057
    10  O   -0.015038   0.000328  -0.201436   0.004520   0.002685   0.258509
    11  H    0.304765  -0.015933  -0.043546  -0.000003   0.003296  -0.007746
    12  O    0.001637   0.000009  -0.128515   0.235192  -0.009660   0.208991
    13  H   -0.050924   0.002885  -0.419781  -0.005275  -0.008426  -0.050698
               7          8          9         10         11         12
     1  N    0.001525   0.003325   0.001138  -0.015038   0.304765   0.001637
     2  H    0.000784   0.000023   0.001752   0.000328  -0.015933   0.000009
     3  C   -0.040337  -0.032872  -0.045897  -0.201436  -0.043546  -0.128515
     4  H   -0.000076  -0.000429   0.000135   0.004520  -0.000003   0.235192
     5  C    0.368395   0.373327   0.368939   0.002685   0.003296  -0.009660
     6  C   -0.002801  -0.002497   0.000057   0.258509  -0.007746   0.208991
     7  H    0.569213  -0.022269  -0.042989  -0.000042  -0.000072   0.000326
     8  H   -0.022269   0.501513  -0.023730   0.000150  -0.000181   0.010695
     9  H   -0.042989  -0.023730   0.585456   0.000005  -0.000004   0.000477
    10  O   -0.000042   0.000150   0.000005   8.373599   0.013199  -0.065775
    11  H   -0.000072  -0.000181  -0.000004   0.013199   0.345472   0.000177
    12  O    0.000326   0.010695   0.000477  -0.065775   0.000177   8.278353
    13  H    0.000346   0.000077  -0.001934   0.173053   0.028616   0.042247
              13
     1  N   -0.050924
     2  H    0.002885
     3  C   -0.419781
     4  H   -0.005275
     5  C   -0.008426
     6  C   -0.050698
     7  H    0.000346
     8  H    0.000077
     9  H   -0.001934
    10  O    0.173053
    11  H    0.028616
    12  O    0.042247
    13  H    1.054867
 Mulliken charges:
               1
     1  N   -0.806368
     2  H    0.335946
     3  C    0.223707
     4  H    0.382815
     5  C   -0.426409
     6  C    0.283851
     7  H    0.168000
     8  H    0.192867
     9  H    0.156595
    10  O   -0.543758
    11  H    0.371959
    12  O   -0.574154
    13  H    0.234948
 Sum of Mulliken charges =   0.00000
 Mulliken charges with hydrogens summed into heavy atoms:
               1
     1  N   -0.098463
     3  C    0.223707
     5  C    0.091053
     6  C    0.518799
    10  O   -0.543758
    12  O   -0.191339
 APT charges:
               1
     1  N   -1.326958
     2  H    0.755137
     3  C    0.269975
     4  H    0.669515
     5  C   -1.236766
     6  C   -0.041376
     7  H    0.462198
     8  H    0.384015
     9  H    0.452572
    10  O   -0.433524
    11  H    0.563165
    12  O   -0.715323
    13  H    0.197369
 Sum of APT charges =   0.00000
 APT charges with hydrogens summed into heavy atoms:
               1
     1  N   -0.008656
     3  C    0.269975
     5  C    0.062020
     6  C    0.155993
    10  O   -0.433524
    12  O   -0.045808
 Electronic spatial extent (au):  <R**2>=            598.1567
 Charge=              0.0000 electrons
 Dipole moment (field-independent basis, Debye):
    X=              4.2371    Y=              1.4276    Z=              1.9103  Tot=              4.8621
 Quadrupole moment (field-independent basis, Debye-Ang):
   XX=            -33.1121   YY=            -35.8026   ZZ=            -37.5150
   XY=             -6.3623   XZ=             -2.7960   YZ=              1.9496
 Traceless Quadrupole moment (field-independent basis, Debye-Ang):
   XX=              2.3645   YY=             -0.3261   ZZ=             -2.0384
   XY=             -6.3623   XZ=             -2.7960   YZ=              1.9496
 Octapole moment (field-independent basis, Debye-Ang**2):
  XXX=              7.2232  YYY=             -4.6025  ZZZ=              1.3874  XYY=              8.9420
  XXY=              6.7894  XXZ=              8.4496  XZZ=             -4.2870  YZZ=              2.4608
  YYZ=              3.8194  XYZ=             -5.9234
 Hexadecapole moment (field-independent basis, Debye-Ang**3):
 XXXX=           -342.7372 YYYY=           -265.8461 ZZZZ=            -42.5799 XXXY=            -42.8142
 XXXZ=            -13.6225 YYYX=            -25.1952 YYYZ=              3.0577 ZZZX=             -2.0601
 ZZZY=              0.8119 XXYY=           -107.7601 XXZZ=            -70.8642 YYZZ=            -56.8351
 XXYZ=              7.6962 YYXZ=             -5.0064 ZZXY=             -2.0372
 N-N= 2.493029302688D+02 E-N=-1.255627820455D+03  KE= 3.222417235743D+02
  Exact polarizability:   0.000   0.000   0.000   0.000   0.000   0.000
 Approx polarizability: 113.881   9.263  75.530  -2.521  -1.084  32.532
 No NMR shielding tensors so no spin-rotation constants.
 Leave Link  601 at Wed Apr 13 08:55:07 2016, MaxMem=    33554432 cpu:         0.1
 (Enter /usr/local/gau/g09/l701.exe)
 Compute integral second derivatives.
 ... and contract with generalized density number  0.
 Leave Link  701 at Wed Apr 13 08:55:08 2016, MaxMem=    33554432 cpu:         0.1
 (Enter /usr/local/gau/g09/l702.exe)
 L702 exits ... SP integral derivatives will be done elsewhere.
 Leave Link  702 at Wed Apr 13 08:55:08 2016, MaxMem=    33554432 cpu:         0.0
 (Enter /usr/local/gau/g09/l703.exe)
 Compute integral second derivatives, UseDBF=F ICtDFT=           0.
 Integral derivatives from FoFJK, PRISM(SPDF).
 Calling FoFJK, ICntrl=    100147 FMM=F ISym2X=0 I1Cent= 0 IOpClX= 0 NMat=1 NMatS=1 NMatT=0.
 FoFJK:  IHMeth= 1 ICntrl=  100147 DoSepK=F KAlg= 0 I1Cent=   0 FoldK=F
 IRaf=         0 NMat=   1 IRICut=       1 DoRegI=T DoRafI=F ISym2E= 0.
 FoFCou: FMM=F IPFlag=           0 FMFlag=      100000 FMFlg1=         800
         NFxFlg=           0 DoJE=F BraDBF=F KetDBF=F FulRan=T
         wScrn=  0.000000 ICntrl=  100147 IOpCl=  0 I1Cent=           0 NGrid=           0
         NMat0=    1 NMatS0=      1 NMatT0=    0 NMatD0=    1 NMtDS0=    0 NMtDT0=    0
 Symmetry not used in FoFCou.
 Leave Link  703 at Wed Apr 13 08:55:34 2016, MaxMem=    33554432 cpu:        21.7
 (Enter /usr/local/gau/g09/l716.exe)
 Dipole        = 1.66700488D+00 5.61660910D-01 7.51566298D-01
 Polarizability= 0.00000000D+00 0.00000000D+00 0.00000000D+00
                 0.00000000D+00 0.00000000D+00 0.00000000D+00
 ***** Axes restored to original set *****
 -------------------------------------------------------------------
 Center     Atomic                   Forces (Hartrees/Bohr)
 Number     Number              X              Y              Z
 -------------------------------------------------------------------
      1        7           0.039967262    0.034791980    0.001890829
      2        1          -0.000265000   -0.003376062    0.000589847
      3        6           0.151355615   -0.135158244    0.009519146
      4        1          -0.001302543    0.006020596    0.000648764
      5        6           0.002123970   -0.006053987    0.000649391
      6        6          -0.175638310   -0.095042351   -0.000017125
      7        1          -0.001484678    0.001100450    0.000643406
      8        1          -0.000540085    0.001198400    0.000116225
      9        1          -0.001640929    0.001389552   -0.000674706
     10        8           0.031749021   -0.037380167    0.005427434
     11        1           0.002199456    0.008618126    0.000313572
     12        8           0.017152787   -0.003876580    0.000706679
     13        1          -0.063676567    0.227768288   -0.019813462
 -------------------------------------------------------------------
 Cartesian Forces:  Max     0.227768288 RMS     0.060597868
 Force constants in Cartesian coordinates: 
                1             2             3             4             5 
      1  0.919372D+00
      2  0.526341D-02  0.741661D+00
      3 -0.127232D-01 -0.418163D-01 -0.262838D-02
      4 -0.476337D+00 -0.256928D-01  0.325164D-01  0.489599D+00
      5 -0.197744D-01 -0.692174D-01  0.578866D-02  0.289752D-01  0.695920D-01
      6  0.443673D-01  0.748765D-02  0.982912D-03 -0.366608D-01 -0.486384D-02
      7 -0.169734D+00 -0.860415D-01  0.282689D-02 -0.532844D-02 -0.423437D-01
      8 -0.117617D+00 -0.277930D+00  0.166176D-02  0.911566D-03 -0.424599D-02
      9 -0.367474D-02 -0.836402D-02 -0.178073D-01  0.168857D-02  0.236612D-02
     10 -0.109561D-03  0.202370D-02  0.227790D-02 -0.164694D-03 -0.372483D-03
     11  0.270250D-04 -0.349282D-03  0.130954D-02  0.267695D-03 -0.103176D-03
     12  0.123618D-02 -0.179916D-02 -0.601005D-03  0.322663D-03  0.392142D-03
     13  0.932724D-02 -0.166227D-01  0.252922D-03  0.182212D-02 -0.100956D-02
     14  0.240274D-01 -0.407121D-01  0.114232D-04  0.154712D-02  0.320856D-02
     15  0.122488D-02 -0.482915D-03  0.408458D-02 -0.854040D-04  0.323651D-03
     16 -0.322577D-01  0.110782D-01  0.438370D-02  0.212057D-03 -0.751911D-03
     17 -0.478658D-01 -0.115515D-01  0.104227D-02  0.635403D-02 -0.775275D-02
     18 -0.362419D-02  0.491677D-03 -0.735075D-02 -0.238074D-03  0.380737D-04
     19  0.202018D-02 -0.126130D-02  0.192507D-02  0.305799D-03  0.277026D-03
     20 -0.104077D-02  0.305808D-02 -0.212335D-02 -0.496229D-03 -0.608917D-03
     21  0.824519D-03  0.527324D-03  0.104752D-04 -0.285595D-03  0.822701D-03
     22 -0.316791D-02  0.319663D-02 -0.178701D-03 -0.298830D-03  0.258341D-03
     23  0.400398D-02 -0.273496D-02  0.198328D-03  0.494974D-03  0.332120D-03
     24  0.127351D-03 -0.124943D-03  0.125562D-02 -0.890776D-04 -0.240231D-04
     25  0.175149D-02 -0.129609D-02 -0.183436D-02  0.407828D-03  0.327882D-03
     26 -0.524051D-03  0.308681D-02  0.182079D-02 -0.683486D-03 -0.670801D-03
     27 -0.814278D-03 -0.485744D-03  0.581738D-04  0.257175D-03 -0.956015D-03
     28  0.870603D-03 -0.180072D-02  0.518368D-03 -0.278066D-03  0.182484D-02
     29 -0.485524D-02  0.207835D-01  0.210331D-02 -0.287543D-02  0.135093D-02
     30  0.756579D-03 -0.114990D-02 -0.879478D-03  0.870941D-05  0.170320D-03
     31 -0.194653D+00  0.182466D+00 -0.192923D-01 -0.896362D-02  0.279695D-01
     32  0.176962D+00 -0.339781D+00  0.327237D-01 -0.782364D-02  0.954847D-02
     33 -0.254308D-01  0.432993D-01 -0.108822D-01  0.317525D-02 -0.367147D-02
     34 -0.278878D-02 -0.375979D-02 -0.245071D-02  0.126989D-02 -0.948629D-03
     35 -0.190536D-02 -0.527195D-02 -0.274693D-02  0.155265D-03  0.256452D-03
     36 -0.157194D-02  0.264811D-02  0.945097D-02 -0.253538D-03 -0.811910D-03
     37 -0.542928D-01 -0.675530D-01 -0.822196D-02 -0.224666D-02  0.556793D-02
     38 -0.167010D-01 -0.210408D-01  0.267500D-04 -0.113429D-02 -0.168951D-02
     39 -0.697655D-03 -0.231063D-03  0.243064D-01 -0.356248D-03  0.425586D-03
                6             7             8             9            10 
      6  0.773074D-03
      7 -0.330903D-02  0.980592D+00
      8 -0.392046D-02 -0.236681D+00  0.722736D+00
      9 -0.465906D-02  0.273512D-01 -0.161639D-01 -0.391064D-01
     10  0.719469D-03 -0.162772D-02 -0.357955D-02  0.147944D-04  0.155464D+00
     11  0.715424D-03  0.185677D-02 -0.238161D-02  0.697762D-03  0.625450D-01
     12  0.201568D-03  0.358824D-02  0.347385D-02 -0.543445D-04  0.201533D+00
     13 -0.828498D-04 -0.113672D+00  0.671288D-01  0.117279D-02 -0.527021D-03
     14  0.233877D-03  0.479303D-01 -0.152490D+00 -0.100038D-02 -0.471537D-03
     15  0.421265D-02 -0.224753D-02  0.253852D-02 -0.455289D-01 -0.222465D-02
     16  0.628990D-03 -0.440464D+00 -0.264931D-01 -0.654891D-02 -0.167172D-01
     17  0.174228D-03 -0.372299D-01 -0.110206D+00 -0.271179D-02 -0.886019D-02
     18 -0.611367D-02 -0.465509D-02 -0.695133D-02 -0.629473D-01 -0.117931D-01
     19 -0.220967D-03 -0.193041D-01  0.585612D-02 -0.135846D-01 -0.199186D-03
     20  0.604669D-03  0.237964D-01 -0.715249D-02  0.201352D-01  0.249968D-03
     21 -0.717430D-03  0.313144D-04 -0.572175D-03  0.583012D-02  0.220790D-03
     22 -0.572224D-04  0.844424D-02  0.209767D-01 -0.126721D-03 -0.211231D-03
     23  0.244684D-04 -0.112984D-01 -0.232815D-01  0.782699D-04  0.472534D-04
     24 -0.831276D-03 -0.207448D-03 -0.100730D-03 -0.211612D-02 -0.511152D-03
     25  0.294940D-03 -0.187214D-01  0.484666D-02  0.130377D-01  0.188837D-03
     26 -0.350000D-03  0.225305D-01 -0.593063D-02 -0.197073D-01 -0.108501D-03
     27 -0.640106D-03 -0.202781D-04  0.422163D-03  0.552385D-02 -0.150465D-04
     28 -0.543320D-03 -0.299460D-01  0.476964D-01 -0.238394D-02 -0.365741D-03
     29  0.341604D-05  0.419524D-02 -0.149530D-01  0.100048D-02  0.202836D-02
     30  0.593509D-03 -0.508738D-03  0.298728D-02  0.366452D-02  0.488024D-03
     31 -0.471129D-02  0.104729D-01 -0.130797D-01  0.149929D-02  0.110710D-03
     32  0.101593D-03  0.140247D-01 -0.197679D-01  0.293109D-02 -0.138226D-03
     33  0.276185D-02  0.103212D-02 -0.162181D-02 -0.499942D-02 -0.449680D-03
     34 -0.510238D-03 -0.259228D-01 -0.341395D-01  0.205728D-02 -0.136632D+00
     35 -0.564898D-03 -0.140230D-01  0.238090D-02  0.103853D-02 -0.539182D-01
     36  0.355123D-02 -0.172562D-02 -0.299393D-02  0.125203D-01 -0.185235D+00
     37  0.850329D-04 -0.174788D+00  0.284173D+00 -0.205028D-01  0.789977D-03
     38  0.353865D-03  0.313283D+00 -0.106777D+00  0.197000D-01  0.554461D-03
     39 -0.115243D-03 -0.221561D-01  0.212407D-01  0.149680D+00 -0.502561D-02
               11            12            13            14            15 
     11  0.487433D-01
     12  0.492670D-01  0.306867D+00
     13  0.703162D-03  0.359532D-03  0.535884D+00
     14  0.213887D-03  0.385557D-03  0.656525D-01  0.536246D+00
     15 -0.192117D-02 -0.219763D-03  0.667133D-03 -0.408096D-04  0.530572D+00
     16 -0.348672D-01  0.775967D-02 -0.366515D-01  0.177917D-01 -0.130674D-02
     17 -0.180642D-01  0.131615D-01  0.315063D-01  0.856613D-02  0.625690D-03
     18 -0.262653D-01  0.496348D-02 -0.108700D-02  0.621277D-03  0.248579D-01
     19 -0.653867D-04  0.405658D-04 -0.131419D+00 -0.424498D-02 -0.120364D+00
     20  0.190091D-03 -0.211515D-03 -0.446722D-02 -0.482021D-01 -0.169497D-02
     21  0.101730D-03 -0.804173D-04 -0.119887D+00 -0.337126D-02 -0.220074D+00
     22 -0.202719D-03 -0.400996D-04 -0.130087D+00 -0.132006D+00 -0.610284D-03
     23  0.382680D-03 -0.584525D-04 -0.123427D+00 -0.245660D+00 -0.107914D-02
     24  0.368559D-03  0.847947D-04 -0.244747D-03 -0.604422D-03 -0.494742D-01
     25  0.328190D-03  0.215193D-03 -0.133073D+00 -0.590192D-02  0.120090D+00
     26 -0.310901D-03  0.132805D-04 -0.558914D-02 -0.490441D-01  0.319782D-02
     27  0.915860D-05  0.439206D-04  0.119123D+00  0.548696D-02 -0.215714D+00
     28  0.548616D-02  0.102309D-02  0.100866D-02 -0.778449D-02 -0.184387D-02
     29  0.105433D-02 -0.593520D-03 -0.449178D-02  0.413556D-02 -0.147548D-03
     30  0.285175D-02 -0.111380D-02  0.302541D-03 -0.584898D-03  0.919462D-02
     31 -0.383378D-03 -0.455345D-03 -0.192560D-02 -0.228969D-02  0.115527D-03
     32 -0.192372D-03 -0.487516D-04 -0.346423D-02 -0.255952D-02  0.520152D-04
     33 -0.150923D-03  0.131264D-03 -0.198928D-03 -0.581401D-03  0.151867D-04
     34 -0.341224D-01 -0.213967D+00  0.262351D-02 -0.200680D-02  0.200090D-02
     35 -0.331522D-01 -0.619703D-01  0.336405D-02 -0.519653D-02  0.155321D-02
     36 -0.223824D-01 -0.311390D+00 -0.549404D-03 -0.809602D-03 -0.102186D-01
     37 -0.157287D-02 -0.161571D-02 -0.331011D-02 -0.224342D-02  0.458398D-02
     38  0.396937D-02 -0.201161D-02 -0.928267D-02 -0.850569D-02 -0.292435D-02
     39 -0.460115D-02  0.116781D-02  0.171763D-03  0.253683D-03 -0.317081D-01
               16            17            18            19            20 
     16  0.766365D+00
     17  0.437846D+00  0.674713D+00
     18  0.182131D-01 -0.152893D-01 -0.588030D-01
     19  0.207127D-02  0.278006D-02  0.132170D-02  0.146564D+00
     20 -0.172888D-02 -0.375035D-02 -0.261597D-02 -0.164926D-02  0.518672D-01
     21  0.174720D-02 -0.516802D-03 -0.862977D-03  0.133118D+00  0.325842D-02
     22  0.193929D-02  0.903479D-03  0.213673D-03 -0.954976D-02 -0.156612D-01
     23 -0.303372D-02 -0.139940D-02  0.191762D-03  0.480296D-03  0.856495D-03
     24  0.564128D-04  0.182396D-04  0.274288D-03 -0.156029D-01 -0.247518D-01
     25  0.216069D-02  0.229794D-02 -0.106666D-02  0.112791D-01  0.177553D-03
     26 -0.185234D-02 -0.340517D-02  0.235592D-02 -0.127992D-03  0.776262D-03
     27 -0.155416D-02  0.630205D-03 -0.122306D-02  0.172745D-01  0.212824D-02
     28 -0.102565D+00  0.857061D-01 -0.564696D-02 -0.185676D-02  0.195786D-02
     29  0.108669D-01 -0.117439D+00  0.634467D-02  0.110203D-02 -0.496058D-03
     30 -0.265470D-02  0.589673D-02 -0.539234D-01  0.120180D-02 -0.154805D-02
     31  0.557794D-02 -0.392555D-02  0.814375D-03 -0.237915D-03  0.153723D-03
     32  0.308516D-02 -0.271062D-02  0.101506D-02 -0.668239D-04  0.163181D-03
     33 -0.145959D-02 -0.104133D-03  0.118306D-02 -0.241270D-04 -0.185299D-03
     34 -0.102500D+00 -0.908695D-01 -0.202055D-04 -0.361845D-03 -0.270184D-03
     35 -0.679446D-01 -0.183614D+00  0.260930D-01 -0.484095D-03  0.103937D-02
     36 -0.254063D-01 -0.133989D-01 -0.288301D-01 -0.102511D-02  0.183233D-02
     37 -0.471705D-01 -0.378643D+00  0.756841D-02  0.688093D-03 -0.102178D-02
     38 -0.343996D+00 -0.223386D+00  0.139705D-01 -0.259568D-02  0.225925D-02
     39  0.614137D-02  0.104721D-01  0.188775D+00 -0.405950D-02  0.517211D-02
               21            22            23            24            25 
     21  0.238797D+00
     22  0.142418D-02  0.141950D+00
     23  0.824033D-03  0.135692D+00  0.270389D+00
     24  0.380887D-03  0.974013D-03  0.877607D-03  0.497872D-01
     25 -0.165840D-01 -0.940999D-02  0.621215D-03  0.153803D-01  0.148359D+00
     26 -0.167550D-02 -0.152236D-01  0.990497D-03  0.245777D-01  0.350341D-04
     27 -0.239598D-01 -0.165461D-02 -0.760089D-03  0.587414D-03 -0.133052D+00
     28  0.186217D-03 -0.108401D-03  0.335643D-03  0.438489D-04 -0.132038D-02
     29  0.720260D-03 -0.121590D-03  0.122321D-03  0.617606D-05  0.116635D-02
     30 -0.323409D-03 -0.138556D-04  0.187072D-04 -0.115769D-03 -0.144100D-02
     31  0.159361D-04  0.617146D-03 -0.637245D-03 -0.453539D-04 -0.227176D-03
     32  0.956308D-04  0.999735D-03 -0.558126D-03  0.150302D-04 -0.342150D-04
     33  0.731487D-04  0.577356D-04 -0.178110D-03  0.755849D-03 -0.530215D-04
     34 -0.167328D-03 -0.170171D-02 -0.128002D-02  0.104249D-03 -0.101526D-02
     35 -0.229758D-03 -0.787533D-03  0.233764D-02 -0.320586D-03 -0.662301D-03
     36  0.375598D-03 -0.222018D-03  0.124022D-03 -0.642030D-03  0.929517D-03
     37 -0.644171D-03  0.158403D-02 -0.199864D-02  0.144429D-04 -0.379858D-03
     38  0.153997D-04  0.197570D-02 -0.177694D-02  0.632000D-04 -0.190630D-02
     39  0.550727D-03  0.233902D-03 -0.261400D-03  0.533361D-04  0.408322D-02
               26            27            28            29            30 
     26  0.520527D-01
     27 -0.561100D-02  0.234418D+00
     28  0.140259D-02 -0.378066D-04  0.161089D+00
     29 -0.565190D-03 -0.816892D-03 -0.878296D-01  0.170632D+00
     30  0.175327D-02 -0.284745D-03  0.668462D-02 -0.128229D-01  0.367562D-01
     31  0.225464D-03 -0.297389D-04 -0.304588D-02  0.762398D-02 -0.305251D-03
     32  0.173383D-03 -0.849819D-04  0.340246D-02  0.276341D-02 -0.888036D-04
     33  0.158152D-03  0.882707D-04  0.657586D-03 -0.107238D-02 -0.386383D-02
     34 -0.551029D-03 -0.587551D-05  0.188070D-01  0.119765D-01  0.251771D-03
     35  0.145276D-02  0.137965D-04 -0.144201D-01 -0.439499D-01  0.443963D-02
     36 -0.138736D-02  0.251746D-03  0.173088D-02  0.660306D-02  0.986396D-02
     37  0.466495D-03  0.529184D-03 -0.422893D-01  0.612143D-01 -0.477049D-02
     38  0.139439D-02  0.242055D-04 -0.359770D-01 -0.234389D-01 -0.192309D-02
     39 -0.514575D-02  0.850476D-03 -0.388725D-03 -0.132808D-02  0.431580D-03
               31            32            33            34            35 
     31  0.191137D+00
     32 -0.182014D+00  0.370110D+00
     33  0.221509D-01 -0.368158D-01  0.312271D-02
     34 -0.117766D-02  0.349766D-04  0.576503D-03  0.261170D+00
     35  0.817066D-03  0.102691D-02  0.620964D-03  0.143049D+00  0.272118D+00
     36  0.745693D-04 -0.351535D-03 -0.552238D-03  0.209760D+00  0.274939D-01
     37  0.231575D-02 -0.496700D-02 -0.339416D-04 -0.117711D-01  0.676003D-02
     38 -0.169257D-01 -0.182161D-01  0.302911D-03  0.128876D-01 -0.942823D-02
     39  0.168691D-03  0.455687D-03  0.121664D-01  0.237160D-02  0.457947D-02
               36            37            38            39 
     36  0.347347D+00
     37  0.349471D-02  0.330871D+00
     38  0.343421D-02  0.998179D-01  0.406636D+00
     39 -0.317277D-01  0.195133D-01 -0.310319D-01 -0.314431D+00
 FormGI is forming the generalized inverse of G from B-inverse, IUseBI=4.
 Leave Link  716 at Wed Apr 13 08:55:34 2016, MaxMem=    33554432 cpu:         0.0
 (Enter /usr/local/gau/g09/l103.exe)

 GradGradGradGradGradGradGradGradGradGradGradGradGradGradGradGradGradGrad
 Berny optimization.
 Red2BG is reusing G-inverse.
 Internal  Forces:  Max     0.162802679 RMS     0.033799165
 Search for a saddle point.
 Step number   1 out of a maximum of   63
 All quantities printed in internal units (Hartrees-Bohrs-Radians)
 Swapping is turned off.
 Second derivative matrix not updated -- analytic derivatives used.
 ITU=  0
     Eigenvalues ---   -0.17502  -0.00416   0.00024   0.00204   0.00332
     Eigenvalues ---    0.01256   0.01654   0.02074   0.03719   0.06352
     Eigenvalues ---    0.06388   0.09144   0.11560   0.12581   0.13543
     Eigenvalues ---    0.14913   0.16003   0.16191   0.17496   0.20866
     Eigenvalues ---    0.26100   0.31344   0.32573   0.33031   0.34092
     Eigenvalues ---    0.35771   0.38705   0.43044   0.46282   0.48339
     Eigenvalues ---    0.49590   0.54674   0.57985
 Eigenvectors required to have negative eigenvalues:
                          A22       A21       D6        D3        D2
   1                    0.53964  -0.49076   0.40155   0.36324  -0.23718
                          D5        D1        D15       D14       D4
   1                   -0.19888  -0.12752  -0.12136   0.09126  -0.08921
 Eigenvalue     2 is  -4.16D-03 should be greater than     0.000000 Eigenvector:
                          D1        D3        D2        D4        D6
   1                    0.47673   0.45074   0.44537   0.35605   0.33007
                          D5        D18       D14       A22       D16
   1                    0.32469   0.09287   0.08554  -0.07595   0.05217
 RFO step:  Lambda0=3.966022591D-04 Lambda=-1.21892117D-01.
 Linear search not attempted -- option 19 set.
 Maximum step size (   0.300) exceeded in Quadratic search.
    -- Step size scaled by   0.542
 Iteration  1 RMS(Cart)=  0.07473184 RMS(Int)=  0.00490133
 Iteration  2 RMS(Cart)=  0.00584484 RMS(Int)=  0.00123147
 Iteration  3 RMS(Cart)=  0.00003106 RMS(Int)=  0.00123116
 Iteration  4 RMS(Cart)=  0.00000001 RMS(Int)=  0.00123116
 ITry= 1 IFail=0 DXMaxC= 2.47D-01 DCOld= 1.00D+10 DXMaxT= 3.00D-01 DXLimC= 3.00D+00 Rises=F
 Variable       Old X    -DE/DX   Delta X   Delta X   Delta X     New X
                                 (Linear)    (Quad)   (Total)
    R1        1.89636  -0.00057   0.00000  -0.00053  -0.00053   1.89583
    R2        2.63279   0.05451   0.00000   0.03566   0.03566   2.66845
    R3        1.89992   0.00584   0.00000   0.00154   0.00154   1.90145
    R4        2.84087   0.00095   0.00000   0.00733   0.00733   2.84819
    R5        2.54221   0.07190   0.00000   0.02080   0.01752   2.55973
    R6        1.92449   0.16280   0.00000   0.19883   0.20047   2.12496
    R7        1.85600  -0.00080   0.00000   0.00004   0.00004   1.85603
    R8        2.07561  -0.00036   0.00000   0.00114   0.00114   2.07675
    R9        2.06050  -0.00073   0.00000  -0.00131  -0.00131   2.05919
   R10        2.07718  -0.00042   0.00000  -0.00067  -0.00067   2.07651
   R11        2.73555  -0.04889   0.00000  -0.06049  -0.06049   2.67506
   R12        2.64885  -0.00956   0.00000  -0.00909  -0.00909   2.63976
   R13        1.89301   0.12934   0.00000   0.13294   0.13536   2.02838
    A1        2.10258  -0.00832   0.00000  -0.02060  -0.02098   2.08160
    A2        2.07788  -0.00212   0.00000  -0.00710  -0.00748   2.07040
    A3        2.08053   0.01067   0.00000   0.03759   0.03722   2.11775
    A4        2.03345  -0.01611   0.00000  -0.02804  -0.02806   2.00539
    A5        2.10966   0.04398   0.00000   0.05785   0.05474   2.16440
    A6        1.27803   0.01105   0.00000   0.00650   0.00960   1.28763
    A7        2.14004  -0.02789   0.00000  -0.02972  -0.02665   2.11339
    A8        1.93153  -0.00174   0.00000   0.00042   0.00041   1.93194
    A9        1.93081  -0.00087   0.00000  -0.00373  -0.00373   1.92708
   A10        1.93804  -0.00228   0.00000  -0.00310  -0.00310   1.93494
   A11        1.88943   0.00119   0.00000  -0.00180  -0.00180   1.88763
   A12        1.87473   0.00250   0.00000   0.00320   0.00321   1.87794
   A13        1.89759   0.00144   0.00000   0.00531   0.00531   1.90290
   A14        2.05881   0.02336   0.00000  -0.01580  -0.01827   2.04053
   A15        2.16418  -0.03475   0.00000  -0.01801  -0.01582   2.14836
   A16        2.06019   0.01140   0.00000   0.03372   0.03362   2.09381
   A17        1.20851  -0.02998   0.00000  -0.10540  -0.10302   1.10549
   A18        1.93088  -0.00842   0.00000  -0.00623  -0.00623   1.92464
   A19        3.31148  -0.00506   0.00000  -0.02154  -0.01846   3.29302
   A20        3.26870  -0.01858   0.00000  -0.07168  -0.06940   3.19930
   A21        3.10325  -0.00479   0.00000   0.00163   0.00157   3.10482
   A22        3.10142   0.00272   0.00000   0.01230   0.01242   3.11384
    D1        0.10954  -0.00143   0.00000  -0.18977  -0.18990  -0.08036
    D2       -3.04060  -0.00359   0.00000  -0.17875  -0.17861   3.06398
    D3       -2.99371   0.00335   0.00000  -0.19140  -0.19147   3.09801
    D4        3.02427  -0.00053   0.00000  -0.14074  -0.14083   2.88343
    D5       -0.12587  -0.00269   0.00000  -0.12972  -0.12954  -0.25541
    D6       -0.07898   0.00426   0.00000  -0.14237  -0.14240  -0.22138
    D7        1.03078  -0.00069   0.00000   0.00301   0.00285   1.03363
    D8        3.12490  -0.00092   0.00000  -0.00140  -0.00156   3.12333
    D9       -1.04963  -0.00121   0.00000   0.00073   0.00057  -1.04906
   D10       -2.10210   0.00112   0.00000  -0.00868  -0.00852  -2.11062
   D11       -0.00799   0.00090   0.00000  -0.01309  -0.01293  -0.02092
   D12        2.10067   0.00061   0.00000  -0.01096  -0.01080   2.08988
   D13        0.11445  -0.00123   0.00000  -0.00503  -0.00537   0.10907
   D14       -3.03040   0.00066   0.00000  -0.03551  -0.03548  -3.06588
   D15       -3.03622  -0.00344   0.00000   0.00672   0.00662  -3.02961
   D16        0.10211  -0.00154   0.00000  -0.02376  -0.02349   0.07862
   D17       -2.06781  -0.00455   0.00000  -0.01532  -0.01507  -2.08287
   D18        1.07053  -0.00263   0.00000  -0.04591  -0.04615   1.02438
         Item               Value     Threshold  Converged?
 Maximum Force            0.162803     0.000450     NO 
 RMS     Force            0.033799     0.000300     NO 
 Maximum Displacement     0.247021     0.001800     NO 
 RMS     Displacement     0.072665     0.001200     NO 
 Predicted change in Energy=-5.396761D-02
 Lowest energy point so far.  Saving SCF results.
 GradGradGradGradGradGradGradGradGradGradGradGradGradGradGradGradGradGrad

 Leave Link  103 at Wed Apr 13 08:55:34 2016, MaxMem=    33554432 cpu:         0.0
 (Enter /usr/local/gau/g09/l202.exe)
                          Input orientation:                          
 ---------------------------------------------------------------------
 Center     Atomic      Atomic             Coordinates (Angstroms)
 Number     Number       Type             X           Y           Z
 ---------------------------------------------------------------------
      1          7           0        1.122433    1.270735    0.122697
      2          1           0        2.123575    1.293502    0.183265
      3          6           0        0.459562    0.023941    0.113549
      4          1           0       -2.079584   -1.508286   -0.594145
      5          6           0        1.368686   -1.177953    0.089291
      6          6           0       -0.887496   -0.118062    0.122101
      7          1           0        2.031283   -1.181414    0.966038
      8          1           0        0.783782   -2.097253    0.102151
      9          1           0        2.004000   -1.170061   -0.807237
     10          8           0       -1.657194    1.064082    0.003906
     11          1           0        0.632261    2.125528   -0.081049
     12          8           0       -1.523056   -1.359481    0.201336
     13          1           0       -0.345989    0.808208    0.091790
 ---------------------------------------------------------------------
                    Distance matrix (angstroms):
                    1          2          3          4          5
     1  N    0.000000
     2  H    1.003231   0.000000
     3  C    1.412082   2.094179   0.000000
     4  H    4.299969   5.110864   3.048904   0.000000
     5  C    2.461266   2.585881   1.507198   3.530832   0.000000
     6  C    2.443066   3.326079   1.354549   1.966420   2.492951
     7  H    2.747775   2.597395   2.156368   4.409109   1.098968
     8  H    3.385033   3.646759   2.145860   3.005092   1.089675
     9  H    2.756705   2.657919   2.158420   4.103104   1.098839
    10  O    2.789828   3.791968   2.361053   2.674539   3.766957
    11  H    1.006207   1.728047   2.117631   4.563111   3.388853
    12  O    3.731330   4.509608   2.419160   0.982170   2.899600
    13  H    1.539853   2.518457   1.124482   2.973551   2.623919
                    6          7          8          9         10
     6  C    0.000000
     7  H    3.219040   0.000000
     8  H    2.590514   1.772377   0.000000
     9  H    3.214206   1.773521   1.782023   0.000000
    10  O    1.415581   4.424117   3.995254   4.365053   0.000000
    11  H    2.717467   3.740256   4.229468   3.642790   2.524973
    12  O    1.396902   3.640028   2.423974   3.673312   2.435288
    13  H    1.073371   3.220920   3.117402   3.200663   1.338826
                   11         12         13
    11  H    0.000000
    12  O    4.107361   0.000000
    13  H    1.649902   2.469081   0.000000
 Stoichiometry    C3H7NO2
 Framework group  C1[X(C3H7NO2)]
 Deg. of freedom    33
 Full point group                 C1      NOp   1
 RotChk:  IX=0 Diff= 9.87D-02
 Largest Abelian subgroup         C1      NOp   1
 Largest concise Abelian subgroup C1      NOp   1
                         Standard orientation:                         
 ---------------------------------------------------------------------
 Center     Atomic      Atomic             Coordinates (Angstroms)
 Number     Number       Type             X           Y           Z
 ---------------------------------------------------------------------
      1          7           0        1.443764   -1.131898   -0.031822
      2          1           0        2.438449   -1.008369   -0.074432
      3          6           0        0.607011    0.005426   -0.014104
      4          1           0       -2.138308    1.140243    0.672359
      5          6           0        1.331710    1.325561    0.046733
      6          6           0       -0.746098   -0.048891   -0.044940
      7          1           0        2.000477    1.441609   -0.817567
      8          1           0        0.619932    2.150603    0.038438
      9          1           0        1.947299    1.392599    0.954479
     10          8           0       -1.337963   -1.332025    0.039511
     11          1           0        1.079615   -2.052364    0.148704
     12          8           0       -1.553666    1.088754   -0.115168
     13          1           0       -0.076516   -0.887443   -0.020109
 ---------------------------------------------------------------------
 Rotational constants (GHZ):      4.8227821      3.3507533      2.0142529
 Leave Link  202 at Wed Apr 13 08:55:34 2016, MaxMem=    33554432 cpu:         0.0
 (Enter /usr/local/gau/g09/l301.exe)
 Standard basis: 6-31G (6D, 7F)
 Ernie: Thresh=  0.10000D-02 Tol=  0.10000D-05 Strict=F.
 There are    68 symmetry adapted cartesian basis functions of A   symmetry.
 There are    68 symmetry adapted basis functions of A   symmetry.
    68 basis functions,   160 primitive gaussians,    68 cartesian basis functions
    24 alpha electrons       24 beta electrons
       nuclear repulsion energy       248.7564772480 Hartrees.
 IExCor=  402 DFT=T Ex+Corr=B3LYP ExCW=0 ScaHFX=  0.200000
 ScaDFX=  0.800000  0.720000  1.000000  0.810000 ScalE2=  1.000000  1.000000
 IRadAn=      0 IRanWt=     -1 IRanGd=            0 ICorTp=0 IEmpDi=  4
 NAtoms=   13 NActive=   13 NUniq=   13 SFac= 1.00D+00 NAtFMM=   60 NAOKFM=F Big=F
 Integral buffers will be    131072 words long.
 Raffenetti 2 integral format.
 Two-electron integral symmetry is turned on.
 Leave Link  301 at Wed Apr 13 08:55:34 2016, MaxMem=    33554432 cpu:         0.0
 (Enter /usr/local/gau/g09/l302.exe)
 NPDir=0 NMtPBC=     1 NCelOv=     1 NCel=       1 NClECP=     1 NCelD=      1
         NCelK=      1 NCelE2=     1 NClLst=     1 CellRange=     0.0.
 One-electron integrals computed using PRISM.
 NBasis=    68 RedAO= T EigKep=  3.16D-03  NBF=    68
 NBsUse=    68 1.00D-06 EigRej= -1.00D+00 NBFU=    68
 Precomputing XC quadrature grid using
 IXCGrd= 4 IRadAn=           0 IRanWt=          -1 IRanGd=           0 AccXCQ= 0.00D+00.
 Generated NRdTot=       0 NPtTot=           0 NUsed=           0 NTot=          32
 NSgBfM=    68    68    68    68    68 MxSgAt=    13 MxSgA2=    13.
 Leave Link  302 at Wed Apr 13 08:55:34 2016, MaxMem=    33554432 cpu:         0.2
 (Enter /usr/local/gau/g09/l303.exe)
 DipDrv:  MaxL=1.
 Leave Link  303 at Wed Apr 13 08:55:34 2016, MaxMem=    33554432 cpu:         0.0
 (Enter /usr/local/gau/g09/l401.exe)
 Initial guess from the checkpoint file:  "Ala-S-opt-freq-tsa3-6-31g.chk"
 B after Tr=     0.000000    0.000000    0.000000
         Rot=    0.999558   -0.000094    0.000539   -0.029717 Ang=  -3.41 deg.
 Guess basis will be translated and rotated to current coordinates.
 JPrj=2 DoOrth=T DoCkMO=T.
 Generating alternative initial guess.
 ExpMin= 1.61D-01 ExpMax= 5.48D+03 ExpMxC= 8.25D+02 IAcc=1 IRadAn=         1 AccDes= 0.00D+00
 Harris functional with IExCor=  402 and IRadAn=       1 diagonalized for initial guess.
 HarFok:  IExCor=  402 AccDes= 0.00D+00 IRadAn=         1 IDoV= 1 UseB2=F ITyADJ=14
 ICtDFT=  3500011 ScaDFX=  1.000000  1.000000  1.000000  1.000000
 FoFCou: FMM=F IPFlag=           0 FMFlag=      100000 FMFlg1=           0
         NFxFlg=           0 DoJE=T BraDBF=F KetDBF=T FulRan=T
         wScrn=  0.000000 ICntrl=     500 IOpCl=  0 I1Cent=   200000004 NGrid=           0
         NMat0=    1 NMatS0=      1 NMatT0=    0 NMatD0=    1 NMtDS0=    0 NMtDT0=    0
 Petite list used in FoFCou.
 Harris En= -323.407785930137    
 Leave Link  401 at Wed Apr 13 08:55:35 2016, MaxMem=    33554432 cpu:         0.5
 (Enter /usr/local/gau/g09/l502.exe)
 Closed shell SCF:
 Using DIIS extrapolation, IDIIS=  1040.
 Integral symmetry usage will be decided dynamically.
 Keep R1 ints in memory in canonical form, NReq=3676491.
 IVT=       33364 IEndB=       33364 NGot=    33554432 MDV=    30768038
 LenX=    30768038 LenY=    30762973
 Requested convergence on RMS density matrix=1.00D-08 within 128 cycles.
 Requested convergence on MAX density matrix=1.00D-06.
 Requested convergence on             energy=1.00D-06.
 No special actions if energy rises.
 FoFCou: FMM=F IPFlag=           0 FMFlag=           0 FMFlg1=           0
         NFxFlg=           0 DoJE=F BraDBF=F KetDBF=F FulRan=T
         wScrn=  0.000000 ICntrl=     600 IOpCl=  0 I1Cent=           0 NGrid=           0
         NMat0=    1 NMatS0=   2346 NMatT0=    0 NMatD0=    1 NMtDS0=    0 NMtDT0=    0
 Symmetry not used in FoFCou.
 Integral accuracy reduced to 1.0D-05 until final iterations.

 Cycle   1  Pass 0  IDiag  1:
 E= -323.345731274540    
 DIIS: error= 7.22D-03 at cycle   1 NSaved=   1.
 NSaved= 1 IEnMin= 1 EnMin= -323.345731274540     IErMin= 1 ErrMin= 7.22D-03
 ErrMax= 7.22D-03  0.00D+00 EMaxC= 1.00D-01 BMatC= 1.03D-02 BMatP= 1.03D-02
 IDIUse=3 WtCom= 9.28D-01 WtEn= 7.22D-02
 Coeff-Com:  0.100D+01
 Coeff-En:   0.100D+01
 Coeff:      0.100D+01
 Gap=     0.651 Goal=   None    Shift=    0.000
 GapD=    0.651 DampG=2.000 DampE=1.000 DampFc=2.0000 IDamp=-1.
 RMSDP=4.91D-03 MaxDP=1.03D-01              OVMax= 3.81D-02

 Cycle   2  Pass 0  IDiag  1:
 E= -323.353293342515     Delta-E=       -0.007562067975 Rises=F Damp=F
 DIIS: error= 1.12D-02 at cycle   2 NSaved=   2.
 NSaved= 2 IEnMin= 2 EnMin= -323.353293342515     IErMin= 1 ErrMin= 7.22D-03
 ErrMax= 1.12D-02  0.00D+00 EMaxC= 1.00D-01 BMatC= 8.80D-03 BMatP= 1.03D-02
 IDIUse=3 WtCom= 8.88D-01 WtEn= 1.12D-01
 Coeff-Com:  0.471D+00 0.529D+00
 Coeff-En:   0.112D+00 0.888D+00
 Coeff:      0.431D+00 0.569D+00
 Gap=     0.203 Goal=   None    Shift=    0.000
 RMSDP=3.48D-03 MaxDP=5.75D-02 DE=-7.56D-03 OVMax= 6.63D-02

 Cycle   3  Pass 0  IDiag  1:
 E= -323.352125681423     Delta-E=        0.001167661092 Rises=F Damp=F
 DIIS: error= 1.38D-02 at cycle   3 NSaved=   3.
 NSaved= 3 IEnMin= 2 EnMin= -323.353293342515     IErMin= 1 ErrMin= 7.22D-03
 ErrMax= 1.38D-02  0.00D+00 EMaxC= 1.00D-01 BMatC= 1.00D-02 BMatP= 8.80D-03
 IDIUse=2 WtCom= 0.00D+00 WtEn= 1.00D+00
 Coeff-En:   0.000D+00 0.525D+00 0.475D+00
 Coeff:      0.000D+00 0.525D+00 0.475D+00
 Gap=     0.206 Goal=   None    Shift=    0.000
 RMSDP=1.94D-03 MaxDP=2.68D-02 DE= 1.17D-03 OVMax= 3.82D-02

 Cycle   4  Pass 0  IDiag  1:
 E= -323.360765554381     Delta-E=       -0.008639872958 Rises=F Damp=F
 DIIS: error= 9.67D-04 at cycle   4 NSaved=   4.
 NSaved= 4 IEnMin= 4 EnMin= -323.360765554381     IErMin= 4 ErrMin= 9.67D-04
 ErrMax= 9.67D-04  0.00D+00 EMaxC= 1.00D-01 BMatC= 1.10D-04 BMatP= 8.80D-03
 IDIUse=3 WtCom= 9.90D-01 WtEn= 9.67D-03
 Coeff-Com: -0.170D-01 0.262D+00 0.252D+00 0.503D+00
 Coeff-En:   0.000D+00 0.000D+00 0.000D+00 0.100D+01
 Coeff:     -0.168D-01 0.260D+00 0.250D+00 0.508D+00
 Gap=     0.204 Goal=   None    Shift=    0.000
 RMSDP=2.14D-04 MaxDP=2.00D-03 DE=-8.64D-03 OVMax= 2.34D-03

 Cycle   5  Pass 0  IDiag  1:
 E= -323.360867510829     Delta-E=       -0.000101956449 Rises=F Damp=F
 DIIS: error= 3.47D-04 at cycle   5 NSaved=   5.
 NSaved= 5 IEnMin= 5 EnMin= -323.360867510829     IErMin= 5 ErrMin= 3.47D-04
 ErrMax= 3.47D-04  0.00D+00 EMaxC= 1.00D-01 BMatC= 9.77D-06 BMatP= 1.10D-04
 IDIUse=3 WtCom= 9.97D-01 WtEn= 3.47D-03
 Coeff-Com: -0.757D-02 0.635D-01 0.681D-01 0.247D+00 0.628D+00
 Coeff-En:   0.000D+00 0.000D+00 0.000D+00 0.000D+00 0.100D+01
 Coeff:     -0.754D-02 0.633D-01 0.679D-01 0.247D+00 0.630D+00
 Gap=     0.204 Goal=   None    Shift=    0.000
 RMSDP=6.08D-05 MaxDP=8.59D-04 DE=-1.02D-04 OVMax= 5.58D-04

 Cycle   6  Pass 0  IDiag  1:
 E= -323.360875023109     Delta-E=       -0.000007512279 Rises=F Damp=F
 DIIS: error= 7.74D-05 at cycle   6 NSaved=   6.
 NSaved= 6 IEnMin= 6 EnMin= -323.360875023109     IErMin= 6 ErrMin= 7.74D-05
 ErrMax= 7.74D-05  0.00D+00 EMaxC= 1.00D-01 BMatC= 7.26D-07 BMatP= 9.77D-06
 IDIUse=1 WtCom= 1.00D+00 WtEn= 0.00D+00
 Coeff-Com: -0.229D-02 0.109D-01 0.134D-01 0.843D-01 0.295D+00 0.598D+00
 Coeff:     -0.229D-02 0.109D-01 0.134D-01 0.843D-01 0.295D+00 0.598D+00
 Gap=     0.204 Goal=   None    Shift=    0.000
 RMSDP=1.51D-05 MaxDP=1.56D-04 DE=-7.51D-06 OVMax= 1.52D-04

 Cycle   7  Pass 0  IDiag  1:
 E= -323.360875650186     Delta-E=       -0.000000627077 Rises=F Damp=F
 DIIS: error= 2.60D-05 at cycle   7 NSaved=   7.
 NSaved= 7 IEnMin= 7 EnMin= -323.360875650186     IErMin= 7 ErrMin= 2.60D-05
 ErrMax= 2.60D-05  0.00D+00 EMaxC= 1.00D-01 BMatC= 4.74D-08 BMatP= 7.26D-07
 IDIUse=1 WtCom= 1.00D+00 WtEn= 0.00D+00
 Coeff-Com:  0.109D-04-0.236D-02-0.307D-02 0.547D-02 0.291D-01 0.191D+00
 Coeff-Com:  0.780D+00
 Coeff:      0.109D-04-0.236D-02-0.307D-02 0.547D-02 0.291D-01 0.191D+00
 Coeff:      0.780D+00
 Gap=     0.204 Goal=   None    Shift=    0.000
 RMSDP=5.90D-06 MaxDP=7.94D-05 DE=-6.27D-07 OVMax= 1.23D-04

 Initial convergence to 1.0D-05 achieved.  Increase integral accuracy.
 Cycle   8  Pass 1  IDiag  1:
 E= -323.360937060476     Delta-E=       -0.000061410290 Rises=F Damp=F
 DIIS: error= 1.25D-05 at cycle   1 NSaved=   1.
 NSaved= 1 IEnMin= 1 EnMin= -323.360937060476     IErMin= 1 ErrMin= 1.25D-05
 ErrMax= 1.25D-05  0.00D+00 EMaxC= 1.00D-01 BMatC= 1.46D-08 BMatP= 1.46D-08
 IDIUse=1 WtCom= 1.00D+00 WtEn= 0.00D+00
 Coeff-Com:  0.100D+01
 Coeff:      0.100D+01
 Gap=     0.204 Goal=   None    Shift=    0.000
 RMSDP=5.90D-06 MaxDP=7.94D-05 DE=-6.14D-05 OVMax= 7.36D-05

 Cycle   9  Pass 1  IDiag  1:
 E= -323.360937080470     Delta-E=       -0.000000019994 Rises=F Damp=F
 DIIS: error= 6.86D-06 at cycle   2 NSaved=   2.
 NSaved= 2 IEnMin= 2 EnMin= -323.360937080470     IErMin= 2 ErrMin= 6.86D-06
 ErrMax= 6.86D-06  0.00D+00 EMaxC= 1.00D-01 BMatC= 6.28D-09 BMatP= 1.46D-08
 IDIUse=1 WtCom= 1.00D+00 WtEn= 0.00D+00
 Coeff-Com:  0.351D+00 0.649D+00
 Coeff:      0.351D+00 0.649D+00
 Gap=     0.204 Goal=   None    Shift=    0.000
 RMSDP=2.56D-06 MaxDP=2.96D-05 DE=-2.00D-08 OVMax= 3.43D-05

 Cycle  10  Pass 1  IDiag  1:
 E= -323.360937080912     Delta-E=       -0.000000000442 Rises=F Damp=F
 DIIS: error= 9.39D-06 at cycle   3 NSaved=   3.
 NSaved= 3 IEnMin= 3 EnMin= -323.360937080912     IErMin= 2 ErrMin= 6.86D-06
 ErrMax= 9.39D-06  0.00D+00 EMaxC= 1.00D-01 BMatC= 6.51D-09 BMatP= 6.28D-09
 IDIUse=1 WtCom= 1.00D+00 WtEn= 0.00D+00
 Coeff-Com:  0.633D-01 0.490D+00 0.447D+00
 Coeff:      0.633D-01 0.490D+00 0.447D+00
 Gap=     0.204 Goal=   None    Shift=    0.000
 RMSDP=1.85D-06 MaxDP=2.77D-05 DE=-4.42D-10 OVMax= 2.71D-05

 Cycle  11  Pass 1  IDiag  1:
 E= -323.360937085888     Delta-E=       -0.000000004976 Rises=F Damp=F
 DIIS: error= 3.56D-06 at cycle   4 NSaved=   4.
 NSaved= 4 IEnMin= 4 EnMin= -323.360937085888     IErMin= 4 ErrMin= 3.56D-06
 ErrMax= 3.56D-06  0.00D+00 EMaxC= 1.00D-01 BMatC= 7.38D-10 BMatP= 6.28D-09
 IDIUse=1 WtCom= 1.00D+00 WtEn= 0.00D+00
 Coeff-Com: -0.163D-01 0.220D+00 0.302D+00 0.494D+00
 Coeff:     -0.163D-01 0.220D+00 0.302D+00 0.494D+00
 Gap=     0.204 Goal=   None    Shift=    0.000
 RMSDP=5.61D-07 MaxDP=8.25D-06 DE=-4.98D-09 OVMax= 1.29D-05

 Cycle  12  Pass 1  IDiag  1:
[...]
     33 -0.222387D-03 -0.259570D-03  0.103155D-03 -0.601626D-03 -0.216033D-03
     34  0.412332D-03  0.364245D-03  0.165764D-01  0.111246D-01  0.574257D-03
     35  0.138447D-02  0.300448D-03 -0.177475D-01 -0.595366D-01 -0.172683D-01
     36 -0.561708D-03  0.302767D-03 -0.252045D-02 -0.155469D-01  0.417041D-02
     37  0.392189D-03 -0.187738D-03 -0.240407D+00  0.446255D-01 -0.205416D+00
     38 -0.559014D-03  0.969965D-04  0.103756D-01 -0.300370D-01 -0.942964D-02
     39  0.344629D-03  0.871951D-05 -0.232836D+00  0.238346D-01 -0.220543D+00
               31            32            33            34            35 
     31  0.143198D-01
     32  0.238855D-02  0.225884D+00
     33  0.218044D-01 -0.191948D+00  0.293200D+00
     34 -0.115328D-02 -0.514480D-03 -0.557928D-03  0.367529D+00
     35  0.255136D-03 -0.227475D-03 -0.463990D-03  0.170932D+00  0.268234D+00
     36 -0.360787D-02 -0.115795D-02 -0.454065D-03 -0.191104D+00  0.146157D-01
     37 -0.283987D-03  0.174758D-03 -0.365751D-03  0.148559D-02 -0.234752D-02
     38  0.116260D-03 -0.591978D-04 -0.243703D-03 -0.471443D-02  0.450156D-02
     39  0.273196D-03  0.110727D-03 -0.100950D-03  0.246775D-02 -0.921282D-03
               36            37            38            39 
     36  0.300926D+00
     37  0.671019D-03  0.262754D+00
     38 -0.125328D-02 -0.476534D-01  0.431130D-01
     39 -0.182046D-03  0.221466D+00 -0.159318D-01  0.217695D+00
 FormGI is forming the generalized inverse of G from B-inverse, IUseBI=4.
 Leave Link  716 at Wed Apr 13 09:11:02 2016, MaxMem=    33554432 cpu:         0.0
 (Enter /usr/local/gau/g09/l103.exe)

 GradGradGradGradGradGradGradGradGradGradGradGradGradGradGradGradGradGrad
 Berny optimization.
 Red2BG is reusing G-inverse.
 Internal  Forces:  Max     0.000076087 RMS     0.000026235
 Search for a saddle point.
 Step number   1 out of a maximum of    2
 All quantities printed in internal units (Hartrees-Bohrs-Radians)
 Swapping is turned off.
 Second derivative matrix not updated -- analytic derivatives used.
 ITU=  0
     Eigenvalues ---   -0.00477   0.00166   0.00271   0.01256   0.01446
     Eigenvalues ---    0.01551   0.02688   0.03506   0.05791   0.06165
     Eigenvalues ---    0.06188   0.09098   0.12866   0.13282   0.13721
     Eigenvalues ---    0.14385   0.15425   0.15737   0.15973   0.17275
     Eigenvalues ---    0.18440   0.31826   0.33260   0.33747   0.34825
     Eigenvalues ---    0.35128   0.39213   0.39684   0.45540   0.45737
     Eigenvalues ---    0.46354   0.49075   1.51571
 Eigenvectors required to have negative eigenvalues:
                          D5        D2        D4        D6        D1
   1                   -0.42363  -0.41016  -0.40519  -0.40393  -0.39171
                          D3        A22       D14       D18       D16
   1                   -0.39046  -0.07776   0.06917   0.05130   0.04953
 Angle between quadratic step and forces=  80.87 degrees.
 Linear search not attempted -- option 19 set.
 Iteration  1 RMS(Cart)=  0.00082084 RMS(Int)=  0.00000090
 Iteration  2 RMS(Cart)=  0.00000092 RMS(Int)=  0.00000010
 ITry= 1 IFail=0 DXMaxC= 3.34D-03 DCOld= 1.00D+10 DXMaxT= 3.00D-01 DXLimC= 3.00D+00 Rises=F
 Variable       Old X    -DE/DX   Delta X   Delta X   Delta X     New X
                                 (Linear)    (Quad)   (Total)
    R1        1.91730  -0.00001   0.00000  -0.00008  -0.00008   1.91722
    R2        2.72029  -0.00007   0.00000  -0.00033  -0.00033   2.71996
    R3        1.91770  -0.00001   0.00000  -0.00006  -0.00006   1.91764
    R4        2.84247   0.00000   0.00000   0.00004   0.00004   2.84251
    R5        2.53498   0.00000   0.00000   0.00003   0.00003   2.53501
    R6        5.88669  -0.00001   0.00000   0.00098   0.00098   5.88767
    R7        1.85458   0.00000   0.00000   0.00000   0.00000   1.85458
    R8        2.07507   0.00000   0.00000  -0.00002  -0.00002   2.07504
    R9        2.06439   0.00000   0.00000   0.00001   0.00001   2.06440
   R10        2.07451   0.00000   0.00000   0.00003   0.00003   2.07454
   R11        2.64332   0.00004   0.00000   0.00028   0.00028   2.64360
   R12        2.64428   0.00000   0.00000  -0.00013  -0.00013   2.64415
   R13        3.71507   0.00008   0.00000   0.00123   0.00123   3.71630
    A1        2.00381   0.00001   0.00000   0.00025   0.00025   2.00405
    A2        1.93454   0.00001   0.00000   0.00037   0.00037   1.93491
    A3        2.00513  -0.00001   0.00000   0.00034   0.00034   2.00548
    A4        2.03040   0.00002   0.00000   0.00023   0.00023   2.03063
    A5        2.11103   0.00001   0.00000  -0.00014  -0.00014   2.11090
    A6        1.72148  -0.00006   0.00000  -0.00044  -0.00044   1.72104
    A7        2.14175  -0.00003   0.00000  -0.00009  -0.00009   2.14166
    A8        1.92216   0.00000   0.00000  -0.00007  -0.00007   1.92209
    A9        1.95629   0.00000   0.00000   0.00001   0.00001   1.95630
   A10        1.91981   0.00000   0.00000   0.00009   0.00009   1.91989
   A11        1.90734   0.00000   0.00000   0.00005   0.00005   1.90739
   A12        1.85726   0.00000   0.00000   0.00000   0.00000   1.85726
   A13        1.89817   0.00000   0.00000  -0.00008  -0.00008   1.89810
   A14        2.13479  -0.00006   0.00000  -0.00055  -0.00055   2.13424
   A15        2.15493   0.00001   0.00000   0.00030   0.00030   2.15524
   A16        1.99342   0.00005   0.00000   0.00025   0.00025   1.99367
   A17        0.48694  -0.00008   0.00000  -0.00034  -0.00034   0.48660
   A18        1.93936   0.00000   0.00000   0.00006   0.00006   1.93941
   A19        3.75188  -0.00003   0.00000  -0.00021  -0.00021   3.75167
   A20        2.48036  -0.00003   0.00000  -0.00009  -0.00009   2.48027
   A21        2.98062   0.00003   0.00000   0.00041   0.00041   2.98103
   A22        5.55825   0.00002   0.00000   0.00060   0.00060   5.55884
    D1       -1.97654   0.00003   0.00000  -0.00146  -0.00146  -1.97800
    D2        1.16391   0.00003   0.00000  -0.00158  -0.00158   1.16233
    D3        1.32603   0.00000   0.00000  -0.00187  -0.00187   1.32416
    D4        2.03286   0.00001   0.00000  -0.00260  -0.00260   2.03026
    D5       -1.10988   0.00002   0.00000  -0.00272  -0.00272  -1.11260
    D6       -0.94776  -0.00002   0.00000  -0.00301  -0.00301  -0.95077
    D7        1.00170   0.00000   0.00000  -0.00098  -0.00098   1.00072
    D8        3.12913   0.00000   0.00000  -0.00096  -0.00096   3.12817
    D9       -1.03996   0.00000   0.00000  -0.00099  -0.00099  -1.04095
   D10       -2.13872  -0.00001   0.00000  -0.00086  -0.00086  -2.13958
   D11       -0.01129  -0.00001   0.00000  -0.00084  -0.00084  -0.01213
   D12        2.10280   0.00000   0.00000  -0.00087  -0.00087   2.10194
   D13       -0.10547   0.00001   0.00000   0.00021   0.00021  -0.10526
   D14        3.02540   0.00001   0.00000   0.00067   0.00067   3.02606
   D15        3.03490   0.00002   0.00000   0.00009   0.00009   3.03499
   D16       -0.11742   0.00002   0.00000   0.00054   0.00054  -0.11688
   D17        2.14141   0.00000   0.00000  -0.00056  -0.00056   2.14085
   D18       -1.01012   0.00000   0.00000  -0.00014  -0.00014  -1.01027
         Item               Value     Threshold  Converged?
 Maximum Force            0.000076     0.000450     YES
 RMS     Force            0.000026     0.000300     YES
 Maximum Displacement     0.003345     0.001800     NO 
 RMS     Displacement     0.000821     0.001200     YES
 Predicted change in Energy=-9.819856D-08
 GradGradGradGradGradGradGradGradGradGradGradGradGradGradGradGradGradGrad

 Leave Link  103 at Wed Apr 13 09:11:02 2016, MaxMem=    33554432 cpu:         0.0
 (Enter /usr/local/gau/g09/l9999.exe)

 Test job not archived.
 1\1\GINC-KALI\Freq\RB3LYP\6-31G\C3H7N1O2\ROOT\13-Apr-2016\0\\#P Geom=A
 llCheck Guess=TCheck SCRF=Check Test GenChk RB3LYP/6-31G Freq\\Ala-S-o
 pt-freq-tsa3-6-31g\\0,1\N,1.4745025839,1.1366705621,0.25060061\H,1.332
 7148293,1.5985795836,1.1427511779\C,0.7102969941,-0.0692916519,0.06660
 55764\H,-2.0739878846,-1.3217686557,0.3656484039\C,1.4943809411,-1.350
 4566332,-0.0131269708\C,-0.6274814956,-0.0311611111,-0.025011489\H,2.1
 013513063,-1.4790907407,0.8928609376\H,0.8468893757,-2.2210922909,-0.1
 401870151\H,2.1981550531,-1.3081237585,-0.8545768913\O,-1.3574045223,1
 .1452953333,0.1744079239\H,1.4139441036,1.8014102402,-0.5137787818\O,-
 1.4117083137,-1.1471892532,-0.337241972\H,-2.0693890609,1.219703596,-0
 .4952581098\\Version=ES64L-G09RevD.01\State=1-A\HF=-323.585458\RMSD=1.
 943e-09\RMSF=3.856e-05\ZeroPoint=0.1048104\Thermal=0.1118448\Dipole=-0
 .9113081,0.1947847,0.0853464\DipoleDeriv=-0.7303264,-0.1287314,-0.0435
 885,0.0071208,-0.5786705,-0.043163,-0.0210724,-0.0554928,-0.158025,0.2
 834252,0.0322773,0.1246057,-0.0755333,0.0860781,-0.0640414,0.0540148,-
 0.0396358,0.100095,0.1117829,0.053187,0.0117246,0.050688,0.5374888,0.0
 793974,-0.0024253,0.0748185,-0.0938394,0.2645904,-0.0494711,0.1178104,
 -0.035418,0.324845,-0.0722541,0.2283035,0.0100414,0.1771019,0.0178773,
 0.0647348,0.0056477,-0.0424862,-0.0480866,-0.0224025,0.0000773,-0.0106
 41,0.1291403,1.2263169,-0.0507043,0.0720142,-0.0913002,1.0689054,0.052
 4687,0.0431653,0.0690619,-0.0004003,-0.0243313,0.0509408,-0.0960184,0.
 0827663,0.0441729,0.0032079,-0.1279163,0.0373715,-0.0814658,0.0306474,
 -0.1084363,-0.013581,-0.0478038,-0.0843638,-0.0148596,-0.0061594,-0.01
 4732,0.0847763,-0.0456106,0.0302766,0.1074508,0.0532324,0.0495273,0.02
 93884,0.1367262,-0.0064876,-0.0506029,-0.8711272,0.2609174,0.1781483,0
 .4183208,-0.9127352,0.0712635,0.3019763,-0.0228008,-0.2191482,0.286812
 9,0.0607028,-0.0961496,-0.068952,0.0521318,0.0560947,-0.0493588,0.0444
 716,0.1024703,-0.8354652,-0.2304455,-0.2536834,-0.2483305,-0.8674967,0
 .014699,-0.3280197,-0.0791109,-0.2017443,0.2854077,0.014752,-0.1143807
 ,-0.0023043,0.3282034,-0.089799,-0.2293115,-0.0068639,0.2116421\Polar=
 59.9268795,-0.3358031,45.6853378,1.8749104,0.8869444,30.8327808\PG=C01
  [X(C3H7N1O2)]\NImag=1\\0.15067858,0.09421085,0.59257973,-0.01463231,-
 0.00876477,0.70192889,-0.01702483,0.02110833,0.08320738,0.02230145,0.0
 0442374,-0.13067662,-0.15704699,-0.00604311,0.14070037,0.03889345,-0.1
 3555588,-0.34895476,-0.05322491,0.15459026,0.37237079,-0.10157689,-0.1
 0556913,-0.01469380,-0.00763268,0.00476021,0.00322216,0.82718729,-0.05
 222619,-0.20380871,-0.01577426,-0.01613933,-0.01779559,-0.00138036,-0.
 01853966,0.56091686,-0.00717496,-0.01896341,-0.09287137,-0.02253611,-0
 .02641069,0.00259485,0.04516886,0.04092519,0.19558588,-0.00077614,0.00
 038542,-0.00295951,-0.00098721,-0.00011761,0.00006467,0.00259047,-0.00
 402329,0.00241220,0.22562915,0.00002337,-0.00030680,-0.00185738,-0.000
 86911,-0.00005800,-0.00006373,0.00251053,-0.00225205,0.00073491,0.0762
 0368,0.04915782,-0.00124599,0.00024555,-0.00001489,0.00031488,-0.00004
 424,0.00004587,-0.00149692,-0.00232680,-0.00054586,-0.20968429,-0.0461
 3257,0.23915934,0.00844547,-0.02090706,-0.00192930,0.00014169,-0.00335
 134,-0.00068367,-0.12690480,0.06291566,0.00284981,-0.00041501,0.000297
 55,-0.00022324,0.55953646,0.00264239,-0.03392180,-0.00373601,0.0015493
 3,-0.00241222,0.00002991,0.06140644,-0.17000465,-0.00571468,-0.0000541
 3,0.00005483,-0.00007556,0.05471712,0.52785807,0.00007792,-0.00548515,
 0.00469864,-0.00035847,-0.00092084,-0.00083314,0.00267865,-0.00596008,
 -0.07304105,0.00053667,0.00051116,-0.00011686,0.00749289,0.00317142,0.
 53770396,-0.02630269,-0.01524375,-0.00259810,0.00212201,0.00299007,0.0
 0127352,-0.52415115,0.01746444,-0.03273457,-0.02601602,-0.03738340,-0.
 01125017,-0.01952176,0.01193722,-0.00027706,0.91921993,-0.03128289,-0.
 02012857,-0.00490914,-0.00576004,-0.00036756,-0.00103009,0.02392233,-0
 .08615531,0.00073329,-0.00635654,-0.01233303,-0.01051446,0.03079852,0.
 00045068,0.00040233,-0.01831232,0.49426312,-0.00558769,-0.00229930,-0.
 00190304,-0.00308074,-0.00009829,0.00122953,-0.03138879,-0.00303993,-0
 .05620189,0.01638021,0.02317413,0.00809282,0.00193898,0.00051428,0.001
 85778,0.05324496,0.05002091,0.17383660,0.00071609,-0.00124055,0.001913
 86,-0.00012474,0.00053521,-0.00019591,-0.01623933,0.00577918,-0.015410
 59,0.00006292,0.00010042,-0.00011622,-0.12144026,0.01191771,-0.1177658
 6,0.00246208,0.00112342,-0.00096054,0.13578533,-0.00127254,0.00298070,
 -0.00182496,0.00074505,-0.00048735,0.00023087,0.02230682,-0.00694366,0
 .02506697,0.00005126,-0.00000111,-0.00017067,0.01226421,-0.05182216,0.
 02248307,-0.00227679,-0.00300625,0.00091771,-0.02009957,0.05461978,0.0
 0125886,0.00037767,0.00105278,-0.00031119,0.00036559,-0.00024816,0.000
 88829,-0.00214715,0.00538727,0.00000126,0.00001989,0.00003939,-0.11663
 791,0.02192075,-0.22364869,0.00105539,-0.00039878,-0.00017553,0.129192
 26,-0.02392664,0.24495772,0.00015449,0.00313946,0.00028387,-0.00009910
 ,0.00059355,0.00012907,0.01171803,0.01402529,0.00210026,-0.00024535,-0
 .00007470,0.00002412,-0.14735959,-0.12963829,-0.01864233,0.00006534,0.
 00099948,-0.00007282,-0.00987010,-0.01342624,-0.00007000,0.15965071,0.
 00113853,-0.00512917,-0.00062799,0.00057799,-0.00102421,0.00006692,-0.
 02051225,-0.01803456,-0.00277644,0.00008143,0.00031021,0.00012106,-0.1
 2345511,-0.21900679,-0.02402800,-0.00172692,-0.00287537,-0.00052532,0.
 00352258,0.00386621,0.00097065,0.13996260,0.24059416,-0.00003509,-0.00
 058292,0.00280628,-0.00040755,0.00044640,-0.00015673,-0.00100567,-0.00
 099191,-0.00183910,0.00029401,-0.00029120,0.00011434,-0.01854416,-0.02
 491177,-0.05555593,-0.00020213,-0.00011084,0.00031571,-0.01661177,-0.0
 2341832,-0.00234296,0.02036376,0.02776770,0.05378146,0.00116743,-0.000
 71249,-0.00201690,0.00027562,-0.00012908,0.00011610,-0.01792367,0.0027
 0989,0.01381352,0.00005831,0.00003376,0.00006364,-0.14869053,-0.011062
 13,0.12712357,0.00248872,0.00160186,0.00164131,0.01055480,0.00063632,-
 0.01538367,-0.01182053,0.00003858,0.01591242,0.16595018,-0.00132006,0.
 00254744,0.00219327,-0.00039588,0.00049440,0.00003657,0.02532953,-0.00
 253182,-0.02422529,-0.00006129,0.00006334,0.00008981,-0.01073476,-0.04
 866930,0.00954678,-0.00211491,-0.00329449,-0.00159621,-0.00268041,0.00
 017157,0.00241118,-0.01621750,-0.00083416,0.02204305,0.00556582,0.0522
 4173,-0.00148509,-0.00016144,0.00094813,-0.00017058,0.00008572,-0.0000
 8160,0.00146738,0.00078638,0.00246446,-0.00024815,-0.00002490,-0.00009
 481,0.12624399,0.01004022,-0.19940809,-0.00133349,-0.00006009,-0.00029
 231,0.01901054,0.00234595,-0.02461345,-0.00415781,-0.00071539,0.003723
 43,-0.14029021,-0.01199262,0.21766465,-0.00167385,0.00557678,0.0004691
 7,0.00077672,-0.00124918,0.00034011,-0.02357488,0.04345975,0.00808421,
 0.00111889,0.00436836,-0.00182228,-0.00311750,-0.00419712,-0.00259621,
 -0.15136350,0.09753194,0.00768268,-0.00132479,0.00226916,-0.00003712,0
 .00021386,0.00052193,0.00007377,-0.00107920,0.00116468,0.00034464,0.40
 300733,-0.00492914,0.00394581,-0.00058932,0.00164688,0.00057533,0.0011
 0809,0.00886882,-0.01454631,-0.00447565,0.00174195,0.00250987,0.000007
 22,-0.00021483,0.00257614,0.00217689,0.07428677,-0.18316831,-0.0427200
 9,0.00101584,-0.00139443,0.00026790,-0.00041369,0.00040557,-0.00003134
 ,0.00051412,-0.00068966,-0.00040073,-0.14104286,0.27818483,-0.00057907
 ,-0.00052539,-0.00473535,-0.00010437,-0.00025334,-0.00013391,-0.000180
 50,0.00247235,0.00829407,0.00041723,-0.00183135,-0.00041255,-0.0019091
 3,-0.00083326,0.01087465,-0.01471130,-0.00974207,-0.06095526,0.0011209
 7,-0.00223766,-0.00043039,0.00008531,-0.00026392,-0.00023200,-0.001164
 31,0.00193291,-0.00036233,0.22271469,0.03697097,0.26468164,-0.00792858
 ,0.02008548,-0.04769730,0.00012441,-0.00212862,0.00962724,-0.00879969,
 -0.01999776,0.01634525,0.00111283,0.00026660,0.00006678,0.00000399,0.0
 0141684,0.00075817,0.00181141,-0.00600621,0.00221148,0.00027985,-0.000
 41379,0.00012469,-0.00013621,0.00058123,0.00049910,-0.00019832,0.00066
 026,0.00044226,0.00084777,0.00277603,-0.00084738,0.01431980,-0.0076713
 5,-0.21104823,0.19138184,0.00220340,0.01108856,-0.01899960,0.00377720,
 -0.02332995,0.02043136,0.00035683,0.00008599,0.00014820,-0.00370081,-0
 .00256472,0.00014838,0.00301319,-0.00020618,-0.00037222,-0.00009848,0.
 00051028,0.00004381,0.00063202,-0.00098299,-0.00049468,0.00047073,-0.0
 0032450,-0.00030055,-0.00103156,0.00117477,0.00100872,0.00238855,0.225
 88364,-0.00966679,0.17269285,-0.27571038,-0.00709826,0.02860206,-0.026
 09215,-0.00378552,-0.00696717,0.00916941,-0.00000480,0.00000401,-0.000
 08150,0.00004720,-0.00047143,-0.00070561,-0.00070617,-0.00017111,0.001
 56879,-0.00010218,0.00002605,-0.00007062,0.00002773,-0.00023553,-0.000
 24710,0.00030496,-0.00022239,-0.00025957,0.00010316,-0.00060163,-0.000
 21603,0.02180437,-0.19194803,0.29319978,-0.00557719,-0.00110379,0.0007
 8612,-0.00005810,-0.00040517,0.00042060,-0.01683973,-0.03904323,-0.010
 87630,-0.20284284,-0.04503900,0.22513937,-0.00006598,-0.00015005,-0.00
 081941,-0.15506511,-0.09059797,-0.02602292,-0.00103084,-0.00031622,-0.
 00010631,-0.00235878,-0.00058468,-0.00026518,-0.00059936,0.00041233,0.
 00036424,0.01657640,0.01112460,0.00057426,-0.00115328,-0.00051448,-0.0
 0055793,0.36752923,-0.00192286,0.00270926,0.00043473,0.00075927,-0.000
 39752,0.00073966,-0.00691882,-0.01086800,-0.00470337,-0.06856863,-0.03
 463348,0.05699152,0.00053809,-0.00330602,0.00010862,-0.07562147,-0.172
 12322,-0.05043419,0.00029551,0.00133697,0.00004537,0.00033102,0.002925
 92,0.00055516,0.00001569,0.00138447,0.00030045,-0.01774749,-0.05953661
 ,-0.01726834,0.00025514,-0.00022748,-0.00046399,0.17093207,0.26823415,
 -0.00014191,-0.00155104,0.01277383,0.00338597,0.00078833,0.00046874,-0
 .00224723,-0.00317775,0.00177854,0.19304490,0.02364197,-0.24508066,0.0
 0095064,0.00037193,-0.00288182,0.00186788,-0.01674277,-0.07162645,-0.0
 0020709,0.00062626,0.00018402,0.00003682,-0.00005274,-0.00037916,-0.00
 012839,-0.00056171,0.00030277,-0.00252045,-0.01554693,0.00417041,-0.00
 360787,-0.00115795,-0.00045406,-0.19110428,0.01461567,0.30092588,-0.00
 030189,0.00027043,-0.00013318,0.00018475,0.00012133,0.00001757,0.00214
 703,0.00361524,-0.00204158,0.00070999,-0.00043806,0.00023032,-0.000612
 18,-0.00048532,0.00179147,-0.02574925,0.00233842,-0.01598611,0.0001689
 9,-0.00046766,0.00002545,0.00008722,-0.00014590,-0.00007150,-0.0001834
 5,0.00039219,-0.00018774,-0.24040726,0.04462553,-0.20541638,-0.0002839
 9,0.00017476,-0.00036575,0.00148559,-0.00234752,0.00067102,0.26275444,
 -0.00181383,0.00025695,0.00112098,0.00061723,0.00036043,0.00022738,-0.
 00134203,-0.00464624,-0.00062220,0.00036094,-0.00259759,0.00166093,0.0
 0083274,0.00076793,-0.00215459,0.04298786,-0.01105552,0.02645853,-0.00
 017085,0.00016946,0.00004976,0.00008700,-0.00021481,0.00002067,0.00031
 693,-0.00055901,0.00009700,0.01037561,-0.03003701,-0.00942964,0.000116
 26,-0.00005920,-0.00024370,-0.00471443,0.00450156,-0.00125328,-0.04765
 343,0.04311304,0.00031868,0.00057324,-0.00001878,0.00038397,-0.0001039
 9,-0.00020933,0.00137311,-0.00241850,-0.00077520,-0.00025441,0.0021150
 4,-0.00110464,0.00040390,-0.00030580,0.00105615,0.00637123,-0.00747720
 ,0.00425324,0.00013252,-0.00011864,-0.00009138,-0.00010797,0.00029900,
 0.00001176,0.00000797,0.00034463,0.00000872,-0.23283636,0.02383460,-0.
 22054293,0.00027320,0.00011073,-0.00010095,0.00246775,-0.00092128,-0.0
 0018205,0.22146642,-0.01593183,0.21769538\\0.00009262,0.00001693,0.000
 00768,-0.00002858,0.00001913,-0.00000930,-0.00005803,-0.00008017,-0.00
 002344,-0.00000154,0.00000157,0.00000113,0.00000931,0.00000872,-0.0000
 0206,-0.00006176,0.00014709,0.00001036,-0.00000160,-0.00000188,0.00000
 043,-0.00000079,0.00000079,-0.00000299,-0.00000045,-0.00000136,0.00000
 038,0.00000582,-0.00005110,0.00004592,0.00000470,0.00000554,-0.0000040
 8,-0.00000148,0.00000280,-0.00000200,0.00004180,-0.00006807,-0.0000220
 2\\\@


 THE REASON MAN'S BEST FRIEND IS A DOG IS BECAUSE
 HE WAGS HIS TAIL INSTEAD OF HIS TONGUE.
 Job cpu time:       0 days  0 hours  1 minutes  3.5 seconds.
 File lengths (MBytes):  RWF=     12 Int=      0 D2E=      0 Chk=      2 Scr=      1
 Normal termination of Gaussian 09 at Wed Apr 13 09:11:02 2016.
