 Entering Link 1 = c:\G09w05\l1.exe PID=      2972.
  
 Copyright (c) 1988,1990,1992,1993,1995,1998,2003,2009,2010,
            Gaussian, Inc.  All Rights Reserved.
  
 This is part of the Gaussian(R) 09 program.  It is based on
 the Gaussian(R) 03 system (copyright 2003, Gaussian, Inc.),
 the Gaussian(R) 98 system (copyright 1998, Gaussian, Inc.),
 the Gaussian(R) 94 system (copyright 1995, Gaussian, Inc.),
 the Gaussian 92(TM) system (copyright 1992, Gaussian, Inc.),
 the Gaussian 90(TM) system (copyright 1990, Gaussian, Inc.),
 the Gaussian 88(TM) system (copyright 1988, Gaussian, Inc.),
 the Gaussian 86(TM) system (copyright 1986, Carnegie Mellon
 University), and the Gaussian 82(TM) system (copyright 1983,
 Carnegie Mellon University). Gaussian is a federally registered
 trademark of Gaussian, Inc.
  
 This software contains proprietary and confidential information,
 including trade secrets, belonging to Gaussian, Inc.
  
 This software is provided under written license and may be
 used, copied, transmitted, or stored only in accord with that
 written license.
  
 The following legend is applicable only to US Government
 contracts under FAR:
  
                    RESTRICTED RIGHTS LEGEND
  
 Use, reproduction and disclosure by the US Government is
 subject to restrictions as set forth in subparagraphs (a)
 and (c) of the Commercial Computer Software - Restricted
 Rights clause in FAR 52.227-19.
  
 Gaussian, Inc.
 340 Quinnipiac St., Bldg. 40, Wallingford CT 06492
  
  
 ---------------------------------------------------------------
 Warning -- This program may not be used in any manner that
 competes with the business of Gaussian, Inc. or will provide
 assistance to any competitor of Gaussian, Inc.  The licensee
 of this program is prohibited from giving any competitor of
 Gaussian, Inc. access to this program.  By using this program,
 the user acknowledges that Gaussian, Inc. is engaged in the
 business of creating and licensing software in the field of
 computational chemistry and represents and warrants to the
 licensee that it is not a competitor of Gaussian, Inc. and that
 it will not use this program in any manner prohibited above.
 ---------------------------------------------------------------
  

 Cite this work as:
 Gaussian 09, Revision B.01,
 M. J. Frisch, G. W. Trucks, H. B. Schlegel, G. E. Scuseria, 
 M. A. Robb, J. R. Cheeseman, G. Scalmani, V. Barone, B. Mennucci, 
 G. A. Petersson, H. Nakatsuji, M. Caricato, X. Li, H. P. Hratchian, 
 A. F. Izmaylov, J. Bloino, G. Zheng, J. L. Sonnenberg, M. Hada, 
 M. Ehara, K. Toyota, R. Fukuda, J. Hasegawa, M. Ishida, T. Nakajima, 
 Y. Honda, O. Kitao, H. Nakai, T. Vreven, J. A. Montgomery, Jr., 
 J. E. Peralta, F. Ogliaro, M. Bearpark, J. J. Heyd, E. Brothers, 
 K. N. Kudin, V. N. Staroverov, T. Keith, R. Kobayashi, J. Normand, 
 K. Raghavachari, A. Rendell, J. C. Burant, S. S. Iyengar, J. Tomasi, 
 M. Cossi, N. Rega, J. M. Millam, M. Klene, J. E. Knox, J. B. Cross, 
 V. Bakken, C. Adamo, J. Jaramillo, R. Gomperts, R. E. Stratmann, 
 O. Yazyev, A. J. Austin, R. Cammi, C. Pomelli, J. W. Ochterski, 
 R. L. Martin, K. Morokuma, V. G. Zakrzewski, G. A. Voth, 
 P. Salvador, J. J. Dannenberg, S. Dapprich, A. D. Daniels, 
 O. Farkas, J. B. Foresman, J. V. Ortiz, J. Cioslowski, 
 and D. J. Fox, Gaussian, Inc., Wallingford CT, 2010.
 
 ******************************************
 Gaussian 09:  IA32W-G09RevB.01 12-Aug-2010
                16-Apr-2016 
 ******************************************
 %chk=Ala-S-opt-freq-cpcm-w-pb1-6-311++gdp.chk
 -----------------------------------------------------------------
 #p opt freq rb3lyp/6-311++g(d,p) scrf=(cpcm,solvent=water) nosymm
 -----------------------------------------------------------------
 1/14=-1,18=20,19=15,26=3,38=1/1,3;
 2/9=110,12=2,15=1,17=6,18=5,40=1/2;
 3/5=4,6=6,7=1111,11=2,16=1,25=1,30=1,70=2101,71=1,72=1,74=-5,116=1/1,2,3;
 4//1;
 5/5=2,38=5,53=1/2;
 6/7=2,8=2,9=2,10=2,28=1/1;
 7/30=1/1,2,3,16;
 1/14=-1,18=20,19=15/3(2);
 2/9=110,15=1/2;
 99//99;
 2/9=110,15=1/2;
 3/5=4,6=6,7=1111,11=2,16=1,25=1,30=1,70=2105,71=1,72=1,74=-5,116=1/1,2,3;
 4/5=5,16=3/1;
 5/5=2,38=5,53=1/2;
 7/30=1/1,2,3,16;
 1/14=-1,18=20,19=15/3(-5);
 2/9=110,15=1/2;
 6/7=2,8=2,9=2,10=2,19=2,28=1/1;
 99/9=1/99;
 Leave Link    1 at Sat Apr 16 14:35:19 2016, MaxMem=          0 cpu:       0.0
 (Enter c:\G09w05\l101.exe)
 ------------------------------------
 Ala-S-opt-freq-cpcm-w-pb1-6-311++gdp
 ------------------------------------
 Symbolic Z-matrix:
 Charge =  0 Multiplicity = 1
 N                     1.23497  -1.15211  -0.53718 
 H                     2.16294  -1.19728  -0.93664 
 C                     0.66586   0.18957  -0.42946 
 H                     0.73499   0.67064  -1.40972 
 C                     1.33533   1.10311   0.63003 
 C                    -0.81758   0.06943  -0.13854 
 H                     2.39694   1.22417   0.38712 
 H                     0.87379   2.09748   0.65571 
 H                     1.25424   0.65272   1.62495 
 O                    -1.72881   0.66895  -0.70967 
 H                     1.10814  -1.73379   0.28127 
 O                    -1.05372  -0.78895   0.92108 
 H                    -2.01721  -0.86182   1.09411 
 
 NAtoms=     13 NQM=     13 NQMF=      0 NMic=      0 NMicF=      0 NTot=     13.
                    Isotopes and Nuclear Properties:
 (Nuclear quadrupole moments (NQMom) in fm**2, nuclear magnetic moments (NMagM)
  in nuclear magnetons)

  Atom         1           2           3           4           5           6           7           8           9          10
 IAtWgt=          14           1          12           1          12          12           1           1           1          16
 AtmWgt=  14.0030740   1.0078250  12.0000000   1.0078250  12.0000000  12.0000000   1.0078250   1.0078250   1.0078250  15.9949146
 NucSpn=           2           1           0           1           0           0           1           1           1           0
 AtZEff=   0.0000000   0.0000000   0.0000000   0.0000000   0.0000000   0.0000000   0.0000000   0.0000000   0.0000000   0.0000000
 NQMom=    2.0440000   0.0000000   0.0000000   0.0000000   0.0000000   0.0000000   0.0000000   0.0000000   0.0000000   0.0000000
 NMagM=    0.4037610   2.7928460   0.0000000   2.7928460   0.0000000   0.0000000   2.7928460   2.7928460   2.7928460   0.0000000

  Atom        11          12          13
 IAtWgt=           1          16           1
 AtmWgt=   1.0078250  15.9949146   1.0078250
 NucSpn=           1           0           1
 AtZEff=   0.0000000   0.0000000   0.0000000
 NQMom=    0.0000000   0.0000000   0.0000000
 NMagM=    2.7928460   0.0000000   2.7928460
 Leave Link  101 at Sat Apr 16 14:35:20 2016, MaxMem=   33554432 cpu:       0.0
 (Enter c:\G09w05\l103.exe)

 GradGradGradGradGradGradGradGradGradGradGradGradGradGradGradGradGradGrad
 Berny optimization.
 Initialization pass.
                           ----------------------------
                           !    Initial Parameters    !
                           ! (Angstroms and Degrees)  !
 --------------------------                            --------------------------
 ! Name  Definition              Value          Derivative Info.                !
 --------------------------------------------------------------------------------
 ! R1    R(1,2)                  1.0113         estimate D2E/DX2                !
 ! R2    R(1,3)                  1.4614         estimate D2E/DX2                !
 ! R3    R(1,11)                 1.0121         estimate D2E/DX2                !
 ! R4    R(3,4)                  1.0941         estimate D2E/DX2                !
 ! R5    R(3,5)                  1.5509         estimate D2E/DX2                !
 ! R6    R(3,6)                  1.5165         estimate D2E/DX2                !
 ! R7    R(5,7)                  1.0958         estimate D2E/DX2                !
 ! R8    R(5,8)                  1.0966         estimate D2E/DX2                !
 ! R9    R(5,9)                  1.0951         estimate D2E/DX2                !
 ! R10   R(6,10)                 1.2312         estimate D2E/DX2                !
 ! R11   R(6,12)                 1.384          estimate D2E/DX2                !
 ! R12   R(12,13)                0.9816         estimate D2E/DX2                !
 ! A1    A(2,1,3)              115.3065         estimate D2E/DX2                !
 ! A2    A(2,1,11)             114.1266         estimate D2E/DX2                !
 ! A3    A(3,1,11)             114.7878         estimate D2E/DX2                !
 ! A4    A(1,3,4)              108.2422         estimate D2E/DX2                !
 ! A5    A(1,3,5)              115.0272         estimate D2E/DX2                !
 ! A6    A(1,3,6)              108.8059         estimate D2E/DX2                !
 ! A7    A(4,3,5)              109.0129         estimate D2E/DX2                !
 ! A8    A(4,3,6)              105.5761         estimate D2E/DX2                !
 ! A9    A(5,3,6)              109.7472         estimate D2E/DX2                !
 ! A10   A(3,5,7)              109.3811         estimate D2E/DX2                !
 ! A11   A(3,5,8)              111.6207         estimate D2E/DX2                !
 ! A12   A(3,5,9)              110.2686         estimate D2E/DX2                !
 ! A13   A(7,5,8)              108.227          estimate D2E/DX2                !
 ! A14   A(7,5,9)              108.577          estimate D2E/DX2                !
 ! A15   A(8,5,9)              108.6934         estimate D2E/DX2                !
 ! A16   A(3,6,10)             126.6135         estimate D2E/DX2                !
 ! A17   A(3,6,12)             111.2801         estimate D2E/DX2                !
 ! A18   A(10,6,12)            122.0646         estimate D2E/DX2                !
 ! A19   A(6,12,13)            110.395          estimate D2E/DX2                !
 ! D1    D(2,1,3,4)             52.2168         estimate D2E/DX2                !
 ! D2    D(2,1,3,5)            -69.9543         estimate D2E/DX2                !
 ! D3    D(2,1,3,6)            166.4792         estimate D2E/DX2                !
 ! D4    D(11,1,3,4)          -172.0259         estimate D2E/DX2                !
 ! D5    D(11,1,3,5)            65.8029         estimate D2E/DX2                !
 ! D6    D(11,1,3,6)           -57.7636         estimate D2E/DX2                !
 ! D7    D(1,3,5,7)             59.5956         estimate D2E/DX2                !
 ! D8    D(1,3,5,8)            179.3375         estimate D2E/DX2                !
 ! D9    D(1,3,5,9)            -59.7396         estimate D2E/DX2                !
 ! D10   D(4,3,5,7)            -62.1592         estimate D2E/DX2                !
 ! D11   D(4,3,5,8)             57.5828         estimate D2E/DX2                !
 ! D12   D(4,3,5,9)            178.5056         estimate D2E/DX2                !
 ! D13   D(6,3,5,7)           -177.3387         estimate D2E/DX2                !
 ! D14   D(6,3,5,8)            -57.5968         estimate D2E/DX2                !
 ! D15   D(6,3,5,9)             63.3261         estimate D2E/DX2                !
 ! D16   D(1,3,6,10)          -132.0388         estimate D2E/DX2                !
 ! D17   D(1,3,6,12)            50.291          estimate D2E/DX2                !
 ! D18   D(4,3,6,10)           -16.0482         estimate D2E/DX2                !
 ! D19   D(4,3,6,12)           166.2816         estimate D2E/DX2                !
 ! D20   D(5,3,6,10)           101.3003         estimate D2E/DX2                !
 ! D21   D(5,3,6,12)           -76.37           estimate D2E/DX2                !
 ! D22   D(3,6,12,13)         -179.6154         estimate D2E/DX2                !
 ! D23   D(10,6,12,13)           2.5911         estimate D2E/DX2                !
 --------------------------------------------------------------------------------
 Trust Radius=3.00D-01 FncErr=1.00D-07 GrdErr=1.00D-06
 Number of steps in this run=     64 maximum allowed number of steps=    100.
 GradGradGradGradGradGradGradGradGradGradGradGradGradGradGradGradGradGrad

 Leave Link  103 at Sat Apr 16 14:35:20 2016, MaxMem=   33554432 cpu:       0.0
 (Enter c:\G09w05\l202.exe)
                          Input orientation:                          
 ---------------------------------------------------------------------
 Center     Atomic      Atomic             Coordinates (Angstroms)
 Number     Number       Type             X           Y           Z
 ---------------------------------------------------------------------
      1          7           0        1.234968   -1.152113   -0.537175
      2          1           0        2.162938   -1.197277   -0.936640
      3          6           0        0.665859    0.189567   -0.429461
      4          1           0        0.734992    0.670642   -1.409718
      5          6           0        1.335325    1.103110    0.630031
      6          6           0       -0.817577    0.069433   -0.138539
      7          1           0        2.396941    1.224174    0.387118
      8          1           0        0.873787    2.097483    0.655709
      9          1           0        1.254235    0.652718    1.624947
     10          8           0       -1.728810    0.668945   -0.709670
     11          1           0        1.108136   -1.733789    0.281265
     12          8           0       -1.053719   -0.788945    0.921076
     13          1           0       -2.017209   -0.861824    1.094113
 ---------------------------------------------------------------------
                    Distance matrix (angstroms):
                    1          2          3          4          5
     1  N    0.000000
     2  H    1.011306   0.000000
     3  C    1.461367   2.102811   0.000000
     4  H    2.081764   2.398323   1.094128   0.000000
     5  C    2.541352   2.903650   1.550893   2.169794   0.000000
     6  C    2.421575   3.335414   1.516460   2.094712   2.508819
     7  H    2.802006   2.769570   2.175743   2.509401   1.095761
     8  H    3.480416   3.879810   2.204761   2.514185   1.096565
     9  H    2.816480   3.287849   2.186616   3.078819   1.095119
    10  O    3.482813   4.322037   2.458203   2.561326   3.372272
    11  H    1.012066   1.698159   2.097627   2.963098   2.867272
    12  O    2.737969   3.736941   2.395493   3.280622   3.061390
    13  H    3.649935   4.659411   3.259686   4.023957   3.913543
                    6          7          8          9         10
     6  C    0.000000
     7  H    3.455845   0.000000
     8  H    2.757631   1.776178   0.000000
     9  H    2.782536   1.778921   1.780873   0.000000
    10  O    1.231240   4.305002   3.267796   3.788041   0.000000
    11  H    2.671370   3.228276   3.856653   2.742671   3.847512
    12  O    1.383965   4.030486   3.480972   2.810779   2.289219
    13  H    1.955962   4.933148   4.160235   3.643895   2.383288
                   11         12         13
    11  H    0.000000
    12  O    2.444526   0.000000
    13  H    3.344970   0.981614   0.000000
 Symmetry turned off by external request.
 Stoichiometry    C3H7NO2
 Framework group  C1[X(C3H7NO2)]
 Deg. of freedom    33
 Full point group                 C1      NOp   1
 Rotational constants (GHZ):      4.9099393      2.8040969      2.4907650
 Leave Link  202 at Sat Apr 16 14:35:20 2016, MaxMem=   33554432 cpu:       0.0
 (Enter c:\G09w05\l301.exe)
 Standard basis: 6-311++G(d,p) (5D, 7F)
 Ernie: Thresh=  0.10000D-02 Tol=  0.10000D-05 Strict=F.
 Integral buffers will be    262144 words long.
 Raffenetti 2 integral format.
 Two-electron integral symmetry is turned off.
   181 basis functions,   279 primitive gaussians,   187 cartesian basis functions
    24 alpha electrons       24 beta electrons
       nuclear repulsion energy       247.2827931732 Hartrees.
 IExCor=  402 DFT=T Ex+Corr=B3LYP ExCW=0 ScaHFX=  0.200000
 ScaDFX=  0.800000  0.720000  1.000000  0.810000 ScalE2=  1.000000  1.000000
 IRadAn=      0 IRanWt=     -1 IRanGd=            0 ICorTp=0
 NAtoms=   13 NActive=   13 NUniq=   13 SFac= 1.00D+00 NAtFMM=   50 NAOKFM=F Big=F
 ------------------------------------------------------------------------------
 Polarizable Continuum Model (PCM)
 =================================
 Model                : C-PCM.
 Atomic radii         : UFF (Universal Force Field).
 Polarization charges : Total charges.
 Charge compensation  : None.
 Solution method      : Matrix inversion.
 Cavity type          : Scaled VdW (van der Waals Surface) (Alpha=1.100).
 Cavity algorithm     : GePol (No added spheres)
                        Default sphere list used, NSphG=   13.
                        Lebedev-Laikov grids with approx.  5.0 points / Ang**2.
                        Smoothing algorithm: Karplus/York (Gamma=1.0000).
                        Polarization charges: spherical gaussians, with
                                              point-specific exponents (IZeta= 3).
                        Self-potential: point-specific (ISelfS= 7).
                        Self-field    : sphere-specific E.n sum rule (ISelfD= 2).
 1st derivatives      : Analytical E(r).r(x)/FMM algorithm (CHGder, D1EAlg=3).
                        Cavity 1st derivative terms included.
 Solvent              : Water, Eps=  78.355300 Eps(inf)=   1.777849
 ------------------------------------------------------------------------------
 Spheres list:
 ISph  on   Nord    Re0     Alpha      Xe            Ye            Ze
    1   N      1    1.830   1.100      1.234968     -1.152113     -0.537175
    2   H      2    1.443   1.100      2.162938     -1.197277     -0.936640
    3   C      3    1.926   1.100      0.665859      0.189567     -0.429461
    4   H      4    1.443   1.100      0.734992      0.670642     -1.409718
    5   C      5    1.926   1.100      1.335325      1.103110      0.630031
    6   C      6    1.926   1.100     -0.817577      0.069433     -0.138539
    7   H      7    1.443   1.100      2.396941      1.224174      0.387118
    8   H      8    1.443   1.100      0.873787      2.097483      0.655709
    9   H      9    1.443   1.100      1.254235      0.652718      1.624947
   10   O     10    1.750   1.100     -1.728810      0.668945     -0.709670
   11   H     11    1.443   1.100      1.108136     -1.733789      0.281265
   12   O     12    1.750   1.100     -1.053719     -0.788945      0.921076
   13   H     13    1.443   1.100     -2.017209     -0.861824      1.094113
 ------------------------------------------------------------------------------
 GePol: Number of generator spheres                  =      13
 GePol: Total number of spheres                      =      13
 GePol: Number of exposed spheres                    =      13 (100.00%)
 GePol: Number of points                             =    1122
 GePol: Average weight of points                     =       0.14
 GePol: Minimum weight of points                     =   0.69D-11
 GePol: Maximum weight of points                     =    0.20577
 GePol: Number of points with low weight             =      69
 GePol: Fraction of low-weight points (<1% of avg)   =       6.15%
 GePol: Cavity surface area                          =    152.536 Ang**2
 GePol: Cavity volume                                =    139.458 Ang**3
 Leave Link  301 at Sat Apr 16 14:35:20 2016, MaxMem=   33554432 cpu:       0.0
 (Enter c:\G09w05\l302.exe)
 NPDir=0 NMtPBC=     1 NCelOv=     1 NCel=       1 NClECP=     1 NCelD=      1
         NCelK=      1 NCelE2=     1 NClLst=     1 CellRange=     0.0.
 One-electron integrals computed using PRISM.
 NBasis=   181 RedAO= T  NBF=   181
 NBsUse=   181 1.00D-06 NBFU=   181
 Precomputing XC quadrature grid using
 IXCGrd= 2 IRadAn=           0 IRanWt=          -1 IRanGd=           0 AccXCQ= 0.00D+00.
 NRdTot=     842 NPtTot=      107058 NUsed=      110990 NTot=      111006
 NSgBfM=   187   187   187   187   187 NAtAll=    13    13.
 Leave Link  302 at Sat Apr 16 14:35:20 2016, MaxMem=   33554432 cpu:       0.0
 (Enter c:\G09w05\l303.exe)
 DipDrv:  MaxL=1.
 Leave Link  303 at Sat Apr 16 14:35:20 2016, MaxMem=   33554432 cpu:       0.0
 (Enter c:\G09w05\l401.exe)
 Harris functional with IExCor=  402 diagonalized for initial guess.
 ExpMin= 3.60D-02 ExpMax= 8.59D+03 ExpMxC= 1.30D+03 IAcc=3 IRadAn=         0 AccDes= 0.00D+00
 HarFok:  IExCor=  402 AccDes= 0.00D+00 IRadAn=         0 IDoV= 1
 ScaDFX=  1.000000  1.000000  1.000000  1.000000
 FoFCou: FMM=F IPFlag=           0 FMFlag=      100000 FMFlg1=           0
         NFxFlg=           0 DoJE=T BraDBF=F KetDBF=T FulRan=T
         Omega=  0.000000  0.000000  1.000000  0.000000  0.000000 ICntrl=     500 IOpCl=  0
         NMat0=    1 NMatS0=    1 NMatT0=    0 NMatD0=    1 NMtDS0=    0 NMtDT0=    0
         I1Cent=           4 NGrid=           0.
 Symmetry not used in FoFCou.
 Harris En= -323.876084945644    
 Leave Link  401 at Sat Apr 16 14:35:25 2016, MaxMem=   33554432 cpu:       5.0
 (Enter c:\G09w05\l502.exe)
 Closed shell SCF:
 Requested convergence on RMS density matrix=1.00D-08 within 128 cycles.
 Requested convergence on MAX density matrix=1.00D-06.
 Requested convergence on             energy=1.00D-06.
 No special actions if energy rises.
 Using DIIS extrapolation, IDIIS=  1040.
 Two-electron integral symmetry not used.
       110873 words used for storage of precomputed grid.
 IEnd=      236079 IEndB=      236079 NGot=    33554432 MDV=    33370150
 LenX=    33370150 LenY=    33334740
 Fock matrices will be formed incrementally for  20 cycles.

 Cycle   1  Pass 1  IDiag  1:
 FoFCou: FMM=F IPFlag=           0 FMFlag=      100000 FMFlg1=           0
         NFxFlg=           0 DoJE=F BraDBF=F KetDBF=F FulRan=T
         Omega=  0.000000  0.000000  1.000000  0.000000  0.000000 ICntrl=       0 IOpCl=  0
         NMat0=    1 NMatS0=    1 NMatT0=    0 NMatD0=    1 NMtDS0=    0 NMtDT0=    0
         I1Cent=           0 NGrid=           0.
 Symmetry not used in FoFCou.
 E= -323.649312618306    
 DIIS: error= 2.90D-02 at cycle   1 NSaved=   1.
 NSaved= 1 IEnMin= 1 EnMin= -323.649312618306     IErMin= 1 ErrMin= 2.90D-02
 ErrMax= 2.90D-02 EMaxC= 1.00D-01 BMatC= 2.80D-01 BMatP= 2.80D-01
 IDIUse=3 WtCom= 7.10D-01 WtEn= 2.90D-01
 Coeff-Com:  0.100D+01
 Coeff-En:   0.100D+01
 Coeff:      0.100D+01
 Gap=     0.115 Goal=   None    Shift=    0.000
 GapD=    0.115 DampG=1.000 DampE=0.500 DampFc=0.5000 IDamp=-1.
 Damping current iteration by 5.00D-01
 RMSDP=6.28D-03 MaxDP=1.37D-01              OVMax= 2.37D-01

 Cycle   2  Pass 1  IDiag  1:
 RMSU=  2.22D-03    CP:  9.89D-01
 E= -323.708632764528     Delta-E=       -0.059320146222 Rises=F Damp=T
 DIIS: error= 1.18D-02 at cycle   2 NSaved=   2.
 NSaved= 2 IEnMin= 2 EnMin= -323.708632764528     IErMin= 2 ErrMin= 1.18D-02
 ErrMax= 1.18D-02 EMaxC= 1.00D-01 BMatC= 3.11D-02 BMatP= 2.80D-01
 IDIUse=3 WtCom= 8.82D-01 WtEn= 1.18D-01
 Coeff-Com:  0.202D+00 0.798D+00
 Coeff-En:   0.345D+00 0.655D+00
 Coeff:      0.219D+00 0.781D+00
 Gap=     0.224 Goal=   None    Shift=    0.000
 RMSDP=2.51D-03 MaxDP=2.03D-01 DE=-5.93D-02 OVMax= 1.52D-01

 Cycle   3  Pass 1  IDiag  1:
 RMSU=  1.35D-03    CP:  9.36D-01  5.57D-01
 E= -323.844884768294     Delta-E=       -0.136252003766 Rises=F Damp=F
 DIIS: error= 9.15D-03 at cycle   3 NSaved=   3.
 NSaved= 3 IEnMin= 3 EnMin= -323.844884768294     IErMin= 3 ErrMin= 9.15D-03
 ErrMax= 9.15D-03 EMaxC= 1.00D-01 BMatC= 1.81D-02 BMatP= 3.11D-02
 IDIUse=3 WtCom= 9.09D-01 WtEn= 9.15D-02
 Coeff-Com:  0.753D-01 0.448D+00 0.477D+00
 Coeff-En:   0.000D+00 0.000D+00 0.100D+01
 Coeff:      0.684D-01 0.407D+00 0.525D+00
 Gap=     0.225 Goal=   None    Shift=    0.000
 RMSDP=9.48D-04 MaxDP=3.55D-02 DE=-1.36D-01 OVMax= 6.24D-02

 Cycle   4  Pass 1  IDiag  1:
 RMSU=  5.42D-04    CP:  9.48D-01  6.27D-01  7.50D-01
 E= -323.855132919335     Delta-E=       -0.010248151041 Rises=F Damp=F
 DIIS: error= 4.98D-03 at cycle   4 NSaved=   4.
 NSaved= 4 IEnMin= 4 EnMin= -323.855132919335     IErMin= 4 ErrMin= 4.98D-03
 ErrMax= 4.98D-03 EMaxC= 1.00D-01 BMatC= 5.12D-03 BMatP= 1.81D-02
 IDIUse=3 WtCom= 9.50D-01 WtEn= 4.98D-02
 Coeff-Com:  0.362D-02 0.103D+00 0.353D+00 0.541D+00
 Coeff-En:   0.000D+00 0.000D+00 0.251D+00 0.749D+00
 Coeff:      0.344D-02 0.979D-01 0.348D+00 0.551D+00
 Gap=     0.218 Goal=   None    Shift=    0.000
 RMSDP=4.06D-04 MaxDP=1.77D-02 DE=-1.02D-02 OVMax= 2.46D-02

 Cycle   5  Pass 1  IDiag  1:
 RMSU=  1.25D-04    CP:  9.41D-01  5.99D-01  8.58D-01  6.50D-01
 E= -323.858710798969     Delta-E=       -0.003577879634 Rises=F Damp=F
 DIIS: error= 9.02D-04 at cycle   5 NSaved=   5.
 NSaved= 5 IEnMin= 5 EnMin= -323.858710798969     IErMin= 5 ErrMin= 9.02D-04
 ErrMax= 9.02D-04 EMaxC= 1.00D-01 BMatC= 2.96D-04 BMatP= 5.12D-03
 IDIUse=3 WtCom= 9.91D-01 WtEn= 9.02D-03
 Coeff-Com: -0.272D-02 0.250D-01 0.162D+00 0.318D+00 0.498D+00
 Coeff-En:   0.000D+00 0.000D+00 0.000D+00 0.000D+00 0.100D+01
 Coeff:     -0.270D-02 0.248D-01 0.160D+00 0.315D+00 0.503D+00
 Gap=     0.221 Goal=   None    Shift=    0.000
 RMSDP=1.18D-04 MaxDP=8.75D-03 DE=-3.58D-03 OVMax= 4.64D-03

 Cycle   6  Pass 1  IDiag  1:
 RMSU=  6.34D-05    CP:  9.39D-01  5.97D-01  8.79D-01  6.67D-01  7.38D-01
 E= -323.858937271320     Delta-E=       -0.000226472352 Rises=F Damp=F
 DIIS: error= 1.95D-04 at cycle   6 NSaved=   6.
 NSaved= 6 IEnMin= 6 EnMin= -323.858937271320     IErMin= 6 ErrMin= 1.95D-04
 ErrMax= 1.95D-04 EMaxC= 1.00D-01 BMatC= 1.29D-05 BMatP= 2.96D-04
 IDIUse=3 WtCom= 9.98D-01 WtEn= 1.95D-03
 Coeff-Com: -0.147D-02 0.179D-02 0.418D-01 0.941D-01 0.236D+00 0.628D+00
 Coeff-En:   0.000D+00 0.000D+00 0.000D+00 0.000D+00 0.000D+00 0.100D+01
 Coeff:     -0.147D-02 0.179D-02 0.417D-01 0.939D-01 0.235D+00 0.629D+00
 Gap=     0.221 Goal=   None    Shift=    0.000
 RMSDP=2.68D-05 MaxDP=9.37D-04 DE=-2.26D-04 OVMax= 7.00D-04

 Cycle   7  Pass 1  IDiag  1:
 RMSU=  1.05D-05    CP:  9.39D-01  5.97D-01  8.78D-01  6.75D-01  7.39D-01
                    CP:  7.68D-01
 E= -323.858947169652     Delta-E=       -0.000009898332 Rises=F Damp=F
 DIIS: error= 6.35D-05 at cycle   7 NSaved=   7.
 NSaved= 7 IEnMin= 7 EnMin= -323.858947169652     IErMin= 7 ErrMin= 6.35D-05
 ErrMax= 6.35D-05 EMaxC= 1.00D-01 BMatC= 6.85D-07 BMatP= 1.29D-05
 IDIUse=1 WtCom= 1.00D+00 WtEn= 0.00D+00
 Coeff-Com: -0.454D-03-0.299D-03 0.134D-01 0.312D-01 0.931D-01 0.293D+00
 Coeff-Com:  0.570D+00
 Coeff:     -0.454D-03-0.299D-03 0.134D-01 0.312D-01 0.931D-01 0.293D+00
 Coeff:      0.570D+00
 Gap=     0.221 Goal=   None    Shift=    0.000
 RMSDP=4.64D-06 MaxDP=1.07D-04 DE=-9.90D-06 OVMax= 1.78D-04

 Cycle   8  Pass 1  IDiag  1:
 RMSU=  3.14D-06    CP:  9.39D-01  5.97D-01  8.78D-01  6.75D-01  7.46D-01
                    CP:  7.63D-01  9.85D-01
 E= -323.858947630117     Delta-E=       -0.000000460465 Rises=F Damp=F
 DIIS: error= 1.47D-05 at cycle   8 NSaved=   8.
 NSaved= 8 IEnMin= 8 EnMin= -323.858947630117     IErMin= 8 ErrMin= 1.47D-05
 ErrMax= 1.47D-05 EMaxC= 1.00D-01 BMatC= 7.42D-08 BMatP= 6.85D-07
 IDIUse=1 WtCom= 1.00D+00 WtEn= 0.00D+00
 Coeff-Com:  0.400D-04-0.375D-03 0.952D-03 0.204D-02 0.134D-01 0.527D-01
 Coeff-Com:  0.267D+00 0.665D+00
 Coeff:      0.400D-04-0.375D-03 0.952D-03 0.204D-02 0.134D-01 0.527D-01
 Coeff:      0.267D+00 0.665D+00
 Gap=     0.221 Goal=   None    Shift=    0.000
 RMSDP=1.94D-06 MaxDP=4.48D-05 DE=-4.60D-07 OVMax= 9.70D-05

 Cycle   9  Pass 1  IDiag  1:
 RMSU=  9.13D-07    CP:  9.39D-01  5.97D-01  8.79D-01  6.75D-01  7.48D-01
                    CP:  7.65D-01  9.56D-01  7.91D-01
 E= -323.858947684504     Delta-E=       -0.000000054387 Rises=F Damp=F
 DIIS: error= 4.95D-06 at cycle   9 NSaved=   9.
 NSaved= 9 IEnMin= 9 EnMin= -323.858947684504     IErMin= 9 ErrMin= 4.95D-06
 ErrMax= 4.95D-06 EMaxC= 1.00D-01 BMatC= 7.46D-09 BMatP= 7.42D-08
 IDIUse=1 WtCom= 1.00D+00 WtEn= 0.00D+00
 Coeff-Com:  0.387D-04-0.193D-03-0.167D-03-0.526D-03 0.198D-02 0.973D-02
 Coeff-Com:  0.927D-01 0.335D+00 0.562D+00
 Coeff:      0.387D-04-0.193D-03-0.167D-03-0.526D-03 0.198D-02 0.973D-02
 Coeff:      0.927D-01 0.335D+00 0.562D+00
 Gap=     0.221 Goal=   None    Shift=    0.000
 RMSDP=5.39D-07 MaxDP=1.88D-05 DE=-5.44D-08 OVMax= 1.98D-05

 Cycle  10  Pass 1  IDiag  1:
 RMSU=  2.39D-07    CP:  9.39D-01  5.96D-01  8.79D-01  6.75D-01  7.48D-01
                    CP:  7.66D-01  9.71D-01  8.12D-01  8.42D-01
 E= -323.858947690543     Delta-E=       -0.000000006039 Rises=F Damp=F
 DIIS: error= 8.54D-07 at cycle  10 NSaved=  10.
 NSaved=10 IEnMin=10 EnMin= -323.858947690543     IErMin=10 ErrMin= 8.54D-07
 ErrMax= 8.54D-07 EMaxC= 1.00D-01 BMatC= 2.59D-10 BMatP= 7.46D-09
 IDIUse=1 WtCom= 1.00D+00 WtEn= 0.00D+00
 Coeff-Com:  0.105D-04-0.326D-04-0.166D-03-0.441D-03-0.595D-03-0.174D-02
 Coeff-Com:  0.854D-02 0.663D-01 0.199D+00 0.729D+00
 Coeff:      0.105D-04-0.326D-04-0.166D-03-0.441D-03-0.595D-03-0.174D-02
 Coeff:      0.854D-02 0.663D-01 0.199D+00 0.729D+00
 Gap=     0.221 Goal=   None    Shift=    0.000
 RMSDP=1.61D-07 MaxDP=6.97D-06 DE=-6.04D-09 OVMax= 3.75D-06

 Cycle  11  Pass 1  IDiag  1:
 RMSU=  6.97D-08    CP:  9.39D-01  5.96D-01  8.79D-01  6.75D-01  7.48D-01
                    CP:  7.66D-01  9.75D-01  8.24D-01  8.69D-01  8.18D-01
 E= -323.858947690767     Delta-E=       -0.000000000225 Rises=F Damp=F
 DIIS: error= 1.75D-07 at cycle  11 NSaved=  11.
 NSaved=11 IEnMin=11 EnMin= -323.858947690767     IErMin=11 ErrMin= 1.75D-07
 ErrMax= 1.75D-07 EMaxC= 1.00D-01 BMatC= 7.95D-12 BMatP= 2.59D-10
 IDIUse=1 WtCom= 1.00D+00 WtEn= 0.00D+00
 Coeff-Com: -0.699D-06 0.124D-05-0.302D-04-0.792D-04-0.211D-03-0.764D-03
 Coeff-Com: -0.187D-02 0.153D-02 0.154D-01 0.171D+00 0.815D+00
 Coeff:     -0.699D-06 0.124D-05-0.302D-04-0.792D-04-0.211D-03-0.764D-03
 Coeff:     -0.187D-02 0.153D-02 0.154D-01 0.171D+00 0.815D+00
 Gap=     0.221 Goal=   None    Shift=    0.000
 RMSDP=3.50D-08 MaxDP=1.61D-06 DE=-2.25D-10 OVMax= 7.35D-07

 Cycle  12  Pass 1  IDiag  1:
 RMSU=  1.24D-08    CP:  9.39D-01  5.96D-01  8.79D-01  6.75D-01  7.48D-01
                    CP:  7.65D-01  9.75D-01  8.26D-01  8.76D-01  8.65D-01
                    CP:  9.46D-01
 E= -323.858947690776     Delta-E=       -0.000000000009 Rises=F Damp=F
 DIIS: error= 6.24D-08 at cycle  12 NSaved=  12.
 NSaved=12 IEnMin=12 EnMin= -323.858947690776     IErMin=12 ErrMin= 6.24D-08
 ErrMax= 6.24D-08 EMaxC= 1.00D-01 BMatC= 1.26D-12 BMatP= 7.95D-12
 IDIUse=1 WtCom= 1.00D+00 WtEn= 0.00D+00
 Coeff-Com: -0.103D-05 0.203D-05-0.353D-05-0.109D-04-0.554D-04-0.228D-03
 Coeff-Com: -0.121D-02-0.249D-02-0.308D-02 0.437D-01 0.382D+00 0.581D+00
 Coeff:     -0.103D-05 0.203D-05-0.353D-05-0.109D-04-0.554D-04-0.228D-03
 Coeff:     -0.121D-02-0.249D-02-0.308D-02 0.437D-01 0.382D+00 0.581D+00
 Gap=     0.221 Goal=   None    Shift=    0.000
 RMSDP=9.72D-09 MaxDP=5.28D-07 DE=-8.75D-12 OVMax= 2.39D-07

 Error on total polarization charges =  0.01232
 SCF Done:  E(RB3LYP) =  -323.858947691     A.U. after   12 cycles
             Convg  =    0.9721D-08             -V/T =  2.0046
 KE= 3.223917046080D+02 PE=-1.253078528787D+03 EE= 3.595450833148D+02
 Leave Link  502 at Sat Apr 16 14:38:25 2016, MaxMem=   33554432 cpu:     180.0
 (Enter c:\G09w05\l601.exe)
 Copying SCF densities to generalized density rwf, IOpCl= 0 IROHF=0.

 **********************************************************************

            Population analysis using the SCF density.

 **********************************************************************

 Alpha  occ. eigenvalues --  -19.18341 -19.13716 -14.30433 -10.32737 -10.23012
 Alpha  occ. eigenvalues --  -10.17138  -1.11125  -1.02941  -0.90034  -0.75849
 Alpha  occ. eigenvalues --   -0.67841  -0.61076  -0.52270  -0.50895  -0.48477
 Alpha  occ. eigenvalues --   -0.46358  -0.44130  -0.42288  -0.40850  -0.38618
 Alpha  occ. eigenvalues --   -0.37118  -0.34112  -0.30397  -0.24852
 Alpha virt. eigenvalues --   -0.02757  -0.01191   0.00895   0.01725   0.01883
 Alpha virt. eigenvalues --    0.04301   0.05199   0.05857   0.05883   0.07381
 Alpha virt. eigenvalues --    0.08210   0.10153   0.10305   0.11080   0.11675
 Alpha virt. eigenvalues --    0.12494   0.12900   0.13621   0.13860   0.15550
 Alpha virt. eigenvalues --    0.16471   0.17167   0.17759   0.18357   0.19546
 Alpha virt. eigenvalues --    0.20176   0.20910   0.21529   0.23325   0.25105
 Alpha virt. eigenvalues --    0.25288   0.26330   0.27148   0.27444   0.28800
 Alpha virt. eigenvalues --    0.29375   0.30807   0.31054   0.33387   0.34438
 Alpha virt. eigenvalues --    0.35846   0.37745   0.38575   0.44013   0.45346
 Alpha virt. eigenvalues --    0.46793   0.51855   0.55407   0.57258   0.57758
 Alpha virt. eigenvalues --    0.59120   0.60844   0.63049   0.63679   0.66889
 Alpha virt. eigenvalues --    0.68124   0.69491   0.71019   0.72444   0.75440
 Alpha virt. eigenvalues --    0.79731   0.81761   0.83687   0.87433   0.92717
 Alpha virt. eigenvalues --    0.98431   1.03606   1.07361   1.08054   1.13113
 Alpha virt. eigenvalues --    1.15626   1.15778   1.19657   1.20450   1.23269
 Alpha virt. eigenvalues --    1.24392   1.30347   1.33871   1.43246   1.45532
 Alpha virt. eigenvalues --    1.47266   1.51687   1.52525   1.53905   1.55938
 Alpha virt. eigenvalues --    1.57399   1.59467   1.63998   1.65317   1.67532
 Alpha virt. eigenvalues --    1.68934   1.72965   1.74638   1.76834   1.81134
 Alpha virt. eigenvalues --    1.86577   1.87066   1.91507   1.95414   2.00163
 Alpha virt. eigenvalues --    2.02786   2.10384   2.13084   2.13561   2.22391
 Alpha virt. eigenvalues --    2.28697   2.33184   2.45806   2.46468   2.52112
 Alpha virt. eigenvalues --    2.54054   2.55348   2.56416   2.57933   2.62721
 Alpha virt. eigenvalues --    2.62772   2.67242   2.69853   2.74381   2.81976
 Alpha virt. eigenvalues --    2.83573   2.86952   2.89119   2.92585   2.94546
 Alpha virt. eigenvalues --    3.01612   3.03393   3.08869   3.12578   3.15929
 Alpha virt. eigenvalues --    3.18266   3.26665   3.33325   3.49754   3.57834
 Alpha virt. eigenvalues --    3.66323   3.77960   3.79148   3.83351   3.99662
 Alpha virt. eigenvalues --    4.04403   4.09016   4.20920   4.76615   4.85837
 Alpha virt. eigenvalues --    4.96563   5.03998   5.13606   5.34207   5.55107
 Alpha virt. eigenvalues --    5.79841  23.73658  23.79081  23.94756  35.60251
 Alpha virt. eigenvalues --   49.85265  49.96247
          Condensed to atoms (all electrons):
              1          2          3          4          5          6
     1  N    6.793245   0.379876   0.023802  -0.060863  -0.091376   0.024466
     2  H    0.379876   0.410707  -0.037252  -0.004246  -0.011702   0.015258
     3  C    0.023802  -0.037252   6.473515   0.495702  -0.204447  -0.294780
     4  H   -0.060863  -0.004246   0.495702   0.505426  -0.067870  -0.107377
     5  C   -0.091376  -0.011702  -0.204447  -0.067870   5.632114   0.051873
     6  C    0.024466   0.015258  -0.294780  -0.107377   0.051873   5.573286
     7  H   -0.012941   0.001335   0.005896  -0.005871   0.377613  -0.005941
     8  H    0.021691  -0.000381  -0.040019  -0.004929   0.391665   0.003597
     9  H   -0.006880   0.003826  -0.009996   0.008886   0.400758  -0.032248
    10  O   -0.005499  -0.000898  -0.005732   0.005488  -0.046459   0.439690
    11  H    0.381536  -0.034021  -0.010685   0.006458   0.001192  -0.020810
    12  O   -0.043939  -0.000341  -0.041037   0.017438  -0.062276   0.192868
    13  H    0.006281  -0.000263  -0.055723  -0.003586   0.009100   0.048760
              7          8          9         10         11         12
     1  N   -0.012941   0.021691  -0.006880  -0.005499   0.381536  -0.043939
     2  H    0.001335  -0.000381   0.003826  -0.000898  -0.034021  -0.000341
     3  C    0.005896  -0.040019  -0.009996  -0.005732  -0.010685  -0.041037
     4  H   -0.005871  -0.004929   0.008886   0.005488   0.006458   0.017438
     5  C    0.377613   0.391665   0.400758  -0.046459   0.001192  -0.062276
     6  C   -0.005941   0.003597  -0.032248   0.439690  -0.020810   0.192868
     7  H    0.542520  -0.022501  -0.038535  -0.001493   0.000786  -0.003619
     8  H   -0.022501   0.545275  -0.035033  -0.002261  -0.001303  -0.004431
     9  H   -0.038535  -0.035033   0.542482   0.000582  -0.000052   0.012751
    10  O   -0.001493  -0.002261   0.000582   8.093641  -0.000861  -0.126186
    11  H    0.000786  -0.001303  -0.000052  -0.000861   0.418438   0.002237
    12  O   -0.003619  -0.004431   0.012751  -0.126186   0.002237   8.030583
    13  H   -0.000218   0.000355  -0.000460  -0.009827   0.000464   0.249244
             13
     1  N    0.006281
     2  H   -0.000263
     3  C   -0.055723
     4  H   -0.003586
     5  C    0.009100
     6  C    0.048760
     7  H   -0.000218
     8  H    0.000355
     9  H   -0.000460
    10  O   -0.009827
    11  H    0.000464
    12  O    0.249244
    13  H    0.430160
 Mulliken atomic charges:
              1
     1  N   -0.409397
     2  H    0.278102
     3  C   -0.299244
     4  H    0.215345
     5  C   -0.380185
     6  C    0.111358
     7  H    0.162969
     8  H    0.148275
     9  H    0.153919
    10  O   -0.340184
    11  H    0.256621
    12  O   -0.223293
    13  H    0.325713
 Sum of Mulliken atomic charges =   0.00000
 Mulliken charges with hydrogens summed into heavy atoms:
              1
     1  N    0.125327
     3  C   -0.083899
     5  C    0.084979
     6  C    0.111358
    10  O   -0.340184
    12  O    0.102420
 Sum of Mulliken charges with hydrogens summed into heavy atoms =   0.00000
 Electronic spatial extent (au):  <R**2>=            583.3706
 Charge=              0.0000 electrons
 Dipole moment (field-independent basis, Debye):
    X=              2.5201    Y=             -0.5768    Z=              2.0470  Tot=              3.2975
 Quadrupole moment (field-independent basis, Debye-Ang):
   XX=            -33.2921   YY=            -37.9277   ZZ=            -38.1564
   XY=              3.6746   XZ=             -6.0601   YZ=             -1.0361
 Traceless Quadrupole moment (field-independent basis, Debye-Ang):
   XX=              3.1666   YY=             -1.4690   ZZ=             -1.6977
   XY=              3.6746   XZ=             -6.0601   YZ=             -1.0361
 Octapole moment (field-independent basis, Debye-Ang**2):
  XXX=              2.4650  YYY=             -2.8022  ZZZ=              3.2680  XYY=              1.0306
  XXY=            -15.3708  XXZ=              8.3684  XZZ=             -1.1078  YZZ=             -0.4802
  YYZ=              5.9693  XYZ=             -0.8449
 Hexadecapole moment (field-independent basis, Debye-Ang**3):
 XXXX=           -358.8806 YYYY=           -208.9019 ZZZZ=           -144.5919 XXXY=             13.1685
 XXXZ=            -44.8993 YYYX=             -3.5392 YYYZ=            -12.1307 ZZZX=            -11.3778
 ZZZY=             -9.0748 XXYY=            -92.5218 XXZZ=            -80.9072 YYZZ=            -63.7885
 XXYZ=             -0.8347 YYXZ=             -3.9933 ZZXY=              4.0652
 N-N= 2.472827931732D+02 E-N=-1.253078516384D+03  KE= 3.223917046080D+02
 No NMR shielding tensors so no spin-rotation constants.
 Leave Link  601 at Sat Apr 16 14:38:26 2016, MaxMem=   33554432 cpu:       1.0
 (Enter c:\G09w05\l701.exe)
 Compute integral first derivatives.
 ... and contract with generalized density number  0.
 D1PCM: C-PCM CHGder 1st derivatives, ID1Alg=3 FixD1E=F DoIter=F DoCFld=F I1PDM=0.
 GePol: Maximum number of non-zero 1st derivatives   =     219
 Leave Link  701 at Sat Apr 16 14:38:30 2016, MaxMem=   33554432 cpu:       4.0
 (Enter c:\G09w05\l702.exe)
 L702 exits ... SP integral derivatives will be done elsewhere.
 Leave Link  702 at Sat Apr 16 14:38:30 2016, MaxMem=   33554432 cpu:       0.0
 (Enter c:\G09w05\l703.exe)
 Compute integral first derivatives, UseDBF=F ICtDFT=           0.
 Integral derivatives from FoFDir, PRISM(SPDF).
 Calling FoFJK, ICntrl=      2127 FMM=F ISym2X=0 I1Cent= 0 IOpClX= 0 NMat=1 NMatS=1 NMatT=0.
 FoFCou: FMM=F IPFlag=           0 FMFlag=      100000 FMFlg1=         800
         NFxFlg=           0 DoJE=F BraDBF=F KetDBF=F FulRan=T
         Omega=  0.000000  0.000000  1.000000  0.000000  0.000000 ICntrl=    2127 IOpCl=  0
         NMat0=    1 NMatS0=    1 NMatT0=    0 NMatD0=    1 NMtDS0=    0 NMtDT0=    0
         I1Cent=           0 NGrid=           0.
 Symmetry not used in FoFCou.
 Leave Link  703 at Sat Apr 16 14:39:18 2016, MaxMem=   33554432 cpu:      48.0
 (Enter c:\G09w05\l716.exe)
 Dipole        = 9.91470275D-01-2.26947544D-01 8.05335375D-01
 -------------------------------------------------------------------
 Center     Atomic                   Forces (Hartrees/Bohr)
 Number     Number              X              Y              Z
 -------------------------------------------------------------------
      1        7          -0.010092996   -0.003423046   -0.008870924
      2        1           0.000416934    0.002496623    0.005549182
      3        6           0.005974353   -0.000128869    0.001493485
      4        1           0.000543293   -0.000892362    0.001637693
      5        6          -0.001050556   -0.000103428   -0.000101962
      6        6          -0.033462183    0.002115530    0.005721929
      7        1          -0.002445438   -0.000764619   -0.000229522
      8        1           0.000524079   -0.001606105   -0.000247590
      9        1           0.000433776    0.000821326   -0.001551759
     10        8           0.027477451   -0.017383006    0.015590706
     11        1           0.005582477    0.003557615    0.000894071
     12        8          -0.004283465    0.011602141   -0.015161635
     13        1           0.010382274    0.003708201   -0.004723676
 -------------------------------------------------------------------
 Cartesian Forces:  Max     0.033462183 RMS     0.009217615
 Leave Link  716 at Sat Apr 16 14:39:18 2016, MaxMem=   33554432 cpu:       0.0
 (Enter c:\G09w05\l103.exe)

 GradGradGradGradGradGradGradGradGradGradGradGradGradGradGradGradGradGrad
 Berny optimization.
 Internal  Forces:  Max     0.036031485 RMS     0.006531785
 Search for a local minimum.
 Step number   1 out of a maximum of   64
 All quantities printed in internal units (Hartrees-Bohrs-Radians)
 RMS Force = .65318D-02 SwitMx=.10000D-02 MixMth= 1
 Mixed Optimization -- RFO/linear search
 Second derivative matrix not updated -- first step.
 ITU=  0
     Eigenvalues ---    0.00230   0.00548   0.00866   0.00880   0.01904
     Eigenvalues ---    0.02603   0.04167   0.04984   0.05423   0.05650
     Eigenvalues ---    0.06881   0.16000   0.16000   0.16000   0.16000
     Eigenvalues ---    0.16000   0.16000   0.17741   0.18638   0.24987
     Eigenvalues ---    0.25000   0.27575   0.30710   0.34065   0.34155
     Eigenvalues ---    0.34228   0.34340   0.36794   0.45628   0.45755
     Eigenvalues ---    0.48385   0.51073   0.90572
 RFO step:  Lambda=-6.06524311D-03 EMin= 2.30000000D-03
 Linear search not attempted -- first point.
 Iteration  1 RMS(Cart)=  0.04230139 RMS(Int)=  0.00308991
 Iteration  2 RMS(Cart)=  0.00239773 RMS(Int)=  0.00203834
 Iteration  3 RMS(Cart)=  0.00001552 RMS(Int)=  0.00203831
 Iteration  4 RMS(Cart)=  0.00000018 RMS(Int)=  0.00203831
 Variable       Old X    -DE/DX   Delta X   Delta X   Delta X     New X
                                 (Linear)    (Quad)   (Total)
    R1        1.91109  -0.00192   0.00000  -0.00414  -0.00414   1.90696
    R2        2.76158  -0.00384   0.00000  -0.01027  -0.01027   2.75132
    R3        1.91253  -0.00203   0.00000  -0.00439  -0.00439   1.90813
    R4        2.06760  -0.00182   0.00000  -0.00522  -0.00522   2.06238
    R5        2.93076  -0.00351   0.00000  -0.01247  -0.01247   2.91829
    R6        2.86569   0.00016   0.00000   0.00050   0.00050   2.86620
    R7        2.07069  -0.00240   0.00000  -0.00692  -0.00692   2.06377
    R8        2.07221  -0.00169   0.00000  -0.00486  -0.00486   2.06734
    R9        2.06948  -0.00177   0.00000  -0.00509  -0.00509   2.06439
   R10        2.32671  -0.03603   0.00000  -0.03952  -0.03952   2.28719
   R11        2.61532  -0.02576   0.00000  -0.05258  -0.05258   2.56273
   R12        1.85498  -0.01130   0.00000  -0.02187  -0.02187   1.83312
    A1        2.01248  -0.00402   0.00000  -0.06096  -0.06699   1.94549
    A2        1.99189  -0.00052   0.00000  -0.05415  -0.06463   1.92726
    A3        2.00343  -0.00101   0.00000  -0.04300  -0.04898   1.95444
    A4        1.88918  -0.00065   0.00000  -0.00654  -0.00652   1.88266
    A5        2.00760   0.00047   0.00000   0.00480   0.00478   2.01238
    A6        1.89902   0.00116   0.00000   0.01033   0.01031   1.90934
    A7        1.90263   0.00000   0.00000  -0.00495  -0.00496   1.89768
    A8        1.84265   0.00008   0.00000  -0.00161  -0.00161   1.84104
    A9        1.91545  -0.00109   0.00000  -0.00263  -0.00269   1.91276
   A10        1.90906  -0.00140   0.00000  -0.00968  -0.00968   1.89938
   A11        1.94815  -0.00023   0.00000  -0.00106  -0.00107   1.94707
   A12        1.92455   0.00066   0.00000   0.00494   0.00494   1.92949
   A13        1.88892   0.00064   0.00000   0.00209   0.00207   1.89099
   A14        1.89503   0.00030   0.00000   0.00119   0.00120   1.89622
   A15        1.89706   0.00005   0.00000   0.00260   0.00260   1.89966
   A16        2.20982  -0.00291   0.00000  -0.01107  -0.01120   2.19863
   A17        1.94220   0.00286   0.00000   0.01150   0.01137   1.95358
   A18        2.13043   0.00007   0.00000   0.00063   0.00050   2.13093
   A19        1.92676  -0.00742   0.00000  -0.04469  -0.04469   1.88207
    D1        0.91136   0.00286   0.00000   0.08227   0.07962   0.99098
    D2       -1.22093   0.00303   0.00000   0.09038   0.08775  -1.13319
    D3        2.90561   0.00322   0.00000   0.08228   0.07959   2.98520
    D4       -3.00242  -0.00374   0.00000  -0.12351  -0.12084  -3.12326
    D5        1.14848  -0.00358   0.00000  -0.11540  -0.11272   1.03576
    D6       -1.00817  -0.00339   0.00000  -0.12350  -0.12087  -1.12904
    D7        1.04014  -0.00040   0.00000  -0.00004  -0.00004   1.04010
    D8        3.13003  -0.00066   0.00000  -0.00446  -0.00445   3.12558
    D9       -1.04265  -0.00030   0.00000   0.00150   0.00151  -1.04114
   D10       -1.08488   0.00012   0.00000   0.00893   0.00893  -1.07595
   D11        1.00501  -0.00015   0.00000   0.00451   0.00452   1.00953
   D12        3.11551   0.00021   0.00000   0.01047   0.01048   3.12599
   D13       -3.09514   0.00063   0.00000   0.01507   0.01506  -3.08009
   D14       -1.00525   0.00036   0.00000   0.01065   0.01065  -0.99461
   D15        1.10525   0.00072   0.00000   0.01661   0.01661   1.12186
   D16       -2.30451   0.00045   0.00000   0.01567   0.01564  -2.28887
   D17        0.87774  -0.00001   0.00000  -0.01402  -0.01399   0.86375
   D18       -0.28009   0.00030   0.00000   0.01218   0.01215  -0.26794
   D19        2.90216  -0.00016   0.00000  -0.01751  -0.01748   2.88468
   D20        1.76802  -0.00021   0.00000   0.00416   0.00413   1.77216
   D21       -1.33291  -0.00066   0.00000  -0.02552  -0.02550  -1.35840
   D22       -3.13488  -0.00019   0.00000  -0.00073  -0.00063  -3.13551
   D23        0.04522  -0.00054   0.00000  -0.02851  -0.02861   0.01662
         Item               Value     Threshold  Converged?
 Maximum Force            0.036031     0.000450     NO 
 RMS     Force            0.006532     0.000300     NO 
 Maximum Displacement     0.127640     0.001800     NO 
 RMS     Displacement     0.042810     0.001200     NO 
 Predicted change in Energy=-3.082638D-03
 GradGradGradGradGradGradGradGradGradGradGradGradGradGradGradGradGradGrad

 Leave Link  103 at Sat Apr 16 14:39:18 2016, MaxMem=   33554432 cpu:       0.0
 (Enter c:\G09w05\l202.exe)
                          Input orientation:                          
 ---------------------------------------------------------------------
 Center     Atomic      Atomic             Coordinates (Angstroms)
 Number     Number       Type             X           Y           Z
 ---------------------------------------------------------------------
      1          7           0        1.216788   -1.164507   -0.554024
      2          1           0        2.164106   -1.133842   -0.900386
      3          6           0        0.653067    0.171656   -0.425065
      4          1           0        0.714183    0.656506   -1.400905
      5          6           0        1.335963    1.077816    0.622491
      6          6           0       -0.828388    0.065833   -0.117572
      7          1           0        2.387859    1.196257    0.353846
      8          1           0        0.875662    2.069650    0.657224
      9          1           0        1.277809    0.626887    1.615808
     10          8           0       -1.716036    0.665370   -0.681070
     11          1           0        1.175680   -1.677525    0.314710
     12          8           0       -1.073793   -0.792797    0.903038
     13          1           0       -2.033035   -0.819180    1.044962
 ---------------------------------------------------------------------
                    Distance matrix (angstroms):
                    1          2          3          4          5
     1  N    0.000000
     2  H    1.009118   0.000000
     3  C    1.455935   2.052680   0.000000
     4  H    2.070244   2.357571   1.091366   0.000000
     5  C    2.535035   2.810054   1.544294   2.158297   0.000000
     6  C    2.426309   3.317686   1.516727   2.091737   2.501244
     7  H    2.787264   2.655659   2.160095   2.484286   1.092100
     8  H    3.470340   3.787954   2.196196   2.501789   1.093992
     9  H    2.814425   3.196392   2.182361   3.069057   1.092428
    10  O    3.459198   4.282612   2.433503   2.534601   3.344261
    11  H    1.009741   1.658022   2.059093   2.933260   2.777107
    12  O    2.740065   3.721913   2.382451   3.256607   3.063466
    13  H    3.638318   4.636743   3.218366   3.963221   3.889373
                    6          7          8          9         10
     6  C    0.000000
     7  H    3.441561   0.000000
     8  H    2.742149   1.772453   0.000000
     9  H    2.784862   1.774526   1.778249   0.000000
    10  O    1.210328   4.265542   3.237272   3.773624   0.000000
    11  H    2.691181   3.119220   3.774737   2.648320   3.852630
    12  O    1.356139   4.030010   3.471945   2.837882   2.246804
    13  H    1.893649   4.907538   4.117790   3.657686   2.298601
                   11         12         13
    11  H    0.000000
    12  O    2.487770   0.000000
    13  H    3.400864   0.970044   0.000000
 Symmetry turned off by external request.
 Stoichiometry    C3H7NO2
 Framework group  C1[X(C3H7NO2)]
 Deg. of freedom    33
 Full point group                 C1      NOp   1
 Rotational constants (GHZ):      5.0241513      2.8319634      2.5101280
 Leave Link  202 at Sat Apr 16 14:39:18 2016, MaxMem=   33554432 cpu:       0.0
 (Enter c:\G09w05\l301.exe)
 Standard basis: 6-311++G(d,p) (5D, 7F)
 Ernie: Thresh=  0.10000D-02 Tol=  0.10000D-05 Strict=F.
 Integral buffers will be    262144 words long.
 Raffenetti 2 integral format.
 Two-electron integral symmetry is turned off.
   181 basis functions,   279 primitive gaussians,   187 cartesian basis functions
    24 alpha electrons       24 beta electrons
       nuclear repulsion energy       249.2060058445 Hartrees.
 IExCor=  402 DFT=T Ex+Corr=B3LYP ExCW=0 ScaHFX=  0.200000
 ScaDFX=  0.800000  0.720000  1.000000  0.810000 ScalE2=  1.000000  1.000000
 IRadAn=      0 IRanWt=     -1 IRanGd=            0 ICorTp=0
 NAtoms=   13 NActive=   13 NUniq=   13 SFac= 1.00D+00 NAtFMM=   50 NAOKFM=F Big=F
 ------------------------------------------------------------------------------
 Polarizable Continuum Model (PCM)
 =================================
 Model                : C-PCM.
 Atomic radii         : UFF (Universal Force Field).
 Polarization charges : Total charges.
 Charge compensation  : None.
 Solution method      : Matrix inversion.
 Cavity type          : Scaled VdW (van der Waals Surface) (Alpha=1.100).
 Cavity algorithm     : GePol (No added spheres)
                        Default sphere list used, NSphG=   13.
                        Lebedev-Laikov grids with approx.  5.0 points / Ang**2.
                        Smoothing algorithm: Karplus/York (Gamma=1.0000).
                        Polarization charges: spherical gaussians, with
                                              point-specific exponents (IZeta= 3).
                        Self-potential: point-specific (ISelfS= 7).
                        Self-field    : sphere-specific E.n sum rule (ISelfD= 2).
 1st derivatives      : Analytical E(r).r(x)/FMM algorithm (CHGder, D1EAlg=3).
                        Cavity 1st derivative terms included.
 Solvent              : Water, Eps=  78.355300 Eps(inf)=   1.777849
 ------------------------------------------------------------------------------
 Spheres list:
 ISph  on   Nord    Re0     Alpha      Xe            Ye            Ze
    1   N      1    1.830   1.100      1.216788     -1.164507     -0.554024
    2   H      2    1.443   1.100      2.164106     -1.133842     -0.900386
    3   C      3    1.926   1.100      0.653067      0.171656     -0.425065
    4   H      4    1.443   1.100      0.714183      0.656506     -1.400905
    5   C      5    1.926   1.100      1.335963      1.077816      0.622491
    6   C      6    1.926   1.100     -0.828388      0.065833     -0.117572
    7   H      7    1.443   1.100      2.387859      1.196257      0.353846
    8   H      8    1.443   1.100      0.875662      2.069650      0.657224
    9   H      9    1.443   1.100      1.277809      0.626887      1.615808
   10   O     10    1.750   1.100     -1.716036      0.665370     -0.681070
   11   H     11    1.443   1.100      1.175680     -1.677525      0.314710
   12   O     12    1.750   1.100     -1.073793     -0.792797      0.903038
   13   H     13    1.443   1.100     -2.033035     -0.819180      1.044962
 ------------------------------------------------------------------------------
 GePol: Number of generator spheres                  =      13
 GePol: Total number of spheres                      =      13
 GePol: Number of exposed spheres                    =      13 (100.00%)
 GePol: Number of points                             =    1114
 GePol: Average weight of points                     =       0.14
 GePol: Minimum weight of points                     =   0.95D-09
 GePol: Maximum weight of points                     =    0.20577
 GePol: Number of points with low weight             =      66
 GePol: Fraction of low-weight points (<1% of avg)   =       5.92%
 GePol: Cavity surface area                          =    150.695 Ang**2
 GePol: Cavity volume                                =    138.323 Ang**3
 Leave Link  301 at Sat Apr 16 14:39:18 2016, MaxMem=   33554432 cpu:       0.0
 (Enter c:\G09w05\l302.exe)
 NPDir=0 NMtPBC=     1 NCelOv=     1 NCel=       1 NClECP=     1 NCelD=      1
         NCelK=      1 NCelE2=     1 NClLst=     1 CellRange=     0.0.
 One-electron integrals computed using PRISM.
 NBasis=   181 RedAO= T  NBF=   181
 NBsUse=   181 1.00D-06 NBFU=   181
 Precomputing XC quadrature grid using
 IXCGrd= 2 IRadAn=           0 IRanWt=          -1 IRanGd=           0 AccXCQ= 0.00D+00.
 NRdTot=     842 NPtTot=      107058 NUsed=      110990 NTot=      111006
 NSgBfM=   187   187   187   187   187 NAtAll=    13    13.
 Leave Link  302 at Sat Apr 16 14:39:19 2016, MaxMem=   33554432 cpu:       1.0
 (Enter c:\G09w05\l303.exe)
 DipDrv:  MaxL=1.
 Leave Link  303 at Sat Apr 16 14:39:19 2016, MaxMem=   33554432 cpu:       0.0
 (Enter c:\G09w05\l401.exe)
 Initial guess read from the read-write file.
 B after Tr=     0.000000    0.000000    0.000000
         Rot=    1.000000    0.000000    0.000000    0.000000 Ang=   0.00 deg.
 Guess basis will be translated and rotated to current coordinates.
 Generating alternative initial guess.
 Harris functional with IExCor=  402 diagonalized for initial guess.
 ExpMin= 3.60D-02 ExpMax= 8.59D+03 ExpMxC= 1.30D+03 IAcc=3 IRadAn=         0 AccDes= 0.00D+00
 HarFok:  IExCor=  402 AccDes= 0.00D+00 IRadAn=         0 IDoV= 1
 ScaDFX=  1.000000  1.000000  1.000000  1.000000
 FoFCou: FMM=F IPFlag=           0 FMFlag=      100000 FMFlg1=           0
         NFxFlg=           0 DoJE=T BraDBF=F KetDBF=T FulRan=T
         Omega=  0.000000  0.000000  1.000000  0.000000  0.000000 ICntrl=     500 IOpCl=  0
         NMat0=    1 NMatS0=    1 NMatT0=    0 NMatD0=    1 NMtDS0=    0 NMtDT0=    0
         I1Cent=           4 NGrid=           0.
 Symmetry not used in FoFCou.
 Harris En= -323.880744403835    
 Leave Link  401 at Sat Apr 16 14:39:25 2016, MaxMem=   33554432 cpu:       6.0
 (Enter c:\G09w05\l502.exe)
 Closed shell SCF:
 Requested convergence on RMS density matrix=1.00D-08 within 128 cycles.
 Requested convergence on MAX density matrix=1.00D-06.
 Requested convergence on             energy=1.00D-06.
 No special actions if energy rises.
 Using DIIS extrapolation, IDIIS=  1040.
 Two-electron integral symmetry not used.
       110873 words used for storage of precomputed grid.
 IEnd=      236079 IEndB=      236079 NGot=    33554432 MDV=    33370150
 LenX=    33370150 LenY=    33334740
 Fock matrices will be formed incrementally for  20 cycles.

 Cycle   1  Pass 1  IDiag  1:
 FoFCou: FMM=F IPFlag=           0 FMFlag=      100000 FMFlg1=           0
         NFxFlg=           0 DoJE=F BraDBF=F KetDBF=F FulRan=T
         Omega=  0.000000  0.000000  1.000000  0.000000  0.000000 ICntrl=       0 IOpCl=  0
         NMat0=    1 NMatS0=    1 NMatT0=    0 NMatD0=    1 NMtDS0=    0 NMtDT0=    0
         I1Cent=           0 NGrid=           0.
 Symmetry not used in FoFCou.
 E= -323.859130200295    
 DIIS: error= 3.33D-03 at cycle   1 NSaved=   1.
 NSaved= 1 IEnMin= 1 EnMin= -323.859130200295     IErMin= 1 ErrMin= 3.33D-03
 ErrMax= 3.33D-03 EMaxC= 1.00D-01 BMatC= 3.19D-03 BMatP= 3.19D-03
 IDIUse=3 WtCom= 9.67D-01 WtEn= 3.33D-02
 Coeff-Com:  0.100D+01
 Coeff-En:   0.100D+01
 Coeff:      0.100D+01
 Gap=     0.239 Goal=   None    Shift=    0.000
 GapD=    0.239 DampG=1.000 DampE=1.000 DampFc=1.0000 IDamp=-1.
 RMSDP=8.73D-04 MaxDP=3.28D-02              OVMax= 2.38D-02

 Cycle   2  Pass 1  IDiag  1:
 RMSU=  6.09D-04    CP:  9.91D-01
 E= -323.862624773374     Delta-E=       -0.003494573078 Rises=F Damp=F
 DIIS: error= 9.39D-04 at cycle   2 NSaved=   2.
 NSaved= 2 IEnMin= 2 EnMin= -323.862624773374     IErMin= 2 ErrMin= 9.39D-04
 ErrMax= 9.39D-04 EMaxC= 1.00D-01 BMatC= 1.29D-04 BMatP= 3.19D-03
 IDIUse=3 WtCom= 9.91D-01 WtEn= 9.39D-03
 Coeff-Com:  0.360D-01 0.964D+00
 Coeff-En:   0.000D+00 0.100D+01
 Coeff:      0.357D-01 0.964D+00
 Gap=     0.240 Goal=   None    Shift=    0.000
 RMSDP=1.06D-04 MaxDP=4.57D-03 DE=-3.49D-03 OVMax= 5.07D-03

 Cycle   3  Pass 1  IDiag  1:
 RMSU=  7.18D-05    CP:  9.90D-01  1.03D+00
 E= -323.862612706806     Delta-E=        0.000012066568 Rises=F Damp=F
 DIIS: error= 9.19D-04 at cycle   3 NSaved=   3.
 NSaved= 3 IEnMin= 2 EnMin= -323.862624773374     IErMin= 3 ErrMin= 9.19D-04
 ErrMax= 9.19D-04 EMaxC= 1.00D-01 BMatC= 1.63D-04 BMatP= 1.29D-04
 IDIUse=3 WtCom= 2.48D-01 WtEn= 7.52D-01
 Coeff-Com: -0.207D-01 0.537D+00 0.484D+00
 Coeff-En:   0.000D+00 0.527D+00 0.473D+00
 Coeff:     -0.514D-02 0.529D+00 0.476D+00
 Gap=     0.237 Goal=   None    Shift=    0.000
 RMSDP=8.36D-05 MaxDP=3.40D-03 DE= 1.21D-05 OVMax= 4.12D-03

 Cycle   4  Pass 1  IDiag  1:
 RMSU=  4.77D-05    CP:  9.91D-01  1.03D+00  5.71D-01
 E= -323.862725464566     Delta-E=       -0.000112757761 Rises=F Damp=F
 DIIS: error= 3.22D-04 at cycle   4 NSaved=   4.
 NSaved= 4 IEnMin= 4 EnMin= -323.862725464566     IErMin= 4 ErrMin= 3.22D-04
 ErrMax= 3.22D-04 EMaxC= 1.00D-01 BMatC= 1.76D-05 BMatP= 1.29D-04
 IDIUse=3 WtCom= 9.97D-01 WtEn= 3.22D-03
 Coeff-Com: -0.151D-01 0.264D+00 0.308D+00 0.444D+00
 Coeff-En:   0.000D+00 0.000D+00 0.270D-02 0.997D+00
 Coeff:     -0.151D-01 0.263D+00 0.307D+00 0.445D+00
 Gap=     0.237 Goal=   None    Shift=    0.000
 RMSDP=2.01D-05 MaxDP=5.39D-04 DE=-1.13D-04 OVMax= 1.57D-03

 Cycle   5  Pass 1  IDiag  1:
 RMSU=  1.17D-05    CP:  9.91D-01  1.03D+00  6.23D-01  8.49D-01
 E= -323.862737137795     Delta-E=       -0.000011673228 Rises=F Damp=F
 DIIS: error= 6.09D-05 at cycle   5 NSaved=   5.
 NSaved= 5 IEnMin= 5 EnMin= -323.862737137795     IErMin= 5 ErrMin= 6.09D-05
 ErrMax= 6.09D-05 EMaxC= 1.00D-01 BMatC= 8.93D-07 BMatP= 1.76D-05
 IDIUse=1 WtCom= 1.00D+00 WtEn= 0.00D+00
 Coeff-Com: -0.421D-02 0.536D-01 0.876D-01 0.226D+00 0.637D+00
 Coeff:     -0.421D-02 0.536D-01 0.876D-01 0.226D+00 0.637D+00
 Gap=     0.237 Goal=   None    Shift=    0.000
 RMSDP=6.67D-06 MaxDP=1.41D-04 DE=-1.17D-05 OVMax= 2.70D-04

 Cycle   6  Pass 1  IDiag  1:
 RMSU=  4.06D-06    CP:  9.91D-01  1.03D+00  6.33D-01  8.56D-01  8.06D-01
 E= -323.862737734666     Delta-E=       -0.000000596872 Rises=F Damp=F
 DIIS: error= 2.34D-05 at cycle   6 NSaved=   6.
 NSaved= 6 IEnMin= 6 EnMin= -323.862737734666     IErMin= 6 ErrMin= 2.34D-05
 ErrMax= 2.34D-05 EMaxC= 1.00D-01 BMatC= 1.06D-07 BMatP= 8.93D-07
 IDIUse=1 WtCom= 1.00D+00 WtEn= 0.00D+00
 Coeff-Com: -0.944D-03 0.667D-02 0.210D-01 0.823D-01 0.344D+00 0.547D+00
 Coeff:     -0.944D-03 0.667D-02 0.210D-01 0.823D-01 0.344D+00 0.547D+00
 Gap=     0.237 Goal=   None    Shift=    0.000
 RMSDP=2.06D-06 MaxDP=5.30D-05 DE=-5.97D-07 OVMax= 8.28D-05

 Cycle   7  Pass 1  IDiag  1:
 RMSU=  1.17D-06    CP:  9.91D-01  1.03D+00  6.38D-01  8.60D-01  8.18D-01
                    CP:  8.60D-01
 E= -323.862737810792     Delta-E=       -0.000000076125 Rises=F Damp=F
 DIIS: error= 6.19D-06 at cycle   7 NSaved=   7.
 NSaved= 7 IEnMin= 7 EnMin= -323.862737810792     IErMin= 7 ErrMin= 6.19D-06
 ErrMax= 6.19D-06 EMaxC= 1.00D-01 BMatC= 8.59D-09 BMatP= 1.06D-07
 IDIUse=1 WtCom= 1.00D+00 WtEn= 0.00D+00
 Coeff-Com:  0.767D-04-0.439D-02-0.181D-02 0.105D-01 0.868D-01 0.271D+00
 Coeff-Com:  0.638D+00
 Coeff:      0.767D-04-0.439D-02-0.181D-02 0.105D-01 0.868D-01 0.271D+00
 Coeff:      0.638D+00
 Gap=     0.237 Goal=   None    Shift=    0.000
 RMSDP=9.05D-07 MaxDP=4.40D-05 DE=-7.61D-08 OVMax= 2.20D-05

 Cycle   8  Pass 1  IDiag  1:
 RMSU=  3.50D-07    CP:  9.91D-01  1.03D+00  6.38D-01  8.69D-01  8.33D-01
                    CP:  8.58D-01  8.53D-01
 E= -323.862737817695     Delta-E=       -0.000000006903 Rises=F Damp=F
 DIIS: error= 8.75D-07 at cycle   8 NSaved=   8.
 NSaved= 8 IEnMin= 8 EnMin= -323.862737817695     IErMin= 8 ErrMin= 8.75D-07
 ErrMax= 8.75D-07 EMaxC= 1.00D-01 BMatC= 2.04D-10 BMatP= 8.59D-09
 IDIUse=1 WtCom= 1.00D+00 WtEn= 0.00D+00
 Coeff-Com:  0.620D-04-0.210D-02-0.157D-02 0.171D-02 0.258D-01 0.933D-01
 Coeff-Com:  0.254D+00 0.629D+00
 Coeff:      0.620D-04-0.210D-02-0.157D-02 0.171D-02 0.258D-01 0.933D-01
 Coeff:      0.254D+00 0.629D+00
 Gap=     0.237 Goal=   None    Shift=    0.000
 RMSDP=1.09D-07 MaxDP=4.17D-06 DE=-6.90D-09 OVMax= 3.67D-06

 Cycle   9  Pass 1  IDiag  1:
 RMSU=  5.99D-08    CP:  9.91D-01  1.03D+00  6.38D-01  8.69D-01  8.34D-01
                    CP:  8.64D-01  8.66D-01  1.02D+00
 E= -323.862737817812     Delta-E=       -0.000000000117 Rises=F Damp=F
 DIIS: error= 4.27D-07 at cycle   9 NSaved=   9.
 NSaved= 9 IEnMin= 9 EnMin= -323.862737817812     IErMin= 9 ErrMin= 4.27D-07
 ErrMax= 4.27D-07 EMaxC= 1.00D-01 BMatC= 5.73D-11 BMatP= 2.04D-10
 IDIUse=1 WtCom= 1.00D+00 WtEn= 0.00D+00
 Coeff-Com:  0.204D-04-0.413D-03-0.590D-03-0.825D-03-0.580D-03 0.549D-02
 Coeff-Com:  0.335D-01 0.360D+00 0.603D+00
 Coeff:      0.204D-04-0.413D-03-0.590D-03-0.825D-03-0.580D-03 0.549D-02
 Coeff:      0.335D-01 0.360D+00 0.603D+00
 Gap=     0.237 Goal=   None    Shift=    0.000
 RMSDP=8.63D-08 MaxDP=7.07D-06 DE=-1.17D-10 OVMax= 2.14D-06

 Cycle  10  Pass 1  IDiag  1:
 RMSU=  2.94D-08    CP:  9.91D-01  1.03D+00  6.38D-01  8.70D-01  8.36D-01
                    CP:  8.69D-01  8.77D-01  1.01D+00  7.91D-01
 E= -323.862737817851     Delta-E=       -0.000000000039 Rises=F Damp=F
 DIIS: error= 6.24D-08 at cycle  10 NSaved=  10.
 NSaved=10 IEnMin=10 EnMin= -323.862737817851     IErMin=10 ErrMin= 6.24D-08
 ErrMax= 6.24D-08 EMaxC= 1.00D-01 BMatC= 1.02D-12 BMatP= 5.73D-11
 IDIUse=1 WtCom= 1.00D+00 WtEn= 0.00D+00
 Coeff-Com:  0.155D-05 0.219D-04-0.432D-04-0.216D-03-0.145D-02-0.320D-02
 Coeff-Com: -0.526D-02 0.513D-01 0.168D+00 0.791D+00
 Coeff:      0.155D-05 0.219D-04-0.432D-04-0.216D-03-0.145D-02-0.320D-02
 Coeff:     -0.526D-02 0.513D-01 0.168D+00 0.791D+00
 Gap=     0.237 Goal=   None    Shift=    0.000
 RMSDP=1.09D-08 MaxDP=5.07D-07 DE=-3.92D-11 OVMax= 3.44D-07

 Cycle  11  Pass 1  IDiag  1:
 RMSU=  5.12D-09    CP:  9.91D-01  1.03D+00  6.38D-01  8.70D-01  8.36D-01
                    CP:  8.69D-01  8.78D-01  1.02D+00  8.29D-01  9.16D-01
 E= -323.862737817847     Delta-E=        0.000000000004 Rises=F Damp=F
 DIIS: error= 2.07D-08 at cycle  11 NSaved=  11.
 NSaved=11 IEnMin=10 EnMin= -323.862737817851     IErMin=11 ErrMin= 2.07D-08
 ErrMax= 2.07D-08 EMaxC= 1.00D-01 BMatC= 7.31D-14 BMatP= 1.02D-12
 IDIUse=1 WtCom= 1.00D+00 WtEn= 0.00D+00
 Coeff-Com: -0.146D-07 0.203D-04 0.457D-05-0.536D-04-0.552D-03-0.134D-02
 Coeff-Com: -0.318D-02 0.487D-02 0.382D-01 0.286D+00 0.676D+00
 Coeff:     -0.146D-07 0.203D-04 0.457D-05-0.536D-04-0.552D-03-0.134D-02
 Coeff:     -0.318D-02 0.487D-02 0.382D-01 0.286D+00 0.676D+00
 Gap=     0.237 Goal=   None    Shift=    0.000
 RMSDP=3.19D-09 MaxDP=2.39D-07 DE= 4.09D-12 OVMax= 9.37D-08

 Error on total polarization charges =  0.01215
 SCF Done:  E(RB3LYP) =  -323.862737818     A.U. after   11 cycles
             Convg  =    0.3186D-08             -V/T =  2.0038
 KE= 3.226262381678D+02 PE=-1.257031533710D+03 EE= 3.613365518795D+02
 Leave Link  502 at Sat Apr 16 14:42:41 2016, MaxMem=   33554432 cpu:     196.0
 (Enter c:\G09w05\l701.exe)
 Compute integral first derivatives.
 ... and contract with generalized density number  0.
 D1PCM: C-PCM CHGder 1st derivatives, ID1Alg=3 FixD1E=F DoIter=F DoCFld=F I1PDM=0.
 GePol: Maximum number of non-zero 1st derivatives   =     219
 Leave Link  701 at Sat Apr 16 14:42:45 2016, MaxMem=   33554432 cpu:       4.0
 (Enter c:\G09w05\l702.exe)
 L702 exits ... SP integral derivatives will be done elsewhere.
 Leave Link  702 at Sat Apr 16 14:42:46 2016, MaxMem=   33554432 cpu:       0.0
 (Enter c:\G09w05\l703.exe)
 Compute integral first derivatives, UseDBF=F ICtDFT=           0.
 Integral derivatives from FoFDir, PRISM(SPDF).
 Calling FoFJK, ICntrl=      2127 FMM=F ISym2X=0 I1Cent= 0 IOpClX= 0 NMat=1 NMatS=1 NMatT=0.
 FoFCou: FMM=F IPFlag=           0 FMFlag=      100000 FMFlg1=         800
         NFxFlg=           0 DoJE=F BraDBF=F KetDBF=F FulRan=T
         Omega=  0.000000  0.000000  1.000000  0.000000  0.000000 ICntrl=    2127 IOpCl=  0
         NMat0=    1 NMatS0=    1 NMatT0=    0 NMatD0=    1 NMtDS0=    0 NMtDT0=    0
         I1Cent=           0 NGrid=           0.
 Symmetry not used in FoFCou.
 Leave Link  703 at Sat Apr 16 14:43:35 2016, MaxMem=   33554432 cpu:      49.0
 (Enter c:\G09w05\l716.exe)
 Dipole        = 1.00978633D+00-1.15687527D-01 8.68663653D-01
 -------------------------------------------------------------------
 Center     Atomic                   Forces (Hartrees/Bohr)
 Number     Number              X              Y              Z
 -------------------------------------------------------------------
      1        7          -0.006686584   -0.004120019   -0.006270348
      2        1           0.004224328    0.000351338    0.001780190
      3        6           0.000841748    0.005722878    0.000613688
      4        1           0.000133351    0.000200958   -0.000089938
      5        6          -0.000230857   -0.000422304   -0.000608304
      6        6          -0.004336970   -0.005484651    0.003014135
      7        1           0.000267357    0.000323562    0.000275078
      8        1           0.000074756   -0.000235606    0.000002140
      9        1           0.000208668    0.000196836    0.000302238
     10        8           0.001779339    0.001105348    0.000100740
     11        1           0.003369484   -0.000830513    0.003599808
     12        8           0.000639695    0.003604025   -0.003710465
     13        1          -0.000284314   -0.000411853    0.000991040
 -------------------------------------------------------------------
 Cartesian Forces:  Max     0.006686584 RMS     0.002645289
 Leave Link  716 at Sat Apr 16 14:43:35 2016, MaxMem=   33554432 cpu:       0.0
 (Enter c:\G09w05\l103.exe)

 GradGradGradGradGradGradGradGradGradGradGradGradGradGradGradGradGradGrad
 Berny optimization.
 Using GEDIIS/GDIIS optimizer.
 Internal  Forces:  Max     0.004643214 RMS     0.001371629
 Search for a local minimum.
 Step number   2 out of a maximum of   64
 All quantities printed in internal units (Hartrees-Bohrs-Radians)
 RMS Force = .13716D-02 SwitMx=.10000D-02 MixMth= 1
 Mixed Optimization -- RFO/linear search
 Update second derivatives using D2CorX and points    1    2
 DE= -3.79D-03 DEPred=-3.08D-03 R= 1.23D+00
 SS=  1.41D+00  RLast= 2.91D-01 DXNew= 5.0454D-01 8.7154D-01
 Trust test= 1.23D+00 RLast= 2.91D-01 DXMaxT set to 5.05D-01
 ITU=  1  0
 Use linear search instead of GDIIS.
     Eigenvalues ---    0.00230   0.00548   0.00865   0.00895   0.01896
     Eigenvalues ---    0.02544   0.04101   0.05021   0.05417   0.05699
     Eigenvalues ---    0.06862   0.15876   0.16000   0.16000   0.16000
     Eigenvalues ---    0.16000   0.16740   0.17796   0.18804   0.24717
     Eigenvalues ---    0.25051   0.27621   0.30703   0.34056   0.34173
     Eigenvalues ---    0.34244   0.34357   0.37317   0.44738   0.45694
     Eigenvalues ---    0.48982   0.52528   0.95653
 RFO step:  Lambda=-9.93571208D-04 EMin= 2.30087375D-03
 Quartic linear search produced a step of  0.20280.
 Iteration  1 RMS(Cart)=  0.03851185 RMS(Int)=  0.00185907
 Iteration  2 RMS(Cart)=  0.00177879 RMS(Int)=  0.00124839
 Iteration  3 RMS(Cart)=  0.00000349 RMS(Int)=  0.00124839
 Iteration  4 RMS(Cart)=  0.00000002 RMS(Int)=  0.00124839
 Variable       Old X    -DE/DX   Delta X   Delta X   Delta X     New X
                                 (Linear)    (Quad)   (Total)
    R1        1.90696   0.00337  -0.00084   0.00877   0.00794   1.91489
    R2        2.75132   0.00464  -0.00208   0.01510   0.01302   2.76433
    R3        1.90813   0.00337  -0.00089   0.00881   0.00792   1.91605
    R4        2.06238   0.00018  -0.00106   0.00071  -0.00035   2.06203
    R5        2.91829   0.00005  -0.00253   0.00048  -0.00205   2.91625
    R6        2.86620   0.00231   0.00010   0.00889   0.00899   2.87519
    R7        2.06377   0.00022  -0.00140   0.00090  -0.00051   2.06326
    R8        2.06734  -0.00025  -0.00099  -0.00077  -0.00176   2.06559
    R9        2.06439   0.00019  -0.00103   0.00075  -0.00028   2.06411
   R10        2.28719  -0.00080  -0.00801  -0.00062  -0.00863   2.27855
   R11        2.56273  -0.00413  -0.01066  -0.00933  -0.01999   2.54274
   R12        1.83312   0.00044  -0.00443   0.00132  -0.00311   1.83000
    A1        1.94549  -0.00116  -0.01358  -0.02461  -0.04101   1.90448
    A2        1.92726  -0.00172  -0.01311  -0.03971  -0.05856   1.86870
    A3        1.95444   0.00002  -0.00993  -0.01640  -0.02908   1.92536
    A4        1.88266   0.00008  -0.00132   0.00088  -0.00044   1.88222
    A5        2.01238  -0.00033   0.00097  -0.00170  -0.00074   2.01164
    A6        1.90934   0.00041   0.00209   0.00368   0.00576   1.91510
    A7        1.89768  -0.00001  -0.00101  -0.00191  -0.00292   1.89476
    A8        1.84104  -0.00017  -0.00033  -0.00175  -0.00207   1.83897
    A9        1.91276   0.00002  -0.00055   0.00070   0.00014   1.91290
   A10        1.89938   0.00060  -0.00196   0.00514   0.00317   1.90255
   A11        1.94707  -0.00023  -0.00022  -0.00219  -0.00241   1.94467
   A12        1.92949   0.00045   0.00100   0.00323   0.00423   1.93371
   A13        1.89099  -0.00023   0.00042  -0.00197  -0.00156   1.88943
   A14        1.89622  -0.00042   0.00024  -0.00206  -0.00182   1.89440
   A15        1.89966  -0.00018   0.00053  -0.00227  -0.00174   1.89791
   A16        2.19863  -0.00228  -0.00227  -0.01094  -0.01572   2.18291
   A17        1.95358   0.00083   0.00231   0.00322   0.00296   1.95654
   A18        2.13093   0.00145   0.00010   0.00639   0.00385   2.13478
   A19        1.88207   0.00178  -0.00906   0.01452   0.00545   1.88752
    D1        0.99098   0.00134   0.01615   0.02959   0.04417   1.03514
    D2       -1.13319   0.00151   0.01779   0.03253   0.04876  -1.08443
    D3        2.98520   0.00139   0.01614   0.02989   0.04445   3.02965
    D4       -3.12326  -0.00179  -0.02451  -0.05352  -0.07645   3.08347
    D5        1.03576  -0.00162  -0.02286  -0.05058  -0.07186   0.96390
    D6       -1.12904  -0.00173  -0.02451  -0.05322  -0.07617  -1.20521
    D7        1.04010  -0.00007  -0.00001   0.00072   0.00071   1.04081
    D8        3.12558  -0.00011  -0.00090   0.00025  -0.00065   3.12493
    D9       -1.04114  -0.00019   0.00031  -0.00190  -0.00159  -1.04274
   D10       -1.07595   0.00006   0.00181   0.00217   0.00399  -1.07197
   D11        1.00953   0.00002   0.00092   0.00171   0.00262   1.01215
   D12        3.12599  -0.00006   0.00213  -0.00044   0.00168   3.12767
   D13       -3.08009   0.00025   0.00305   0.00492   0.00797  -3.07211
   D14       -0.99461   0.00021   0.00216   0.00445   0.00661  -0.98800
   D15        1.12186   0.00013   0.00337   0.00231   0.00567   1.12753
   D16       -2.28887  -0.00068   0.00317  -0.07980  -0.07634  -2.36521
   D17        0.86375   0.00032  -0.00284   0.05693   0.05381   0.91756
   D18       -0.26794  -0.00048   0.00246  -0.07794  -0.07519  -0.34313
   D19        2.88468   0.00052  -0.00354   0.05879   0.05496   2.93964
   D20        1.77216  -0.00057   0.00084  -0.08076  -0.07964   1.69251
   D21       -1.35840   0.00044  -0.00517   0.05597   0.05051  -1.30790
   D22       -3.13551  -0.00076  -0.00013  -0.07813  -0.07880   3.06887
   D23        0.01662   0.00023  -0.00580   0.05261   0.04735   0.06397
         Item               Value     Threshold  Converged?
 Maximum Force            0.004643     0.000450     NO 
 RMS     Force            0.001372     0.000300     NO 
 Maximum Displacement     0.121508     0.001800     NO 
 RMS     Displacement     0.038320     0.001200     NO 
 Predicted change in Energy=-6.985881D-04
 GradGradGradGradGradGradGradGradGradGradGradGradGradGradGradGradGradGrad

 Leave Link  103 at Sat Apr 16 14:43:35 2016, MaxMem=   33554432 cpu:       0.0
 (Enter c:\G09w05\l202.exe)
                          Input orientation:                          
 ---------------------------------------------------------------------
 Center     Atomic      Atomic             Coordinates (Angstroms)
 Number     Number       Type             X           Y           Z
 ---------------------------------------------------------------------
      1          7           0        1.228546   -1.183395   -0.579529
      2          1           0        2.192186   -1.096324   -0.880572
      3          6           0        0.647974    0.151912   -0.439020
      4          1           0        0.711758    0.647975   -1.408828
      5          6           0        1.318383    1.053451    0.618939
      6          6           0       -0.839831    0.036427   -0.142345
      7          1           0        2.369887    1.187375    0.357217
      8          1           0        0.847471    2.039026    0.659803
      9          1           0        1.262477    0.596431    1.609432
     10          8           0       -1.703404    0.697910   -0.662475
     11          1           0        1.238300   -1.659012    0.315875
     12          8           0       -1.086235   -0.774772    0.902534
     13          1           0       -2.037644   -0.754880    1.082025
 ---------------------------------------------------------------------
                    Distance matrix (angstroms):
                    1          2          3          4          5
     1  N    0.000000
     2  H    1.013317   0.000000
     3  C    1.462823   2.034121   0.000000
     4  H    2.075747   2.348042   1.091180   0.000000
     5  C    2.539267   2.762896   1.543211   2.155050   0.000000
     6  C    2.440754   3.319823   1.521485   2.094134   2.504351
     7  H    2.792974   2.603647   2.161287   2.481785   1.091832
     8  H    3.473494   3.743185   2.192809   2.496532   1.093062
     9  H    2.821433   3.151174   2.184347   3.068524   1.092277
    10  O    3.484612   4.294469   2.424258   2.528348   3.301459
    11  H    1.013930   1.630338   2.048852   2.928146   2.730516
    12  O    2.778793   3.745784   2.380334   3.255669   3.033976
    13  H    3.689496   4.675450   3.216892   3.966303   3.840238
                    6          7          8          9         10
     6  C    0.000000
     7  H    3.446234   0.000000
     8  H    2.738764   1.770486   0.000000
     9  H    2.793210   1.773025   1.776261   0.000000
    10  O    1.205759   4.227417   3.170801   3.737421   0.000000
    11  H    2.720865   3.063350   3.734504   2.600173   3.894339
    12  O    1.345560   4.011505   3.422805   2.810044   2.235832
    13  H    1.886798   4.870732   4.038325   3.604857   2.294689
                   11         12         13
    11  H    0.000000
    12  O    2.555290   0.000000
    13  H    3.483711   0.968397   0.000000
 Symmetry turned off by external request.
 Stoichiometry    C3H7NO2
 Framework group  C1[X(C3H7NO2)]
 Deg. of freedom    33
 Full point group                 C1      NOp   1
 Rotational constants (GHZ):      5.0445135      2.8272234      2.5165793
 Leave Link  202 at Sat Apr 16 14:43:35 2016, MaxMem=   33554432 cpu:       0.0
 (Enter c:\G09w05\l301.exe)
 Standard basis: 6-311++G(d,p) (5D, 7F)
 Ernie: Thresh=  0.10000D-02 Tol=  0.10000D-05 Strict=F.
 Integral buffers will be    262144 words long.
 Raffenetti 2 integral format.
 Two-electron integral symmetry is turned off.
   181 basis functions,   279 primitive gaussians,   187 cartesian basis functions
    24 alpha electrons       24 beta electrons
       nuclear repulsion energy       249.4084854994 Hartrees.
 IExCor=  402 DFT=T Ex+Corr=B3LYP ExCW=0 ScaHFX=  0.200000
 ScaDFX=  0.800000  0.720000  1.000000  0.810000 ScalE2=  1.000000  1.000000
 IRadAn=      0 IRanWt=     -1 IRanGd=            0 ICorTp=0
 NAtoms=   13 NActive=   13 NUniq=   13 SFac= 1.00D+00 NAtFMM=   50 NAOKFM=F Big=F
 ------------------------------------------------------------------------------
 Polarizable Continuum Model (PCM)
 =================================
 Model                : C-PCM.
 Atomic radii         : UFF (Universal Force Field).
 Polarization charges : Total charges.
 Charge compensation  : None.
 Solution method      : Matrix inversion.
 Cavity type          : Scaled VdW (van der Waals Surface) (Alpha=1.100).
 Cavity algorithm     : GePol (No added spheres)
                        Default sphere list used, NSphG=   13.
                        Lebedev-Laikov grids with approx.  5.0 points / Ang**2.
                        Smoothing algorithm: Karplus/York (Gamma=1.0000).
                        Polarization charges: spherical gaussians, with
                                              point-specific exponents (IZeta= 3).
                        Self-potential: point-specific (ISelfS= 7).
                        Self-field    : sphere-specific E.n sum rule (ISelfD= 2).
 1st derivatives      : Analytical E(r).r(x)/FMM algorithm (CHGder, D1EAlg=3).
                        Cavity 1st derivative terms included.
 Solvent              : Water, Eps=  78.355300 Eps(inf)=   1.777849
 ------------------------------------------------------------------------------
 Spheres list:
 ISph  on   Nord    Re0     Alpha      Xe            Ye            Ze
    1   N      1    1.830   1.100      1.228546     -1.183395     -0.579529
    2   H      2    1.443   1.100      2.192186     -1.096324     -0.880572
    3   C      3    1.926   1.100      0.647974      0.151912     -0.439020
    4   H      4    1.443   1.100      0.711758      0.647975     -1.408828
    5   C      5    1.926   1.100      1.318383      1.053451      0.618939
    6   C      6    1.926   1.100     -0.839831      0.036427     -0.142345
[...]
   A12        1.93354   0.00000   0.00000  -0.00001  -0.00001   1.93352
   A13        1.88927   0.00000   0.00000   0.00000   0.00000   1.88927
   A14        1.89309   0.00000   0.00000   0.00001   0.00001   1.89309
   A15        1.89736   0.00000   0.00000  -0.00001  -0.00001   1.89735
   A16        2.17507   0.00000   0.00000   0.00000   0.00000   2.17507
   A17        1.96612   0.00000   0.00000   0.00001   0.00001   1.96614
   A18        2.14110   0.00000   0.00000  -0.00001  -0.00001   2.14108
   A19        1.89566   0.00000   0.00000  -0.00001  -0.00001   1.89564
    D1        1.03369   0.00000   0.00000  -0.00009  -0.00009   1.03360
    D2       -1.08331   0.00000   0.00000  -0.00009  -0.00009  -1.08340
    D3        3.03652   0.00000   0.00000  -0.00014  -0.00014   3.03639
    D4        3.07358   0.00000   0.00000  -0.00011  -0.00011   3.07346
    D5        0.95658   0.00000   0.00000  -0.00012  -0.00012   0.95646
    D6       -1.20677   0.00000   0.00000  -0.00016  -0.00016  -1.20693
    D7        1.03740   0.00000   0.00000   0.00001   0.00001   1.03741
    D8        3.12273   0.00000   0.00000   0.00002   0.00002   3.12276
    D9       -1.04619   0.00000   0.00000   0.00002   0.00002  -1.04618
   D10       -1.07074   0.00000   0.00000   0.00003   0.00003  -1.07071
   D11        1.01459   0.00000   0.00000   0.00004   0.00004   1.01463
   D12        3.12885   0.00000   0.00000   0.00004   0.00004   3.12889
   D13       -3.06757   0.00000   0.00000   0.00000   0.00000  -3.06757
   D14       -0.98224   0.00000   0.00000   0.00001   0.00001  -0.98223
   D15        1.13202   0.00000   0.00000   0.00000   0.00000   1.13203
   D16       -2.47140   0.00000   0.00000   0.00033   0.00033  -2.47107
   D17        0.71481   0.00000   0.00000   0.00027   0.00027   0.71508
   D18       -0.44399   0.00000   0.00000   0.00028   0.00028  -0.44371
   D19        2.74222   0.00000   0.00000   0.00022   0.00022   2.74244
   D20        1.58864   0.00000   0.00000   0.00033   0.00033   1.58897
   D21       -1.50833   0.00000   0.00000   0.00027   0.00027  -1.50806
   D22        3.09983   0.00000   0.00000   0.00007   0.00007   3.09990
   D23        0.00186   0.00000   0.00000   0.00001   0.00001   0.00187
         Item               Value     Threshold  Converged?
 Maximum Force            0.000011     0.000450     YES
 RMS     Force            0.000002     0.000300     YES
 Maximum Displacement     0.000511     0.001800     YES
 RMS     Displacement     0.000125     0.001200     YES
 Predicted change in Energy=-1.077924D-09
 Optimization completed.
    -- Stationary point found.
                           ----------------------------
                           !   Optimized Parameters   !
                           ! (Angstroms and Degrees)  !
 --------------------------                            --------------------------
 ! Name  Definition              Value          Derivative Info.                !
 --------------------------------------------------------------------------------
 ! R1    R(1,2)                  1.016          -DE/DX =    0.0                 !
 ! R2    R(1,3)                  1.4678         -DE/DX =    0.0                 !
 ! R3    R(1,11)                 1.0165         -DE/DX =    0.0                 !
 ! R4    R(3,4)                  1.0916         -DE/DX =    0.0                 !
 ! R5    R(3,5)                  1.5434         -DE/DX =    0.0                 !
 ! R6    R(3,6)                  1.521          -DE/DX =    0.0                 !
 ! R7    R(5,7)                  1.0924         -DE/DX =    0.0                 !
 ! R8    R(5,8)                  1.0933         -DE/DX =    0.0                 !
 ! R9    R(5,9)                  1.0932         -DE/DX =    0.0                 !
 ! R10   R(6,10)                 1.2111         -DE/DX =    0.0                 !
 ! R11   R(6,12)                 1.3464         -DE/DX =    0.0                 !
 ! R12   R(12,13)                0.9706         -DE/DX =    0.0                 !
 ! A1    A(2,1,3)              109.1025         -DE/DX =    0.0                 !
 ! A2    A(2,1,11)             106.6705         -DE/DX =    0.0                 !
 ! A3    A(3,1,11)             110.3309         -DE/DX =    0.0                 !
 ! A4    A(1,3,4)              107.7076         -DE/DX =    0.0                 !
 ! A5    A(1,3,5)              115.0408         -DE/DX =    0.0                 !
 ! A6    A(1,3,6)              110.5809         -DE/DX =    0.0                 !
 ! A7    A(4,3,5)              108.6378         -DE/DX =    0.0                 !
 ! A8    A(4,3,6)              105.4566         -DE/DX =    0.0                 !
 ! A9    A(5,3,6)              108.9597         -DE/DX =    0.0                 !
 ! A10   A(3,5,7)              109.1695         -DE/DX =    0.0                 !
 ! A11   A(3,5,8)              111.3846         -DE/DX =    0.0                 !
 ! A12   A(3,5,9)              110.7835         -DE/DX =    0.0                 !
 ! A13   A(7,5,8)              108.2469         -DE/DX =    0.0                 !
 ! A14   A(7,5,9)              108.4658         -DE/DX =    0.0                 !
 ! A15   A(8,5,9)              108.7105         -DE/DX =    0.0                 !
 ! A16   A(3,6,10)             124.6222         -DE/DX =    0.0                 !
 ! A17   A(3,6,12)             112.6506         -DE/DX =    0.0                 !
 ! A18   A(10,6,12)            122.6757         -DE/DX =    0.0                 !
 ! A19   A(6,12,13)            108.6131         -DE/DX =    0.0                 !
 ! D1    D(2,1,3,4)             59.2258         -DE/DX =    0.0                 !
 ! D2    D(2,1,3,5)            -62.0692         -DE/DX =    0.0                 !
 ! D3    D(2,1,3,6)            173.9801         -DE/DX =    0.0                 !
 ! D4    D(11,1,3,4)           176.1029         -DE/DX =    0.0                 !
 ! D5    D(11,1,3,5)            54.8079         -DE/DX =    0.0                 !
 ! D6    D(11,1,3,6)           -69.1429         -DE/DX =    0.0                 !
 ! D7    D(1,3,5,7)             59.4385         -DE/DX =    0.0                 !
 ! D8    D(1,3,5,8)            178.9195         -DE/DX =    0.0                 !
 ! D9    D(1,3,5,9)            -59.9424         -DE/DX =    0.0                 !
 ! D10   D(4,3,5,7)            -61.3491         -DE/DX =    0.0                 !
 ! D11   D(4,3,5,8)             58.1318         -DE/DX =    0.0                 !
 ! D12   D(4,3,5,9)            179.2699         -DE/DX =    0.0                 !
 ! D13   D(6,3,5,7)           -175.7589         -DE/DX =    0.0                 !
 ! D14   D(6,3,5,8)            -56.2779         -DE/DX =    0.0                 !
 ! D15   D(6,3,5,9)             64.8601         -DE/DX =    0.0                 !
 ! D16   D(1,3,6,10)          -141.6008         -DE/DX =    0.0                 !
 ! D17   D(1,3,6,12)            40.9557         -DE/DX =    0.0                 !
 ! D18   D(4,3,6,10)           -25.4386         -DE/DX =    0.0                 !
 ! D19   D(4,3,6,12)           157.1179         -DE/DX =    0.0                 !
 ! D20   D(5,3,6,10)            91.0225         -DE/DX =    0.0                 !
 ! D21   D(5,3,6,12)           -86.421          -DE/DX =    0.0                 !
 ! D22   D(3,6,12,13)          177.6073         -DE/DX =    0.0                 !
 ! D23   D(10,6,12,13)           0.1066         -DE/DX =    0.0                 !
 --------------------------------------------------------------------------------
 GradGradGradGradGradGradGradGradGradGradGradGradGradGradGradGradGradGrad

 Leave Link  103 at Sat Apr 16 15:49:31 2016, MaxMem=   33554432 cpu:       0.0
 (Enter c:\G09w05\l9999.exe)
 1|1|UNPC-WIN-20150318OUM|Freq|RB3LYP|6-311++G(d,p)|C3H7N1O2|ADMINISTRA
 TOR|16-Apr-2016|0||#P Geom=AllCheck Guess=TCheck SCRF=Check GenChk RB3
 LYP/6-311++G(d,p) Freq||Ala-S-opt-freq-cpcm-w-pb1-6-311++gdp||0,1|N,1.
 2181748814,-1.1935798235,-0.5401749843|H,2.1803752529,-1.1179570218,-0
 .857495388|C,0.6424534586,0.1518665188,-0.4273009195|H,0.6970946837,0.
 620064712,-1.4118916092|C,1.3355027403,1.0751650786,0.5970805593|C,-0.
 8403287626,0.0730320713,-0.097649951|H,2.3853080841,1.1947291125,0.319
 5394237|H,0.8722668336,2.0651902288,0.6187631827|H,1.2895973583,0.6444
 672747,1.6007735336|O,-1.68647682,0.8107072543,-0.5522613943|H,1.24610
 5501,-1.643356913,0.370970191|O,-1.1198335013,-0.8821681602,0.80909650
 17|H,-2.0703737101,-0.8560363325,1.0036068544||Version=IA32W-G09RevB.0
 1|HF=-323.8634336|RMSD=3.214e-009|RMSF=4.649e-006|ZeroPoint=0.1071352|
 Thermal=0.1141601|Dipole=1.0084175,-0.1236233,0.8691901|DipoleDeriv=-0
 .5058955,0.0854704,-0.0523236,0.0155191,-0.8570391,-0.2436695,-0.03945
 75,-0.1875607,-0.4734574,0.0337194,0.0244376,0.0608693,-0.0429086,0.20
 61521,0.0845759,-0.0082144,0.0905975,0.3217721,0.1154145,-0.243054,-0.
 0046915,-0.1720752,0.6600007,0.2085968,-0.0050077,0.0794006,0.292804,0
 .0383712,0.0062951,-0.0147061,0.032376,-0.0090033,0.0390918,0.0048646,
 0.0656472,-0.096368,-0.0129789,-0.0330478,-0.0343467,0.0550826,-0.0449
 435,-0.1059025,0.0611438,-0.1070143,0.0460643,1.688818,-0.2074936,0.07
 90154,-0.2851143,1.4930156,-1.0182285,-0.0232891,-1.0630724,1.1851819,
 -0.1591146,-0.0398612,0.0376599,-0.0308408,0.0817617,-0.0204848,0.0472
 431,-0.018847,0.047504,0.047507,0.1090491,-0.0123267,0.0743894,-0.1639
 981,-0.0517157,-0.0202975,-0.0234481,0.0689676,0.081798,-0.0363988,0.0
 144298,-0.0152224,0.0161573,0.1189773,-0.0191569,0.0517494,-0.1179967,
 -1.2497221,0.4996377,-0.3450003,0.3241762,-0.9667426,0.4244263,-0.0922
 24,0.3528456,-0.7526985,0.2543403,0.1008622,0.0061718,0.0676779,0.2698
 526,0.0003191,0.0004102,0.0969668,0.0595933,-0.6264873,-0.3290355,0.29
 0135,-0.0996861,-1.0666412,0.5487761,0.1288669,0.6429653,-0.9902553,0.
 29423,0.0631389,-0.0248863,0.0766261,0.3814277,0.0152378,-0.0348814,0.
 01977,0.4088887|Polar=71.6933933,-2.3927785,68.6914311,1.4333556,-4.26
 882,61.6746706|PG=C01 [X(C3H7N1O2)]|NImag=0||0.54259678,-0.06800202,0.
 38966474,-0.14111910,-0.17560619,0.49992270,-0.38461374,-0.01480952,0.
 13517003,0.39680553,-0.03921324,-0.04793997,0.03714706,0.01813415,0.05
 557694,0.09391859,0.02547222,-0.06623754,-0.13123077,-0.02643328,0.079
 05428,-0.09568531,0.02169349,0.01456736,-0.01508000,0.03886938,0.00291
 855,0.47339377,0.06400404,-0.17958853,0.02067583,-0.00444829,-0.002511
 59,-0.00247532,-0.01986139,0.47186657,0.03337457,-0.00838724,-0.088140
 98,0.00211517,-0.01497210,-0.00145367,-0.03215438,-0.09716356,0.570116
 47,0.00089047,0.01066561,-0.01367549,0.00040267,-0.00028829,-0.0003949
 5,-0.05154107,-0.00480321,0.01546150,0.05882444,-0.00046162,-0.0227173
 2,0.02903075,-0.00019559,0.00100492,-0.00005431,-0.00514479,-0.0910908
 9,0.09665976,0.00479875,0.11201153,-0.00117611,-0.00104118,0.00565618,
 -0.00038387,0.00047544,0.00022514,0.01876399,0.10216749,-0.26464212,-0
 .01559650,-0.10672813,0.28429707,0.00748481,0.01438971,0.01037558,0.00
 186120,0.00082119,0.00038997,-0.09937802,-0.02978011,-0.03515831,0.001
 10374,0.00025434,0.00031433,0.54388206,-0.00825460,-0.03662462,-0.0255
 6495,-0.00115690,0.00157431,0.00088294,-0.01523741,-0.09336106,-0.0263
 3999,0.00482365,0.00762200,0.00587276,-0.03847905,0.52066481,-0.000074
 34,-0.00594550,0.00043353,-0.00000022,-0.00003072,-0.00038240,-0.02314
 518,-0.02737710,-0.11849802,-0.01650116,-0.01951568,-0.02150189,-0.038
 43279,-0.05411230,0.51002386,-0.01258186,0.00882273,0.00193094,0.00195
 659,-0.00103289,0.00022923,-0.16933095,-0.00187136,0.02980036,-0.00294
 689,-0.00203215,-0.00178618,-0.01882900,-0.01660619,-0.01044743,0.7732
 6702,0.03644234,-0.00378384,-0.01162691,0.00253360,-0.00723378,0.00115
 888,-0.01954900,-0.07735906,0.00018379,-0.01390850,-0.00250698,0.00429
 614,-0.02179598,-0.00241409,0.00453982,-0.19071734,0.54006551,0.005057
 21,-0.00055588,-0.00175536,-0.00092803,0.00040243,0.00032546,0.0284712
 3,-0.00492388,-0.09217748,0.03160325,0.00368203,-0.00830787,-0.0259088
 8,-0.00111473,0.00781783,0.05226177,-0.21757673,0.41126528,0.00229393,
 0.00070345,0.00037555,0.00034903,-0.00064855,-0.00016352,-0.01644542,-
 0.00146099,0.00322026,0.00059940,0.00035937,-0.00013822,-0.28936447,-0
 .02636517,0.06783584,0.00253335,-0.00133452,-0.00333653,0.31342218,0.0
 0026780,0.00215305,0.00117373,0.00042528,-0.00053637,-0.00037021,-0.02
 117443,-0.00499450,0.00340374,0.00085865,0.00062102,0.00034654,-0.0248
 2958,-0.04799636,0.00851814,0.00143955,-0.00274846,-0.00350999,0.02992
 187,0.04986577,0.00037315,0.00233351,0.00100604,0.00049592,-0.00019020
 ,0.00001195,-0.02551270,-0.00494501,0.00336200,0.00033608,0.00085137,0
 .00129812,0.06931151,0.00825106,-0.06405280,0.00135799,-0.00331900,-0.
 00431548,-0.07205417,-0.00557591,0.06822678,0.00014404,-0.00293987,-0.
 00239455,-0.00000858,-0.00032104,-0.00027528,0.00628282,-0.01332432,0.
 00189843,0.00048158,0.00048248,0.00030313,-0.09575158,0.10262570,0.000
 89939,-0.00031850,-0.00079205,0.00051872,-0.01158795,0.02794072,-0.000
 17189,0.10018642,-0.00182317,-0.00426965,-0.00427897,-0.00026938,0.000
 21198,0.00036779,0.00808142,-0.01410426,0.00287516,0.00000365,0.000639
 42,-0.00019786,0.10091669,-0.25988246,-0.00325368,0.00156549,-0.001350
 03,0.00026410,-0.00148316,0.00446063,0.00005221,-0.11106463,0.28243352
 ,-0.00208943,-0.00536624,-0.00269228,-0.00032322,0.00049322,0.00042881
 ,0.01135188,-0.01674236,0.00084255,0.00060544,0.00066181,0.00045976,0.
 00019500,-0.00200499,-0.04791370,0.00042276,-0.00043135,0.00069927,0.0
 0313374,-0.00795388,-0.00086817,-0.00009390,0.00496465,0.04711214,0.00
 003865,0.00073360,0.00139939,0.00002519,-0.00011682,0.00001459,-0.0011
 0249,0.00675080,-0.01553878,-0.00072305,-0.00218369,-0.00204003,-0.047
 55226,-0.00559808,0.01311036,0.00099654,0.00123835,-0.00155683,0.00006
 697,-0.01263432,0.02812622,0.00036519,0.00475580,-0.01317052,0.0477448
 5,0.00000157,0.00282501,0.00067493,0.00008339,-0.00009448,-0.00011009,
 0.00068559,0.00660145,-0.01989318,-0.00197290,-0.00180384,-0.00291290,
 -0.00448551,-0.09034374,0.09797725,0.00071843,0.00067656,-0.00005769,0
 .00001696,-0.00185871,0.00193424,-0.00277402,-0.01017498,0.02621855,0.
 00761435,0.09431619,0.00042371,0.00030143,0.00242927,0.00006417,-0.000
 02432,0.00000486,-0.00063800,0.00905383,-0.02130120,-0.00245208,-0.003
 06055,-0.00137644,0.01246800,0.09642076,-0.26479921,0.00203045,0.00086
 469,-0.00121833,0.00015771,0.00276984,-0.00668013,-0.00035151,-0.00059
 323,0.00224767,-0.01106693,-0.10438651,0.28917729,-0.01061969,0.000224
 97,0.00368247,-0.00196041,0.00274124,-0.00099251,-0.02466224,0.0270996
 3,-0.01855201,0.00182209,0.00151309,-0.00058696,-0.00261246,0.00370985
 ,0.00395783,-0.42031702,0.24257489,-0.13543626,-0.00138090,-0.00138692
 ,-0.00148941,0.00028502,-0.00047349,0.00009032,-0.00037178,-0.00002413
 ,-0.00065900,0.43108956,-0.00084058,-0.00012810,-0.00073942,0.00039175
 ,0.00033451,-0.00013823,0.01255528,0.01092137,0.01218961,-0.00075238,0
 .00006468,-0.00094527,0.00304417,-0.00272527,-0.00337717,0.25893920,-0
 .29315730,0.13088633,0.00059841,0.00133509,0.00111289,-0.00015890,0.00
 107598,0.00028596,-0.00011541,0.00008561,-0.00000240,-0.30702928,0.338
 12652,-0.00174563,-0.00163752,0.00188784,-0.00009619,0.00035736,-0.000
 09594,0.00091599,0.00708788,0.01419322,-0.00187288,-0.00112008,0.00212
 354,0.00306009,-0.00021737,-0.00009238,-0.14926689,0.13407617,-0.16032
 147,0.00035866,0.00036934,0.00044723,-0.00005263,0.00003398,-0.0000063
 2,0.00013842,0.00006617,0.00027584,0.17916583,-0.20188525,0.16680148,-
 0.04679254,0.02887918,-0.01167946,0.00037472,-0.01848942,0.03570238,-0
 .00102284,0.00513201,-0.01647660,-0.00110817,0.00353897,0.00041933,0.0
 0014963,-0.00053539,0.00074865,0.00059145,0.00294329,-0.00315349,0.000
 01810,-0.00015213,0.00005009,-0.00008985,0.00020273,-0.00003104,0.0003
 3568,0.00001884,0.00028427,0.00005667,-0.00099952,0.00094085,0.0473383
 5,0.01654991,-0.10029962,0.12960195,-0.00074168,-0.00179601,0.00211134
 ,0.00143877,-0.02105291,0.03430954,0.00310297,-0.00460028,-0.00142930,
 -0.00092710,0.00202166,0.00152864,0.00044101,-0.00031155,0.00125774,-0
 .00011475,-0.00019669,-0.00023484,0.00021544,0.00092770,-0.00019371,-0
 .00024978,-0.00019996,-0.00094680,-0.00008973,0.00041160,-0.00044369,-
 0.01939704,0.12469065,0.01300479,0.16972802,-0.35211010,-0.00498768,0.
 00264674,-0.01232100,-0.00207632,-0.00625767,0.00225198,-0.00009578,-0
 .00076082,0.00178549,0.00056065,-0.00116946,0.00233988,0.00020210,0.00
 127184,-0.00052092,0.00002223,0.00006884,-0.00004110,-0.00008072,-0.00
 019920,-0.00027650,0.00032824,0.00065607,0.00018042,-0.00015334,-0.000
 14411,0.00018853,-0.00772671,-0.16494443,0.35854938,-0.00394450,-0.000
 31010,0.00184904,-0.00029302,-0.00046854,-0.00010442,-0.00803025,-0.02
 709389,0.03014315,-0.00741614,-0.00077540,0.00194906,-0.00130243,0.001
 13051,0.00230872,-0.14159110,-0.02939807,0.04166156,-0.00056614,-0.000
 78792,-0.00080966,0.00004059,-0.00036958,-0.00009127,0.00020837,0.0001
 0258,-0.00014628,0.02940517,0.02886230,-0.02579927,0.00020290,-0.00019
 659,0.00105566,0.60340852,0.00051741,0.00055695,-0.00004871,-0.0000811
 9,0.00117431,-0.00018041,-0.00329328,-0.00335091,0.01090067,-0.0011853
 2,0.00070748,-0.00019486,0.00009773,0.00128127,0.00122955,-0.01858388,
 -0.14930072,0.07946567,-0.00025577,-0.00019846,-0.00037693,0.00016127,
 0.00007926,0.00010738,-0.00019474,0.00000474,-0.00030956,0.02781392,-0
 .05713309,0.06934917,-0.00043793,0.00014420,-0.00064201,-0.01511787,0.
 23846388,0.00111483,0.00048936,-0.00067199,0.00016594,0.00010685,0.000
 39172,0.00678090,0.01597506,-0.00461052,0.00205903,0.00010329,-0.00003
 157,0.00188106,-0.00109661,-0.00305060,0.03366798,0.08253719,-0.141927
 59,0.00051022,0.00065089,0.00130231,-0.00013708,0.00000465,-0.00005419
 ,0.00015949,-0.00026223,0.00088945,-0.02499900,0.06901955,-0.02669591,
 0.00056997,-0.00028333,0.00003346,-0.11680370,-0.17344121,0.21711682,0
 .00078897,-0.00005123,-0.00048178,0.00018082,0.00001282,-0.00001186,0.
 00260201,-0.00034292,0.00186664,-0.00038905,-0.00015377,-0.00004196,0.
 00030880,-0.00005691,-0.00025966,-0.01342963,-0.00823701,0.01074628,0.
 00006193,0.00011143,-0.00001313,-0.00002920,-0.00004237,0.00000025,-0.
 00003186,0.00001486,-0.00011451,-0.00073400,0.00550495,-0.00574634,-0.
 00005409,-0.00003145,-0.00005314,-0.47012197,0.01055964,0.09503036,0.4
 8084727,0.00081215,0.00015191,-0.00043910,0.00013438,0.00023524,-0.000
 23131,0.00093637,-0.00197568,0.00623382,-0.00134269,0.00004826,0.00029
 113,0.00077350,0.00018356,-0.00018125,-0.04108261,-0.00057626,0.011780
 61,0.00006285,0.00009400,0.00010660,-0.00005078,-0.00004710,-0.0000390
 3,-0.00000006,-0.00003386,-0.00008719,0.00332594,0.00078841,-0.0060361
 6,-0.00070360,0.00026120,-0.00025381,0.04442257,-0.03242892,0.00619653
 ,-0.00728803,0.03329924,-0.00106223,0.00021521,0.00027268,-0.00006126,
 0.00002153,0.00004831,-0.00024331,0.00492482,0.00005779,0.00052354,0.0
 0025054,0.00001459,0.00094380,0.00019288,-0.00032411,0.03959691,0.0040
 2546,-0.00956334,0.00007822,0.00010894,0.00030324,-0.00006213,-0.00003
 959,0.00002095,0.00009639,0.00009539,0.00017052,-0.00402798,-0.0062624
 9,0.00129435,0.00035175,-0.00033311,-0.00005952,0.06478741,0.01414126,
 -0.04269141,-0.10092113,-0.01734083,0.05045597||-0.00000701,0.00001432
 ,-0.00000301,0.00000173,0.00000098,-0.00000452,0.00000509,-0.00001325,
 -0.00000707,-0.00000070,0.00000447,0.00000173,-0.00000079,0.00000088,0
 .00000610,-0.00000915,0.00000409,-0.00000230,0.00000102,-0.00000010,0.
 00000216,0.00000052,-0.00000273,0.00000400,0.00000217,-0.00000329,0.00
 000167,0.00000310,0.00000047,0.00000632,0.00000063,-0.00000197,-0.0000
 0440,0.00000186,-0.00000122,-0.00000075,0.00000152,-0.00000265,0.00000
 008|||@


 Make no judgements where you have no compassion.
                               -- Anne McCaffrey
 Job cpu time:  0 days  0 hours 21 minutes 32.0 seconds.
 File lengths (MBytes):  RWF=     60 Int=      0 D2E=      0 Chk=      6 Scr=      1
 Normal termination of Gaussian 09 at Sat Apr 16 15:49:31 2016.
