 Entering Gaussian System, Link 0=g09
 Input=Ala-S-opt-freq-pb1-6-31g.com
 Output=Ala-S-opt-freq-pb1-6-31g.log
 Initial command:
 /usr/local/gau/g09/l1.exe "/tmp/Gau-2914.inp" -scrdir="/tmp/"
 Entering Link 1 = /usr/local/gau/g09/l1.exe PID=      2916.
  
 Copyright (c) 1988,1990,1992,1993,1995,1998,2003,2009,2013,
            Gaussian, Inc.  All Rights Reserved.
  
 This is part of the Gaussian(R) 09 program.  It is based on
 the Gaussian(R) 03 system (copyright 2003, Gaussian, Inc.),
 the Gaussian(R) 98 system (copyright 1998, Gaussian, Inc.),
 the Gaussian(R) 94 system (copyright 1995, Gaussian, Inc.),
 the Gaussian 92(TM) system (copyright 1992, Gaussian, Inc.),
 the Gaussian 90(TM) system (copyright 1990, Gaussian, Inc.),
 the Gaussian 88(TM) system (copyright 1988, Gaussian, Inc.),
 the Gaussian 86(TM) system (copyright 1986, Carnegie Mellon
 University), and the Gaussian 82(TM) system (copyright 1983,
 Carnegie Mellon University). Gaussian is a federally registered
 trademark of Gaussian, Inc.
  
 This software contains proprietary and confidential information,
 including trade secrets, belonging to Gaussian, Inc.
  
 This software is provided under written license and may be
 used, copied, transmitted, or stored only in accord with that
 written license.
  
 The following legend is applicable only to US Government
 contracts under FAR:
  
                    RESTRICTED RIGHTS LEGEND
  
 Use, reproduction and disclosure by the US Government is
 subject to restrictions as set forth in subparagraphs (a)
 and (c) of the Commercial Computer Software - Restricted
 Rights clause in FAR 52.227-19.
  
 Gaussian, Inc.
 340 Quinnipiac St., Bldg. 40, Wallingford CT 06492
  
  
 ---------------------------------------------------------------
 Warning -- This program may not be used in any manner that
 competes with the business of Gaussian, Inc. or will provide
 assistance to any competitor of Gaussian, Inc.  The licensee
 of this program is prohibited from giving any competitor of
 Gaussian, Inc. access to this program.  By using this program,
 the user acknowledges that Gaussian, Inc. is engaged in the
 business of creating and licensing software in the field of
 computational chemistry and represents and warrants to the
 licensee that it is not a competitor of Gaussian, Inc. and that
 it will not use this program in any manner prohibited above.
 ---------------------------------------------------------------
  

 Cite this work as:
 Gaussian 09, Revision D.01,
 M. J. Frisch, G. W. Trucks, H. B. Schlegel, G. E. Scuseria, 
 M. A. Robb, J. R. Cheeseman, G. Scalmani, V. Barone, B. Mennucci, 
 G. A. Petersson, H. Nakatsuji, M. Caricato, X. Li, H. P. Hratchian, 
 A. F. Izmaylov, J. Bloino, G. Zheng, J. L. Sonnenberg, M. Hada, 
 M. Ehara, K. Toyota, R. Fukuda, J. Hasegawa, M. Ishida, T. Nakajima, 
 Y. Honda, O. Kitao, H. Nakai, T. Vreven, J. A. Montgomery, Jr., 
 J. E. Peralta, F. Ogliaro, M. Bearpark, J. J. Heyd, E. Brothers, 
 K. N. Kudin, V. N. Staroverov, T. Keith, R. Kobayashi, J. Normand, 
 K. Raghavachari, A. Rendell, J. C. Burant, S. S. Iyengar, J. Tomasi, 
 M. Cossi, N. Rega, J. M. Millam, M. Klene, J. E. Knox, J. B. Cross, 
 V. Bakken, C. Adamo, J. Jaramillo, R. Gomperts, R. E. Stratmann, 
 O. Yazyev, A. J. Austin, R. Cammi, C. Pomelli, J. W. Ochterski, 
 R. L. Martin, K. Morokuma, V. G. Zakrzewski, G. A. Voth, 
 P. Salvador, J. J. Dannenberg, S. Dapprich, A. D. Daniels, 
 O. Farkas, J. B. Foresman, J. V. Ortiz, J. Cioslowski, 
 and D. J. Fox, Gaussian, Inc., Wallingford CT, 2013.
 
 ******************************************
 Gaussian 09:  ES64L-G09RevD.01 24-Apr-2013
                16-Apr-2016 
 ******************************************
 %chk=Ala-S-opt-freq-pb1-6-31g.chk
 ------------------------
 #p opt freq rb3lyp/6-31g
 ------------------------
 1/14=-1,18=20,19=15,26=3,38=1/1,3;
 2/9=110,12=2,17=6,18=5,40=1/2;
 3/5=1,6=6,11=2,16=1,25=1,30=1,71=1,74=-5,116=1/1,2,3;
 4//1;
 5/5=2,38=5/2;
 6/7=2,8=2,9=2,10=2,28=1/1;
 7//1,2,3,16;
 1/14=-1,18=20,19=15,26=3/3(2);
 2/9=110/2;
 99//99;
 2/9=110/2;
 3/5=1,6=6,11=2,16=1,25=1,30=1,71=1,74=-5,116=1/1,2,3;
 4/5=5,16=3,69=1/1;
 5/5=2,38=5/2;
 7//1,2,3,16;
 1/14=-1,18=20,19=15,26=3/3(-5);
 2/9=110/2;
 6/7=2,8=2,9=2,10=2,19=2,28=1/1;
 99/9=1/99;
 Leave Link    1 at Sat Apr 16 13:11:19 2016, MaxMem=           0 cpu:         0.0
 (Enter /usr/local/gau/g09/l101.exe)
 ------------------------
 Ala-S-opt-freq-pb1-6-31g
 ------------------------
 Symbolic Z-matrix:
 Charge =  0 Multiplicity = 1
 N                    -1.29656  -1.14605  -0.52857 
 H                    -1.92903  -1.74646  -0.02191 
 C                    -0.65551  -0.07804   0.21816 
 H                    -0.39343  -1.05675   1.21537 
 C                    -1.42651   1.21746   0.37061 
 C                     0.76579  -0.01845  -0.003 
 H                    -2.34367   1.03933   0.94505 
 H                    -0.8472    1.98427   0.89748 
 H                    -1.72921   1.63805  -0.60364 
 O                     1.39348  -1.06323   0.50107 
 H                    -1.62035  -0.91883  -1.46435 
 O                     1.45782   1.00876  -0.52314 
 H                     2.42514   0.91577  -0.3823 
 
 Add virtual bond connecting atoms H4         and C3         Dist= 2.69D+00.
 NAtoms=     13 NQM=       13 NQMF=       0 NMMI=      0 NMMIF=      0
                NMic=       0 NMicF=      0.
                    Isotopes and Nuclear Properties:
 (Nuclear quadrupole moments (NQMom) in fm**2, nuclear magnetic moments (NMagM)
  in nuclear magnetons)

  Atom         1           2           3           4           5           6           7           8           9          10
 IAtWgt=          14           1          12           1          12          12           1           1           1          16
 AtmWgt=  14.0030740   1.0078250  12.0000000   1.0078250  12.0000000  12.0000000   1.0078250   1.0078250   1.0078250  15.9949146
 NucSpn=           2           1           0           1           0           0           1           1           1           0
 AtZEff=   0.0000000   0.0000000   0.0000000   0.0000000   0.0000000   0.0000000   0.0000000   0.0000000   0.0000000   0.0000000
 NQMom=    2.0440000   0.0000000   0.0000000   0.0000000   0.0000000   0.0000000   0.0000000   0.0000000   0.0000000   0.0000000
 NMagM=    0.4037610   2.7928460   0.0000000   2.7928460   0.0000000   0.0000000   2.7928460   2.7928460   2.7928460   0.0000000
 AtZNuc=   7.0000000   1.0000000   6.0000000   1.0000000   6.0000000   6.0000000   1.0000000   1.0000000   1.0000000   8.0000000

  Atom        11          12          13
 IAtWgt=           1          16           1
 AtmWgt=   1.0078250  15.9949146   1.0078250
 NucSpn=           1           0           1
 AtZEff=   0.0000000   0.0000000   0.0000000
 NQMom=    0.0000000   0.0000000   0.0000000
 NMagM=    2.7928460   0.0000000   2.7928460
 AtZNuc=   1.0000000   8.0000000   1.0000000
 Leave Link  101 at Sat Apr 16 13:11:20 2016, MaxMem=    33554432 cpu:         0.4
 (Enter /usr/local/gau/g09/l103.exe)

 GradGradGradGradGradGradGradGradGradGradGradGradGradGradGradGradGradGrad
 Berny optimization.
 Initialization pass.
                           ----------------------------
                           !    Initial Parameters    !
                           ! (Angstroms and Degrees)  !
 --------------------------                            --------------------------
 ! Name  Definition              Value          Derivative Info.                !
 --------------------------------------------------------------------------------
 ! R1    R(1,2)                  1.0086         estimate D2E/DX2                !
 ! R2    R(1,3)                  1.4523         estimate D2E/DX2                !
 ! R3    R(1,11)                 1.0159         estimate D2E/DX2                !
 ! R4    R(3,4)                  1.4216         estimate D2E/DX2                !
 ! R5    R(3,5)                  1.5153         estimate D2E/DX2                !
 ! R6    R(3,6)                  1.4396         estimate D2E/DX2                !
 ! R7    R(5,7)                  1.0968         estimate D2E/DX2                !
 ! R8    R(5,8)                  1.096          estimate D2E/DX2                !
 ! R9    R(5,9)                  1.1035         estimate D2E/DX2                !
 ! R10   R(6,10)                 1.319          estimate D2E/DX2                !
 ! R11   R(6,12)                 1.3434         estimate D2E/DX2                !
 ! R12   R(12,13)                0.9819         estimate D2E/DX2                !
 ! A1    A(2,1,3)              117.148          estimate D2E/DX2                !
 ! A2    A(2,1,11)             113.3282         estimate D2E/DX2                !
 ! A3    A(3,1,11)             116.7307         estimate D2E/DX2                !
 ! A4    A(1,3,4)               86.3171         estimate D2E/DX2                !
 ! A5    A(1,3,5)              117.1208         estimate D2E/DX2                !
 ! A6    A(1,3,6)              112.7823         estimate D2E/DX2                !
 ! A7    A(4,3,5)              127.7221         estimate D2E/DX2                !
 ! A8    A(4,3,6)               87.3775         estimate D2E/DX2                !
 ! A9    A(5,3,6)              118.8434         estimate D2E/DX2                !
 ! A10   A(3,5,7)              109.8367         estimate D2E/DX2                !
 ! A11   A(3,5,8)              112.1851         estimate D2E/DX2                !
 ! A12   A(3,5,9)              112.1248         estimate D2E/DX2                !
 ! A13   A(7,5,8)              107.6895         estimate D2E/DX2                !
 ! A14   A(7,5,9)              107.1531         estimate D2E/DX2                !
 ! A15   A(8,5,9)              107.6223         estimate D2E/DX2                !
 ! A16   A(3,6,10)             112.2311         estimate D2E/DX2                !
 ! A17   A(3,6,12)             126.8493         estimate D2E/DX2                !
 ! A18   A(10,6,12)            120.5658         estimate D2E/DX2                !
 ! A19   A(6,12,13)            112.3042         estimate D2E/DX2                !
 ! D1    D(2,1,3,4)             45.9593         estimate D2E/DX2                !
 ! D2    D(2,1,3,5)            -85.0264         estimate D2E/DX2                !
 ! D3    D(2,1,3,6)            131.5568         estimate D2E/DX2                !
 ! D4    D(11,1,3,4)          -174.8822         estimate D2E/DX2                !
 ! D5    D(11,1,3,5)            54.1322         estimate D2E/DX2                !
 ! D6    D(11,1,3,6)           -89.2847         estimate D2E/DX2                !
 ! D7    D(1,3,5,7)             63.4711         estimate D2E/DX2                !
 ! D8    D(1,3,5,8)           -176.7958         estimate D2E/DX2                !
 ! D9    D(1,3,5,9)            -55.5491         estimate D2E/DX2                !
 ! D10   D(4,3,5,7)            -44.2833         estimate D2E/DX2                !
 ! D11   D(4,3,5,8)             75.4498         estimate D2E/DX2                !
 ! D12   D(4,3,5,9)           -163.3034         estimate D2E/DX2                !
 ! D13   D(6,3,5,7)           -155.3812         estimate D2E/DX2                !
 ! D14   D(6,3,5,8)            -35.6481         estimate D2E/DX2                !
 ! D15   D(6,3,5,9)             85.5986         estimate D2E/DX2                !
 ! D16   D(1,3,6,10)           -67.8            estimate D2E/DX2                !
 ! D17   D(1,3,6,12)           119.0632         estimate D2E/DX2                !
 ! D18   D(4,3,6,10)            17.0951         estimate D2E/DX2                !
 ! D19   D(4,3,6,12)          -156.0417         estimate D2E/DX2                !
 ! D20   D(5,3,6,10)           149.471          estimate D2E/DX2                !
 ! D21   D(5,3,6,12)           -23.6657         estimate D2E/DX2                !
 ! D22   D(3,6,12,13)          166.2118         estimate D2E/DX2                !
 ! D23   D(10,6,12,13)          -6.4072         estimate D2E/DX2                !
 --------------------------------------------------------------------------------
 Trust Radius=3.00D-01 FncErr=1.00D-07 GrdErr=1.00D-06
 Number of steps in this run=     64 maximum allowed number of steps=    100.
 GradGradGradGradGradGradGradGradGradGradGradGradGradGradGradGradGradGrad

 Leave Link  103 at Sat Apr 16 13:11:20 2016, MaxMem=    33554432 cpu:         0.0
 (Enter /usr/local/gau/g09/l202.exe)
                          Input orientation:                          
 ---------------------------------------------------------------------
 Center     Atomic      Atomic             Coordinates (Angstroms)
 Number     Number       Type             X           Y           Z
 ---------------------------------------------------------------------
      1          7           0       -1.296560   -1.146049   -0.528572
      2          1           0       -1.929033   -1.746463   -0.021911
      3          6           0       -0.655507   -0.078037    0.218159
      4          1           0       -0.393426   -1.056750    1.215372
      5          6           0       -1.426509    1.217456    0.370611
      6          6           0        0.765791   -0.018454   -0.002996
      7          1           0       -2.343672    1.039326    0.945052
      8          1           0       -0.847203    1.984273    0.897484
      9          1           0       -1.729211    1.638054   -0.603635
     10          8           0        1.393477   -1.063234    0.501066
     11          1           0       -1.620350   -0.918825   -1.464350
     12          8           0        1.457819    1.008762   -0.523142
     13          1           0        2.425138    0.915769   -0.382296
 ---------------------------------------------------------------------
                    Distance matrix (angstroms):
                    1          2          3          4          5
     1  N    0.000000
     2  H    1.008575   0.000000
     3  C    1.452310   2.112616   0.000000
     4  H    1.965952   2.089178   1.421618   0.000000
     5  C    2.532108   3.031735   1.515252   2.636834   0.000000
     6  C    2.408525   3.201320   1.439635   1.976427   2.544255
     7  H    2.836173   2.977845   2.150994   2.875772   1.096768
     8  H    3.469074   3.991746   2.179760   3.091081   1.095992
     9  H    2.818519   3.439955   2.184755   3.514979   1.103488
    10  O    2.881547   3.432110   2.291066   1.924395   3.629172
    11  H    1.015948   1.691420   2.113926   2.950470   2.822827
    12  O    3.497119   4.394686   2.489338   3.273511   3.026829
    13  H    4.257173   5.116264   3.292198   3.793109   3.936124
                    6          7          8          9         10
     6  C    0.000000
     7  H    3.418546   0.000000
     8  H    2.724615   1.770482   0.000000
     9  H    3.054476   1.770443   1.775152   0.000000
    10  O    1.318952   4.310935   3.803300   4.274167   0.000000
    11  H    2.939369   3.187910   3.821517   2.700058   3.600954
    12  O    1.343364   4.075274   2.878007   3.249561   2.312209
    13  H    1.941668   4.951633   3.672568   4.222476   2.400230
                   11         12         13
    11  H    0.000000
    12  O    3.751878   0.000000
    13  H    4.571931   0.981932   0.000000
 Stoichiometry    C3H7NO2
 Framework group  C1[X(C3H7NO2)]
 Deg. of freedom    33
 Full point group                 C1      NOp   1
 Largest Abelian subgroup         C1      NOp   1
 Largest concise Abelian subgroup C1      NOp   1
                         Standard orientation:                         
 ---------------------------------------------------------------------
 Center     Atomic      Atomic             Coordinates (Angstroms)
 Number     Number       Type             X           Y           Z
 ---------------------------------------------------------------------
      1          7           0        1.300179   -1.122767    0.548955
      2          1           0        1.948636   -1.712643    0.050182
      3          6           0        0.646412   -0.069121   -0.207103
      4          1           0        0.412318   -1.055429   -1.203795
      5          6           0        1.394414    1.240182   -0.356122
      6          6           0       -0.777811   -0.035609    0.000290
      7          1           0        2.320230    1.077666   -0.921236
      8          1           0        0.805917    1.994475   -0.890829
      9          1           0        1.679807    1.669173    0.619687
     10          8           0       -1.380926   -1.093429   -0.506565
     11          1           0        1.610651   -0.886829    1.487088
     12          8           0       -1.493943    0.979913    0.510682
     13          1           0       -2.457951    0.868368    0.360890
 ---------------------------------------------------------------------
 Rotational constants (GHZ):      4.8301998      3.0257903      2.1882906
 Leave Link  202 at Sat Apr 16 13:11:20 2016, MaxMem=    33554432 cpu:         0.0
 (Enter /usr/local/gau/g09/l301.exe)
 Standard basis: 6-31G (6D, 7F)
 Ernie: Thresh=  0.10000D-02 Tol=  0.10000D-05 Strict=F.
 There are    68 symmetry adapted cartesian basis functions of A   symmetry.
 There are    68 symmetry adapted basis functions of A   symmetry.
    68 basis functions,   160 primitive gaussians,    68 cartesian basis functions
    24 alpha electrons       24 beta electrons
       nuclear repulsion energy       245.3170442459 Hartrees.
 IExCor=  402 DFT=T Ex+Corr=B3LYP ExCW=0 ScaHFX=  0.200000
 ScaDFX=  0.800000  0.720000  1.000000  0.810000 ScalE2=  1.000000  1.000000
 IRadAn=      0 IRanWt=     -1 IRanGd=            0 ICorTp=0 IEmpDi=  4
 NAtoms=   13 NActive=   13 NUniq=   13 SFac= 1.00D+00 NAtFMM=   60 NAOKFM=F Big=F
 Integral buffers will be    131072 words long.
 Raffenetti 2 integral format.
 Two-electron integral symmetry is turned on.
 Leave Link  301 at Sat Apr 16 13:11:20 2016, MaxMem=    33554432 cpu:         0.0
 (Enter /usr/local/gau/g09/l302.exe)
 NPDir=0 NMtPBC=     1 NCelOv=     1 NCel=       1 NClECP=     1 NCelD=      1
         NCelK=      1 NCelE2=     1 NClLst=     1 CellRange=     0.0.
 One-electron integrals computed using PRISM.
 NBasis=    68 RedAO= T EigKep=  4.73D-03  NBF=    68
 NBsUse=    68 1.00D-06 EigRej= -1.00D+00 NBFU=    68
 Precomputing XC quadrature grid using
 IXCGrd= 4 IRadAn=           0 IRanWt=          -1 IRanGd=           0 AccXCQ= 0.00D+00.
 Generated NRdTot=       0 NPtTot=           0 NUsed=           0 NTot=          32
 NSgBfM=    68    68    68    68    68 MxSgAt=    13 MxSgA2=    13.
 Leave Link  302 at Sat Apr 16 13:11:21 2016, MaxMem=    33554432 cpu:         0.2
 (Enter /usr/local/gau/g09/l303.exe)
 DipDrv:  MaxL=1.
 Leave Link  303 at Sat Apr 16 13:11:21 2016, MaxMem=    33554432 cpu:         0.0
 (Enter /usr/local/gau/g09/l401.exe)
 ExpMin= 1.61D-01 ExpMax= 5.48D+03 ExpMxC= 8.25D+02 IAcc=1 IRadAn=         1 AccDes= 0.00D+00
 Harris functional with IExCor=  402 and IRadAn=       1 diagonalized for initial guess.
 HarFok:  IExCor=  402 AccDes= 0.00D+00 IRadAn=         1 IDoV= 1 UseB2=F ITyADJ=14
 ICtDFT=  3500011 ScaDFX=  1.000000  1.000000  1.000000  1.000000
 FoFCou: FMM=F IPFlag=           0 FMFlag=      100000 FMFlg1=           0
         NFxFlg=           0 DoJE=T BraDBF=F KetDBF=T FulRan=T
         wScrn=  0.000000 ICntrl=     500 IOpCl=  0 I1Cent=   200000004 NGrid=           0
         NMat0=    1 NMatS0=      1 NMatT0=    0 NMatD0=    1 NMtDS0=    0 NMtDT0=    0
 Petite list used in FoFCou.
 Harris En= -323.599476858216    
 JPrj=0 DoOrth=F DoCkMO=F.
 Leave Link  401 at Sat Apr 16 13:11:22 2016, MaxMem=    33554432 cpu:         0.4
 (Enter /usr/local/gau/g09/l502.exe)
 Closed shell SCF:
 Using DIIS extrapolation, IDIIS=  1040.
 Integral symmetry usage will be decided dynamically.
 Keep R1 ints in memory in canonical form, NReq=3676491.
 IVT=       33364 IEndB=       33364 NGot=    33554432 MDV=    30768038
 LenX=    30768038 LenY=    30762973
 Requested convergence on RMS density matrix=1.00D-08 within 128 cycles.
 Requested convergence on MAX density matrix=1.00D-06.
 Requested convergence on             energy=1.00D-06.
 No special actions if energy rises.
 FoFCou: FMM=F IPFlag=           0 FMFlag=           0 FMFlg1=           0
         NFxFlg=           0 DoJE=F BraDBF=F KetDBF=F FulRan=T
         wScrn=  0.000000 ICntrl=     600 IOpCl=  0 I1Cent=           0 NGrid=           0
         NMat0=    1 NMatS0=   2346 NMatT0=    0 NMatD0=    1 NMtDS0=    0 NMtDT0=    0
 Symmetry not used in FoFCou.
 Integral accuracy reduced to 1.0D-05 until final iterations.

 Cycle   1  Pass 0  IDiag  1:
 E= -323.307037336496    
 DIIS: error= 4.67D-02 at cycle   1 NSaved=   1.
 NSaved= 1 IEnMin= 1 EnMin= -323.307037336496     IErMin= 1 ErrMin= 4.67D-02
 ErrMax= 4.67D-02  0.00D+00 EMaxC= 1.00D-01 BMatC= 2.56D-01 BMatP= 2.56D-01
 IDIUse=3 WtCom= 5.33D-01 WtEn= 4.67D-01
 Coeff-Com:  0.100D+01
 Coeff-En:   0.100D+01
 Coeff:      0.100D+01
 Gap=     0.083 Goal=   None    Shift=    0.000
 GapD=    0.083 DampG=0.500 DampE=0.500 DampFc=0.2500 IDamp=-1.
 Damping current iteration by 2.50D-01
 RMSDP=2.20D-02 MaxDP=2.67D-01              OVMax= 4.38D-01

 Cycle   2  Pass 0  IDiag  1:
 E= -323.384481136041     Delta-E=       -0.077443799545 Rises=F Damp=T
 DIIS: error= 2.07D-02 at cycle   2 NSaved=   2.
 NSaved= 2 IEnMin= 2 EnMin= -323.384481136041     IErMin= 2 ErrMin= 2.07D-02
 ErrMax= 2.07D-02  0.00D+00 EMaxC= 1.00D-01 BMatC= 3.85D-02 BMatP= 2.56D-01
 IDIUse=3 WtCom= 7.93D-01 WtEn= 2.07D-01
 Coeff-Com: -0.358D+00 0.136D+01
 Coeff-En:   0.000D+00 0.100D+01
 Coeff:     -0.284D+00 0.128D+01
 Gap=     0.205 Goal=   None    Shift=    0.000
 RMSDP=5.86D-03 MaxDP=5.99D-02 DE=-7.74D-02 OVMax= 3.41D-01

 Cycle   3  Pass 0  IDiag  1:
 E= -323.469094243920     Delta-E=       -0.084613107879 Rises=F Damp=F
 DIIS: error= 3.54D-02 at cycle   3 NSaved=   3.
 NSaved= 3 IEnMin= 3 EnMin= -323.469094243920     IErMin= 2 ErrMin= 2.07D-02
 ErrMax= 3.54D-02  0.00D+00 EMaxC= 1.00D-01 BMatC= 8.04D-02 BMatP= 3.85D-02
 IDIUse=2 WtCom= 0.00D+00 WtEn= 1.00D+00
 Coeff-En:   0.000D+00 0.798D-01 0.920D+00
 Coeff:      0.000D+00 0.798D-01 0.920D+00
 Gap=     0.216 Goal=   None    Shift=    0.000
 RMSDP=1.38D-02 MaxDP=1.71D-01 DE=-8.46D-02 OVMax= 3.61D-01

 Cycle   4  Pass 0  IDiag  1:
 E= -323.104485948072     Delta-E=        0.364608295849 Rises=F Damp=F
 DIIS: error= 9.60D-02 at cycle   4 NSaved=   4.
 NSaved= 4 IEnMin= 3 EnMin= -323.469094243920     IErMin= 2 ErrMin= 2.07D-02
 ErrMax= 9.60D-02  0.00D+00 EMaxC= 1.00D-01 BMatC= 5.18D-01 BMatP= 3.85D-02
 IDIUse=2 WtCom= 0.00D+00 WtEn= 1.00D+00
 Coeff-En:   0.000D+00 0.000D+00 0.798D+00 0.202D+00
 Coeff:      0.000D+00 0.000D+00 0.798D+00 0.202D+00
 Gap=     0.180 Goal=   None    Shift=    0.000
 RMSDP=8.28D-03 MaxDP=1.02D-01 DE= 3.65D-01 OVMax= 1.93D-01

 Cycle   5  Pass 0  IDiag  1:
 E= -323.509195188827     Delta-E=       -0.404709240756 Rises=F Damp=F
 DIIS: error= 2.31D-02 at cycle   5 NSaved=   5.
 NSaved= 5 IEnMin= 5 EnMin= -323.509195188827     IErMin= 2 ErrMin= 2.07D-02
 ErrMax= 2.31D-02  0.00D+00 EMaxC= 1.00D-01 BMatC= 3.67D-02 BMatP= 3.85D-02
 IDIUse=3 WtCom= 7.69D-01 WtEn= 2.31D-01
 Coeff-Com: -0.138D+00 0.258D+00 0.335D+00-0.649D-01 0.609D+00
 Coeff-En:   0.000D+00 0.000D+00 0.349D+00 0.000D+00 0.651D+00
 Coeff:     -0.106D+00 0.198D+00 0.339D+00-0.499D-01 0.619D+00
 Gap=     0.200 Goal=   None    Shift=    0.000
 RMSDP=2.56D-03 MaxDP=3.25D-02 DE=-4.05D-01 OVMax= 5.81D-02

 Cycle   6  Pass 0  IDiag  1:
 E= -323.540165016916     Delta-E=       -0.030969828089 Rises=F Damp=F
 DIIS: error= 2.33D-03 at cycle   6 NSaved=   6.
 NSaved= 6 IEnMin= 6 EnMin= -323.540165016916     IErMin= 6 ErrMin= 2.33D-03
 ErrMax= 2.33D-03  0.00D+00 EMaxC= 1.00D-01 BMatC= 3.14D-04 BMatP= 3.67D-02
 IDIUse=3 WtCom= 9.77D-01 WtEn= 2.33D-02
 Coeff-Com: -0.554D-01 0.794D-01 0.151D+00-0.374D-01 0.357D+00 0.505D+00
 Coeff-En:   0.000D+00 0.000D+00 0.000D+00 0.000D+00 0.000D+00 0.100D+01
 Coeff:     -0.541D-01 0.776D-01 0.148D+00-0.366D-01 0.349D+00 0.517D+00
 Gap=     0.188 Goal=   None    Shift=    0.000
 RMSDP=2.33D-04 MaxDP=4.56D-03 DE=-3.10D-02 OVMax= 4.99D-03

 Cycle   7  Pass 0  IDiag  1:
 E= -323.540408950251     Delta-E=       -0.000243933335 Rises=F Damp=F
 DIIS: error= 4.86D-04 at cycle   7 NSaved=   7.
 NSaved= 7 IEnMin= 7 EnMin= -323.540408950251     IErMin= 7 ErrMin= 4.86D-04
 ErrMax= 4.86D-04  0.00D+00 EMaxC= 1.00D-01 BMatC= 1.16D-05 BMatP= 3.14D-04
 IDIUse=3 WtCom= 9.95D-01 WtEn= 4.86D-03
 Coeff-Com: -0.619D-02 0.518D-02 0.189D-01-0.709D-02 0.630D-01 0.246D+00
 Coeff-Com:  0.680D+00
 Coeff-En:   0.000D+00 0.000D+00 0.000D+00 0.000D+00 0.000D+00 0.000D+00
 Coeff-En:   0.100D+01
 Coeff:     -0.616D-02 0.516D-02 0.188D-01-0.706D-02 0.626D-01 0.245D+00
 Coeff:      0.682D+00
 Gap=     0.189 Goal=   None    Shift=    0.000
 RMSDP=4.67D-05 MaxDP=6.49D-04 DE=-2.44D-04 OVMax= 6.46D-04

 Cycle   8  Pass 0  IDiag  1:
 E= -323.540417446480     Delta-E=       -0.000008496228 Rises=F Damp=F
 DIIS: error= 1.14D-04 at cycle   8 NSaved=   8.
 NSaved= 8 IEnMin= 8 EnMin= -323.540417446480     IErMin= 8 ErrMin= 1.14D-04
 ErrMax= 1.14D-04  0.00D+00 EMaxC= 1.00D-01 BMatC= 7.87D-07 BMatP= 1.16D-05
 IDIUse=3 WtCom= 9.99D-01 WtEn= 1.14D-03
 Coeff-Com:  0.141D-02-0.301D-02-0.199D-02-0.413D-03 0.184D-02 0.838D-01
 Coeff-Com:  0.320D+00 0.598D+00
 Coeff-En:   0.000D+00 0.000D+00 0.000D+00 0.000D+00 0.000D+00 0.000D+00
 Coeff-En:   0.000D+00 0.100D+01
 Coeff:      0.141D-02-0.300D-02-0.199D-02-0.413D-03 0.184D-02 0.837D-01
 Coeff:      0.320D+00 0.599D+00
 Gap=     0.189 Goal=   None    Shift=    0.000
 RMSDP=1.64D-05 MaxDP=1.85D-04 DE=-8.50D-06 OVMax= 2.51D-04

 Cycle   9  Pass 0  IDiag  1:
 E= -323.540418221604     Delta-E=       -0.000000775124 Rises=F Damp=F
 DIIS: error= 2.00D-05 at cycle   9 NSaved=   9.
 NSaved= 9 IEnMin= 9 EnMin= -323.540418221604     IErMin= 9 ErrMin= 2.00D-05
 ErrMax= 2.00D-05  0.00D+00 EMaxC= 1.00D-01 BMatC= 2.64D-08 BMatP= 7.87D-07
 IDIUse=1 WtCom= 1.00D+00 WtEn= 0.00D+00
 Coeff-Com:  0.534D-03-0.901D-03-0.671D-03-0.109D-03-0.126D-03 0.234D-01
 Coeff-Com:  0.857D-01 0.194D+00 0.698D+00
 Coeff:      0.534D-03-0.901D-03-0.671D-03-0.109D-03-0.126D-03 0.234D-01
 Coeff:      0.857D-01 0.194D+00 0.698D+00
 Gap=     0.189 Goal=   None    Shift=    0.000
 RMSDP=3.50D-06 MaxDP=3.03D-05 DE=-7.75D-07 OVMax= 4.33D-05

 Initial convergence to 1.0D-05 achieved.  Increase integral accuracy.
 Cycle  10  Pass 1  IDiag  1:
 E= -323.540435268881     Delta-E=       -0.000017047277 Rises=F Damp=F
 DIIS: error= 6.50D-06 at cycle   1 NSaved=   1.
 NSaved= 1 IEnMin= 1 EnMin= -323.540435268881     IErMin= 1 ErrMin= 6.50D-06
 ErrMax= 6.50D-06  0.00D+00 EMaxC= 1.00D-01 BMatC= 1.18D-08 BMatP= 1.18D-08
 IDIUse=1 WtCom= 1.00D+00 WtEn= 0.00D+00
 Coeff-Com:  0.100D+01
 Coeff:      0.100D+01
 Gap=     0.189 Goal=   None    Shift=    0.000
 RMSDP=3.50D-06 MaxDP=3.03D-05 DE=-1.70D-05 OVMax= 4.04D-05

 Cycle  11  Pass 1  IDiag  1:
 E= -323.540435278400     Delta-E=       -0.000000009519 Rises=F Damp=F
 DIIS: error= 9.75D-06 at cycle   2 NSaved=   2.
 NSaved= 2 IEnMin= 2 EnMin= -323.540435278400     IErMin= 1 ErrMin= 6.50D-06
 ErrMax= 9.75D-06  0.00D+00 EMaxC= 1.00D-01 BMatC= 8.98D-09 BMatP= 1.18D-08
 IDIUse=1 WtCom= 1.00D+00 WtEn= 0.00D+00
 Coeff-Com:  0.453D+00 0.547D+00
 Coeff:      0.453D+00 0.547D+00
 Gap=     0.189 Goal=   None    Shift=    0.000
 RMSDP=2.34D-06 MaxDP=2.81D-05 DE=-9.52D-09 OVMax= 5.40D-05

 Cycle  12  Pass 1  IDiag  1:
 E= -323.540435280982     Delta-E=       -0.000000002582 Rises=F Damp=F
 DIIS: error= 1.06D-05 at cycle   3 NSaved=   3.
 NSaved= 3 IEnMin= 3 EnMin= -323.540435280982     IErMin= 1 ErrMin= 6.50D-06
 ErrMax= 1.06D-05  0.00D+00 EMaxC= 1.00D-01 BMatC= 6.72D-09 BMatP= 8.98D-09
 IDIUse=1 WtCom= 1.00D+00 WtEn= 0.00D+00
 Coeff-Com:  0.733D-01 0.447D+00 0.480D+00
 Coeff:      0.733D-01 0.447D+00 0.480D+00
 Gap=     0.189 Goal=   None    Shift=    0.000
 RMSDP=1.39D-06 MaxDP=2.11D-05 DE=-2.58D-09 OVMax= 3.45D-05

 Cycle  13  Pass 1  IDiag  1:
 E= -323.540435285975     Delta-E=       -0.000000004993 Rises=F Damp=F
 DIIS: error= 2.84D-06 at cycle   4 NSaved=   4.
 NSaved= 4 IEnMin= 4 EnMin= -323.540435285975     IErMin= 4 ErrMin= 2.84D-06
 ErrMax= 2.84D-06  0.00D+00 EMaxC= 1.00D-01 BMatC= 7.59D-10 BMatP= 6.72D-09
 IDIUse=1 WtCom= 1.00D+00 WtEn= 0.00D+00
 Coeff-Com: -0.196D-01 0.234D+00 0.329D+00 0.456D+00
 Coeff:     -0.196D-01 0.234D+00 0.329D+00 0.456D+00
 Gap=     0.189 Goal=   None    Shift=    0.000
 RMSDP=4.04D-07 MaxDP=5.08D-06 DE=-4.99D-09 OVMax= 9.07D-06

 Cycle  14  Pass 1  IDiag  1:
 E= -323.540435286615     Delta-E=       -0.000000000640 Rises=F Damp=F
 DIIS: error= 2.43D-07 at cycle   5 NSaved=   5.
 NSaved= 5 IEnMin= 5 EnMin= -323.540435286615     IErMin= 5 ErrMin= 2.43D-07
 ErrMax= 2.43D-07  0.00D+00 EMaxC= 1.00D-01 BMatC= 5.89D-12 BMatP= 7.59D-10
 IDIUse=1 WtCom= 1.00D+00 WtEn= 0.00D+00
 Coeff-Com: -0.931D-02 0.886D-01 0.129D+00 0.197D+00 0.595D+00
 Coeff:     -0.931D-02 0.886D-01 0.129D+00 0.197D+00 0.595D+00
 Gap=     0.189 Goal=   None    Shift=    0.000
 RMSDP=4.93D-08 MaxDP=4.90D-07 DE=-6.40D-10 OVMax= 7.31D-07

 Cycle  15  Pass 1  IDiag  1:
 E= -323.540435286621     Delta-E=       -0.000000000006 Rises=F Damp=F
 DIIS: error= 6.65D-08 at cycle   6 NSaved=   6.
 NSaved= 6 IEnMin= 6 EnMin= -323.540435286621     IErMin= 6 ErrMin= 6.65D-08
 ErrMax= 6.65D-08  0.00D+00 EMaxC= 1.00D-01 BMatC= 4.41D-13 BMatP= 5.89D-12
 IDIUse=1 WtCom= 1.00D+00 WtEn= 0.00D+00
 Coeff-Com: -0.177D-02 0.952D-02 0.158D-01 0.301D-01 0.239D+00 0.708D+00
 Coeff:     -0.177D-02 0.952D-02 0.158D-01 0.301D-01 0.239D+00 0.708D+00
 Gap=     0.189 Goal=   None    Shift=    0.000
 RMSDP=1.43D-08 MaxDP=1.30D-07 DE=-5.57D-12 OVMax= 2.07D-07

 Cycle  16  Pass 1  IDiag  1:
 E= -323.540435286618     Delta-E=        0.000000000002 Rises=F Damp=F
 DIIS: error= 1.71D-08 at cycle   7 NSaved=   7.
 NSaved= 7 IEnMin= 6 EnMin= -323.540435286621     IErMin= 7 ErrMin= 1.71D-08
 ErrMax= 1.71D-08  0.00D+00 EMaxC= 1.00D-01 BMatC= 3.50D-14 BMatP= 4.41D-13
 IDIUse=1 WtCom= 1.00D+00 WtEn= 0.00D+00
 Coeff-Com: -0.227D-03-0.748D-03-0.592D-03 0.167D-02 0.626D-01 0.298D+00
 Coeff-Com:  0.639D+00
 Coeff:     -0.227D-03-0.748D-03-0.592D-03 0.167D-02 0.626D-01 0.298D+00
 Coeff:      0.639D+00
 Gap=     0.189 Goal=   None    Shift=    0.000
 RMSDP=4.41D-09 MaxDP=3.96D-08 DE= 2.27D-12 OVMax= 7.60D-08

 SCF Done:  E(RB3LYP) =  -323.540435287     A.U. after   16 cycles
            NFock= 16  Conv=0.44D-08     -V/T= 2.0060
 KE= 3.216067756191D+02 PE=-1.248224375367D+03 EE= 3.577601202151D+02
 Leave Link  502 at Sat Apr 16 13:11:36 2016, MaxMem=    33554432 cpu:        11.7
 (Enter /usr/local/gau/g09/l601.exe)
 Copying SCF densities to generalized density rwf, IOpCl= 0 IROHF=0.

 **********************************************************************

            Population analysis using the SCF density.

 **********************************************************************

 Orbital symmetries:
       Occupied  (A) (A) (A) (A) (A) (A) (A) (A) (A) (A) (A) (A)
                 (A) (A) (A) (A) (A) (A) (A) (A) (A) (A) (A) (A)
       Virtual   (A) (A) (A) (A) (A) (A) (A) (A) (A) (A) (A) (A)
                 (A) (A) (A) (A) (A) (A) (A) (A) (A) (A) (A) (A)
                 (A) (A) (A) (A) (A) (A) (A) (A) (A) (A) (A) (A)
                 (A) (A) (A) (A) (A) (A) (A) (A)
 The electronic state is 1-A.
 Alpha  occ. eigenvalues --  -19.21183 -19.12077 -14.31350 -10.32483 -10.24668
 Alpha  occ. eigenvalues --  -10.18340  -1.11854  -0.98793  -0.89373  -0.75953
 Alpha  occ. eigenvalues --   -0.68498  -0.61841  -0.51116  -0.49876  -0.46794
 Alpha  occ. eigenvalues --   -0.45814  -0.41722  -0.41394  -0.39905  -0.36369
 Alpha  occ. eigenvalues --   -0.32880  -0.28441  -0.24523  -0.22591
 Alpha virt. eigenvalues --   -0.03700   0.04536   0.06224   0.09528   0.13252
 Alpha virt. eigenvalues --    0.15520   0.16443   0.17034   0.21096   0.22837
 Alpha virt. eigenvalues --    0.29677   0.31421   0.38032   0.53596   0.54248
 Alpha virt. eigenvalues --    0.56488   0.58748   0.61114   0.65113   0.68902
 Alpha virt. eigenvalues --    0.70208   0.72754   0.77083   0.77585   0.80831
 Alpha virt. eigenvalues --    0.81702   0.90333   0.91073   0.92145   0.94100
 Alpha virt. eigenvalues --    0.94566   0.96228   0.98185   0.98661   1.02698
 Alpha virt. eigenvalues --    1.06980   1.13865   1.19700   1.27089   1.35049
 Alpha virt. eigenvalues --    1.45143   1.49455   1.83769   1.91990
          Condensed to atoms (all electrons):
               1          2          3          4          5          6
     1  N    6.919928   0.347222   0.309222  -0.057558  -0.089843  -0.074270
     2  H    0.347222   0.434781  -0.039475  -0.016747   0.001627   0.006016
     3  C    0.309222  -0.039475   5.521818   0.357805   0.257335   0.056860
     4  H   -0.057558  -0.016747   0.357805   0.600734  -0.007946  -0.071673
     5  C   -0.089843   0.001627   0.257335  -0.007946   5.237482  -0.058915
     6  C   -0.074270   0.006016   0.056860  -0.071673  -0.058915   4.939060
     7  H    0.002043   0.001098  -0.026027  -0.003640   0.360853   0.005730
     8  H    0.005537  -0.000118  -0.027012  -0.000430   0.345102   0.002755
     9  H   -0.003614  -0.000219  -0.029183   0.002101   0.363261  -0.007255
    10  O    0.001429   0.000087  -0.178819  -0.001484   0.004765   0.498862
    11  H    0.315464  -0.037192  -0.043618   0.007823  -0.000527  -0.005933
    12  O    0.000008  -0.000065  -0.102655   0.003954   0.009345   0.158968
    13  H   -0.000171   0.000006   0.008384  -0.000389  -0.000939  -0.013797
               7          8          9         10         11         12
     1  N    0.002043   0.005537  -0.003614   0.001429   0.315464   0.000008
     2  H    0.001098  -0.000118  -0.000219   0.000087  -0.037192  -0.000065
     3  C   -0.026027  -0.027012  -0.029183  -0.178819  -0.043618  -0.102655
     4  H   -0.003640  -0.000430   0.002101  -0.001484   0.007823   0.003954
     5  C    0.360853   0.345102   0.363261   0.004765  -0.000527   0.009345
     6  C    0.005730   0.002755  -0.007255   0.498862  -0.005933   0.158968
     7  H    0.572383  -0.028196  -0.030656  -0.000105  -0.000407   0.000044
     8  H   -0.028196   0.581006  -0.028194   0.000037   0.000017   0.001111
     9  H   -0.030656  -0.028194   0.583407  -0.000103   0.005224   0.000475
    10  O   -0.000105   0.000037  -0.000103   8.240039  -0.000083  -0.099995
    11  H   -0.000407   0.000017   0.005224  -0.000083   0.481879   0.000266
    12  O    0.000044   0.001111   0.000475  -0.099995   0.000266   8.337418
    13  H    0.000009   0.000013   0.000008   0.004831  -0.000007   0.234303
              13
     1  N   -0.000171
     2  H    0.000006
     3  C    0.008384
     4  H   -0.000389
     5  C   -0.000939
     6  C   -0.013797
     7  H    0.000009
     8  H    0.000013
     9  H    0.000008
    10  O    0.004831
    11  H   -0.000007
    12  O    0.234303
    13  H    0.364583
 Mulliken charges:
               1
     1  N   -0.675399
     2  H    0.302979
     3  C   -0.064636
     4  H    0.187449
     5  C   -0.421601
     6  C    0.563592
     7  H    0.146871
     8  H    0.148373
     9  H    0.144749
    10  O   -0.469460
    11  H    0.277094
    12  O   -0.543178
    13  H    0.403167
 Sum of Mulliken charges =   0.00000
 Mulliken charges with hydrogens summed into heavy atoms:
               1
     1  N   -0.095327
     3  C    0.122814
     5  C    0.018392
     6  C    0.563592
    10  O   -0.469460
    12  O   -0.140011
 Electronic spatial extent (au):  <R**2>=            599.9004
 Charge=              0.0000 electrons
 Dipole moment (field-independent basis, Debye):
    X=              1.6524    Y=              1.9981    Z=              0.4226  Tot=              2.6271
 Quadrupole moment (field-independent basis, Debye-Ang):
   XX=            -28.8988   YY=            -40.1903   ZZ=            -35.8582
   XY=             -6.3251   XZ=             -0.7816   YZ=             -0.9866
 Traceless Quadrupole moment (field-independent basis, Debye-Ang):
   XX=              6.0836   YY=             -5.2079   ZZ=             -0.8758
   XY=             -6.3251   XZ=             -0.7816   YZ=             -0.9866
 Octapole moment (field-independent basis, Debye-Ang**2):
  XXX=            -18.1355  YYY=              0.4763  ZZZ=              5.0980  XYY=              6.2782
  XXY=              5.4595  XXZ=              6.4855  XZZ=              1.5080  YZZ=             -1.3756
  YYZ=             -2.2415  XYZ=              3.0020
 Hexadecapole moment (field-independent basis, Debye-Ang**3):
 XXXX=           -323.1766 YYYY=           -256.8616 ZZZZ=            -85.5843 XXXY=            -49.8542
 XXXZ=             -9.0713 YYYX=            -18.1502 YYYZ=              3.8876 ZZZX=              7.2548
 ZZZY=              0.5969 XXYY=            -98.3010 XXZZ=            -76.1765 YYZZ=            -56.9455
 XXYZ=             -2.2895 YYXZ=             -1.6758 ZZXY=             -4.3294
 N-N= 2.453170442459D+02 E-N=-1.248224375362D+03  KE= 3.216067756191D+02
 No NMR shielding tensors so no spin-rotation constants.
 Leave Link  601 at Sat Apr 16 13:11:36 2016, MaxMem=    33554432 cpu:         0.1
 (Enter /usr/local/gau/g09/l701.exe)
 Compute integral first derivatives.
 ... and contract with generalized density number  0.
 Leave Link  701 at Sat Apr 16 13:11:37 2016, MaxMem=    33554432 cpu:         0.1
 (Enter /usr/local/gau/g09/l702.exe)
 L702 exits ... SP integral derivatives will be done elsewhere.
 Leave Link  702 at Sat Apr 16 13:11:37 2016, MaxMem=    33554432 cpu:         0.0
 (Enter /usr/local/gau/g09/l703.exe)
 Compute integral first derivatives, UseDBF=F ICtDFT=           0.
 Integral derivatives from FoFJK, PRISM(SPDF).
 Calling FoFJK, ICntrl=      2127 FMM=F ISym2X=0 I1Cent= 0 IOpClX= 0 NMat=1 NMatS=1 NMatT=0.
 FoFJK:  IHMeth= 1 ICntrl=    2127 DoSepK=F KAlg= 0 I1Cent=   0 FoldK=F
 IRaf=         0 NMat=   1 IRICut=       1 DoRegI=T DoRafI=F ISym2E= 0.
 FoFCou: FMM=F IPFlag=           0 FMFlag=      100000 FMFlg1=         800
         NFxFlg=           0 DoJE=F BraDBF=F KetDBF=F FulRan=T
         wScrn=  0.000000 ICntrl=    2127 IOpCl=  0 I1Cent=           0 NGrid=           0
         NMat0=    1 NMatS0=      1 NMatT0=    0 NMatD0=    1 NMtDS0=    0 NMtDT0=    0
 Symmetry not used in FoFCou.
 Leave Link  703 at Sat Apr 16 13:11:41 2016, MaxMem=    33554432 cpu:         2.7
 (Enter /usr/local/gau/g09/l716.exe)
 Dipole        = 6.50120459D-01 7.86096660D-01 1.66279762D-01
 ***** Axes restored to original set *****
 -------------------------------------------------------------------
 Center     Atomic                   Forces (Hartrees/Bohr)
 Number     Number              X              Y              Z
 -------------------------------------------------------------------
      1        7          -0.011859137    0.005872779   -0.029859918
      2        1           0.002279248    0.001278308   -0.000462553
      3        6          -0.032334469   -0.058786268    0.056814035
      4        1          -0.024841312    0.072784554   -0.029961293
      5        6          -0.003866917    0.002612786    0.007405721
      6        6           0.078614516   -0.088828328    0.043764062
      7        1           0.000481475    0.000161731   -0.001132891
      8        1           0.000185555   -0.000304643   -0.000506382
      9        1           0.003178471   -0.003214427    0.000629222
     10        8           0.000941703    0.059602843   -0.037426704
     11        1          -0.000948544   -0.000843605   -0.000511581
     12        8          -0.009337540    0.015325955   -0.007415018
     13        1          -0.002493049   -0.005661684   -0.001336700
 -------------------------------------------------------------------
 Cartesian Forces:  Max     0.088828328 RMS     0.030831986
 Leave Link  716 at Sat Apr 16 13:11:42 2016, MaxMem=    33554432 cpu:         0.0
 (Enter /usr/local/gau/g09/l103.exe)

 GradGradGradGradGradGradGradGradGradGradGradGradGradGradGradGradGradGrad
 Berny optimization.
 FormGI is forming the generalized inverse of G from B-inverse, IUseBI=4.
 Internal  Forces:  Max     0.075704937 RMS     0.021327164
 Search for a local minimum.
 Step number   1 out of a maximum of   64
 All quantities printed in internal units (Hartrees-Bohrs-Radians)
 RMS Force = .21327D-01 SwitMx=.10000D-02 MixMth= 1
 Mixed Optimization -- RFO/linear search
 Second derivative matrix not updated -- first step.
 ITU=  0
     Eigenvalues ---    0.00564   0.01000   0.01564   0.01848   0.02331
     Eigenvalues ---    0.02441   0.02817   0.04114   0.05446   0.05722
     Eigenvalues ---    0.08103   0.13630   0.16000   0.16000   0.16000
     Eigenvalues ---    0.16000   0.16000   0.16000   0.19697   0.21364
     Eigenvalues ---    0.24931   0.25000   0.30829   0.33299   0.34042
     Eigenvalues ---    0.34129   0.37944   0.39636   0.44991   0.46212
     Eigenvalues ---    0.51011   0.56458   0.62193
 RFO step:  Lambda=-8.26814226D-02 EMin= 5.64196271D-03
 Linear search not attempted -- first point.
 Maximum step size (   0.300) exceeded in Quadratic search.
    -- Step size scaled by   0.588
 Iteration  1 RMS(Cart)=  0.07281937 RMS(Int)=  0.00410479
 Iteration  2 RMS(Cart)=  0.00449595 RMS(Int)=  0.00025720
 Iteration  3 RMS(Cart)=  0.00001598 RMS(Int)=  0.00025675
 Iteration  4 RMS(Cart)=  0.00000001 RMS(Int)=  0.00025675
 ITry= 1 IFail=0 DXMaxC= 2.75D-01 DCOld= 1.00D+10 DXMaxT= 3.00D-01 DXLimC= 3.00D+00 Rises=F
 Variable       Old X    -DE/DX   Delta X   Delta X   Delta X     New X
                                 (Linear)    (Quad)   (Total)
    R1        1.90593  -0.00242   0.00000  -0.00261  -0.00261   1.90332
    R2        2.74447   0.01586   0.00000   0.02017   0.02017   2.76464
    R3        1.91986   0.00058   0.00000   0.00064   0.00064   1.92051
    R4        2.68647  -0.07570   0.00000  -0.20320  -0.20320   2.48327
    R5        2.86341   0.00002   0.00000   0.00003   0.00003   2.86344
    R6        2.72052   0.06642   0.00000   0.08150   0.08150   2.80202
    R7        2.07259  -0.00103   0.00000  -0.00142  -0.00142   2.07117
    R8        2.07113  -0.00036   0.00000  -0.00050  -0.00050   2.07063
    R9        2.08529  -0.00265   0.00000  -0.00375  -0.00375   2.08154
   R10        2.49246  -0.06107   0.00000  -0.05094  -0.05094   2.44152
   R11        2.53859   0.00468   0.00000   0.00425   0.00425   2.54284
   R12        1.85558  -0.00211   0.00000  -0.00209  -0.00209   1.85349
    A1        2.04462  -0.00149   0.00000  -0.00341  -0.00341   2.04121
    A2        1.97795  -0.00025   0.00000  -0.00033  -0.00033   1.97762
    A3        2.03733   0.00205   0.00000   0.00516   0.00516   2.04250
    A4        1.50652   0.02035   0.00000   0.07661   0.07718   1.58369
    A5        2.04414  -0.00668   0.00000  -0.01747  -0.01776   2.02638
    A6        1.96842   0.00302   0.00000  -0.00272  -0.00342   1.96500
    A7        2.22917  -0.02079   0.00000  -0.07093  -0.07084   2.15833
    A8        1.52503   0.01482   0.00000   0.05672   0.05694   1.58196
    A9        2.07421  -0.00293   0.00000  -0.01349  -0.01409   2.06012
   A10        1.91701   0.00139   0.00000   0.00418   0.00417   1.92118
   A11        1.95800   0.00050   0.00000   0.00133   0.00131   1.95931
   A12        1.95695  -0.00550   0.00000  -0.01425  -0.01426   1.94269
   A13        1.87954   0.00022   0.00000   0.00229   0.00228   1.88182
   A14        1.87017   0.00186   0.00000   0.00424   0.00425   1.87442
   A15        1.87836   0.00178   0.00000   0.00290   0.00288   1.88125
   A16        1.95880   0.06844   0.00000   0.12192   0.12180   2.08061
   A17        2.21394  -0.04966   0.00000  -0.08683  -0.08698   2.12696
   A18        2.10427  -0.01824   0.00000  -0.03145  -0.03164   2.07263
   A19        1.96008  -0.00862   0.00000  -0.02088  -0.02088   1.93920
    D1        0.80214  -0.01345   0.00000  -0.04883  -0.04860   0.75354
    D2       -1.48399   0.00081   0.00000  -0.00657  -0.00666  -1.49065
    D3        2.29610   0.01107   0.00000   0.04584   0.04570   2.34180
    D4       -3.05227  -0.01312   0.00000  -0.04702  -0.04679  -3.09906
    D5        0.94479   0.00114   0.00000  -0.00475  -0.00484   0.93994
    D6       -1.55831   0.01140   0.00000   0.04766   0.04752  -1.51080
    D7        1.10778   0.00454   0.00000   0.02661   0.02634   1.13412
    D8       -3.08567   0.00609   0.00000   0.03318   0.03292  -3.05275
    D9       -0.96951   0.00479   0.00000   0.02761   0.02736  -0.94215
   D10       -0.77289  -0.00291   0.00000  -0.01465  -0.01449  -0.78738
   D11        1.31685  -0.00136   0.00000  -0.00807  -0.00792   1.30893
   D12       -2.85018  -0.00265   0.00000  -0.01365  -0.01348  -2.86366
   D13       -2.71191  -0.00428   0.00000  -0.02521  -0.02512  -2.73703
   D14       -0.62218  -0.00273   0.00000  -0.01863  -0.01854  -0.64072
   D15        1.49398  -0.00403   0.00000  -0.02421  -0.02410   1.46988
   D16       -1.18333  -0.01093   0.00000  -0.03753  -0.03724  -1.22057
   D17        2.07805  -0.01608   0.00000  -0.07256  -0.07280   2.00524
   D18        0.29837   0.01727   0.00000   0.07018   0.07048   0.36884
   D19       -2.72344   0.01212   0.00000   0.03515   0.03491  -2.68853
   D20        2.60876   0.00097   0.00000   0.01736   0.01758   2.62634
   D21       -0.41305  -0.00418   0.00000  -0.01767  -0.01798  -0.43103
   D22        2.90094   0.00850   0.00000   0.04097   0.04017   2.94112
   D23       -0.11183  -0.00206   0.00000  -0.00560  -0.00480  -0.11663
         Item               Value     Threshold  Converged?
 Maximum Force            0.075705     0.000450     NO 
 RMS     Force            0.021327     0.000300     NO 
 Maximum Displacement     0.274778     0.001800     NO 
 RMS     Displacement     0.071480     0.001200     NO 
 Predicted change in Energy=-3.920060D-02
 Lowest energy point so far.  Saving SCF results.
 GradGradGradGradGradGradGradGradGradGradGradGradGradGradGradGradGradGrad

 Leave Link  103 at Sat Apr 16 13:11:42 2016, MaxMem=    33554432 cpu:         0.0
 (Enter /usr/local/gau/g09/l202.exe)
                          Input orientation:                          
 ---------------------------------------------------------------------
 Center     Atomic      Atomic             Coordinates (Angstroms)
 Number     Number       Type             X           Y           Z
 ---------------------------------------------------------------------
      1          7           0       -1.317168   -1.154100   -0.538938
      2          1           0       -1.988278   -1.738114   -0.066731
      3          6           0       -0.663366   -0.116677    0.258948
      4          1           0       -0.500064   -0.960328    1.253138
      5          6           0       -1.409168    1.196269    0.385398
      6          6           0        0.802046   -0.067346    0.038218
      7          1           0       -2.345408    1.045716    0.934976
      8          1           0       -0.825800    1.955352    0.918408
      9          1           0       -1.669925    1.605340   -0.603532
     10          8           0        1.538883   -1.032861    0.478790
     11          1           0       -1.596607   -0.902974   -1.483232
     12          8           0        1.400299    0.998925   -0.523773
     13          1           0        2.375309    0.946625   -0.430829
 ---------------------------------------------------------------------
                    Distance matrix (angstroms):
                    1          2          3          4          5
     1  N    0.000000
     2  H    1.007194   0.000000
     3  C    1.462985   2.119084   0.000000
     4  H    1.979076   2.135834   1.314089   0.000000
     5  C    2.527271   3.024962   1.515269   2.496068   0.000000
     6  C    2.450553   3.253980   1.482763   1.992219   2.570355
     7  H    2.840579   2.980044   2.153471   2.744218   1.096015
     8  H    3.469004   3.995440   2.180499   2.952852   1.095730
     9  H    2.782646   3.401204   2.173103   3.376159   1.101505
    10  O    3.034386   3.638110   2.395334   2.182242   3.697127
    11  H    1.016288   1.690367   2.127062   2.948460   2.816688
    12  O    3.467041   4.379809   2.473041   3.256910   2.959500
    13  H    4.249602   5.136271   3.292407   3.839268   3.879538
                    6          7          8          9         10
     6  C    0.000000
     7  H    3.456812   0.000000
     8  H    2.741519   1.771136   0.000000
     9  H    3.052927   1.771006   1.775206   0.000000
    10  O    1.291995   4.429030   3.835936   4.292782   0.000000
    11  H    2.960847   3.194655   3.812092   2.659114   3.701040
    12  O    1.345613   4.020007   2.819602   3.130555   2.269910
    13  H    1.929585   4.915324   3.617329   4.102152   2.333533
                   11         12         13
    11  H    0.000000
    12  O    3.676850   0.000000
    13  H    4.506072   0.980825   0.000000
 Stoichiometry    C3H7NO2
 Framework group  C1[X(C3H7NO2)]
 Deg. of freedom    33
 Full point group                 C1      NOp   1
 RotChk:  IX=0 Diff= 3.53D-02
 Largest Abelian subgroup         C1      NOp   1
 Largest concise Abelian subgroup C1      NOp   1
                         Standard orientation:                         
 ---------------------------------------------------------------------
 Center     Atomic      Atomic             Coordinates (Angstroms)
 Number     Number       Type             X           Y           Z
 ---------------------------------------------------------------------
      1          7           0        1.318701   -1.153569    0.538159
      2          1           0        1.991409   -1.731255    0.060473
      3          6           0        0.666599   -0.106441   -0.248358
      4          1           0        0.506475   -0.937526   -1.253588
      5          6           0        1.412097    1.208344   -0.356122
      6          6           0       -0.799443   -0.060582   -0.031097
      7          1           0        2.349933    1.065185   -0.904955
      8          1           0        0.829832    1.973837   -0.881110
      9          1           0        1.669906    1.604996    0.638622
     10          8           0       -1.534576   -1.020789   -0.485890
     11          1           0        1.595395   -0.914276    1.486326
     12          8           0       -1.399783    0.998220    0.542667
     13          1           0       -2.374505    0.946649    0.446359
 ---------------------------------------------------------------------
 Rotational constants (GHZ):      4.9043595      2.9348039      2.1630103
 Leave Link  202 at Sat Apr 16 13:11:42 2016, MaxMem=    33554432 cpu:         0.0
 (Enter /usr/local/gau/g09/l301.exe)
 Standard basis: 6-31G (6D, 7F)
 Ernie: Thresh=  0.10000D-02 Tol=  0.10000D-05 Strict=F.
 There are    68 symmetry adapted cartesian basis functions of A   symmetry.
 There are    68 symmetry adapted basis functions of A   symmetry.
    68 basis functions,   160 primitive gaussians,    68 cartesian basis functions
    24 alpha electrons       24 beta electrons
       nuclear repulsion energy       244.4889988764 Hartrees.
 IExCor=  402 DFT=T Ex+Corr=B3LYP ExCW=0 ScaHFX=  0.200000
 ScaDFX=  0.800000  0.720000  1.000000  0.810000 ScalE2=  1.000000  1.000000
 IRadAn=      0 IRanWt=     -1 IRanGd=            0 ICorTp=0 IEmpDi=  4
 NAtoms=   13 NActive=   13 NUniq=   13 SFac= 1.00D+00 NAtFMM=   60 NAOKFM=F Big=F
 Integral buffers will be    131072 words long.
 Raffenetti 2 integral format.
 Two-electron integral symmetry is turned on.
 Leave Link  301 at Sat Apr 16 13:11:42 2016, MaxMem=    33554432 cpu:         0.0
 (Enter /usr/local/gau/g09/l302.exe)
 NPDir=0 NMtPBC=     1 NCelOv=     1 NCel=       1 NClECP=     1 NCelD=      1
         NCelK=      1 NCelE2=     1 NClLst=     1 CellRange=     0.0.
 One-electron integrals computed using PRISM.
 NBasis=    68 RedAO= T EigKep=  5.08D-03  NBF=    68
 NBsUse=    68 1.00D-06 EigRej= -1.00D+00 NBFU=    68
 Precomputing XC quadrature grid using
 IXCGrd= 4 IRadAn=           0 IRanWt=          -1 IRanGd=           0 AccXCQ= 0.00D+00.
 Generated NRdTot=       0 NPtTot=           0 NUsed=           0 NTot=          32
 NSgBfM=    68    68    68    68    68 MxSgAt=    13 MxSgA2=    13.
 Leave Link  302 at Sat Apr 16 13:11:42 2016, MaxMem=    33554432 cpu:         0.3
 (Enter /usr/local/gau/g09/l303.exe)
 DipDrv:  MaxL=1.
 Leave Link  303 at Sat Apr 16 13:11:42 2016, MaxMem=    33554432 cpu:         0.0
 (Enter /usr/local/gau/g09/l401.exe)
 Initial guess from the checkpoint file:  "Ala-S-opt-freq-pb1-6-31g.chk"
 B after Tr=     0.000000    0.000000    0.000000
         Rot=    0.999831   -0.006069   -0.008703    0.015036 Ang=  -2.11 deg.
 Guess basis will be translated and rotated to current coordinates.
 JPrj=2 DoOrth=T DoCkMO=T.
 Generating alternative initial guess.
 ExpMin= 1.61D-01 ExpMax= 5.48D+03 ExpMxC= 8.25D+02 IAcc=1 IRadAn=         1 AccDes= 0.00D+00
 Harris functional with IExCor=  402 and IRadAn=       1 diagonalized for initial guess.
 HarFok:  IExCor=  402 AccDes= 0.00D+00 IRadAn=         1 IDoV= 1 UseB2=F ITyADJ=14
 ICtDFT=  3500011 ScaDFX=  1.000000  1.000000  1.000000  1.000000
 FoFCou: FMM=F IPFlag=           0 FMFlag=      100000 FMFlg1=           0
         NFxFlg=           0 DoJE=T BraDBF=F KetDBF=T FulRan=T
         wScrn=  0.000000 ICntrl=     500 IOpCl=  0 I1Cent=   200000004 NGrid=           0
         NMat0=    1 NMatS0=      1 NMatT0=    0 NMatD0=    1 NMtDS0=    0 NMtDT0=    0
 Petite list used in FoFCou.
 Harris En= -323.637184125038    
 Leave Link  401 at Sat Apr 16 13:11:43 2016, MaxMem=    33554432 cpu:         0.5
 (Enter /usr/local/gau/g09/l502.exe)
 Closed shell SCF:
 Using DIIS extrapolation, IDIIS=  1040.
 Integral symmetry usage will be decided dynamically.
 Keep R1 ints in memory in canonical form, NReq=3676491.
 IVT=       33364 IEndB=       33364 NGot=    33554432 MDV=    30768038
 LenX=    30768038 LenY=    30762973
 Requested convergence on RMS density matrix=1.00D-08 within 128 cycles.
 Requested convergence on MAX density matrix=1.00D-06.
 Requested convergence on             energy=1.00D-06.
 No special actions if energy rises.
 FoFCou: FMM=F IPFlag=           0 FMFlag=           0 FMFlg1=           0
         NFxFlg=           0 DoJE=F BraDBF=F KetDBF=F FulRan=T
         wScrn=  0.000000 ICntrl=     600 IOpCl=  0 I1Cent=           0 NGrid=           0
         NMat0=    1 NMatS0=   2346 NMatT0=    0 NMatD0=    1 NMtDS0=    0 NMtDT0=    0
 Symmetry not used in FoFCou.
 Integral accuracy reduced to 1.0D-05 until final iterations.

 Cycle   1  Pass 0  IDiag  1:
 E= -323.568794466004    
 DIIS: error= 5.12D-03 at cycle   1 NSaved=   1.
 NSaved= 1 IEnMin= 1 EnMin= -323.568794466004     IErMin= 1 ErrMin= 5.12D-03
 ErrMax= 5.12D-03  0.00D+00 EMaxC= 1.00D-01 BMatC= 6.50D-03 BMatP= 6.50D-03
 IDIUse=3 WtCom= 9.49D-01 WtEn= 5.12D-02
 Coeff-Com:  0.100D+01
 Coeff-En:   0.100D+01
 Coeff:      0.100D+01
 Gap=     0.589 Goal=   None    Shift=    0.000
 GapD=    0.589 DampG=2.000 DampE=1.000 DampFc=2.0000 IDamp=-1.
 RMSDP=2.87D-03 MaxDP=2.34D-02              OVMax= 5.21D-02

 Cycle   2  Pass 0  IDiag  1:
 E= -323.580778587705     Delta-E=       -0.011984121702 Rises=F Damp=F
 DIIS: error= 4.43D-03 at cycle   2 NSaved=   2.
 NSaved= 2 IEnMin= 2 EnMin= -323.580778587705     IErMin= 2 ErrMin= 4.43D-03
 ErrMax= 4.43D-03  0.00D+00 EMaxC= 1.00D-01 BMatC= 1.12D-03 BMatP= 6.50D-03
 IDIUse=3 WtCom= 9.56D-01 WtEn= 4.43D-02
 Coeff-Com:  0.165D+00 0.835D+00
 Coeff-En:   0.000D+00 0.100D+01
 Coeff:      0.158D+00 0.842D+00
 Gap=     0.204 Goal=   None    Shift=    0.000
 RMSDP=1.20D-03 MaxDP=1.97D-02 DE=-1.20D-02 OVMax= 3.58D-02

 Cycle   3  Pass 0  IDiag  1:
 E= -323.578487752845     Delta-E=        0.002290834861 Rises=F Damp=F
 DIIS: error= 8.91D-03 at cycle   3 NSaved=   3.
 NSaved= 3 IEnMin= 2 EnMin= -323.580778587705     IErMin= 2 ErrMin= 4.43D-03
 ErrMax= 8.91D-03  0.00D+00 EMaxC= 1.00D-01 BMatC= 4.07D-03 BMatP= 1.12D-03
 IDIUse=3 WtCom= 9.58D-02 WtEn= 9.04D-01
 Coeff-Com: -0.296D-01 0.675D+00 0.355D+00
 Coeff-En:   0.000D+00 0.720D+00 0.280D+00
 Coeff:     -0.284D-02 0.716D+00 0.287D+00
 Gap=     0.204 Goal=   None    Shift=    0.000
 RMSDP=7.18D-04 MaxDP=1.07D-02 DE= 2.29D-03 OVMax= 2.04D-02

 Cycle   4  Pass 0  IDiag  1:
 E= -323.581621687892     Delta-E=       -0.003133935047 Rises=F Damp=F
 DIIS: error= 1.47D-03 at cycle   4 NSaved=   4.
 NSaved= 4 IEnMin= 4 EnMin= -323.581621687892     IErMin= 4 ErrMin= 1.47D-03
 ErrMax= 1.47D-03  0.00D+00 EMaxC= 1.00D-01 BMatC= 1.28D-04 BMatP= 1.12D-03
 IDIUse=3 WtCom= 9.85D-01 WtEn= 1.47D-02
 Coeff-Com: -0.196D-01 0.315D+00 0.598D-01 0.645D+00
 Coeff-En:   0.000D+00 0.896D-01 0.000D+00 0.910D+00
 Coeff:     -0.193D-01 0.312D+00 0.590D-01 0.648D+00
 Gap=     0.205 Goal=   None    Shift=    0.000
 RMSDP=1.68D-04 MaxDP=2.02D-03 DE=-3.13D-03 OVMax= 3.75D-03

 Cycle   5  Pass 0  IDiag  1:
 E= -323.581723350293     Delta-E=       -0.000101662402 Rises=F Damp=F
 DIIS: error= 2.62D-04 at cycle   5 NSaved=   5.
 NSaved= 5 IEnMin= 5 EnMin= -323.581723350293     IErMin= 5 ErrMin= 2.62D-04
 ErrMax= 2.62D-04  0.00D+00 EMaxC= 1.00D-01 BMatC= 4.75D-06 BMatP= 1.28D-04
 IDIUse=3 WtCom= 9.97D-01 WtEn= 2.62D-03
 Coeff-Com: -0.497D-02 0.503D-01-0.228D-01 0.339D+00 0.638D+00
 Coeff-En:   0.000D+00 0.000D+00 0.000D+00 0.000D+00 0.100D+01
 Coeff:     -0.496D-02 0.501D-01-0.227D-01 0.338D+00 0.639D+00
 Gap=     0.204 Goal=   None    Shift=    0.000
 RMSDP=3.27D-05 MaxDP=4.76D-04 DE=-1.02D-04 OVMax= 5.86D-04

 Cycle   6  Pass 0  IDiag  1:
 E= -323.581727423717     Delta-E=       -0.000004073424 Rises=F Damp=F
 DIIS: error= 8.38D-05 at cycle   6 NSaved=   6.
 NSaved= 6 IEnMin= 6 EnMin= -323.581727423717     IErMin= 6 ErrMin= 8.38D-05
 ErrMax= 8.38D-05  0.00D+00 EMaxC= 1.00D-01 BMatC= 3.87D-07 BMatP= 4.75D-06
 IDIUse=1 WtCom= 1.00D+00 WtEn= 0.00D+00
 Coeff-Com: -0.135D-02 0.649D-02-0.170D-01 0.143D+00 0.337D+00 0.531D+00
 Coeff:     -0.135D-02 0.649D-02-0.170D-01 0.143D+00 0.337D+00 0.531D+00
 Gap=     0.204 Goal=   None    Shift=    0.000
 RMSDP=9.26D-06 MaxDP=1.33D-04 DE=-4.07D-06 OVMax= 1.51D-04

 Initial convergence to 1.0D-05 achieved.  Increase integral accuracy.
 Cycle   7  Pass 1  IDiag  1:
 E= -323.581726915963     Delta-E=        0.000000507755 Rises=F Damp=F
 DIIS: error= 1.58D-05 at cycle   1 NSaved=   1.
 NSaved= 1 IEnMin= 1 EnMin= -323.581726915963     IErMin= 1 ErrMin= 1.58D-05
 ErrMax= 1.58D-05  0.00D+00 EMaxC= 1.00D-01 BMatC= 2.87D-08 BMatP= 2.87D-08
 IDIUse=1 WtCom= 1.00D+00 WtEn= 0.00D+00
 Coeff-Com:  0.100D+01
 Coeff:      0.100D+01
 Gap=     0.204 Goal=   None    Shift=    0.000
 RMSDP=9.26D-06 MaxDP=1.33D-04 DE= 5.08D-07 OVMax= 1.15D-04

 Cycle   8  Pass 1  IDiag  1:
 E= -323.581726918078     Delta-E=       -0.000000002115 Rises=F Damp=F
 DIIS: error= 1.69D-05 at cycle   2 NSaved=   2.
 NSaved= 2 IEnMin= 2 EnMin= -323.581726918078     IErMin= 1 ErrMin= 1.58D-05
 ErrMax= 1.69D-05  0.00D+00 EMaxC= 1.00D-01 BMatC= 4.90D-08 BMatP= 2.87D-08
 IDIUse=1 WtCom= 1.00D+00 WtEn= 0.00D+00
 Coeff-Com:  0.577D+00 0.423D+00
 Coeff:      0.577D+00 0.423D+00
 Gap=     0.204 Goal=   None    Shift=    0.000
 RMSDP=3.64D-06 MaxDP=5.89D-05 DE=-2.11D-09 OVMax= 8.73D-05

 Cycle   9  Pass 1  IDiag  1:
 E= -323.581726954653     Delta-E=       -0.000000036576 Rises=F Damp=F
 DIIS: error= 9.84D-06 at cycle   3 NSaved=   3.
 NSaved= 3 IEnMin= 3 EnMin= -323.581726954653     IErMin= 3 ErrMin= 9.84D-06
 ErrMax= 9.84D-06  0.00D+00 EMaxC= 1.00D-01 BMatC= 6.39D-09 BMatP= 2.87D-08
 IDIUse=1 WtCom= 1.00D+00 WtEn= 0.00D+00
 Coeff-Com:  0.200D+00 0.268D+00 0.532D+00
 Coeff:      0.200D+00 0.268D+00 0.532D+00
 Gap=     0.204 Goal=   None    Shift=    0.000
 RMSDP=1.66D-06 MaxDP=2.08D-05 DE=-3.66D-08 OVMax= 4.30D-05

 Cycle  10  Pass 1  IDiag  1:
 E= -323.581726958490     Delta-E=       -0.000000003837 Rises=F Damp=F
 DIIS: error= 5.64D-06 at cycle   4 NSaved=   4.
 NSaved= 4 IEnMin= 4 EnMin= -323.581726958490     IErMin= 4 ErrMin= 5.64D-06
 ErrMax= 5.64D-06  0.00D+00 EMaxC= 1.00D-01 BMatC= 1.95D-09 BMatP= 6.39D-09
 IDIUse=1 WtCom= 1.00D+00 WtEn= 0.00D+00
 Coeff-Com: -0.521D-02 0.854D-01 0.398D+00 0.522D+00
 Coeff:     -0.521D-02 0.854D-01 0.398D+00 0.522D+00
 Gap=     0.204 Goal=   None    Shift=    0.000
 RMSDP=6.43D-07 MaxDP=8.10D-06 DE=-3.84D-09 OVMax= 1.53D-05

 Cycle  11  Pass 1  IDiag  1:
 E= -323.581726960178     Delta-E=       -0.000000001687 Rises=F Damp=F
 DIIS: error= 9.27D-07 at cycle   5 NSaved=   5.
 NSaved= 5 IEnMin= 5 EnMin= -323.581726960178     IErMin= 5 ErrMin= 9.27D-07
 ErrMax= 9.27D-07  0.00D+00 EMaxC= 1.00D-01 BMatC= 5.39D-11 BMatP= 1.95D-09
 IDIUse=1 WtCom= 1.00D+00 WtEn= 0.00D+00
 Coeff-Com: -0.154D-01 0.273D-01 0.168D+00 0.255D+00 0.565D+00
 Coeff:     -0.154D-01 0.273D-01 0.168D+00 0.255D+00 0.565D+00
 Gap=     0.204 Goal=   None    Shift=    0.000
 RMSDP=1.39D-07 MaxDP=1.91D-06 DE=-1.69D-09 OVMax= 2.71D-06

 Cycle  12  Pass 1  IDiag  1:
 E= -323.581726960228     Delta-E=       -0.000000000050 Rises=F Damp=F
 DIIS: error= 2.40D-07 at cycle   6 NSaved=   6.
 NSaved= 6 IEnMin= 6 EnMin= -323.581726960228     IErMin= 6 ErrMin= 2.40D-07
 ErrMax= 2.40D-07  0.00D+00 EMaxC= 1.00D-01 BMatC= 6.44D-12 BMatP= 5.39D-11
 IDIUse=1 WtCom= 1.00D+00 WtEn= 0.00D+00
 Coeff-Com: -0.722D-02 0.323D-02 0.319D-01 0.618D-01 0.279D+00 0.631D+00
 Coeff:     -0.722D-02 0.323D-02 0.319D-01 0.618D-01 0.279D+00 0.631D+00
 Gap=     0.204 Goal=   None    Shift=    0.000
 RMSDP=6.94D-08 MaxDP=9.54D-07 DE=-5.00D-11 OVMax= 1.68D-06

 Cycle  13  Pass 1  IDiag  1:
 E= -323.581726960235     Delta-E=       -0.000000000007 Rises=F Damp=F
 DIIS: error= 5.71D-08 at cycle   7 NSaved=   7.
 NSaved= 7 IEnMin= 7 EnMin= -323.581726960235     IErMin= 7 ErrMin= 5.71D-08
 ErrMax= 5.71D-08  0.00D+00 EMaxC= 1.00D-01 BMatC= 3.34D-13 BMatP= 6.44D-12
 IDIUse=1 WtCom= 1.00D+00 WtEn= 0.00D+00
 Coeff-Com:  0.742D-03-0.337D-02-0.189D-01-0.227D-01-0.320D-01 0.154D+00
 Coeff-Com:  0.922D+00
 Coeff:      0.742D-03-0.337D-02-0.189D-01-0.227D-01-0.320D-01 0.154D+00
 Coeff:      0.922D+00
 Gap=     0.204 Goal=   None    Shift=    0.000
 RMSDP=2.68D-08 MaxDP=2.59D-07 DE=-7.39D-12 OVMax= 9.50D-07

 Cycle  14  Pass 1  IDiag  1:
 E= -323.581726960238     Delta-E=       -0.000000000003 Rises=F Damp=F
 DIIS: error= 1.34D-08 at cycle   8 NSaved=   8.
 NSaved= 8 IEnMin= 8 EnMin= -323.581726960238     IErMin= 8 ErrMin= 1.34D-08
 ErrMax= 1.34D-08  0.00D+00 EMaxC= 1.00D-01 BMatC= 2.00D-14 BMatP= 3.34D-13
 IDIUse=1 WtCom= 1.00D+00 WtEn= 0.00D+00
 Coeff-Com:  0.461D-03-0.142D-02-0.758D-02-0.105D-01-0.173D-01 0.402D-01
 Coeff-Com:  0.326D+00 0.670D+00
 Coeff:      0.461D-03-0.142D-02-0.758D-02-0.105D-01-0.173D-01 0.402D-01
 Coeff:      0.326D+00 0.670D+00
 Gap=     0.204 Goal=   None    Shift=    0.000
 RMSDP=3.10D-09 MaxDP=3.77D-08 DE=-2.84D-12 OVMax= 7.35D-08

 SCF Done:  E(RB3LYP) =  -323.581726960     A.U. after   14 cycles
            NFock= 14  Conv=0.31D-08     -V/T= 2.0061
 KE= 3.216065197370D+02 PE=-1.246550900748D+03 EE= 3.568736551745D+02
 Leave Link  502 at Sat Apr 16 13:11:55 2016, MaxMem=    33554432 cpu:        12.5
 (Enter /usr/local/gau/g09/l701.exe)
 Compute integral first derivatives.
 ... and contract with generalized density number  0.
 Leave Link  701 at Sat Apr 16 13:11:55 2016, MaxMem=    33554432 cpu:         0.1
 (Enter /usr/local/gau/g09/l702.exe)
 L702 exits ... SP integral derivatives will be done elsewhere.
 Leave Link  702 at Sat Apr 16 13:11:55 2016, MaxMem=    33554432 cpu:         0.0
 (Enter /usr/local/gau/g09/l703.exe)
 Compute integral first derivatives, UseDBF=F ICtDFT=           0.
 Integral derivatives from FoFJK, PRISM(SPDF).
 Calling FoFJK, ICntrl=      2127 FMM=F ISym2X=0 I1Cent= 0 IOpClX= 0 NMat=1 NMatS=1 NMatT=0.
 FoFJK:  IHMeth= 1 ICntrl=    2127 DoSepK=F KAlg= 0 I1Cent=   0 FoldK=F
 IRaf=         0 NMat=   1 IRICut=       1 DoRegI=T DoRafI=F ISym2E= 0.
 FoFCou: FMM=F IPFlag=           0 FMFlag=      100000 FMFlg1=         800
         NFxFlg=           0 DoJE=F BraDBF=F KetDBF=F FulRan=T
         wScrn=  0.000000 ICntrl=    2127 IOpCl=  0 I1Cent=           0 NGrid=           0
         NMat0=    1 NMatS0=      1 NMatT0=    0 NMatD0=    1 NMtDS0=    0 NMtDT0=    0
 Symmetry not used in FoFCou.
 Leave Link  703 at Sat Apr 16 13:11:58 2016, MaxMem=    33554432 cpu:         2.6
 (Enter /usr/local/gau/g09/l716.exe)
 Dipole        = 8.06599213D-01 7.75953987D-01 1.58674344D-01
 ***** Axes restored to original set *****
 -------------------------------------------------------------------
 Center     Atomic                   Forces (Hartrees/Bohr)
 Number     Number              X              Y              Z
 -------------------------------------------------------------------
      1        7          -0.003422008    0.009083695   -0.025311397
      2        1           0.001470316    0.000103613    0.001585800
      3        6          -0.006518121   -0.070564575    0.054038567
      4        1          -0.019097402    0.065322347   -0.031920712
      5        6          -0.001763126    0.003913772    0.007730870
      6        6           0.058543555   -0.064547394    0.026033205
      7        1           0.000233380   -0.000365774   -0.000946735
      8        1          -0.000026076   -0.000109400   -0.000524667
      9        1           0.003144588   -0.002559968    0.001057084
     10        8          -0.024823256    0.042322730   -0.022725488
     11        1           0.000575514   -0.000393167    0.001337931
     12        8          -0.007969141    0.021871735   -0.008307391
     13        1          -0.000348224   -0.004077612   -0.002047066
 -------------------------------------------------------------------
 Cartesian Forces:  Max     0.070564575 RMS     0.025948060
 Leave Link  716 at Sat Apr 16 13:11:58 2016, MaxMem=    33554432 cpu:         0.0
 (Enter /usr/local/gau/g09/l103.exe)

 GradGradGradGradGradGradGradGradGradGradGradGradGradGradGradGradGradGrad
 Berny optimization.
 Using GEDIIS/GDIIS optimizer.
 FormGI is forming the generalized inverse of G from B-inverse, IUseBI=4.
 Internal  Forces:  Max     0.068460744 RMS     0.014965161
 Search for a local minimum.
 Step number   2 out of a maximum of   64
 All quantities printed in internal units (Hartrees-Bohrs-Radians)
 RMS Force = .14965D-01 SwitMx=.10000D-02 MixMth= 1
 Mixed Optimization -- RFO/linear search
 Update second derivatives using D2CorX and points    1    2
 DE= -4.13D-02 DEPred=-3.92D-02 R= 1.05D+00
 TightC=F SS=  1.41D+00  RLast= 3.44D-01 DXNew= 5.0454D-01 1.0327D+00
 Trust test= 1.05D+00 RLast= 3.44D-01 DXMaxT set to 5.05D-01
 ITU=  1  0
 Use linear search instead of GDIIS.
 Linear search step of   0.545 exceeds DXMaxT=   0.505 but not scaled.
 Quartic linear search produced a step of  1.81412.
 Iteration  1 RMS(Cart)=  0.12095317 RMS(Int)=  0.02974662
 Iteration  2 RMS(Cart)=  0.02827589 RMS(Int)=  0.00185351
 Iteration  3 RMS(Cart)=  0.00105430 RMS(Int)=  0.00149346
 Iteration  4 RMS(Cart)=  0.00000119 RMS(Int)=  0.00149346
 Iteration  5 RMS(Cart)=  0.00000000 RMS(Int)=  0.00149346
 ITry= 1 IFail=0 DXMaxC= 4.28D-01 DCOld= 1.00D+10 DXMaxT= 5.05D-01 DXLimC= 3.00D+00 Rises=F
 Variable       Old X    -DE/DX   Delta X   Delta X   Delta X     New X
                                 (Linear)    (Quad)   (Total)
    R1        1.90332  -0.00029  -0.00473   0.00000  -0.00473   1.89859
    R2        2.76464   0.00659   0.03659   0.00000   0.03659   2.80124
    R3        1.92051  -0.00150   0.00117   0.00000   0.00117   1.92167
    R4        2.48327  -0.06846  -0.36863   0.00000  -0.36863   2.11463
    R5        2.86344   0.00059   0.00006   0.00000   0.00006   2.86350
    R6        2.80202   0.02601   0.14785   0.00000   0.14785   2.94987
    R7        2.07117  -0.00063  -0.00258   0.00000  -0.00258   2.06858
    R8        2.07063  -0.00034  -0.00090   0.00000  -0.00090   2.06973
    R9        2.08154  -0.00264  -0.00680   0.00000  -0.00680   2.07475
   R10        2.44152  -0.05353  -0.09241   0.00000  -0.09241   2.34911
   R11        2.54284   0.01472   0.00771   0.00000   0.00771   2.55055
   R12        1.85349  -0.00032  -0.00380   0.00000  -0.00380   1.84969
    A1        2.04121  -0.00218  -0.00618   0.00000  -0.00618   2.03503
    A2        1.97762   0.00123  -0.00061   0.00000  -0.00060   1.97701
    A3        2.04250   0.00089   0.00937   0.00000   0.00937   2.05187
    A4        1.58369   0.01613   0.14001   0.00000   0.14141   1.72510
    A5        2.02638  -0.00046  -0.03223   0.00000  -0.03401   1.99237
    A6        1.96500  -0.00292  -0.00621   0.00000  -0.00996   1.95503
    A7        2.15833  -0.01913  -0.12851   0.00000  -0.12720   2.03113
    A8        1.58196   0.01332   0.10329   0.00000   0.10284   1.68480
    A9        2.06012  -0.00252  -0.02556   0.00000  -0.02853   2.03159
   A10        1.92118   0.00053   0.00757   0.00000   0.00756   1.92874
   A11        1.95931   0.00081   0.00238   0.00000   0.00228   1.96160
   A12        1.94269  -0.00450  -0.02586   0.00000  -0.02590   1.91679
   A13        1.88182   0.00037   0.00414   0.00000   0.00407   1.88589
   A14        1.87442   0.00187   0.00770   0.00000   0.00775   1.88217
   A15        1.88125   0.00113   0.00523   0.00000   0.00511   1.88636
   A16        2.08061   0.02411   0.22097   0.00000   0.22007   2.30067
   A17        2.12696  -0.03006  -0.15780   0.00000  -0.15876   1.96819
   A18        2.07263   0.00618  -0.05741   0.00000  -0.05841   2.01422
   A19        1.93920  -0.00481  -0.03787   0.00000  -0.03787   1.90133
    D1        0.75354  -0.01177  -0.08817   0.00000  -0.08802   0.66551
    D2       -1.49065   0.00082  -0.01208   0.00000  -0.01202  -1.50267
    D3        2.34180   0.00931   0.08290   0.00000   0.08270   2.42449
    D4       -3.09906  -0.01136  -0.08488   0.00000  -0.08473   3.09940
    D5        0.93994   0.00123  -0.00879   0.00000  -0.00873   0.93121
    D6       -1.51080   0.00972   0.08620   0.00000   0.08599  -1.42481
    D7        1.13412   0.00477   0.04779   0.00000   0.04657   1.18070
    D8       -3.05275   0.00613   0.05973   0.00000   0.05853  -2.99422
    D9       -0.94215   0.00495   0.04963   0.00000   0.04849  -0.89366
   D10       -0.78738  -0.00317  -0.02629   0.00000  -0.02560  -0.81298
   D11        1.30893  -0.00181  -0.01436   0.00000  -0.01365   1.29529
   D12       -2.86366  -0.00299  -0.02445   0.00000  -0.02368  -2.88734
   D13       -2.73703  -0.00431  -0.04557   0.00000  -0.04513  -2.78216
   D14       -0.64072  -0.00294  -0.03363   0.00000  -0.03318  -0.67390
   D15        1.46988  -0.00413  -0.04372   0.00000  -0.04322   1.42666
   D16       -1.22057  -0.00854  -0.06755   0.00000  -0.06614  -1.28671
   D17        2.00524  -0.01201  -0.13207   0.00000  -0.13380   1.87144
   D18        0.36884   0.01443   0.12785   0.00000   0.13006   0.49890
   D19       -2.68853   0.01096   0.06333   0.00000   0.06239  -2.62614
   D20        2.62634  -0.00074   0.03190   0.00000   0.03299   2.65934
   D21       -0.43103  -0.00421  -0.03262   0.00000  -0.03467  -0.46570
   D22        2.94112   0.00541   0.07288   0.00000   0.06718   3.00829
   D23       -0.11663   0.00110  -0.00871   0.00000  -0.00301  -0.11964
         Item               Value     Threshold  Converged?
 Maximum Force            0.068461     0.000450     NO 
 RMS     Force            0.014965     0.000300     NO 
 Maximum Displacement     0.427790     0.001800     NO 
 RMS     Displacement     0.123259     0.001200     NO 
 Predicted change in Energy=-3.629616D-02
 Lowest energy point so far.  Saving SCF results.
 GradGradGradGradGradGradGradGradGradGradGradGradGradGradGradGradGradGrad

 Leave Link  103 at Sat Apr 16 13:11:58 2016, MaxMem=    33554432 cpu:         0.0
 (Enter /usr/local/gau/g09/l202.exe)
                          Input orientation:                          
 ---------------------------------------------------------------------
 Center     Atomic      Atomic             Coordinates (Angstroms)
 Number     Number       Type             X           Y           Z
 ---------------------------------------------------------------------
      1          7           0       -1.345215   -1.163848   -0.553642
      2          1           0       -2.081213   -1.713826   -0.147156
      3          6           0       -0.678699   -0.184653    0.337590
      4          1           0       -0.662747   -0.791028    1.277938
      5          6           0       -1.375848    1.158552    0.414496
      6          6           0        0.866796   -0.153123    0.120381
      7          1           0       -2.343876    1.060061    0.915966
      8          1           0       -0.786113    1.904160    0.958430
      9          1           0       -1.558973    1.541521   -0.598027
     10          8           0        1.765260   -0.950277    0.440678
     11          1           0       -1.540694   -0.873995   -1.508561
     12          8           0        1.281747    0.960463   -0.519473
     13          1           0        2.260328    0.981821   -0.517780
 ---------------------------------------------------------------------
                    Distance matrix (angstroms):
                    1          2          3          4          5
     1  N    0.000000
     2  H    1.004689   0.000000
     3  C    1.482350   2.130820   0.000000
     4  H    1.989835   2.212350   1.119016   0.000000
     5  C    2.516301   3.010573   1.515299   2.248312   0.000000
     6  C    2.523662   3.346360   1.561003   2.021475   2.614660
     7  H    2.846549   2.982225   2.157926   2.526608   1.094647
     8  H    3.465780   3.998678   2.181770   2.716863   1.095255
     9  H    2.714163   3.327657   2.151729   3.124619   1.097908
    10  O    3.272513   3.965338   2.563151   2.573243   3.783438
    11  H    1.016905   1.688461   2.150930   2.922713   2.802957
    12  O    3.378579   4.312764   2.426767   3.174817   2.823888
    13  H    4.195846   5.123754   3.275699   3.861601   3.757945
                    6          7          8          9         10
     6  C    0.000000
     7  H    3.523236   0.000000
     8  H    2.768908   1.772268   0.000000
     9  H    3.045042   1.772019   1.775212   0.000000
    10  O    1.243094   4.599169   3.863338   4.282346   0.000000
    11  H    2.994848   3.203749   3.791251   2.581496   3.838578
    12  O    1.349693   3.900711   2.711237   2.900601   2.192397
    13  H    1.907165   4.822909   3.508662   3.860928   2.212857
                   11         12         13
    11  H    0.000000
    12  O    3.508518   0.000000
    13  H    4.344361   0.978816   0.000000
 Stoichiometry    C3H7NO2
 Framework group  C1[X(C3H7NO2)]
 Deg. of freedom    33
 Full point group                 C1      NOp   1
 RotChk:  IX=0 Diff= 6.09D-02
 Largest Abelian subgroup         C1      NOp   1
 Largest concise Abelian subgroup C1      NOp   1
                         Standard orientation:                         
 ---------------------------------------------------------------------
 Center     Atomic      Atomic             Coordinates (Angstroms)
 Number     Number       Type             X           Y           Z
 ---------------------------------------------------------------------
      1          7           0        1.349188   -1.196209    0.509213
      2          1           0        2.071107   -1.740000    0.070439
      3          6           0        0.696397   -0.161362   -0.327637
      4          1           0        0.661700   -0.720323   -1.296428
      5          6           0        1.419947    1.169929   -0.344108
      6          6           0       -0.846605   -0.109948   -0.096920
      7          1           0        2.382294    1.077065   -0.857448
      8          1           0        0.841616    1.952918   -0.846148
      9          1           0        1.617773    1.498939    0.684493
     10          8           0       -1.763163   -0.872434   -0.448796
     11          1           0        1.557087   -0.957596    1.475618
     12          8           0       -1.234565    0.978824    0.600026
     13          1           0       -2.212505    1.019617    0.607126
 ---------------------------------------------------------------------
 Rotational constants (GHZ):      5.1153473      2.7998990      2.1401537
 Leave Link  202 at Sat Apr 16 13:11:58 2016, MaxMem=    33554432 cpu:         0.0
 (Enter /usr/local/gau/g09/l301.exe)
 Standard basis: 6-31G (6D, 7F)
 Ernie: Thresh=  0.10000D-02 Tol=  0.10000D-05 Strict=F.
 There are    68 symmetry adapted cartesian basis functions of A   symmetry.
 There are    68 symmetry adapted basis functions of A   symmetry.
    68 basis functions,   160 primitive gaussians,    68 cartesian basis functions
    24 alpha electrons       24 beta electrons
       nuclear repulsion energy       244.3889987421 Hartrees.
 IExCor=  402 DFT=T Ex+Corr=B3LYP ExCW=0 ScaHFX=  0.200000
 ScaDFX=  0.800000  0.720000  1.000000  0.810000 ScalE2=  1.000000  1.000000
 IRadAn=      0 IRanWt=     -1 IRanGd=            0 ICorTp=0 IEmpDi=  4
 NAtoms=   13 NActive=   13 NUniq=   13 SFac= 1.00D+00 NAtFMM=   60 NAOKFM=F Big=F
 Integral buffers will be    131072 words long.
 Raffenetti 2 integral format.
 Two-electron integral symmetry is turned on.
 Leave Link  301 at Sat Apr 16 13:11:58 2016, MaxMem=    33554432 cpu:         0.0
 (Enter /usr/local/gau/g09/l302.exe)
 NPDir=0 NMtPBC=     1 NCelOv=     1 NCel=       1 NClECP=     1 NCelD=      1
         NCelK=      1 NCelE2=     1 NClLst=     1 CellRange=     0.0.
 One-electron integrals computed using PRISM.
 NBasis=    68 RedAO= T EigKep=  5.05D-03  NBF=    68
 NBsUse=    68 1.00D-06 EigRej= -1.00D+00 NBFU=    68
 Precomputing XC quadrature grid using
 IXCGrd= 4 IRadAn=           0 IRanWt=          -1 IRanGd=           0 AccXCQ= 0.00D+00.
 Generated NRdTot=       0 NPtTot=           0 NUsed=           0 NTot=          32
 NSgBfM=    68    68    68    68    68 MxSgAt=    13 MxSgA2=    13.
 Leave Link  302 at Sat Apr 16 13:11:58 2016, MaxMem=    33554432 cpu:         0.2
 (Enter /usr/local/gau/g09/l303.exe)
 DipDrv:  MaxL=1.
 Leave Link  303 at Sat Apr 16 13:11:58 2016, MaxMem=    33554432 cpu:         0.0
 (Enter /usr/local/gau/g09/l401.exe)
 Initial guess from the checkpoint file:  "Ala-S-opt-freq-pb1-6-31g.chk"
 B after Tr=     0.000000    0.000000    0.000000
         Rot=    0.999558   -0.016258   -0.014134    0.020467 Ang=  -3.41 deg.
 Guess basis will be translated and rotated to current coordinates.
 JPrj=2 DoOrth=T DoCkMO=T.
 Generating alternative initial guess.
 ExpMin= 1.61D-01 ExpMax= 5.48D+03 ExpMxC= 8.25D+02 IAcc=1 IRadAn=         1 AccDes= 0.00D+00
 Harris functional with IExCor=  402 and IRadAn=       1 diagonalized for initial guess.
 HarFok:  IExCor=  402 AccDes= 0.00D+00 IRadAn=         1 IDoV= 1 UseB2=F ITyADJ=14
 ICtDFT=  3500011 ScaDFX=  1.000000  1.000000  1.000000  1.000000
 FoFCou: FMM=F IPFlag=           0 FMFlag=      100000 FMFlg1=           0
         NFxFlg=           0 DoJE=T BraDBF=F KetDBF=T FulRan=T
         wScrn=  0.000000 ICntrl=     500 IOpCl=  0 I1Cent=   200000004 NGrid=           0
         NMat0=    1 NMatS0=      1 NMatT0=    0 NMatD0=    1 NMtDS0=    0 NMtDT0=    0
 Petite list used in FoFCou.
 Harris En= -323.669840452973    
 Leave Link  401 at Sat Apr 16 13:11:59 2016, MaxMem=    33554432 cpu:         0.6
 (Enter /usr/local/gau/g09/l502.exe)
 Closed shell SCF:
 Using DIIS extrapolation, IDIIS=  1040.
 Integral symmetry usage will be decided dynamically.
 Keep R1 ints in memory in canonical form, NReq=3676491.
 IVT=       33364 IEndB=       33364 NGot=    33554432 MDV=    30768038
 LenX=    30768038 LenY=    30762973
 Requested convergence on RMS density matrix=1.00D-08 within 128 cycles.
 Requested convergence on MAX density matrix=1.00D-06.
 Requested convergence on             energy=1.00D-06.
 No special actions if energy rises.
 FoFCou: FMM=F IPFlag=           0 FMFlag=           0 FMFlg1=           0
         NFxFlg=           0 DoJE=F BraDBF=F KetDBF=F FulRan=T
[...]
   A12        1.92455   0.00000   0.00000  -0.00003  -0.00003   1.92452
   A13        1.88892   0.00000   0.00000   0.00001   0.00001   1.88892
   A14        1.89503   0.00000   0.00000   0.00004   0.00004   1.89507
   A15        1.89706   0.00000   0.00000   0.00002   0.00002   1.89708
   A16        2.20982   0.00001   0.00000   0.00006   0.00006   2.20988
   A17        1.94220  -0.00001   0.00000  -0.00004  -0.00004   1.94216
   A18        2.13043   0.00000   0.00000  -0.00002  -0.00002   2.13041
   A19        1.92676   0.00000   0.00000  -0.00004  -0.00004   1.92672
    D1        0.91136   0.00000   0.00000  -0.00010  -0.00010   0.91125
    D2       -1.22093   0.00000   0.00000  -0.00007  -0.00007  -1.22101
    D3        2.90561   0.00000   0.00000  -0.00006  -0.00006   2.90555
    D4       -3.00242   0.00000   0.00000  -0.00024  -0.00024  -3.00266
    D5        1.14848   0.00000   0.00000  -0.00021  -0.00021   1.14826
    D6       -1.00817   0.00000   0.00000  -0.00020  -0.00020  -1.00837
    D7        1.04014   0.00000   0.00000   0.00013   0.00013   1.04027
    D8        3.13003   0.00000   0.00000   0.00011   0.00011   3.13014
    D9       -1.04265   0.00000   0.00000   0.00011   0.00011  -1.04255
   D10       -1.08488   0.00000   0.00000   0.00015   0.00015  -1.08474
   D11        1.00501   0.00000   0.00000   0.00013   0.00013   1.00514
   D12        3.11551   0.00000   0.00000   0.00012   0.00012   3.11564
   D13       -3.09514   0.00000   0.00000   0.00009   0.00009  -3.09505
   D14       -1.00525   0.00000   0.00000   0.00008   0.00008  -1.00517
   D15        1.10525   0.00000   0.00000   0.00007   0.00007   1.10532
   D16       -2.30451   0.00000   0.00000   0.00026   0.00026  -2.30425
   D17        0.87774   0.00000   0.00000   0.00023   0.00023   0.87797
   D18       -0.28009   0.00000   0.00000   0.00029   0.00029  -0.27981
   D19        2.90216   0.00000   0.00000   0.00025   0.00025   2.90241
   D20        1.76802   0.00000   0.00000   0.00031   0.00031   1.76833
   D21       -1.33291   0.00000   0.00000   0.00028   0.00028  -1.33263
   D22       -3.13488   0.00000   0.00000   0.00009   0.00009  -3.13479
   D23        0.04522   0.00000   0.00000   0.00005   0.00005   0.04528
         Item               Value     Threshold  Converged?
 Maximum Force            0.000016     0.000450     YES
 RMS     Force            0.000004     0.000300     YES
 Maximum Displacement     0.000552     0.001800     YES
 RMS     Displacement     0.000131     0.001200     YES
 Predicted change in Energy=-2.526612D-09
 Optimization completed.
    -- Stationary point found.
                           ----------------------------
                           !   Optimized Parameters   !
                           ! (Angstroms and Degrees)  !
 --------------------------                            --------------------------
 ! Name  Definition              Value          Derivative Info.                !
 --------------------------------------------------------------------------------
 ! R1    R(1,2)                  1.0113         -DE/DX =    0.0                 !
 ! R2    R(1,3)                  1.4614         -DE/DX =    0.0                 !
 ! R3    R(1,11)                 1.0121         -DE/DX =    0.0                 !
 ! R4    R(3,4)                  1.0941         -DE/DX =    0.0                 !
 ! R5    R(3,5)                  1.5509         -DE/DX =    0.0                 !
 ! R6    R(3,6)                  1.5165         -DE/DX =    0.0                 !
 ! R7    R(5,7)                  1.0958         -DE/DX =    0.0                 !
 ! R8    R(5,8)                  1.0966         -DE/DX =    0.0                 !
 ! R9    R(5,9)                  1.0951         -DE/DX =    0.0                 !
 ! R10   R(6,10)                 1.2312         -DE/DX =    0.0                 !
 ! R11   R(6,12)                 1.384          -DE/DX =    0.0                 !
 ! R12   R(12,13)                0.9816         -DE/DX =    0.0                 !
 ! A1    A(2,1,3)              115.3066         -DE/DX =    0.0                 !
 ! A2    A(2,1,11)             114.1266         -DE/DX =    0.0                 !
 ! A3    A(3,1,11)             114.7878         -DE/DX =    0.0                 !
 ! A4    A(1,3,4)              108.2421         -DE/DX =    0.0                 !
 ! A5    A(1,3,5)              115.0272         -DE/DX =    0.0                 !
 ! A6    A(1,3,6)              108.806          -DE/DX =    0.0                 !
 ! A7    A(4,3,5)              109.0129         -DE/DX =    0.0                 !
 ! A8    A(4,3,6)              105.5761         -DE/DX =    0.0                 !
 ! A9    A(5,3,6)              109.7472         -DE/DX =    0.0                 !
 ! A10   A(3,5,7)              109.3811         -DE/DX =    0.0                 !
 ! A11   A(3,5,8)              111.6207         -DE/DX =    0.0                 !
 ! A12   A(3,5,9)              110.2686         -DE/DX =    0.0                 !
 ! A13   A(7,5,8)              108.227          -DE/DX =    0.0                 !
 ! A14   A(7,5,9)              108.577          -DE/DX =    0.0                 !
 ! A15   A(8,5,9)              108.6935         -DE/DX =    0.0                 !
 ! A16   A(3,6,10)             126.6135         -DE/DX =    0.0                 !
 ! A17   A(3,6,12)             111.2801         -DE/DX =    0.0                 !
 ! A18   A(10,6,12)            122.0646         -DE/DX =    0.0                 !
 ! A19   A(6,12,13)            110.395          -DE/DX =    0.0                 !
 ! D1    D(2,1,3,4)             52.2168         -DE/DX =    0.0                 !
 ! D2    D(2,1,3,5)            -69.9542         -DE/DX =    0.0                 !
 ! D3    D(2,1,3,6)            166.4792         -DE/DX =    0.0                 !
 ! D4    D(11,1,3,4)          -172.026          -DE/DX =    0.0                 !
 ! D5    D(11,1,3,5)            65.803          -DE/DX =    0.0                 !
 ! D6    D(11,1,3,6)           -57.7637         -DE/DX =    0.0                 !
 ! D7    D(1,3,5,7)             59.5956         -DE/DX =    0.0                 !
 ! D8    D(1,3,5,8)            179.3375         -DE/DX =    0.0                 !
 ! D9    D(1,3,5,9)            -59.7396         -DE/DX =    0.0                 !
 ! D10   D(4,3,5,7)            -62.1591         -DE/DX =    0.0                 !
 ! D11   D(4,3,5,8)             57.5828         -DE/DX =    0.0                 !
 ! D12   D(4,3,5,9)            178.5057         -DE/DX =    0.0                 !
 ! D13   D(6,3,5,7)           -177.3387         -DE/DX =    0.0                 !
 ! D14   D(6,3,5,8)            -57.5967         -DE/DX =    0.0                 !
 ! D15   D(6,3,5,9)             63.3261         -DE/DX =    0.0                 !
 ! D16   D(1,3,6,10)          -132.0387         -DE/DX =    0.0                 !
 ! D17   D(1,3,6,12)            50.291          -DE/DX =    0.0                 !
 ! D18   D(4,3,6,10)           -16.0482         -DE/DX =    0.0                 !
 ! D19   D(4,3,6,12)           166.2815         -DE/DX =    0.0                 !
 ! D20   D(5,3,6,10)           101.3003         -DE/DX =    0.0                 !
 ! D21   D(5,3,6,12)           -76.37           -DE/DX =    0.0                 !
 ! D22   D(3,6,12,13)         -179.6154         -DE/DX =    0.0                 !
 ! D23   D(10,6,12,13)           2.5912         -DE/DX =    0.0                 !
 --------------------------------------------------------------------------------
 GradGradGradGradGradGradGradGradGradGradGradGradGradGradGradGradGradGrad

 Leave Link  103 at Sat Apr 16 13:18:14 2016, MaxMem=    33554432 cpu:         0.0
 (Enter /usr/local/gau/g09/l9999.exe)
 1\1\GINC-KALI\Freq\RB3LYP\6-31G\C3H7N1O2\ROOT\16-Apr-2016\0\\#P Geom=A
 llCheck Guess=TCheck SCRF=Check GenChk RB3LYP/6-31G Freq\\Ala-S-opt-fr
 eq-pb1-6-31g\\0,1\N,-1.1943262252,-1.0858638026,-0.6522904089\H,-2.118
 5536177,-1.4665717049,-0.4986532409\C,-0.6712160706,-0.2585120893,0.43
 28077785\H,-0.7523888546,-0.8251536099,1.3652482285\C,-1.3755521381,1.
 1116449689,0.6112697593\C,0.8141855346,-0.04629429,0.2132751922\H,-2.4
 396119108,0.9495044176,0.8166486018\H,-0.9479004863,1.6801247416,1.445
 7756798\H,-1.283526066,1.7074455092,-0.3029721043\O,1.7070966003,-0.18
 33996576,1.0498527131\H,-1.0514158196,-0.7084428082,-1.5804108066\O,1.
 0746515269,0.3870627268,-1.0750258197\H,2.0393114871,0.5142840685,-1.2
 046835128\\Version=ES64L-G09RevD.01\State=1-A\HF=-323.6309776\RMSD=1.1
 46e-09\RMSF=7.370e-06\ZeroPoint=0.1075849\Thermal=0.1146047\Dipole=-0.
 7362989,0.4486278,-0.5464916\DipoleDeriv=-0.448944,0.201612,-0.0699366
 ,0.1663688,-0.86582,-0.2308032,-0.0371275,-0.2403469,-0.4132835,0.0179
 429,-0.1489793,0.0065191,-0.016249,0.3767025,0.0039138,0.0113309,-0.03
 14191,0.1358139,0.158303,0.0375157,0.1342062,-0.0136694,0.5108516,0.16
 52,0.092321,0.2192056,0.3396108,0.0346202,0.0104664,-0.0007045,-0.0117
 702,-0.0259528,0.0448288,-0.0038889,0.0474847,-0.0791366,-0.007993,0.0
 77195,0.0194213,-0.0383486,-0.0816965,-0.0613302,-0.02217,-0.0331529,0
 .0476449,1.181399,-0.009802,0.0591899,0.1502812,0.3416063,-0.3818441,-
 0.0442874,-0.3543259,1.450361,-0.1630306,-0.0041761,0.0449614,-0.02002
 96,0.0365003,0.0071771,0.0342929,0.0031812,0.0764564,0.0455719,-0.0404
 58,-0.0774161,-0.0253382,-0.0311715,-0.0899997,-0.0564767,-0.1113461,-
 0.0568653,0.0767305,-0.00565,0.0267265,0.0106461,0.000621,0.0568694,0.
 00512,0.1061269,-0.0673477,-0.8532564,0.0798944,-0.3169988,-0.0526757,
 -0.3584431,0.100625,-0.068884,0.1396961,-0.7690533,0.2657409,-0.112411
 ,-0.0658552,-0.0838631,0.2311389,0.1356805,-0.0142474,0.0476656,0.1122
 127,-0.4178916,-0.061921,0.2511714,-0.056241,-0.5301667,0.2319428,0.18
 94881,0.1927551,-1.1129449,0.1108073,-0.0232861,-0.0112845,-0.0091113,
 0.39583,0.0177399,-0.0854709,0.0144757,0.3365315\Polar=47.6799508,2.30
 60489,34.9778248,0.9355063,-0.4886684,44.9706488\PG=C01 [X(C3H7N1O2)]\
 NImag=0\\0.53268569,0.28132668,0.29048378,-0.05704503,-0.07283944,0.67
 076149,-0.36908764,-0.17781093,0.06215069,0.38329060,-0.13518938,-0.06
 917918,0.02066420,0.16757880,0.08477280,0.05524102,0.02556455,-0.07853
 775,-0.05998730,-0.02217689,0.07862700,-0.09985902,-0.03477868,-0.0137
 4034,-0.01125347,-0.02122225,-0.03080907,0.48775726,-0.07184974,-0.109
 42695,-0.06017363,0.00428424,-0.00945415,-0.01448612,0.04562267,0.4551
 5878,-0.03653463,-0.03306192,-0.17568852,0.00701130,0.00157619,0.00449
 026,-0.00613471,-0.08615967,0.61029987,0.00248384,0.00422616,-0.015954
 25,0.00022721,0.00049449,0.00000422,-0.05380137,-0.01215879,0.01643003
 ,0.06168768,0.00212989,0.00879228,-0.02472996,0.00025286,0.00059008,0.
 00066865,-0.01612002,-0.12305783,0.12221402,0.01333680,0.13861697,0.00
 325229,0.00610806,-0.02886920,-0.00046463,0.00030318,0.00052456,0.0199
 9809,0.11654818,-0.23580554,-0.01923489,-0.12157364,0.26463672,0.00902
 701,-0.01464864,-0.00622038,0.00176102,-0.00101011,-0.00041493,-0.1013
 6634,0.04001266,0.00471953,0.00176349,-0.00076023,0.00079061,0.5539020
 9,0.00580348,-0.02609657,-0.01513252,0.00076772,0.00022163,0.00068624,
 0.02524907,-0.13022451,0.00589247,0.01253757,-0.01955719,-0.00217354,0
 .05632804,0.46857600,0.00711612,-0.03537905,-0.01067614,0.00086025,0.0
 0093799,0.00022154,-0.00144059,0.00640879,-0.08057423,-0.01356881,0.02
 457372,0.00436583,0.00960742,-0.01648250,0.58163059,-0.01967229,-0.009
 11087,-0.00761291,0.00151926,0.00033821,0.00084596,-0.18023263,-0.0198
 6122,0.01980540,-0.00606382,0.00218501,-0.00065049,-0.02283781,0.01383
 121,0.00742610,0.80368284,-0.02474048,-0.01112802,0.00054585,-0.001400
 69,-0.00012103,-0.00342460,-0.01323793,-0.08244619,0.00302098,-0.01978
 579,-0.00375545,0.00386919,0.03444478,0.00425589,-0.00569331,0.0093526
 5,0.25251431,-0.03048868,-0.01200811,-0.00161362,-0.00253085,-0.002320
 64,-0.00661093,0.03374349,0.00921628,-0.07627496,0.03313216,0.00626263
 ,-0.00845591,0.00330911,-0.00119669,0.00111078,0.18590596,-0.10380324,
 0.65676863,0.00323263,-0.00080772,-0.00019244,0.00016020,0.00080796,0.
 00067560,-0.01782497,-0.00332607,0.00256974,0.00055229,0.00014608,-0.0
 0039947,-0.29553096,-0.04178106,0.04837888,0.00171831,0.00298673,-0.00
 090119,0.32353903,-0.00146554,0.00344445,0.00186065,-0.00053467,-0.000
 63199,-0.00018780,0.03523430,-0.00073482,-0.00762286,-0.00075813,0.001
 50797,0.00016721,-0.04270430,-0.05347181,0.00817851,-0.00062523,-0.006
 94634,0.00014646,0.04381426,0.06000624,-0.00064497,0.00116674,-0.00032
 145,0.00016051,-0.00070995,0.00008641,0.00332353,0.00029633,-0.0004338
 3,-0.00053673,-0.00017967,0.00016168,0.04754717,0.00878059,-0.05868261
 ,-0.00007694,-0.00019427,-0.00042012,-0.05312977,-0.00873260,0.0587521
 0,0.00044319,0.00344483,0.00104719,-0.00026269,0.00076725,0.00014673,0
 .00605718,0.00732332,0.01315142,0.00042574,-0.00075132,-0.00028825,-0.
 09156310,-0.05266699,-0.07939606,0.00008792,0.00010992,0.00104474,-0.0
 1216979,-0.01713549,-0.02617287,0.09601856,0.00326711,-0.00738308,-0.0
 0265393,0.00035078,0.00043628,0.00011716,-0.01449135,-0.01074467,-0.02
 237703,-0.00052575,0.00059977,0.00082939,-0.05147331,-0.11770559,-0.09
 949374,-0.00117919,0.00034165,-0.00203297,-0.00158431,-0.00275623,-0.0
 0424591,0.05718316,0.12733004,0.00065328,-0.00228454,0.00101102,0.0001
 3245,0.00005779,-0.00010662,-0.00167781,0.00117317,-0.00277042,0.00030
 327,-0.00028792,0.00037857,-0.07863165,-0.10070866,-0.20179053,-0.0009
 6287,-0.00063327,-0.00085879,0.00385746,0.00426631,0.00507100,0.087385
 47,0.11332055,0.21801002,-0.00050229,-0.00159242,0.00019204,0.00009021
 ,-0.00010959,0.00013304,-0.00007022,0.01100308,-0.01473781,-0.00096650
 ,0.00304454,0.00060609,-0.05175396,-0.01462187,0.02097416,0.00134497,0
 .00131309,-0.00301534,-0.00245636,-0.01809608,0.02857942,0.00107416,0.
 00773868,-0.01194433,0.05326581,-0.00120161,0.00413599,-0.00033286,0.0
 0003345,-0.00034106,0.00005420,-0.00010526,-0.01949312,0.02756527,0.00
 319880,-0.00432460,-0.00146674,-0.01456275,-0.12397623,0.11763558,-0.0
 0195388,-0.00070683,0.00239397,0.00018993,-0.00283798,0.00438652,0.001
 74480,0.00999955,-0.01590539,0.01235949,0.13704099,-0.00003216,0.00047
 854,0.00237066,-0.00007175,-0.00008128,-0.00001132,0.00017585,-0.00434
 982,0.00183310,0.00040632,-0.00143662,0.00115281,0.01933531,0.11936164
 ,-0.23689056,0.00025012,0.00111865,-0.00108537,-0.00108251,0.00237073,
 -0.00476403,0.00358542,0.01477147,-0.02020594,-0.02261055,-0.13144880,
 0.25649508,-0.00535048,-0.00370400,0.00163233,-0.00183974,0.00054482,-
 0.00214844,-0.02378766,0.00644350,-0.03166823,0.00232024,0.00009633,-0
 .00089479,-0.00292075,-0.00356656,-0.00062682,-0.43130623,0.03723046,-
 0.27427573,-0.00091510,0.00162219,0.00032999,0.00006249,0.00043414,0.0
 0077659,-0.00021326,0.00020981,-0.00021361,0.43978081,0.00242090,0.001
 07801,-0.00217152,0.00029967,-0.00044281,0.00067272,-0.00591833,0.0205
 0645,0.00358796,0.00173894,0.00055767,-0.00132031,-0.00371633,-0.00238
 287,-0.00078989,0.04140628,-0.07893578,0.04937962,-0.00043120,0.001291
 22,0.00013571,-0.00009447,0.00027719,0.00031585,-0.00017752,0.00042911
 ,-0.00015193,-0.04991608,0.04306370,0.00210261,-0.00032269,0.00208570,
 -0.00027978,0.00033673,0.00056734,-0.00644282,0.00615013,0.00338265,-0
 .00124992,-0.00156422,0.00206467,-0.00086086,-0.00283667,-0.00052855,-
 0.28586848,0.04836068,-0.34855491,-0.00009094,0.00072078,0.00036839,-0
 .00014021,0.00099611,0.00060597,0.00061528,-0.00059367,0.00037618,0.33
 860601,-0.07537815,0.41463997,-0.05201115,-0.04403199,0.03521025,-0.00
 443212,-0.01331177,0.03568429,0.00221346,0.00848411,-0.01376078,-0.001
 33180,-0.00249149,-0.00389996,-0.00026443,-0.00062452,0.00063083,0.001
 98042,0.00183844,-0.00706317,-0.00015199,0.00017616,0.00036687,-0.0000
 7912,-0.00000945,-0.00041393,0.00046984,0.00020628,0.00021859,-0.00008
 124,-0.00072425,0.00199398,0.05451627,-0.05956172,-0.08515634,0.153728
 97,0.00640165,-0.00618030,0.01177208,0.00368089,0.00311898,-0.02716498
 ,-0.00105692,-0.00096326,-0.00171103,-0.00026176,0.00196566,-0.0013628
 4,-0.00009182,0.00147463,0.00016620,0.00011238,-0.00016855,-0.00015772
 ,0.00002132,-0.00037345,0.00061854,-0.00018108,-0.00085084,0.00043455,
 0.00046096,-0.00016429,0.00044037,0.05019366,0.08854170,0.05799073,0.1
 2242553,-0.38094139,-0.00691351,0.00144565,-0.00086720,0.00116215,0.01
 566539,-0.02517795,-0.00211245,-0.00386556,-0.00147545,0.00072667,0.00
 103898,0.00174651,-0.00013041,0.00070781,-0.00301164,0.00008193,-0.000
 22894,-0.00012182,-0.00014129,0.00034324,0.00055650,0.00032409,-0.0011
 0948,0.00003495,0.00004193,-0.00024375,0.00077365,-0.05248489,-0.13653
 863,0.40711859,-0.00200873,-0.00273984,0.00068727,-0.00031821,0.000269
 79,0.00057256,-0.01141219,-0.01482000,0.03789636,-0.00692549,-0.001132
 73,0.00115981,-0.00054257,-0.00139012,0.00018758,-0.13284028,-0.025306
 59,0.05830436,-0.00022650,0.00046485,0.00031291,-0.00000976,0.00022076
 ,0.00037131,-0.00026933,-0.00007796,0.00014535,0.02327528,0.01322137,-
 0.04408046,-0.00104138,-0.00005999,0.00122054,0.56971969,-0.00234698,0
 .00071176,0.00125418,-0.00027976,0.00033968,0.00060282,-0.00395369,0.0
 0247591,0.00927202,-0.00094817,0.00077959,0.00022151,-0.00084235,-0.00
 159733,0.00127047,-0.01365653,-0.07429897,0.04868129,-0.00001800,0.001
 14594,-0.00044317,-0.00001693,0.00006496,0.00025744,-0.00066513,0.0006
 9721,-0.00113500,0.00749791,0.01898046,0.02715722,0.00055292,-0.001486
 71,0.00027084,0.07457325,0.07776262,-0.00060437,0.00100306,0.00040244,
 0.00012014,0.00001582,0.00136778,0.00369211,0.00595418,-0.01676451,0.0
 0087679,-0.00028082,0.00141755,0.00062293,0.00270887,-0.00001135,0.022
 31905,0.04640424,-0.20076127,0.00036934,-0.00093271,0.00022730,-0.0002
 9222,0.00051603,0.00014802,0.00068809,-0.00088339,0.00059930,-0.024887
 21,0.02970860,-0.08022328,0.00281934,-0.00078889,0.00057196,-0.0763180
 4,-0.09902972,0.33982923,0.00061925,0.00022742,-0.00015440,0.00014538,
 0.00004178,0.00005632,0.00357999,-0.00115775,0.00125236,-0.00037151,0.
 00006426,0.00002559,0.00032630,0.00013403,-0.00014906,-0.01738067,-0.0
 0280458,0.00283514,0.00007321,0.00000768,-0.00005913,-0.00008478,0.000
 06874,0.00015077,-0.00001305,-0.00004110,-0.00010636,0.00097565,0.0018
 9103,-0.00430440,0.00021325,0.00034243,0.00023451,-0.43740052,-0.05989
 655,0.07059404,0.44931750,0.00140739,-0.00027612,-0.00001999,0.0000568
 8,-0.00000995,0.00013698,0.00004058,0.00432213,0.00325756,-0.00029919,
 0.00021401,0.00019854,-0.00080571,-0.00000708,0.00019626,-0.02063462,-
 0.00024786,0.00511521,-0.00010900,0.00015190,-0.00010260,0.00007060,-0
 .00008643,-0.00018988,-0.00001519,0.00022781,0.00006786,0.00264653,-0.
 00425804,-0.00346661,-0.00025812,0.00024277,0.00008891,-0.04322279,-0.
 02557511,0.01560473,0.06112263,0.02530197,-0.00100621,-0.00085071,0.00
 001677,-0.00018755,-0.00004882,0.00024892,-0.00184988,0.00375680,-0.00
 651590,0.00150428,0.00019941,-0.00009629,-0.00053092,0.00006181,0.0000
 7872,0.05874952,0.00972127,-0.01023190,-0.00013665,-0.00000576,0.00007
 698,0.00006994,-0.00009037,-0.00004879,0.00019582,-0.00029523,0.000095
 13,-0.00667202,-0.00374492,0.00444222,0.00069859,0.00056338,0.00079330
 ,0.01954044,0.01162010,-0.04680317,-0.07037536,-0.02088696,0.05794399\
 \-0.00000637,-0.00000342,0.00000248,0.00000147,-0.00000097,0.00000786,
 -0.00002225,0.00001387,0.00000627,0.00000285,0.00000166,0.00000276,0.0
 0001256,-0.00001380,0.00000069,0.00001813,0.00000532,-0.00001330,-0.00
 000052,0.00000499,-0.00000067,0.00000233,0.00000631,-0.00000350,-0.000
 00135,0.00000148,-0.00000296,-0.00000511,0.00000138,-0.00000334,-0.000
 00132,-0.00000613,0.00000663,0.00000150,-0.00000781,0.00000444,-0.0000
 0192,-0.00000287,-0.00000737\\\@


 BRING ME INTO THE COMPANY OF THOSE WHO SEEK TRUTH,
 AND DELIVER ME FROM THOSE WHO HAVE FOUND IT.
 Job cpu time:       0 days  0 hours  1 minutes 34.3 seconds.
 File lengths (MBytes):  RWF=     13 Int=      0 D2E=      0 Chk=      2 Scr=      1
 Normal termination of Gaussian 09 at Sat Apr 16 13:18:14 2016.
