 Entering Link 1 = c:\G09w02\l1.exe PID=      2760.
  
 Copyright (c) 1988,1990,1992,1993,1995,1998,2003,2009,2010,
            Gaussian, Inc.  All Rights Reserved.
  
 This is part of the Gaussian(R) 09 program.  It is based on
 the Gaussian(R) 03 system (copyright 2003, Gaussian, Inc.),
 the Gaussian(R) 98 system (copyright 1998, Gaussian, Inc.),
 the Gaussian(R) 94 system (copyright 1995, Gaussian, Inc.),
 the Gaussian 92(TM) system (copyright 1992, Gaussian, Inc.),
 the Gaussian 90(TM) system (copyright 1990, Gaussian, Inc.),
 the Gaussian 88(TM) system (copyright 1988, Gaussian, Inc.),
 the Gaussian 86(TM) system (copyright 1986, Carnegie Mellon
 University), and the Gaussian 82(TM) system (copyright 1983,
 Carnegie Mellon University). Gaussian is a federally registered
 trademark of Gaussian, Inc.
  
 This software contains proprietary and confidential information,
 including trade secrets, belonging to Gaussian, Inc.
  
 This software is provided under written license and may be
 used, copied, transmitted, or stored only in accord with that
 written license.
  
 The following legend is applicable only to US Government
 contracts under FAR:
  
                    RESTRICTED RIGHTS LEGEND
  
 Use, reproduction and disclosure by the US Government is
 subject to restrictions as set forth in subparagraphs (a)
 and (c) of the Commercial Computer Software - Restricted
 Rights clause in FAR 52.227-19.
  
 Gaussian, Inc.
 340 Quinnipiac St., Bldg. 40, Wallingford CT 06492
  
  
 ---------------------------------------------------------------
 Warning -- This program may not be used in any manner that
 competes with the business of Gaussian, Inc. or will provide
 assistance to any competitor of Gaussian, Inc.  The licensee
 of this program is prohibited from giving any competitor of
 Gaussian, Inc. access to this program.  By using this program,
 the user acknowledges that Gaussian, Inc. is engaged in the
 business of creating and licensing software in the field of
 computational chemistry and represents and warrants to the
 licensee that it is not a competitor of Gaussian, Inc. and that
 it will not use this program in any manner prohibited above.
 ---------------------------------------------------------------
  

 Cite this work as:
 Gaussian 09, Revision B.01,
 M. J. Frisch, G. W. Trucks, H. B. Schlegel, G. E. Scuseria, 
 M. A. Robb, J. R. Cheeseman, G. Scalmani, V. Barone, B. Mennucci, 
 G. A. Petersson, H. Nakatsuji, M. Caricato, X. Li, H. P. Hratchian, 
 A. F. Izmaylov, J. Bloino, G. Zheng, J. L. Sonnenberg, M. Hada, 
 M. Ehara, K. Toyota, R. Fukuda, J. Hasegawa, M. Ishida, T. Nakajima, 
 Y. Honda, O. Kitao, H. Nakai, T. Vreven, J. A. Montgomery, Jr., 
 J. E. Peralta, F. Ogliaro, M. Bearpark, J. J. Heyd, E. Brothers, 
 K. N. Kudin, V. N. Staroverov, T. Keith, R. Kobayashi, J. Normand, 
 K. Raghavachari, A. Rendell, J. C. Burant, S. S. Iyengar, J. Tomasi, 
 M. Cossi, N. Rega, J. M. Millam, M. Klene, J. E. Knox, J. B. Cross, 
 V. Bakken, C. Adamo, J. Jaramillo, R. Gomperts, R. E. Stratmann, 
 O. Yazyev, A. J. Austin, R. Cammi, C. Pomelli, J. W. Ochterski, 
 R. L. Martin, K. Morokuma, V. G. Zakrzewski, G. A. Voth, 
 P. Salvador, J. J. Dannenberg, S. Dapprich, A. D. Daniels, 
 O. Farkas, J. B. Foresman, J. V. Ortiz, J. Cioslowski, 
 and D. J. Fox, Gaussian, Inc., Wallingford CT, 2010.
 
 ******************************************
 Gaussian 09:  IA32W-G09RevB.01 12-Aug-2010
                17-Apr-2016 
 ******************************************
 %chk=Ser-S-opt-freq-cpcm-w-6-311++gdp.chk
 -----------------------------------------------------------------
 #p opt freq rb3lyp/6-311++g(d,p) scrf=(cpcm,solvent=water) nosymm
 -----------------------------------------------------------------
 1/14=-1,18=20,19=15,26=3,38=1/1,3;
 2/9=110,12=2,15=1,17=6,18=5,40=1/2;
 3/5=4,6=6,7=1111,11=2,16=1,25=1,30=1,70=2101,71=1,72=1,74=-5,116=1/1,2,3;
 4//1;
 5/5=2,38=5,53=1/2;
 6/7=2,8=2,9=2,10=2,28=1/1;
 7/30=1/1,2,3,16;
 1/14=-1,18=20,19=15/3(2);
 2/9=110,15=1/2;
 99//99;
 2/9=110,15=1/2;
 3/5=4,6=6,7=1111,11=2,16=1,25=1,30=1,70=2105,71=1,72=1,74=-5,116=1/1,2,3;
 4/5=5,16=3/1;
 5/5=2,38=5,53=1/2;
 7/30=1/1,2,3,16;
 1/14=-1,18=20,19=15/3(-5);
 2/9=110,15=1/2;
 6/7=2,8=2,9=2,10=2,19=2,28=1/1;
 99/9=1/99;
 Leave Link    1 at Sun Apr 17 21:40:21 2016, MaxMem=          0 cpu:       1.0
 (Enter c:\G09w02\l101.exe)
 --------------------------------
 Ser-S-opt-freq-cpcm-w-6-311++gdp
 --------------------------------
 Symbolic Z-matrix:
 Charge =  0 Multiplicity = 1
 N                     0.14731   2.00889  -0.21052 
 H                    -0.12755   2.183     0.75207 
 C                     0.25818   0.57143  -0.45517 
 H                     0.31789   0.39795  -1.53074 
 C                     1.54383   0.06094   0.19751 
 C                    -0.93579  -0.20585   0.1047 
 H                     2.38463   0.61778  -0.22897 
 H                     1.49724   0.25802   1.27585 
 O                     1.64639  -1.3364   -0.06609 
 O                    -1.30518  -0.14044   1.25234 
 H                     2.35246  -1.70735   0.47021 
 H                    -0.55199   2.43033  -0.81162 
 O                    -1.56679  -0.94705  -0.82958 
 H                    -2.2966   -1.40997  -0.38888 
 
 NAtoms=     14 NQM=     14 NQMF=      0 NMic=      0 NMicF=      0 NTot=     14.
                    Isotopes and Nuclear Properties:
 (Nuclear quadrupole moments (NQMom) in fm**2, nuclear magnetic moments (NMagM)
  in nuclear magnetons)

  Atom         1           2           3           4           5           6           7           8           9          10
 IAtWgt=          14           1          12           1          12          12           1           1          16          16
 AtmWgt=  14.0030740   1.0078250  12.0000000   1.0078250  12.0000000  12.0000000   1.0078250   1.0078250  15.9949146  15.9949146
 NucSpn=           2           1           0           1           0           0           1           1           0           0
 AtZEff=   0.0000000   0.0000000   0.0000000   0.0000000   0.0000000   0.0000000   0.0000000   0.0000000   0.0000000   0.0000000
 NQMom=    2.0440000   0.0000000   0.0000000   0.0000000   0.0000000   0.0000000   0.0000000   0.0000000   0.0000000   0.0000000
 NMagM=    0.4037610   2.7928460   0.0000000   2.7928460   0.0000000   0.0000000   2.7928460   2.7928460   0.0000000   0.0000000

  Atom        11          12          13          14
 IAtWgt=           1           1          16           1
 AtmWgt=   1.0078250   1.0078250  15.9949146   1.0078250
 NucSpn=           1           1           0           1
 AtZEff=   0.0000000   0.0000000   0.0000000   0.0000000
 NQMom=    0.0000000   0.0000000   0.0000000   0.0000000
 NMagM=    2.7928460   2.7928460   0.0000000   2.7928460
 Leave Link  101 at Sun Apr 17 21:40:21 2016, MaxMem=   33554432 cpu:       0.0
 (Enter c:\G09w02\l103.exe)

 GradGradGradGradGradGradGradGradGradGradGradGradGradGradGradGradGradGrad
 Berny optimization.
 Initialization pass.
                           ----------------------------
                           !    Initial Parameters    !
                           ! (Angstroms and Degrees)  !
 --------------------------                            --------------------------
 ! Name  Definition              Value          Derivative Info.                !
 --------------------------------------------------------------------------------
 ! R1    R(1,2)                  1.0161         estimate D2E/DX2                !
 ! R2    R(1,3)                  1.4623         estimate D2E/DX2                !
 ! R3    R(1,12)                 1.0139         estimate D2E/DX2                !
 ! R4    R(3,4)                  1.0911         estimate D2E/DX2                !
 ! R5    R(3,5)                  1.5295         estimate D2E/DX2                !
 ! R6    R(3,6)                  1.5307         estimate D2E/DX2                !
 ! R7    R(5,7)                  1.0949         estimate D2E/DX2                !
 ! R8    R(5,8)                  1.0972         estimate D2E/DX2                !
 ! R9    R(5,9)                  1.4257         estimate D2E/DX2                !
 ! R10   R(6,10)                 1.2074         estimate D2E/DX2                !
 ! R11   R(6,13)                 1.3492         estimate D2E/DX2                !
 ! R12   R(9,11)                 0.9611         estimate D2E/DX2                !
 ! R13   R(13,14)                0.9701         estimate D2E/DX2                !
 ! A1    A(2,1,3)              110.3305         estimate D2E/DX2                !
 ! A2    A(2,1,12)             107.6889         estimate D2E/DX2                !
 ! A3    A(3,1,12)             111.2045         estimate D2E/DX2                !
 ! A4    A(1,3,4)              108.9871         estimate D2E/DX2                !
 ! A5    A(1,3,5)              108.6875         estimate D2E/DX2                !
 ! A6    A(1,3,6)              112.2597         estimate D2E/DX2                !
 ! A7    A(4,3,5)              108.7589         estimate D2E/DX2                !
 ! A8    A(4,3,6)              108.8141         estimate D2E/DX2                !
 ! A9    A(5,3,6)              109.2735         estimate D2E/DX2                !
 ! A10   A(3,5,7)              108.0297         estimate D2E/DX2                !
 ! A11   A(3,5,8)              108.8899         estimate D2E/DX2                !
 ! A12   A(3,5,9)              107.9798         estimate D2E/DX2                !
 ! A13   A(7,5,8)              108.9095         estimate D2E/DX2                !
 ! A14   A(7,5,9)              111.7889         estimate D2E/DX2                !
 ! A15   A(8,5,9)              111.1508         estimate D2E/DX2                !
 ! A16   A(3,6,10)             123.9711         estimate D2E/DX2                !
 ! A17   A(3,6,13)             112.9832         estimate D2E/DX2                !
 ! A18   A(10,6,13)            123.0154         estimate D2E/DX2                !
 ! A19   A(5,9,11)             109.1452         estimate D2E/DX2                !
 ! A20   A(6,13,14)            107.4215         estimate D2E/DX2                !
 ! D1    D(2,1,3,4)            166.6886         estimate D2E/DX2                !
 ! D2    D(2,1,3,5)            -74.9261         estimate D2E/DX2                !
 ! D3    D(2,1,3,6)             46.068          estimate D2E/DX2                !
 ! D4    D(12,1,3,4)            47.2617         estimate D2E/DX2                !
 ! D5    D(12,1,3,5)           165.6469         estimate D2E/DX2                !
 ! D6    D(12,1,3,6)           -73.359          estimate D2E/DX2                !
 ! D7    D(1,3,5,7)            -58.1236         estimate D2E/DX2                !
 ! D8    D(1,3,5,8)             60.0137         estimate D2E/DX2                !
 ! D9    D(1,3,5,9)           -179.1899         estimate D2E/DX2                !
 ! D10   D(4,3,5,7)             60.4056         estimate D2E/DX2                !
 ! D11   D(4,3,5,8)            178.5429         estimate D2E/DX2                !
 ! D12   D(4,3,5,9)            -60.6607         estimate D2E/DX2                !
 ! D13   D(6,3,5,7)            179.0631         estimate D2E/DX2                !
 ! D14   D(6,3,5,8)            -62.7996         estimate D2E/DX2                !
 ! D15   D(6,3,5,9)             57.9968         estimate D2E/DX2                !
 ! D16   D(1,3,6,10)           -54.3683         estimate D2E/DX2                !
 ! D17   D(1,3,6,13)           123.6806         estimate D2E/DX2                !
 ! D18   D(4,3,6,10)          -175.0888         estimate D2E/DX2                !
 ! D19   D(4,3,6,13)             2.96           estimate D2E/DX2                !
 ! D20   D(5,3,6,10)            66.288          estimate D2E/DX2                !
 ! D21   D(5,3,6,13)          -115.6631         estimate D2E/DX2                !
 ! D22   D(3,5,9,11)          -169.3839         estimate D2E/DX2                !
 ! D23   D(7,5,9,11)            71.9199         estimate D2E/DX2                !
 ! D24   D(8,5,9,11)           -50.0095         estimate D2E/DX2                !
 ! D25   D(3,6,13,14)          179.3181         estimate D2E/DX2                !
 ! D26   D(10,6,13,14)          -2.6116         estimate D2E/DX2                !
 --------------------------------------------------------------------------------
 Trust Radius=3.00D-01 FncErr=1.00D-07 GrdErr=1.00D-06
 Number of steps in this run=     69 maximum allowed number of steps=    100.
 GradGradGradGradGradGradGradGradGradGradGradGradGradGradGradGradGradGrad

 Leave Link  103 at Sun Apr 17 21:40:21 2016, MaxMem=   33554432 cpu:       0.0
 (Enter c:\G09w02\l202.exe)
                          Input orientation:                          
 ---------------------------------------------------------------------
 Center     Atomic      Atomic             Coordinates (Angstroms)
 Number     Number       Type             X           Y           Z
 ---------------------------------------------------------------------
      1          7           0        0.147314    2.008892   -0.210518
      2          1           0       -0.127552    2.182995    0.752069
      3          6           0        0.258183    0.571425   -0.455174
      4          1           0        0.317890    0.397950   -1.530741
      5          6           0        1.543833    0.060941    0.197514
      6          6           0       -0.935792   -0.205846    0.104704
      7          1           0        2.384630    0.617775   -0.228974
      8          1           0        1.497244    0.258020    1.275850
      9          8           0        1.646387   -1.336395   -0.066085
     10          8           0       -1.305175   -0.140441    1.252340
     11          1           0        2.352461   -1.707350    0.470210
     12          1           0       -0.551992    2.430330   -0.811620
     13          8           0       -1.566790   -0.947054   -0.829575
     14          1           0       -2.296603   -1.409967   -0.388875
 ---------------------------------------------------------------------
                    Distance matrix (angstroms):
                    1          2          3          4          5
     1  N    0.000000
     2  H    1.016089   0.000000
     3  C    1.462347   2.050216   0.000000
     4  H    2.089789   2.931898   1.091102   0.000000
     5  C    2.431310   2.757566   1.529540   2.145548   0.000000
     6  C    2.485467   2.603631   1.530748   2.147317   2.495662
     7  H    2.634602   3.118239   2.138946   2.452414   1.094941
     8  H    2.664048   2.572904   2.151729   3.047525   1.097187
     9  O    3.668655   4.025213   2.391292   2.630223   1.425675
    10  O    2.978139   2.652437   2.422075   3.266458   3.044677
    11  H    4.374531   4.622196   3.230348   3.546205   1.963440
    12  H    1.013885   1.639039   2.058875   2.324736   3.320367
    13  O    3.472607   3.790806   2.403431   2.419233   3.427381
    14  H    4.206321   4.349243   3.233766   3.377572   4.154079
                    6          7          8          9         10
     6  C    0.000000
     7  H    3.437280   0.000000
     8  H    2.739784   1.783640   0.000000
     9  O    2.823997   2.095308   2.089304   0.000000
    10  O    1.207390   4.047696   2.830702   3.446777   0.000000
    11  H    3.633279   2.428188   2.289788   0.961125   4.055272
    12  H    2.817157   3.499797   3.643601   4.424580   3.381727
    13  O    1.349231   4.292218   3.908110   3.325509   2.247985
    14  H    1.882906   5.104042   4.466180   3.956864   2.299611
                   11         12         13         14
    11  H    0.000000
    12  H    5.215298   0.000000
    13  O    4.198574   3.526593   0.000000
    14  H    4.737115   4.239135   0.970120   0.000000
 Symmetry turned off by external request.
 Stoichiometry    C3H7NO3
 Framework group  C1[X(C3H7NO3)]
 Deg. of freedom    36
 Full point group                 C1      NOp   1
 Rotational constants (GHZ):      3.0463658      2.3529003      1.7438079
 Leave Link  202 at Sun Apr 17 21:40:21 2016, MaxMem=   33554432 cpu:       0.0
 (Enter c:\G09w02\l301.exe)
 Standard basis: 6-311++G(d,p) (5D, 7F)
 Ernie: Thresh=  0.10000D-02 Tol=  0.10000D-05 Strict=F.
 Integral buffers will be    262144 words long.
 Raffenetti 2 integral format.
 Two-electron integral symmetry is turned off.
   203 basis functions,   315 primitive gaussians,   210 cartesian basis functions
    28 alpha electrons       28 beta electrons
       nuclear repulsion energy       324.1681037510 Hartrees.
 IExCor=  402 DFT=T Ex+Corr=B3LYP ExCW=0 ScaHFX=  0.200000
 ScaDFX=  0.800000  0.720000  1.000000  0.810000 ScalE2=  1.000000  1.000000
 IRadAn=      0 IRanWt=     -1 IRanGd=            0 ICorTp=0
 NAtoms=   14 NActive=   14 NUniq=   14 SFac= 1.00D+00 NAtFMM=   50 NAOKFM=F Big=F
 ------------------------------------------------------------------------------
 Polarizable Continuum Model (PCM)
 =================================
 Model                : C-PCM.
 Atomic radii         : UFF (Universal Force Field).
 Polarization charges : Total charges.
 Charge compensation  : None.
 Solution method      : Matrix inversion.
 Cavity type          : Scaled VdW (van der Waals Surface) (Alpha=1.100).
 Cavity algorithm     : GePol (No added spheres)
                        Default sphere list used, NSphG=   14.
                        Lebedev-Laikov grids with approx.  5.0 points / Ang**2.
                        Smoothing algorithm: Karplus/York (Gamma=1.0000).
                        Polarization charges: spherical gaussians, with
                                              point-specific exponents (IZeta= 3).
                        Self-potential: point-specific (ISelfS= 7).
                        Self-field    : sphere-specific E.n sum rule (ISelfD= 2).
 1st derivatives      : Analytical E(r).r(x)/FMM algorithm (CHGder, D1EAlg=3).
                        Cavity 1st derivative terms included.
 Solvent              : Water, Eps=  78.355300 Eps(inf)=   1.777849
 ------------------------------------------------------------------------------
 Spheres list:
 ISph  on   Nord    Re0     Alpha      Xe            Ye            Ze
    1   N      1    1.830   1.100      0.147314      2.008892     -0.210518
    2   H      2    1.443   1.100     -0.127552      2.182995      0.752069
    3   C      3    1.926   1.100      0.258183      0.571425     -0.455174
    4   H      4    1.443   1.100      0.317890      0.397950     -1.530741
    5   C      5    1.926   1.100      1.543833      0.060941      0.197514
    6   C      6    1.926   1.100     -0.935792     -0.205846      0.104704
    7   H      7    1.443   1.100      2.384630      0.617775     -0.228974
    8   H      8    1.443   1.100      1.497244      0.258020      1.275850
    9   O      9    1.750   1.100      1.646387     -1.336395     -0.066085
   10   O     10    1.750   1.100     -1.305175     -0.140441      1.252340
   11   H     11    1.443   1.100      2.352461     -1.707350      0.470210
   12   H     12    1.443   1.100     -0.551992      2.430330     -0.811620
   13   O     13    1.750   1.100     -1.566790     -0.947054     -0.829575
   14   H     14    1.443   1.100     -2.296603     -1.409967     -0.388875
 ------------------------------------------------------------------------------
 GePol: Number of generator spheres                  =      14
 GePol: Total number of spheres                      =      14
 GePol: Number of exposed spheres                    =      14 (100.00%)
 GePol: Number of points                             =    1210
 GePol: Average weight of points                     =       0.14
 GePol: Minimum weight of points                     =   0.77D-09
 GePol: Maximum weight of points                     =    0.20577
 GePol: Number of points with low weight             =      67
 GePol: Fraction of low-weight points (<1% of avg)   =       5.54%
 GePol: Cavity surface area                          =    163.470 Ang**2
 GePol: Cavity volume                                =    151.664 Ang**3
 Leave Link  301 at Sun Apr 17 21:40:21 2016, MaxMem=   33554432 cpu:       0.0
 (Enter c:\G09w02\l302.exe)
 NPDir=0 NMtPBC=     1 NCelOv=     1 NCel=       1 NClECP=     1 NCelD=      1
         NCelK=      1 NCelE2=     1 NClLst=     1 CellRange=     0.0.
 One-electron integrals computed using PRISM.
 NBasis=   203 RedAO= T  NBF=   203
 NBsUse=   203 1.00D-06 NBFU=   203
 Precomputing XC quadrature grid using
 IXCGrd= 2 IRadAn=           0 IRanWt=          -1 IRanGd=           0 AccXCQ= 0.00D+00.
 NRdTot=     907 NPtTot=      115688 NUsed=      119922 NTot=      119938
 NSgBfM=   210   210   210   210   210 NAtAll=    14    14.
 Leave Link  302 at Sun Apr 17 21:40:21 2016, MaxMem=   33554432 cpu:       0.0
 (Enter c:\G09w02\l303.exe)
 DipDrv:  MaxL=1.
 Leave Link  303 at Sun Apr 17 21:40:22 2016, MaxMem=   33554432 cpu:       0.0
 (Enter c:\G09w02\l401.exe)
 Harris functional with IExCor=  402 diagonalized for initial guess.
 ExpMin= 3.60D-02 ExpMax= 8.59D+03 ExpMxC= 1.30D+03 IAcc=3 IRadAn=         0 AccDes= 0.00D+00
 HarFok:  IExCor=  402 AccDes= 0.00D+00 IRadAn=         0 IDoV= 1
 ScaDFX=  1.000000  1.000000  1.000000  1.000000
 FoFCou: FMM=F IPFlag=           0 FMFlag=      100000 FMFlg1=           0
         NFxFlg=           0 DoJE=T BraDBF=F KetDBF=T FulRan=T
         Omega=  0.000000  0.000000  1.000000  0.000000  0.000000 ICntrl=     500 IOpCl=  0
         NMat0=    1 NMatS0=    1 NMatT0=    0 NMatD0=    1 NMtDS0=    0 NMtDT0=    0
         I1Cent=           4 NGrid=           0.
 Symmetry not used in FoFCou.
 Harris En= -399.103959218433    
 Leave Link  401 at Sun Apr 17 21:40:26 2016, MaxMem=   33554432 cpu:       4.0
 (Enter c:\G09w02\l502.exe)
 Closed shell SCF:
 Requested convergence on RMS density matrix=1.00D-08 within 128 cycles.
 Requested convergence on MAX density matrix=1.00D-06.
 Requested convergence on             energy=1.00D-06.
 No special actions if energy rises.
 Using DIIS extrapolation, IDIIS=  1040.
 Two-electron integral symmetry not used.
       119798 words used for storage of precomputed grid.
 IEnd=      272663 IEndB=      272663 NGot=    33554432 MDV=    33342720
 LenX=    33342720 LenY=    33298179
 Fock matrices will be formed incrementally for  20 cycles.

 Cycle   1  Pass 1  IDiag  1:
 FoFCou: FMM=F IPFlag=           0 FMFlag=      100000 FMFlg1=           0
         NFxFlg=           0 DoJE=F BraDBF=F KetDBF=F FulRan=T
         Omega=  0.000000  0.000000  1.000000  0.000000  0.000000 ICntrl=       0 IOpCl=  0
         NMat0=    1 NMatS0=    1 NMatT0=    0 NMatD0=    1 NMtDS0=    0 NMtDT0=    0
         I1Cent=           0 NGrid=           0.
 Symmetry not used in FoFCou.
 E= -398.902596500981    
 DIIS: error= 2.47D-02 at cycle   1 NSaved=   1.
 NSaved= 1 IEnMin= 1 EnMin= -398.902596500981     IErMin= 1 ErrMin= 2.47D-02
 ErrMax= 2.47D-02 EMaxC= 1.00D-01 BMatC= 2.93D-01 BMatP= 2.93D-01
 IDIUse=3 WtCom= 7.53D-01 WtEn= 2.47D-01
 Coeff-Com:  0.100D+01
 Coeff-En:   0.100D+01
 Coeff:      0.100D+01
 Gap=     0.167 Goal=   None    Shift=    0.000
 GapD=    0.167 DampG=1.000 DampE=0.500 DampFc=0.5000 IDamp=-1.
 Damping current iteration by 5.00D-01
 RMSDP=1.28D-02 MaxDP=1.36D+00              OVMax= 2.08D-01

 Cycle   2  Pass 1  IDiag  1:
 RMSU=  4.20D-03    CP:  1.14D+00
 E= -398.956231732671     Delta-E=       -0.053635231690 Rises=F Damp=T
 DIIS: error= 9.14D-03 at cycle   2 NSaved=   2.
 NSaved= 2 IEnMin= 2 EnMin= -398.956231732671     IErMin= 2 ErrMin= 9.14D-03
 ErrMax= 9.14D-03 EMaxC= 1.00D-01 BMatC= 3.32D-02 BMatP= 2.93D-01
 IDIUse=3 WtCom= 9.09D-01 WtEn= 9.14D-02
 Coeff-Com:  0.206D+00 0.794D+00
 Coeff-En:   0.360D+00 0.640D+00
 Coeff:      0.220D+00 0.780D+00
 Gap=     0.248 Goal=   None    Shift=    0.000
 RMSDP=5.03D-03 MaxDP=5.88D-01 DE=-5.36D-02 OVMax= 1.50D-01

 Cycle   3  Pass 1  IDiag  1:
 RMSU=  1.45D-03    CP:  9.99D-01  3.41D-01
 E= -399.094562533513     Delta-E=       -0.138330800842 Rises=F Damp=F
 DIIS: error= 8.77D-03 at cycle   3 NSaved=   3.
 NSaved= 3 IEnMin= 3 EnMin= -399.094562533513     IErMin= 3 ErrMin= 8.77D-03
 ErrMax= 8.77D-03 EMaxC= 1.00D-01 BMatC= 1.49D-02 BMatP= 3.32D-02
 IDIUse=3 WtCom= 9.12D-01 WtEn= 8.77D-02
 Coeff-Com:  0.659D-01 0.418D+00 0.516D+00
 Coeff-En:   0.000D+00 0.000D+00 0.100D+01
 Coeff:      0.601D-01 0.381D+00 0.558D+00
 Gap=     0.249 Goal=   None    Shift=    0.000
 RMSDP=8.50D-04 MaxDP=3.94D-02 DE=-1.38D-01 OVMax= 5.73D-02

 Cycle   4  Pass 1  IDiag  1:
 RMSU=  5.62D-04    CP:  9.90D-01  2.98D-01  1.01D+00
 E= -399.102058798511     Delta-E=       -0.007496264997 Rises=F Damp=F
 DIIS: error= 4.62D-03 at cycle   4 NSaved=   4.
 NSaved= 4 IEnMin= 4 EnMin= -399.102058798511     IErMin= 4 ErrMin= 4.62D-03
 ErrMax= 4.62D-03 EMaxC= 1.00D-01 BMatC= 5.37D-03 BMatP= 1.49D-02
 IDIUse=3 WtCom= 9.54D-01 WtEn= 4.62D-02
 Coeff-Com: -0.406D-03 0.104D+00 0.383D+00 0.514D+00
 Coeff-En:   0.000D+00 0.000D+00 0.290D+00 0.710D+00
 Coeff:     -0.387D-03 0.991D-01 0.378D+00 0.523D+00
 Gap=     0.244 Goal=   None    Shift=    0.000
 RMSDP=3.22D-04 MaxDP=1.10D-02 DE=-7.50D-03 OVMax= 2.31D-02

 Cycle   5  Pass 1  IDiag  1:
 RMSU=  1.03D-04    CP:  9.92D-01  3.13D-01  1.02D+00  6.60D-01
 E= -399.105761566408     Delta-E=       -0.003702767897 Rises=F Damp=F
 DIIS: error= 7.48D-04 at cycle   5 NSaved=   5.
 NSaved= 5 IEnMin= 5 EnMin= -399.105761566408     IErMin= 5 ErrMin= 7.48D-04
 ErrMax= 7.48D-04 EMaxC= 1.00D-01 BMatC= 2.01D-04 BMatP= 5.37D-03
 IDIUse=3 WtCom= 9.93D-01 WtEn= 7.48D-03
 Coeff-Com: -0.332D-02 0.280D-01 0.169D+00 0.280D+00 0.527D+00
 Coeff-En:   0.000D+00 0.000D+00 0.000D+00 0.000D+00 0.100D+01
 Coeff:     -0.330D-02 0.278D-01 0.167D+00 0.278D+00 0.530D+00
 Gap=     0.244 Goal=   None    Shift=    0.000
 RMSDP=1.37D-04 MaxDP=1.39D-02 DE=-3.70D-03 OVMax= 3.21D-03

 Cycle   6  Pass 1  IDiag  1:
 RMSU=  5.90D-05    CP:  9.88D-01  3.01D-01  1.04D+00  6.62D-01  7.69D-01
 E= -399.105914216317     Delta-E=       -0.000152649909 Rises=F Damp=F
 DIIS: error= 1.59D-04 at cycle   6 NSaved=   6.
 NSaved= 6 IEnMin= 6 EnMin= -399.105914216317     IErMin= 6 ErrMin= 1.59D-04
 ErrMax= 1.59D-04 EMaxC= 1.00D-01 BMatC= 1.17D-05 BMatP= 2.01D-04
 IDIUse=3 WtCom= 9.98D-01 WtEn= 1.59D-03
 Coeff-Com: -0.136D-02 0.158D-02 0.364D-01 0.712D-01 0.247D+00 0.645D+00
 Coeff-En:   0.000D+00 0.000D+00 0.000D+00 0.000D+00 0.000D+00 0.100D+01
 Coeff:     -0.136D-02 0.157D-02 0.364D-01 0.711D-01 0.247D+00 0.646D+00
 Gap=     0.245 Goal=   None    Shift=    0.000
 RMSDP=3.28D-05 MaxDP=2.39D-03 DE=-1.53D-04 OVMax= 5.74D-04

 Cycle   7  Pass 1  IDiag  1:
 RMSU=  1.02D-05    CP:  9.88D-01  3.03D-01  1.04D+00  6.71D-01  8.12D-01
                    CP:  7.29D-01
 E= -399.105923142634     Delta-E=       -0.000008926318 Rises=F Damp=F
 DIIS: error= 3.72D-05 at cycle   7 NSaved=   7.
 NSaved= 7 IEnMin= 7 EnMin= -399.105923142634     IErMin= 7 ErrMin= 3.72D-05
 ErrMax= 3.72D-05 EMaxC= 1.00D-01 BMatC= 6.64D-07 BMatP= 1.17D-05
 IDIUse=1 WtCom= 1.00D+00 WtEn= 0.00D+00
 Coeff-Com: -0.466D-03-0.160D-03 0.133D-01 0.274D-01 0.111D+00 0.325D+00
 Coeff-Com:  0.524D+00
 Coeff:     -0.466D-03-0.160D-03 0.133D-01 0.274D-01 0.111D+00 0.325D+00
 Coeff:      0.524D+00
 Gap=     0.244 Goal=   None    Shift=    0.000
 RMSDP=7.15D-06 MaxDP=6.27D-04 DE=-8.93D-06 OVMax= 2.14D-04

 Cycle   8  Pass 1  IDiag  1:
 RMSU=  3.01D-06    CP:  9.88D-01  3.02D-01  1.04D+00  6.71D-01  8.12D-01
                    CP:  7.38D-01  8.46D-01
 E= -399.105923621667     Delta-E=       -0.000000479033 Rises=F Damp=F
 DIIS: error= 1.36D-05 at cycle   8 NSaved=   8.
 NSaved= 8 IEnMin= 8 EnMin= -399.105923621667     IErMin= 8 ErrMin= 1.36D-05
 ErrMax= 1.36D-05 EMaxC= 1.00D-01 BMatC= 5.14D-08 BMatP= 6.64D-07
 IDIUse=1 WtCom= 1.00D+00 WtEn= 0.00D+00
 Coeff-Com:  0.487D-04-0.353D-03 0.852D-03 0.202D-02 0.149D-01 0.475D-01
 Coeff-Com:  0.226D+00 0.709D+00
 Coeff:      0.487D-04-0.353D-03 0.852D-03 0.202D-02 0.149D-01 0.475D-01
 Coeff:      0.226D+00 0.709D+00
 Gap=     0.244 Goal=   None    Shift=    0.000
 RMSDP=1.60D-06 MaxDP=4.66D-05 DE=-4.79D-07 OVMax= 7.66D-05

 Cycle   9  Pass 1  IDiag  1:
 RMSU=  7.69D-07    CP:  9.88D-01  3.02D-01  1.04D+00  6.71D-01  8.15D-01
                    CP:  7.41D-01  8.86D-01  8.19D-01
 E= -399.105923658466     Delta-E=       -0.000000036799 Rises=F Damp=F
 DIIS: error= 3.88D-06 at cycle   9 NSaved=   9.
 NSaved= 9 IEnMin= 9 EnMin= -399.105923658466     IErMin= 9 ErrMin= 3.88D-06
 ErrMax= 3.88D-06 EMaxC= 1.00D-01 BMatC= 6.10D-09 BMatP= 5.14D-08
 IDIUse=1 WtCom= 1.00D+00 WtEn= 0.00D+00
 Coeff-Com:  0.470D-04-0.183D-03-0.273D-03-0.474D-03 0.166D-02 0.540D-02
 Coeff-Com:  0.816D-01 0.363D+00 0.549D+00
 Coeff:      0.470D-04-0.183D-03-0.273D-03-0.474D-03 0.166D-02 0.540D-02
 Coeff:      0.816D-01 0.363D+00 0.549D+00
 Gap=     0.244 Goal=   None    Shift=    0.000
 RMSDP=6.51D-07 MaxDP=5.06D-05 DE=-3.68D-08 OVMax= 1.29D-05

 Cycle  10  Pass 1  IDiag  1:
 RMSU=  2.07D-07    CP:  9.88D-01  3.02D-01  1.04D+00  6.71D-01  8.15D-01
                    CP:  7.41D-01  8.96D-01  8.69D-01  8.29D-01
 E= -399.105923663308     Delta-E=       -0.000000004842 Rises=F Damp=F
 DIIS: error= 5.38D-07 at cycle  10 NSaved=  10.
 NSaved=10 IEnMin=10 EnMin= -399.105923663308     IErMin=10 ErrMin= 5.38D-07
 ErrMax= 5.38D-07 EMaxC= 1.00D-01 BMatC= 1.43D-10 BMatP= 6.10D-09
 IDIUse=1 WtCom= 1.00D+00 WtEn= 0.00D+00
 Coeff-Com:  0.857D-05-0.274D-04-0.136D-03-0.304D-03-0.482D-03-0.186D-02
 Coeff-Com:  0.802D-02 0.620D-01 0.167D+00 0.766D+00
 Coeff:      0.857D-05-0.274D-04-0.136D-03-0.304D-03-0.482D-03-0.186D-02
 Coeff:      0.802D-02 0.620D-01 0.167D+00 0.766D+00
 Gap=     0.244 Goal=   None    Shift=    0.000
 RMSDP=2.01D-07 MaxDP=1.78D-05 DE=-4.84D-09 OVMax= 3.18D-06

 Cycle  11  Pass 1  IDiag  1:
 RMSU=  6.82D-08    CP:  9.88D-01  3.02D-01  1.04D+00  6.71D-01  8.15D-01
                    CP:  7.40D-01  9.01D-01  8.78D-01  8.53D-01  9.30D-01
 E= -399.105923663428     Delta-E=       -0.000000000120 Rises=F Damp=F
 DIIS: error= 2.18D-07 at cycle  11 NSaved=  11.
 NSaved=11 IEnMin=11 EnMin= -399.105923663428     IErMin=11 ErrMin= 2.18D-07
 ErrMax= 2.18D-07 EMaxC= 1.00D-01 BMatC= 2.14D-11 BMatP= 1.43D-10
 IDIUse=1 WtCom= 1.00D+00 WtEn= 0.00D+00
 Coeff-Com:  0.146D-05-0.434D-05-0.563D-04-0.133D-03-0.327D-03-0.111D-02
 Coeff-Com:  0.293D-03 0.132D-01 0.497D-01 0.358D+00 0.580D+00
 Coeff:      0.146D-05-0.434D-05-0.563D-04-0.133D-03-0.327D-03-0.111D-02
 Coeff:      0.293D-03 0.132D-01 0.497D-01 0.358D+00 0.580D+00
 Gap=     0.244 Goal=   None    Shift=    0.000
 RMSDP=4.43D-08 MaxDP=2.85D-06 DE=-1.20D-10 OVMax= 9.42D-07

 Cycle  12  Pass 1  IDiag  1:
 RMSU=  1.51D-08    CP:  9.88D-01  3.02D-01  1.04D+00  6.71D-01  8.15D-01
                    CP:  7.40D-01  9.01D-01  8.81D-01  8.59D-01  9.75D-01
                    CP:  8.72D-01
 E= -399.105923663440     Delta-E=       -0.000000000012 Rises=F Damp=F
 DIIS: error= 1.11D-07 at cycle  12 NSaved=  12.
 NSaved=12 IEnMin=12 EnMin= -399.105923663440     IErMin=12 ErrMin= 1.11D-07
 ErrMax= 1.11D-07 EMaxC= 1.00D-01 BMatC= 3.96D-12 BMatP= 2.14D-11
 IDIUse=1 WtCom= 1.00D+00 WtEn= 0.00D+00
 Coeff-Com: -0.106D-05 0.223D-05-0.547D-05-0.186D-04-0.865D-04-0.275D-03
 Coeff-Com: -0.120D-02-0.304D-02 0.476D-04 0.843D-01 0.331D+00 0.589D+00
 Coeff:     -0.106D-05 0.223D-05-0.547D-05-0.186D-04-0.865D-04-0.275D-03
 Coeff:     -0.120D-02-0.304D-02 0.476D-04 0.843D-01 0.331D+00 0.589D+00
 Gap=     0.244 Goal=   None    Shift=    0.000
 RMSDP=1.48D-08 MaxDP=4.22D-07 DE=-1.17D-11 OVMax= 3.70D-07

 Cycle  13  Pass 1  IDiag  1:
 RMSU=  6.16D-09    CP:  9.88D-01  3.02D-01  1.04D+00  6.71D-01  8.15D-01
                    CP:  7.40D-01  9.01D-01  8.81D-01  8.61D-01  9.76D-01
                    CP:  8.96D-01  6.27D-01
 E= -399.105923663445     Delta-E=       -0.000000000005 Rises=F Damp=F
 DIIS: error= 1.11D-08 at cycle  13 NSaved=  13.
 NSaved=13 IEnMin=13 EnMin= -399.105923663445     IErMin=13 ErrMin= 1.11D-08
 ErrMax= 1.11D-08 EMaxC= 1.00D-01 BMatC= 3.36D-14 BMatP= 3.96D-12
 IDIUse=1 WtCom= 1.00D+00 WtEn= 0.00D+00
 Coeff-Com: -0.214D-06 0.558D-06 0.836D-06 0.671D-06-0.636D-05-0.109D-04
 Coeff-Com: -0.218D-03-0.115D-02-0.231D-02-0.171D-02 0.295D-01 0.117D+00
 Coeff-Com:  0.859D+00
 Coeff:     -0.214D-06 0.558D-06 0.836D-06 0.671D-06-0.636D-05-0.109D-04
 Coeff:     -0.218D-03-0.115D-02-0.231D-02-0.171D-02 0.295D-01 0.117D+00
 Coeff:      0.859D+00
 Gap=     0.244 Goal=   None    Shift=    0.000
 RMSDP=3.66D-09 MaxDP=2.61D-07 DE=-5.46D-12 OVMax= 5.66D-08

 Error on total polarization charges =  0.01156
 SCF Done:  E(RB3LYP) =  -399.105923663     A.U. after   13 cycles
             Convg  =    0.3657D-08             -V/T =  2.0036
 KE= 3.976604118231D+02 PE=-1.585396081334D+03 EE= 4.644616420960D+02
 Leave Link  502 at Sun Apr 17 21:43:36 2016, MaxMem=   33554432 cpu:     190.0
 (Enter c:\G09w02\l601.exe)
 Copying SCF densities to generalized density rwf, IOpCl= 0 IROHF=0.

 **********************************************************************

            Population analysis using the SCF density.

 **********************************************************************

 Alpha  occ. eigenvalues --  -19.18626 -19.13873 -19.13296 -14.31411 -10.31953
 Alpha  occ. eigenvalues --  -10.22952 -10.22627  -1.12830  -1.04175  -1.03871
 Alpha  occ. eigenvalues --   -0.90937  -0.75657  -0.67921  -0.59668  -0.54379
 Alpha  occ. eigenvalues --   -0.53803  -0.50626  -0.49131  -0.47305  -0.45208
 Alpha  occ. eigenvalues --   -0.42832  -0.41217  -0.39825  -0.35529  -0.34296
 Alpha  occ. eigenvalues --   -0.31067  -0.29615  -0.26685
 Alpha virt. eigenvalues --   -0.02246  -0.00967   0.00345   0.00716   0.01769
 Alpha virt. eigenvalues --    0.03684   0.04838   0.05731   0.06195   0.07484
 Alpha virt. eigenvalues --    0.08933   0.09488   0.10003   0.10509   0.11279
 Alpha virt. eigenvalues --    0.11963   0.12674   0.13122   0.13753   0.15187
 Alpha virt. eigenvalues --    0.15339   0.15908   0.17094   0.18611   0.19167
 Alpha virt. eigenvalues --    0.20032   0.20407   0.22118   0.22670   0.22955
 Alpha virt. eigenvalues --    0.23801   0.24638   0.25713   0.26424   0.27074
 Alpha virt. eigenvalues --    0.27590   0.28704   0.29268   0.30311   0.31120
 Alpha virt. eigenvalues --    0.31854   0.33903   0.34145   0.35063   0.35307
 Alpha virt. eigenvalues --    0.37558   0.37924   0.40664   0.47342   0.48268
 Alpha virt. eigenvalues --    0.53166   0.53747   0.54765   0.56434   0.57842
 Alpha virt. eigenvalues --    0.59726   0.61146   0.63170   0.63976   0.66907
 Alpha virt. eigenvalues --    0.68556   0.69597   0.70503   0.73855   0.75422
 Alpha virt. eigenvalues --    0.82498   0.83076   0.85517   0.87917   0.94116
 Alpha virt. eigenvalues --    0.98843   1.00706   1.05726   1.07613   1.09299
 Alpha virt. eigenvalues --    1.10667   1.12501   1.14379   1.16675   1.18335
 Alpha virt. eigenvalues --    1.20788   1.23889   1.25592   1.27278   1.33388
 Alpha virt. eigenvalues --    1.35951   1.41277   1.44335   1.46036   1.48400
 Alpha virt. eigenvalues --    1.52809   1.55106   1.56718   1.58122   1.59377
 Alpha virt. eigenvalues --    1.61873   1.63063   1.64662   1.67936   1.73015
 Alpha virt. eigenvalues --    1.73488   1.74537   1.76113   1.81391   1.83312
 Alpha virt. eigenvalues --    1.87164   1.89540   1.92320   1.97532   2.04409
 Alpha virt. eigenvalues --    2.05648   2.07265   2.09564   2.17390   2.22923
 Alpha virt. eigenvalues --    2.25610   2.33374   2.42952   2.50092   2.51059
 Alpha virt. eigenvalues --    2.54197   2.56569   2.59021   2.60456   2.63025
 Alpha virt. eigenvalues --    2.69401   2.70540   2.74242   2.79076   2.83881
 Alpha virt. eigenvalues --    2.84395   2.89544   2.90113   2.93745   2.97149
 Alpha virt. eigenvalues --    3.00051   3.05388   3.07573   3.10198   3.12886
 Alpha virt. eigenvalues --    3.16747   3.20790   3.21884   3.28098   3.30984
 Alpha virt. eigenvalues --    3.36896   3.55960   3.61179   3.64190   3.77499
 Alpha virt. eigenvalues --    3.81420   3.87436   3.97718   4.02960   4.08668
 Alpha virt. eigenvalues --    4.12927   4.26589   4.72978   4.83304   4.97033
 Alpha virt. eigenvalues --    5.01272   5.07810   5.16705   5.35692   5.39402
 Alpha virt. eigenvalues --    5.58233   5.65830   5.83763  23.77935  23.80722
 Alpha virt. eigenvalues --   23.84539  35.59146  49.85182  49.90494  50.00849
          Condensed to atoms (all electrons):
              1          2          3          4          5          6
     1  N    6.711661   0.397433  -0.117111  -0.063456   0.063684  -0.023463
     2  H    0.397433   0.436537  -0.076373   0.007298   0.015410  -0.008010
     3  C   -0.117111  -0.076373   7.664249   0.541931  -0.607502  -0.495156
     4  H   -0.063456   0.007298   0.541931   0.538996  -0.124161  -0.156353
     5  C    0.063684   0.015410  -0.607502  -0.124161   5.837395   0.141861
     6  C   -0.023463  -0.008010  -0.495156  -0.156353   0.141861   5.737189
     7  H    0.027033   0.004272  -0.223369  -0.039201   0.519342   0.053711
     8  H   -0.025414  -0.002266   0.155498   0.028380   0.269594  -0.090346
     9  O    0.009754   0.001935  -0.084901  -0.003880   0.176695  -0.002249
    10  O   -0.030136   0.011779  -0.020757   0.009126  -0.051143   0.453272
    11  H    0.000749   0.000289  -0.031470   0.002237   0.027774   0.006229
    12  H    0.378578  -0.041096  -0.013585  -0.012653  -0.005272   0.000090
    13  O   -0.001519  -0.000197  -0.142357   0.001845  -0.027972   0.234006
    14  H   -0.001384  -0.000167  -0.003692   0.001757  -0.001097   0.000508
              7          8          9         10         11         12
     1  N    0.027033  -0.025414   0.009754  -0.030136   0.000749   0.378578
     2  H    0.004272  -0.002266   0.001935   0.011779   0.000289  -0.041096
     3  C   -0.223369   0.155498  -0.084901  -0.020757  -0.031470  -0.013585
     4  H   -0.039201   0.028380  -0.003880   0.009126   0.002237  -0.012653
     5  C    0.519342   0.269594   0.176695  -0.051143   0.027774  -0.005272
     6  C    0.053711  -0.090346  -0.002249   0.453272   0.006229   0.000090
     7  H    0.599229  -0.070173  -0.053599  -0.000073   0.000965   0.000118
     8  H   -0.070173   0.600439  -0.056461   0.000566  -0.010326  -0.000389
     9  O   -0.053599  -0.056461   8.099996  -0.005551   0.243295  -0.000627
    10  O   -0.000073   0.000566  -0.005551   8.101415   0.000568  -0.001723
    11  H    0.000965  -0.010326   0.243295   0.000568   0.462561  -0.000335
    12  H    0.000118  -0.000389  -0.000627  -0.001723  -0.000335   0.421389
    13  O   -0.002941   0.002120   0.001968  -0.136682   0.001293   0.001218
    14  H    0.000379  -0.000838   0.000203   0.000453  -0.000125  -0.000008
             13         14
     1  N   -0.001519  -0.001384
     2  H   -0.000197  -0.000167
     3  C   -0.142357  -0.003692
     4  H    0.001845   0.001757
     5  C   -0.027972  -0.001097
     6  C    0.234006   0.000508
     7  H   -0.002941   0.000379
     8  H    0.002120  -0.000838
     9  O    0.001968   0.000203
    10  O   -0.136682   0.000453
    11  H    0.001293  -0.000125
    12  H    0.001218  -0.000008
    13  O    7.954232   0.283908
    14  H    0.283908   0.411581
 Mulliken atomic charges:
              1
     1  N   -0.326407
     2  H    0.253156
     3  C   -0.545405
     4  H    0.268134
     5  C   -0.234608
     6  C    0.148713
     7  H    0.184306
     8  H    0.199616
     9  O   -0.326577
    10  O   -0.331114
    11  H    0.296295
    12  H    0.274294
    13  O   -0.168923
    14  H    0.308521
 Sum of Mulliken atomic charges =   0.00000
 Mulliken charges with hydrogens summed into heavy atoms:
              1
     1  N    0.201042
     3  C   -0.277271
     5  C    0.149314
     6  C    0.148713
     9  O   -0.030282
    10  O   -0.331114
    13  O    0.139598
 Sum of Mulliken charges with hydrogens summed into heavy atoms =   0.00000
 Electronic spatial extent (au):  <R**2>=            761.6332
 Charge=              0.0000 electrons
 Dipole moment (field-independent basis, Debye):
    X=              0.2515    Y=              0.2612    Z=             -0.2755  Tot=              0.4554
 Quadrupole moment (field-independent basis, Debye-Ang):
   XX=            -34.3021   YY=            -41.3149   ZZ=            -45.4929
   XY=             -2.4504   XZ=              6.4224   YZ=             -2.2022
 Traceless Quadrupole moment (field-independent basis, Debye-Ang):
   XX=              6.0679   YY=             -0.9449   ZZ=             -5.1229
   XY=             -2.4504   XZ=              6.4224   YZ=             -2.2022
 Octapole moment (field-independent basis, Debye-Ang**2):
  XXX=              0.8539  YYY=            -12.2333  ZZZ=             -4.1247  XYY=            -15.4307
  XXY=            -20.6307  XXZ=              2.3145  XZZ=              7.6731  YZZ=              3.5969
  YYZ=              6.0134  XYZ=             -3.1575
 Hexadecapole moment (field-independent basis, Debye-Ang**3):
 XXXX=           -359.8241 YYYY=           -336.8514 ZZZZ=           -157.7311 XXXY=             -3.5315
 XXXZ=             28.2028 YYYX=            -33.5123 YYYZ=             -1.2560 ZZZX=              9.3757
 ZZZY=             -1.6006 XXYY=           -101.5147 XXZZ=           -109.3034 YYZZ=            -76.9874
 XXYZ=             -9.8012 YYXZ=             16.0205 ZZXY=             -7.2662
 N-N= 3.241681037510D+02 E-N=-1.585396081483D+03  KE= 3.976604118231D+02
 No NMR shielding tensors so no spin-rotation constants.
 Leave Link  601 at Sun Apr 17 21:43:36 2016, MaxMem=   33554432 cpu:       0.0
 (Enter c:\G09w02\l701.exe)
 Compute integral first derivatives.
 ... and contract with generalized density number  0.
 D1PCM: C-PCM CHGder 1st derivatives, ID1Alg=3 FixD1E=F DoIter=F DoCFld=F I1PDM=0.
 GePol: Maximum number of non-zero 1st derivatives   =     199
 Leave Link  701 at Sun Apr 17 21:43:41 2016, MaxMem=   33554432 cpu:       5.0
 (Enter c:\G09w02\l702.exe)
 L702 exits ... SP integral derivatives will be done elsewhere.
 Leave Link  702 at Sun Apr 17 21:43:41 2016, MaxMem=   33554432 cpu:       0.0
 (Enter c:\G09w02\l703.exe)
 Compute integral first derivatives, UseDBF=F ICtDFT=           0.
 Integral derivatives from FoFDir, PRISM(SPDF).
 Calling FoFJK, ICntrl=      2127 FMM=F ISym2X=0 I1Cent= 0 IOpClX= 0 NMat=1 NMatS=1 NMatT=0.
 FoFCou: FMM=F IPFlag=           0 FMFlag=      100000 FMFlg1=         800
         NFxFlg=           0 DoJE=F BraDBF=F KetDBF=F FulRan=T
         Omega=  0.000000  0.000000  1.000000  0.000000  0.000000 ICntrl=    2127 IOpCl=  0
         NMat0=    1 NMatS0=    1 NMatT0=    0 NMatD0=    1 NMtDS0=    0 NMtDT0=    0
         I1Cent=           0 NGrid=           0.
 Symmetry not used in FoFCou.
 Leave Link  703 at Sun Apr 17 21:44:23 2016, MaxMem=   33554432 cpu:      42.0
 (Enter c:\G09w02\l716.exe)
 Dipole        = 9.89399192D-02 1.02760676D-01-1.08397455D-01
 -------------------------------------------------------------------
 Center     Atomic                   Forces (Hartrees/Bohr)
 Number     Number              X              Y              Z
 -------------------------------------------------------------------
      1        7           0.000835590    0.000223446   -0.000106593
      2        1          -0.000150805    0.000540277   -0.000053038
      3        6           0.000629439    0.000204123    0.000017303
      4        1          -0.000487919    0.000414859    0.000060403
      5        6          -0.001047483    0.001718591    0.000594521
      6        6           0.000762592    0.000890731   -0.007948997
      7        1           0.000079066   -0.000873309    0.000307015
      8        1           0.000929315   -0.000586641   -0.000512034
      9        8          -0.000761478   -0.001143159   -0.000816512
     10        8          -0.001609945   -0.000697208    0.004861936
     11        1           0.001529839   -0.000268435    0.000950086
     12        1          -0.000954235   -0.000288509    0.000127498
     13        8           0.002388657    0.001129784    0.003407461
     14        1          -0.002142633   -0.001264549   -0.000889048
 -------------------------------------------------------------------
 Cartesian Forces:  Max     0.007948997 RMS     0.001775468
 Leave Link  716 at Sun Apr 17 21:44:23 2016, MaxMem=   33554432 cpu:       0.0
 (Enter c:\G09w02\l103.exe)

 GradGradGradGradGradGradGradGradGradGradGradGradGradGradGradGradGradGrad
 Berny optimization.
 Internal  Forces:  Max     0.005076488 RMS     0.001044302
 Search for a local minimum.
 Step number   1 out of a maximum of   69
 All quantities printed in internal units (Hartrees-Bohrs-Radians)
 RMS Force = .10443D-02 SwitMx=.10000D-02 MixMth= 1
 Mixed Optimization -- RFO/linear search
 Second derivative matrix not updated -- first step.
 ITU=  0
     Eigenvalues ---    0.00359   0.00375   0.00856   0.00867   0.01352
     Eigenvalues ---    0.02363   0.04147   0.04737   0.05357   0.05392
     Eigenvalues ---    0.06109   0.06121   0.10897   0.13587   0.16000
     Eigenvalues ---    0.16000   0.16000   0.16000   0.16791   0.18509
     Eigenvalues ---    0.22033   0.24991   0.25000   0.29354   0.29466
     Eigenvalues ---    0.33995   0.34248   0.34686   0.36672   0.41617
     Eigenvalues ---    0.44968   0.45328   0.53353   0.55185   0.55232
     Eigenvalues ---    1.01196
 RFO step:  Lambda=-3.84149429D-04 EMin= 3.59208428D-03
 Linear search not attempted -- first point.
 Iteration  1 RMS(Cart)=  0.02340392 RMS(Int)=  0.00044253
 Iteration  2 RMS(Cart)=  0.00048156 RMS(Int)=  0.00015437
 Iteration  3 RMS(Cart)=  0.00000011 RMS(Int)=  0.00015437
 Variable       Old X    -DE/DX   Delta X   Delta X   Delta X     New X
                                 (Linear)    (Quad)   (Total)
    R1        1.92013   0.00007   0.00000   0.00016   0.00016   1.92029
    R2        2.76344   0.00048   0.00000   0.00130   0.00130   2.76473
    R3        1.91596   0.00047   0.00000   0.00103   0.00103   1.91699
    R4        2.06188  -0.00015   0.00000  -0.00043  -0.00043   2.06145
    R5        2.89041   0.00123   0.00000   0.00417   0.00417   2.89458
    R6        2.89269   0.00023   0.00000   0.00079   0.00079   2.89348
    R7        2.06914  -0.00050   0.00000  -0.00147  -0.00147   2.06767
    R8        2.07338  -0.00064   0.00000  -0.00189  -0.00189   2.07149
    R9        2.69414   0.00141   0.00000   0.00339   0.00339   2.69752
   R10        2.28164   0.00508   0.00000   0.00501   0.00501   2.28665
   R11        2.54968  -0.00179   0.00000  -0.00324  -0.00324   2.54644
   R12        1.81626   0.00176   0.00000   0.00319   0.00319   1.81945
   R13        1.83326   0.00181   0.00000   0.00340   0.00340   1.83666
    A1        1.92563   0.00088   0.00000   0.00362   0.00362   1.92925
    A2        1.87953  -0.00031   0.00000  -0.00556  -0.00557   1.87396
    A3        1.94088  -0.00091   0.00000  -0.00754  -0.00754   1.93334
    A4        1.90218  -0.00034   0.00000  -0.00557  -0.00559   1.89660
    A5        1.89695   0.00059   0.00000   0.00673   0.00671   1.90367
    A6        1.95930  -0.00013   0.00000   0.00086   0.00082   1.96012
    A7        1.89820   0.00011   0.00000   0.00203   0.00205   1.90025
    A8        1.89916  -0.00028   0.00000  -0.00718  -0.00719   1.89198
    A9        1.90718   0.00006   0.00000   0.00319   0.00317   1.91035
   A10        1.88547   0.00008   0.00000   0.00229   0.00230   1.88777
   A11        1.90049   0.00075   0.00000   0.00875   0.00874   1.90923
   A12        1.88460   0.00138   0.00000   0.00690   0.00689   1.89150
   A13        1.90083  -0.00024   0.00000  -0.00337  -0.00342   1.89741
   A14        1.95108  -0.00087   0.00000  -0.00758  -0.00760   1.94349
   A15        1.93995  -0.00102   0.00000  -0.00619  -0.00625   1.93370
   A16        2.16370   0.00074   0.00000   0.00358   0.00290   2.16661
   A17        1.97193   0.00001   0.00000   0.00072   0.00004   1.97197
   A18        2.14702  -0.00074   0.00000  -0.00223  -0.00290   2.14412
   A19        1.90494  -0.00074   0.00000  -0.00461  -0.00461   1.90034
   A20        1.87486   0.00339   0.00000   0.02116   0.02116   1.89602
    D1        2.90926  -0.00032   0.00000   0.01138   0.01140   2.92066
    D2       -1.30771  -0.00005   0.00000   0.01451   0.01450  -1.29320
    D3        0.80404   0.00035   0.00000   0.02364   0.02364   0.82768
    D4        0.82487   0.00008   0.00000   0.02083   0.02083   0.84571
    D5        2.89108   0.00035   0.00000   0.02395   0.02394   2.91503
    D6       -1.28036   0.00074   0.00000   0.03308   0.03308  -1.24727
    D7       -1.01445  -0.00013   0.00000  -0.02210  -0.02210  -1.03655
    D8        1.04744   0.00004   0.00000  -0.02001  -0.02001   1.02743
    D9       -3.12745   0.00007   0.00000  -0.01830  -0.01829   3.13745
   D10        1.05428  -0.00014   0.00000  -0.02379  -0.02379   1.03049
   D11        3.11616   0.00003   0.00000  -0.02169  -0.02170   3.09446
   D12       -1.05873   0.00006   0.00000  -0.01999  -0.01998  -1.07871
   D13        3.12524  -0.00039   0.00000  -0.02943  -0.02943   3.09581
   D14       -1.09606  -0.00022   0.00000  -0.02733  -0.02735  -1.12341
   D15        1.01224  -0.00018   0.00000  -0.02563  -0.02562   0.98661
   D16       -0.94891  -0.00067   0.00000  -0.01798  -0.01801  -0.96691
   D17        2.15863  -0.00008   0.00000   0.04868   0.04871   2.20734
   D18       -3.05588   0.00003   0.00000  -0.00667  -0.00670  -3.06257
   D19        0.05166   0.00062   0.00000   0.06000   0.06002   0.11168
   D20        1.15694   0.00003   0.00000  -0.00677  -0.00680   1.15015
   D21       -2.01870   0.00062   0.00000   0.05989   0.05992  -1.95878
   D22       -2.95631  -0.00038   0.00000  -0.01284  -0.01284  -2.96914
   D23        1.25524  -0.00084   0.00000  -0.01556  -0.01551   1.23973
   D24       -0.87283   0.00081   0.00000  -0.00147  -0.00151  -0.87435
   D25        3.12969   0.00014   0.00000  -0.01453  -0.01443   3.11526
   D26       -0.04558   0.00075   0.00000   0.05153   0.05143   0.00585
         Item               Value     Threshold  Converged?
 Maximum Force            0.005076     0.000450     NO 
 RMS     Force            0.001044     0.000300     NO 
 Maximum Displacement     0.067376     0.001800     NO 
 RMS     Displacement     0.023417     0.001200     NO 
 Predicted change in Energy=-1.965542D-04
 GradGradGradGradGradGradGradGradGradGradGradGradGradGradGradGradGradGrad

 Leave Link  103 at Sun Apr 17 21:44:23 2016, MaxMem=   33554432 cpu:       0.0
 (Enter c:\G09w02\l202.exe)
                          Input orientation:                          
 ---------------------------------------------------------------------
 Center     Atomic      Atomic             Coordinates (Angstroms)
 Number     Number       Type             X           Y           Z
 ---------------------------------------------------------------------
      1          7           0        0.150464    2.023154   -0.208510
      2          1           0       -0.107651    2.202460    0.757842
      3          6           0        0.254400    0.584535   -0.453542
      4          1           0        0.306877    0.416618   -1.530136
      5          6           0        1.539221    0.058179    0.193314
      6          6           0       -0.947486   -0.187282    0.098035
      7          1           0        2.386646    0.590284   -0.249320
      8          1           0        1.516571    0.266162    1.269349
      9          8           0        1.622820   -1.345955   -0.049753
     10          8           0       -1.316453   -0.137064    1.249359
     11          1           0        2.338801   -1.711770    0.479926
     12          1           0       -0.566089    2.437189   -0.795190
     13          8           0       -1.539417   -0.969613   -0.825749
     14          1           0       -2.274665   -1.445621   -0.404500
 ---------------------------------------------------------------------
                    Distance matrix (angstroms):
                    1          2          3          4          5
     1  N    0.000000
     2  H    1.016174   0.000000
     3  C    1.463033   2.053342   0.000000
     4  H    2.086174   2.931879   1.090874   0.000000
     5  C    2.439516   2.762032   1.531744   2.148821   0.000000
     6  C    2.487065   2.617544   1.531166   2.142210   2.500608
     7  H    2.656180   3.136081   2.142012   2.448692   1.094162
     8  H    2.671579   2.578563   2.159349   3.053377   1.096184
     9  O    3.680208   4.029639   2.400502   2.651396   1.427466
    10  O    2.990613   2.678837   2.426553   3.266092   3.050938
    11  H    4.383197   4.624236   3.238689   3.563579   1.963209
    12  H    1.014429   1.636206   2.054812   2.320544   3.327035
    13  O    3.491896   3.823580   2.402436   2.413835   3.401891
    14  H    4.236987   4.399487   3.243472   3.376292   4.143009
                    6          7          8          9         10
     6  C    0.000000
     7  H    3.441177   0.000000
     8  H    2.765712   1.780011   0.000000
     9  O    2.823266   2.090999   2.085722   0.000000
    10  O    1.210043   4.060544   2.861645   3.433428   0.000000
    11  H    3.642743   2.415272   2.282863   0.962813   4.053714
    12  H    2.798422   3.525292   3.648719   4.433867   3.371944
    13  O    1.347517   4.263746   3.905847   3.277735   2.246981
    14  H    1.896672   5.088891   4.483909   3.914865   2.316407
                   11         12         13         14
    11  H    0.000000
    12  H    5.222850   0.000000
    13  O    4.158865   3.543248   0.000000
    14  H    4.705009   4.260057   0.971917   0.000000
 Symmetry turned off by external request.
 Stoichiometry    C3H7NO3
 Framework group  C1[X(C3H7NO3)]
 Deg. of freedom    36
 Full point group                 C1      NOp   1
 Rotational constants (GHZ):      3.0123456      2.3802432      1.7433959
 Leave Link  202 at Sun Apr 17 21:44:23 2016, MaxMem=   33554432 cpu:       0.0
 (Enter c:\G09w02\l301.exe)
 Standard basis: 6-311++G(d,p) (5D, 7F)
 Ernie: Thresh=  0.10000D-02 Tol=  0.10000D-05 Strict=F.
 Integral buffers will be    262144 words long.
 Raffenetti 2 integral format.
 Two-electron integral symmetry is turned off.
   203 basis functions,   315 primitive gaussians,   210 cartesian basis functions
    28 alpha electrons       28 beta electrons
       nuclear repulsion energy       323.9998176689 Hartrees.
 IExCor=  402 DFT=T Ex+Corr=B3LYP ExCW=0 ScaHFX=  0.200000
 ScaDFX=  0.800000  0.720000  1.000000  0.810000 ScalE2=  1.000000  1.000000
 IRadAn=      0 IRanWt=     -1 IRanGd=            0 ICorTp=0
 NAtoms=   14 NActive=   14 NUniq=   14 SFac= 1.00D+00 NAtFMM=   50 NAOKFM=F Big=F
 ------------------------------------------------------------------------------
 Polarizable Continuum Model (PCM)
 =================================
 Model                : C-PCM.
 Atomic radii         : UFF (Universal Force Field).
 Polarization charges : Total charges.
 Charge compensation  : None.
 Solution method      : Matrix inversion.
 Cavity type          : Scaled VdW (van der Waals Surface) (Alpha=1.100).
 Cavity algorithm     : GePol (No added spheres)
                        Default sphere list used, NSphG=   14.
                        Lebedev-Laikov grids with approx.  5.0 points / Ang**2.
                        Smoothing algorithm: Karplus/York (Gamma=1.0000).
                        Polarization charges: spherical gaussians, with
                                              point-specific exponents (IZeta= 3).
                        Self-potential: point-specific (ISelfS= 7).
                        Self-field    : sphere-specific E.n sum rule (ISelfD= 2).
 1st derivatives      : Analytical E(r).r(x)/FMM algorithm (CHGder, D1EAlg=3).
                        Cavity 1st derivative terms included.
 Solvent              : Water, Eps=  78.355300 Eps(inf)=   1.777849
 ------------------------------------------------------------------------------
 Spheres list:
 ISph  on   Nord    Re0     Alpha      Xe            Ye            Ze
    1   N      1    1.830   1.100      0.150464      2.023154     -0.208510
    2   H      2    1.443   1.100     -0.107651      2.202460      0.757842
    3   C      3    1.926   1.100      0.254400      0.584535     -0.453542
    4   H      4    1.443   1.100      0.306877      0.416618     -1.530136
    5   C      5    1.926   1.100      1.539221      0.058179      0.193314
    6   C      6    1.926   1.100     -0.947486     -0.187282      0.098035
    7   H      7    1.443   1.100      2.386646      0.590284     -0.249320
    8   H      8    1.443   1.100      1.516571      0.266162      1.269349
    9   O      9    1.750   1.100      1.622820     -1.345955     -0.049753
   10   O     10    1.750   1.100     -1.316453     -0.137064      1.249359
   11   H     11    1.443   1.100      2.338801     -1.711770      0.479926
   12   H     12    1.443   1.100     -0.566089      2.437189     -0.795190
   13   O     13    1.750   1.100     -1.539417     -0.969613     -0.825749
   14   H     14    1.443   1.100     -2.274665     -1.445621     -0.404500
 ------------------------------------------------------------------------------
 GePol: Number of generator spheres                  =      14
 GePol: Total number of spheres                      =      14
 GePol: Number of exposed spheres                    =      14 (100.00%)
 GePol: Number of points                             =    1203
 GePol: Average weight of points                     =       0.14
 GePol: Minimum weight of points                     =   0.37D-07
 GePol: Maximum weight of points                     =    0.20577
 GePol: Number of points with low weight             =      61
 GePol: Fraction of low-weight points (<1% of avg)   =       5.07%
 GePol: Cavity surface area                          =    163.807 Ang**2
 GePol: Cavity volume                                =    151.934 Ang**3
 Leave Link  301 at Sun Apr 17 21:44:24 2016, MaxMem=   33554432 cpu:       1.0
 (Enter c:\G09w02\l302.exe)
 NPDir=0 NMtPBC=     1 NCelOv=     1 NCel=       1 NClECP=     1 NCelD=      1
         NCelK=      1 NCelE2=     1 NClLst=     1 CellRange=     0.0.
 One-electron integrals computed using PRISM.
 NBasis=   203 RedAO= T  NBF=   203
 NBsUse=   203 1.00D-06 NBFU=   203
 Precomputing XC quadrature grid using
 IXCGrd= 2 IRadAn=           0 IRanWt=          -1 IRanGd=           0 AccXCQ= 0.00D+00.
 NRdTot=     907 NPtTot=      115688 NUsed=      119922 NTot=      119938
 NSgBfM=   210   210   210   210   210 NAtAll=    14    14.
 Leave Link  302 at Sun Apr 17 21:44:24 2016, MaxMem=   33554432 cpu:       0.0
 (Enter c:\G09w02\l303.exe)
 DipDrv:  MaxL=1.
 Leave Link  303 at Sun Apr 17 21:44:24 2016, MaxMem=   33554432 cpu:       0.0
 (Enter c:\G09w02\l401.exe)
 Initial guess read from the read-write file.
 B after Tr=     0.000000    0.000000    0.000000
         Rot=    1.000000    0.000000    0.000000    0.000000 Ang=   0.00 deg.
 Guess basis will be translated and rotated to current coordinates.
 Generating alternative initial guess.
 Harris functional with IExCor=  402 diagonalized for initial guess.
 ExpMin= 3.60D-02 ExpMax= 8.59D+03 ExpMxC= 1.30D+03 IAcc=3 IRadAn=         0 AccDes= 0.00D+00
 HarFok:  IExCor=  402 AccDes= 0.00D+00 IRadAn=         0 IDoV= 1
 ScaDFX=  1.000000  1.000000  1.000000  1.000000
 FoFCou: FMM=F IPFlag=           0 FMFlag=      100000 FMFlg1=           0
         NFxFlg=           0 DoJE=T BraDBF=F KetDBF=T FulRan=T
         Omega=  0.000000  0.000000  1.000000  0.000000  0.000000 ICntrl=     500 IOpCl=  0
         NMat0=    1 NMatS0=    1 NMatT0=    0 NMatD0=    1 NMtDS0=    0 NMtDT0=    0
         I1Cent=           4 NGrid=           0.
 Symmetry not used in FoFCou.
 Harris En= -399.104150061174    
 Leave Link  401 at Sun Apr 17 21:44:29 2016, MaxMem=   33554432 cpu:       5.0
 (Enter c:\G09w02\l502.exe)
 Closed shell SCF:
 Requested convergence on RMS density matrix=1.00D-08 within 128 cycles.
 Requested convergence on MAX density matrix=1.00D-06.
 Requested convergence on             energy=1.00D-06.
 No special actions if energy rises.
 Using DIIS extrapolation, IDIIS=  1040.
 Two-electron integral symmetry not used.
       119798 words used for storage of precomputed grid.
 IEnd=      272663 IEndB=      272663 NGot=    33554432 MDV=    33342720
 LenX=    33342720 LenY=    33298179
 Fock matrices will be formed incrementally for  20 cycles.

 Cycle   1  Pass 1  IDiag  1:
 FoFCou: FMM=F IPFlag=           0 FMFlag=      100000 FMFlg1=           0
         NFxFlg=           0 DoJE=F BraDBF=F KetDBF=F FulRan=T
         Omega=  0.000000  0.000000  1.000000  0.000000  0.000000 ICntrl=       0 IOpCl=  0
         NMat0=    1 NMatS0=    1 NMatT0=    0 NMatD0=    1 NMtDS0=    0 NMtDT0=    0
         I1Cent=           0 NGrid=           0.
 Symmetry not used in FoFCou.
 E= -399.104354329774    
 DIIS: error= 2.22D-03 at cycle   1 NSaved=   1.
 NSaved= 1 IEnMin= 1 EnMin= -399.104354329774     IErMin= 1 ErrMin= 2.22D-03
 ErrMax= 2.22D-03 EMaxC= 1.00D-01 BMatC= 9.84D-04 BMatP= 9.84D-04
 IDIUse=3 WtCom= 9.78D-01 WtEn= 2.22D-02
 Coeff-Com:  0.100D+01
 Coeff-En:   0.100D+01
 Coeff:      0.100D+01
 Gap=     0.253 Goal=   None    Shift=    0.000
 GapD=    0.253 DampG=1.000 DampE=1.000 DampFc=1.0000 IDamp=-1.
 RMSDP=6.94D-04 MaxDP=6.32D-02              OVMax= 1.11D-02

 Cycle   2  Pass 1  IDiag  1:
 RMSU=  4.51D-04    CP:  9.84D-01
 E= -399.105931991605     Delta-E=       -0.001577661830 Rises=F Damp=F
 DIIS: error= 2.70D-04 at cycle   2 NSaved=   2.
 NSaved= 2 IEnMin= 2 EnMin= -399.105931991605     IErMin= 2 ErrMin= 2.70D-04
 ErrMax= 2.70D-04 EMaxC= 1.00D-01 BMatC= 2.04D-05 BMatP= 9.84D-04
 IDIUse=3 WtCom= 9.97D-01 WtEn= 2.70D-03
 Coeff-Com: -0.493D-01 0.105D+01
 Coeff-En:   0.000D+00 0.100D+01
 Coeff:     -0.492D-01 0.105D+01
 Gap=     0.244 Goal=   None    Shift=    0.000
 RMSDP=6.76D-05 MaxDP=4.63D-03 DE=-1.58D-03 OVMax= 1.90D-03

 Cycle   3  Pass 1  IDiag  1:
 RMSU=  3.72D-05    CP:  9.82D-01  1.06D+00
 E= -399.105949307297     Delta-E=       -0.000017315693 Rises=F Damp=F
 DIIS: error= 2.04D-04 at cycle   3 NSaved=   3.
 NSaved= 3 IEnMin= 3 EnMin= -399.105949307297     IErMin= 3 ErrMin= 2.04D-04
 ErrMax= 2.04D-04 EMaxC= 1.00D-01 BMatC= 9.96D-06 BMatP= 2.04D-05
 IDIUse=3 WtCom= 9.98D-01 WtEn= 2.04D-03
 Coeff-Com: -0.305D-01 0.439D+00 0.592D+00
 Coeff-En:   0.000D+00 0.000D+00 0.100D+01
 Coeff:     -0.304D-01 0.438D+00 0.593D+00
 Gap=     0.244 Goal=   None    Shift=    0.000
 RMSDP=2.33D-05 MaxDP=1.60D-03 DE=-1.73D-05 OVMax= 8.73D-04

 Cycle   4  Pass 1  IDiag  1:
 RMSU=  1.27D-05    CP:  9.83D-01  1.05D+00  7.53D-01
 E= -399.105954405609     Delta-E=       -0.000005098311 Rises=F Damp=F
 DIIS: error= 8.38D-05 at cycle   4 NSaved=   4.
 NSaved= 4 IEnMin= 4 EnMin= -399.105954405609     IErMin= 4 ErrMin= 8.38D-05
 ErrMax= 8.38D-05 EMaxC= 1.00D-01 BMatC= 2.70D-06 BMatP= 9.96D-06
 IDIUse=1 WtCom= 1.00D+00 WtEn= 0.00D+00
 Coeff-Com: -0.121D-01 0.151D+00 0.360D+00 0.502D+00
 Coeff:     -0.121D-01 0.151D+00 0.360D+00 0.502D+00
 Gap=     0.244 Goal=   None    Shift=    0.000
 RMSDP=1.23D-05 MaxDP=1.25D-03 DE=-5.10D-06 OVMax= 4.52D-04

 Cycle   5  Pass 1  IDiag  1:
 RMSU=  5.01D-06    CP:  9.82D-01  1.06D+00  7.81D-01  6.57D-01
 E= -399.105956133860     Delta-E=       -0.000001728251 Rises=F Damp=F
 DIIS: error= 2.05D-05 at cycle   5 NSaved=   5.
 NSaved= 5 IEnMin= 5 EnMin= -399.105956133860     IErMin= 5 ErrMin= 2.05D-05
 ErrMax= 2.05D-05 EMaxC= 1.00D-01 BMatC= 1.56D-07 BMatP= 2.70D-06
 IDIUse=1 WtCom= 1.00D+00 WtEn= 0.00D+00
 Coeff-Com: -0.374D-02 0.417D-01 0.141D+00 0.265D+00 0.557D+00
 Coeff:     -0.374D-02 0.417D-01 0.141D+00 0.265D+00 0.557D+00
 Gap=     0.244 Goal=   None    Shift=    0.000
 RMSDP=2.37D-06 MaxDP=9.47D-05 DE=-1.73D-06 OVMax= 1.65D-04

 Cycle   6  Pass 1  IDiag  1:
 RMSU=  1.37D-06    CP:  9.82D-01  1.06D+00  7.90D-01  7.16D-01  9.25D-01
 E= -399.105956230443     Delta-E=       -0.000000096583 Rises=F Damp=F
 DIIS: error= 1.09D-05 at cycle   6 NSaved=   6.
 NSaved= 6 IEnMin= 6 EnMin= -399.105956230443     IErMin= 6 ErrMin= 1.09D-05
 ErrMax= 1.09D-05 EMaxC= 1.00D-01 BMatC= 3.82D-08 BMatP= 1.56D-07
 IDIUse=1 WtCom= 1.00D+00 WtEn= 0.00D+00
 Coeff-Com:  0.123D-03-0.643D-02 0.111D-01 0.596D-01 0.360D+00 0.576D+00
 Coeff:      0.123D-03-0.643D-02 0.111D-01 0.596D-01 0.360D+00 0.576D+00
 Gap=     0.244 Goal=   None    Shift=    0.000
 RMSDP=1.24D-06 MaxDP=8.96D-05 DE=-9.66D-08 OVMax= 5.68D-05

 Cycle   7  Pass 1  IDiag  1:
 RMSU=  5.47D-07    CP:  9.82D-01  1.06D+00  7.99D-01  7.41D-01  9.12D-01
                    CP:  7.37D-01
 E= -399.105956256608     Delta-E=       -0.000000026166 Rises=F Damp=F
 DIIS: error= 4.26D-06 at cycle   7 NSaved=   7.
 NSaved= 7 IEnMin= 7 EnMin= -399.105956256608     IErMin= 7 ErrMin= 4.26D-06
 ErrMax= 4.26D-06 EMaxC= 1.00D-01 BMatC= 3.27D-09 BMatP= 3.82D-08
 IDIUse=1 WtCom= 1.00D+00 WtEn= 0.00D+00
 Coeff-Com:  0.411D-03-0.769D-02-0.726D-02 0.684D-02 0.148D+00 0.323D+00
 Coeff-Com:  0.537D+00
 Coeff:      0.411D-03-0.769D-02-0.726D-02 0.684D-02 0.148D+00 0.323D+00
 Coeff:      0.537D+00
 Gap=     0.244 Goal=   None    Shift=    0.000
 RMSDP=5.17D-07 MaxDP=4.60D-05 DE=-2.62D-08 OVMax= 1.52D-05

 Cycle   8  Pass 1  IDiag  1:
 RMSU=  1.84D-07    CP:  9.82D-01  1.06D+00  8.00D-01  7.37D-01  9.46D-01
                    CP:  7.43D-01  6.34D-01
 E= -399.105956259564     Delta-E=       -0.000000002956 Rises=F Damp=F
 DIIS: error= 4.64D-07 at cycle   8 NSaved=   8.
 NSaved= 8 IEnMin= 8 EnMin= -399.105956259564     IErMin= 8 ErrMin= 4.64D-07
 ErrMax= 4.64D-07 EMaxC= 1.00D-01 BMatC= 9.14D-11 BMatP= 3.27D-09
 IDIUse=1 WtCom= 1.00D+00 WtEn= 0.00D+00
 Coeff-Com:  0.955D-04-0.128D-02-0.384D-02-0.650D-02-0.188D-02 0.192D-01
 Coeff-Com:  0.146D+00 0.848D+00
 Coeff:      0.955D-04-0.128D-02-0.384D-02-0.650D-02-0.188D-02 0.192D-01
 Coeff:      0.146D+00 0.848D+00
 Gap=     0.244 Goal=   None    Shift=    0.000
 RMSDP=1.46D-07 MaxDP=4.86D-06 DE=-2.96D-09 OVMax= 7.15D-06

 Cycle   9  Pass 1  IDiag  1:
 RMSU=  6.94D-08    CP:  9.82D-01  1.06D+00  8.01D-01  7.39D-01  9.55D-01
                    CP:  7.66D-01  6.99D-01  9.45D-01
 E= -399.105956259678     Delta-E=       -0.000000000114 Rises=F Damp=F
 DIIS: error= 1.59D-07 at cycle   9 NSaved=   9.
 NSaved= 9 IEnMin= 9 EnMin= -399.105956259678     IErMin= 9 ErrMin= 1.59D-07
 ErrMax= 1.59D-07 EMaxC= 1.00D-01 BMatC= 1.18D-11 BMatP= 9.14D-11
 IDIUse=1 WtCom= 1.00D+00 WtEn= 0.00D+00
 Coeff-Com:  0.729D-05 0.119D-03-0.988D-03-0.306D-02-0.117D-01-0.148D-01
 Coeff-Com:  0.204D-01 0.345D+00 0.665D+00
 Coeff:      0.729D-05 0.119D-03-0.988D-03-0.306D-02-0.117D-01-0.148D-01
 Coeff:      0.204D-01 0.345D+00 0.665D+00
 Gap=     0.244 Goal=   None    Shift=    0.000
 RMSDP=2.23D-08 MaxDP=7.52D-07 DE=-1.14D-10 OVMax= 1.32D-06

 Cycle  10  Pass 1  IDiag  1:
 RMSU=  1.20D-08    CP:  9.82D-01  1.06D+00  8.01D-01  7.39D-01  9.56D-01
                    CP:  7.67D-01  7.02D-01  9.87D-01  9.40D-01
 E= -399.105956259689     Delta-E=       -0.000000000011 Rises=F Damp=F
 DIIS: error= 5.55D-08 at cycle  10 NSaved=  10.
 NSaved=10 IEnMin=10 EnMin= -399.105956259689     IErMin=10 ErrMin= 5.55D-08
 ErrMax= 5.55D-08 EMaxC= 1.00D-01 BMatC= 1.47D-12 BMatP= 1.18D-11
 IDIUse=1 WtCom= 1.00D+00 WtEn= 0.00D+00
 Coeff-Com: -0.492D-05 0.178D-03-0.164D-03-0.946D-03-0.579D-02-0.879D-02
 Coeff-Com: -0.287D-02 0.939D-01 0.318D+00 0.607D+00
 Coeff:     -0.492D-05 0.178D-03-0.164D-03-0.946D-03-0.579D-02-0.879D-02
 Coeff:     -0.287D-02 0.939D-01 0.318D+00 0.607D+00
 Gap=     0.244 Goal=   None    Shift=    0.000
 RMSDP=6.69D-09 MaxDP=4.47D-07 DE=-1.13D-11 OVMax= 3.12D-07

 Error on total polarization charges =  0.01157
 SCF Done:  E(RB3LYP) =  -399.105956260     A.U. after   10 cycles
             Convg  =    0.6694D-08             -V/T =  2.0037
 KE= 3.976365548259D+02 PE=-1.585059635662D+03 EE= 4.643173069074D+02
 Leave Link  502 at Sun Apr 17 21:46:46 2016, MaxMem=   33554432 cpu:     137.0
 (Enter c:\G09w02\l701.exe)
 Compute integral first derivatives.
 ... and contract with generalized density number  0.
 D1PCM: C-PCM CHGder 1st derivatives, ID1Alg=3 FixD1E=F DoIter=F DoCFld=F I1PDM=0.
 GePol: Maximum number of non-zero 1st derivatives   =     203
 Leave Link  701 at Sun Apr 17 21:46:50 2016, MaxMem=   33554432 cpu:       4.0
 (Enter c:\G09w02\l702.exe)
 L702 exits ... SP integral derivatives will be done elsewhere.
 Leave Link  702 at Sun Apr 17 21:46:50 2016, MaxMem=   33554432 cpu:       0.0
 (Enter c:\G09w02\l703.exe)
 Compute integral first derivatives, UseDBF=F ICtDFT=           0.
 Integral derivatives from FoFDir, PRISM(SPDF).
 Calling FoFJK, ICntrl=      2127 FMM=F ISym2X=0 I1Cent= 0 IOpClX= 0 NMat=1 NMatS=1 NMatT=0.
 FoFCou: FMM=F IPFlag=           0 FMFlag=      100000 FMFlg1=         800
         NFxFlg=           0 DoJE=F BraDBF=F KetDBF=F FulRan=T
         Omega=  0.000000  0.000000  1.000000  0.000000  0.000000 ICntrl=    2127 IOpCl=  0
         NMat0=    1 NMatS0=    1 NMatT0=    0 NMatD0=    1 NMtDS0=    0 NMtDT0=    0
         I1Cent=           0 NGrid=           0.
 Symmetry not used in FoFCou.
 Leave Link  703 at Sun Apr 17 21:47:33 2016, MaxMem=   33554432 cpu:      43.0
 (Enter c:\G09w02\l716.exe)
 Dipole        = 1.12482199D-01 1.04809991D-01-1.32666161D-01
 -------------------------------------------------------------------
 Center     Atomic                   Forces (Hartrees/Bohr)
 Number     Number              X              Y              Z
 -------------------------------------------------------------------
      1        7           0.001111709    0.000134506   -0.000213103
      2        1           0.000021103   -0.000042652    0.000174300
      3        6          -0.001856190    0.001246097   -0.000483205
      4        1           0.000120420    0.000200505   -0.000132187
      5        6          -0.000535032    0.000592434    0.000545421
      6        6           0.003691904   -0.007034357   -0.000566069
      7        1          -0.000057211    0.000108833   -0.000127477
      8        1          -0.000141259    0.000083357   -0.000109299
      9        8          -0.000300793   -0.000848200   -0.000251723
     10        8          -0.001969075    0.002476057    0.000811920
     11        1           0.000235596    0.000279231   -0.000062535
     12        1          -0.000336992   -0.000007373    0.000075016
     13        8          -0.000258946    0.002488741    0.000342726
     14        1           0.000274767    0.000322822   -0.000003784
 -------------------------------------------------------------------
 Cartesian Forces:  Max     0.007034357 RMS     0.001459198
 Leave Link  716 at Sun Apr 17 21:47:33 2016, MaxMem=   33554432 cpu:       0.0
 (Enter c:\G09w02\l103.exe)

 GradGradGradGradGradGradGradGradGradGradGradGradGradGradGradGradGradGrad
 Berny optimization.
 Using GEDIIS/GDIIS optimizer.
 Internal  Forces:  Max     0.001876409 RMS     0.000632580
 Search for a local minimum.
 Step number   2 out of a maximum of   69
 All quantities printed in internal units (Hartrees-Bohrs-Radians)
 RMS Force = .63258D-03 SwitMx=.10000D-02 MixMth= 2
 Mixed Optimization -- En-DIIS/RFO-DIIS
 Update second derivatives using D2CorX and points    1    2
 DE= -3.26D-05 DEPred=-1.97D-04 R= 1.66D-01
 Trust test= 1.66D-01 RLast= 1.49D-01 DXMaxT set to 3.00D-01
 ITU=  0  0
 Use linear search instead of GDIIS.
     Eigenvalues ---    0.00308   0.00371   0.00777   0.01325   0.02104
     Eigenvalues ---    0.02822   0.04150   0.04735   0.05298   0.05349
     Eigenvalues ---    0.06065   0.06263   0.10725   0.13523   0.14510
     Eigenvalues ---    0.16000   0.16000   0.16090   0.17449   0.18572
     Eigenvalues ---    0.21726   0.24925   0.25261   0.29360   0.29679
     Eigenvalues ---    0.33918   0.34229   0.34690   0.36637   0.41150
     Eigenvalues ---    0.44967   0.45279   0.52526   0.54376   0.55563
     Eigenvalues ---    0.96642
 RFO step:  Lambda=-3.89414865D-04 EMin= 3.07943396D-03
 Quartic linear search produced a step of -0.45410.
 Iteration  1 RMS(Cart)=  0.02822549 RMS(Int)=  0.00085047
 Iteration  2 RMS(Cart)=  0.00085349 RMS(Int)=  0.00022096
 Iteration  3 RMS(Cart)=  0.00000053 RMS(Int)=  0.00022096
 Variable       Old X    -DE/DX   Delta X   Delta X   Delta X     New X
                                 (Linear)    (Quad)   (Total)
    R1        1.92029   0.00014  -0.00007   0.00041   0.00033   1.92063
    R2        2.76473   0.00003  -0.00059   0.00196   0.00137   2.76610
    R3        1.91699   0.00020  -0.00047   0.00176   0.00129   1.91828
    R4        2.06145   0.00011   0.00020  -0.00047  -0.00028   2.06118
    R5        2.89458  -0.00074  -0.00189   0.00482   0.00293   2.89750
    R6        2.89348  -0.00027  -0.00036   0.00067   0.00031   2.89380
    R7        2.06767   0.00006   0.00067  -0.00209  -0.00142   2.06625
    R8        2.07149  -0.00009   0.00086  -0.00294  -0.00208   2.06941
    R9        2.69752   0.00061  -0.00154   0.00580   0.00426   2.70178
   R10        2.28665   0.00148  -0.00228   0.00821   0.00594   2.29259
   R11        2.54644  -0.00188   0.00147  -0.00663  -0.00516   2.54128
   R12        1.81945   0.00004  -0.00145   0.00477   0.00332   1.82277
   R13        1.83666  -0.00036  -0.00154   0.00466   0.00312   1.83978
    A1        1.92925  -0.00012  -0.00164   0.00465   0.00300   1.93225
    A2        1.87396   0.00001   0.00253  -0.00880  -0.00629   1.86768
    A3        1.93334  -0.00009   0.00343  -0.01176  -0.00834   1.92500
    A4        1.89660  -0.00009   0.00254  -0.00838  -0.00584   1.89076
    A5        1.90367  -0.00055  -0.00305   0.00772   0.00466   1.90833
    A6        1.96012   0.00076  -0.00037   0.00363   0.00325   1.96337
    A7        1.90025   0.00026  -0.00093   0.00323   0.00230   1.90255
    A8        1.89198  -0.00004   0.00326  -0.00970  -0.00643   1.88555
    A9        1.91035  -0.00035  -0.00144   0.00334   0.00189   1.91224
   A10        1.88777  -0.00027  -0.00104   0.00196   0.00092   1.88869
   A11        1.90923  -0.00010  -0.00397   0.01268   0.00871   1.91793
   A12        1.89150   0.00014  -0.00313   0.01051   0.00737   1.89887
   A13        1.89741   0.00011   0.00155  -0.00475  -0.00322   1.89419
   A14        1.94349   0.00001   0.00345  -0.01138  -0.00793   1.93555
   A15        1.93370   0.00009   0.00284  -0.00828  -0.00548   1.92822
   A16        2.16661  -0.00004  -0.00132   0.00467   0.00238   2.16898
   A17        1.97197  -0.00055  -0.00002  -0.00059  -0.00158   1.97039
   A18        2.14412   0.00067   0.00132  -0.00225  -0.00190   2.14222
   A19        1.90034  -0.00051   0.00209  -0.00853  -0.00644   1.89389
   A20        1.89602  -0.00037  -0.00961   0.03005   0.02044   1.91646
    D1        2.92066   0.00018  -0.00517   0.02229   0.01712   2.93778
    D2       -1.29320   0.00013  -0.00659   0.02576   0.01917  -1.27404
    D3        0.82768  -0.00020  -0.01074   0.03772   0.02699   0.85468
    D4        0.84571   0.00031  -0.00946   0.03776   0.02830   0.87400
    D5        2.91503   0.00025  -0.01087   0.04123   0.03035   2.94537
    D6       -1.24727  -0.00007  -0.01502   0.05319   0.03817  -1.20910
    D7       -1.03655   0.00023   0.01003  -0.02802  -0.01799  -1.05453
    D8        1.02743   0.00015   0.00909  -0.02547  -0.01640   1.01103
    D9        3.13745   0.00029   0.00830  -0.02157  -0.01326   3.12418
   D10        1.03049  -0.00004   0.01080  -0.03180  -0.02100   1.00949
   D11        3.09446  -0.00012   0.00985  -0.02926  -0.01941   3.07505
   D12       -1.07871   0.00001   0.00907  -0.02536  -0.01627  -1.09498
   D13        3.09581  -0.00013   0.01337  -0.03969  -0.02632   3.06948
   D14       -1.12341  -0.00021   0.01242  -0.03714  -0.02473  -1.14814
   D15        0.98661  -0.00007   0.01164  -0.03324  -0.02160   0.96501
   D16       -0.96691   0.00169   0.00818   0.06961   0.07782  -0.88909
   D17        2.20734  -0.00092  -0.02212   0.00807  -0.01408   2.19326
   D18       -3.06257   0.00135   0.00304   0.08427   0.08734  -2.97523
   D19        0.11168  -0.00125  -0.02725   0.02273  -0.00456   0.10712
   D20        1.15015   0.00125   0.00309   0.08413   0.08725   1.23740
   D21       -1.95878  -0.00135  -0.02721   0.02259  -0.00465  -1.96344
   D22       -2.96914  -0.00022   0.00583  -0.02455  -0.01872  -2.98786
   D23        1.23973   0.00001   0.00704  -0.02680  -0.01974   1.21999
   D24       -0.87435  -0.00019   0.00069  -0.00735  -0.00669  -0.88103
   D25        3.11526   0.00134   0.00655   0.05887   0.06527  -3.10265
   D26        0.00585  -0.00121  -0.02335  -0.00191  -0.02511  -0.01926
         Item               Value     Threshold  Converged?
 Maximum Force            0.001876     0.000450     NO 
 RMS     Force            0.000633     0.000300     NO 
 Maximum Displacement     0.086126     0.001800     NO 
 RMS     Displacement     0.028321     0.001200     NO 
 Predicted change in Energy=-2.762045D-04
 GradGradGradGradGradGradGradGradGradGradGradGradGradGradGradGradGradGrad

 Leave Link  103 at Sun Apr 17 21:47:33 2016, MaxMem=   33554432 cpu:       0.0
 (Enter c:\G09w02\l202.exe)
                          Input orientation:                          
 ---------------------------------------------------------------------
 Center     Atomic      Atomic             Coordinates (Angstroms)
 Number     Number       Type             X           Y           Z
 ---------------------------------------------------------------------
      1          7           0        0.143869    2.018185   -0.205511
      2          1           0       -0.091492    2.202138    0.765949
      3          6           0        0.256099    0.578910   -0.447340
      4          1           0        0.300172    0.414458   -1.524698
      5          6           0        1.548460    0.056040    0.190937
      6          6           0       -0.940266   -0.202652    0.102976
      7          1           0        2.392287    0.576257   -0.270449
      8          1           0        1.549164    0.275060    1.263894
      9          8           0        1.634772   -1.353568   -0.031900
     10          8           0       -1.362029   -0.098094    1.235673
     11          1           0        2.370868   -1.700943    0.485676
     12          1           0       -0.600551    2.413287   -0.771361
     13          8           0       -1.532203   -0.975130   -0.825111
     14          1           0       -2.305111   -1.422674   -0.437612
 ---------------------------------------------------------------------
                    Distance matrix (angstroms):
                    1          2          3          4          5
     1  N    0.000000
     2  H    1.016351   0.000000
     3  C    1.463758   2.056151   0.000000
     4  H    2.082456   2.931939   1.090728   0.000000
     5  C    2.445416   2.761488   1.533293   2.151765   0.000000
     6  C    2.490508   2.634951   1.531332   2.137483   2.503681
     7  H    2.671845   3.144323   2.143501   2.444640   1.093410
     8  H    2.678151   2.579405   2.166256   3.058702   1.095083
     9  O    3.690752   4.032319   2.409938   2.671239   1.429721
    10  O    2.970417   2.669452   2.430885   3.262709   3.096155
    11  H    4.389667   4.623398   3.246613   3.578310   1.962196
    12  H    1.015112   1.633110   2.050311   2.318218   3.331798
    13  O    3.486124   3.834339   2.399120   2.403742   3.403844
    14  H    4.229762   4.414514   3.250574   3.368131   4.175126
                    6          7          8          9         10
     6  C    0.000000
     7  H    3.442682   0.000000
     8  H    2.788047   1.776453   0.000000
     9  O    2.823760   2.086854   2.082989   0.000000
    10  O    1.213185   4.100980   2.935147   3.487660   0.000000
    11  H    3.654442   2.399546   2.277149   0.964568   4.131118
    12  H    2.779030   3.547206   3.651787   4.442146   3.303796
    13  O    1.344789   4.256298   3.927053   3.286660   2.246104
    14  H    1.908793   5.107760   4.542341   3.961320   2.333195
                   11         12         13         14
    11  H    0.000000
[...]
   D24       -0.97276   0.00000   0.00000   0.00040   0.00040  -0.97236
   D25        3.13602   0.00000   0.00000  -0.00003  -0.00003   3.13599
   D26       -0.02168   0.00000   0.00000  -0.00003  -0.00003  -0.02171
         Item               Value     Threshold  Converged?
 Maximum Force            0.000030     0.000450     YES
 RMS     Force            0.000007     0.000300     YES
 Maximum Displacement     0.000746     0.001800     YES
 RMS     Displacement     0.000162     0.001200     YES
 Predicted change in Energy=-7.081380D-09
 Optimization completed.
    -- Stationary point found.
                           ----------------------------
                           !   Optimized Parameters   !
                           ! (Angstroms and Degrees)  !
 --------------------------                            --------------------------
 ! Name  Definition              Value          Derivative Info.                !
 --------------------------------------------------------------------------------
 ! R1    R(1,2)                  1.0166         -DE/DX =    0.0                 !
 ! R2    R(1,3)                  1.4621         -DE/DX =    0.0                 !
 ! R3    R(1,12)                 1.0149         -DE/DX =    0.0                 !
 ! R4    R(3,4)                  1.091          -DE/DX =    0.0                 !
 ! R5    R(3,5)                  1.5312         -DE/DX =    0.0                 !
 ! R6    R(3,6)                  1.5315         -DE/DX =    0.0                 !
 ! R7    R(5,7)                  1.094          -DE/DX =    0.0                 !
 ! R8    R(5,8)                  1.0965         -DE/DX =    0.0                 !
 ! R9    R(5,9)                  1.4284         -DE/DX =    0.0                 !
 ! R10   R(6,10)                 1.2112         -DE/DX =    0.0                 !
 ! R11   R(6,13)                 1.3444         -DE/DX =    0.0                 !
 ! R12   R(9,11)                 0.963          -DE/DX =    0.0                 !
 ! R13   R(13,14)                0.9716         -DE/DX =    0.0                 !
 ! A1    A(2,1,3)              110.3142         -DE/DX =    0.0                 !
 ! A2    A(2,1,12)             107.1267         -DE/DX =    0.0                 !
 ! A3    A(3,1,12)             110.6669         -DE/DX =    0.0                 !
 ! A4    A(1,3,4)              108.7016         -DE/DX =    0.0                 !
 ! A5    A(1,3,5)              108.7265         -DE/DX =    0.0                 !
 ! A6    A(1,3,6)              112.6247         -DE/DX =    0.0                 !
 ! A7    A(4,3,5)              108.9118         -DE/DX =    0.0                 !
 ! A8    A(4,3,6)              108.4198         -DE/DX =    0.0                 !
 ! A9    A(5,3,6)              109.3929         -DE/DX =    0.0                 !
 ! A10   A(3,5,7)              108.1561         -DE/DX =    0.0                 !
 ! A11   A(3,5,8)              109.2917         -DE/DX =    0.0                 !
 ! A12   A(3,5,9)              108.4457         -DE/DX =    0.0                 !
 ! A13   A(7,5,8)              108.731          -DE/DX =    0.0                 !
 ! A14   A(7,5,9)              111.3762         -DE/DX =    0.0                 !
 ! A15   A(8,5,9)              110.7832         -DE/DX =    0.0                 !
 ! A16   A(3,6,10)             124.0701         -DE/DX =    0.0                 !
 ! A17   A(3,6,13)             112.9125         -DE/DX =    0.0                 !
 ! A18   A(10,6,13)            123.0105         -DE/DX =    0.0                 !
 ! A19   A(5,9,11)             108.6258         -DE/DX =    0.0                 !
 ! A20   A(6,13,14)            108.615          -DE/DX =    0.0                 !
 ! D1    D(2,1,3,4)            169.0667         -DE/DX =    0.0                 !
 ! D2    D(2,1,3,5)            -72.5048         -DE/DX =    0.0                 !
 ! D3    D(2,1,3,6)             48.9025         -DE/DX =    0.0                 !
 ! D4    D(12,1,3,4)            50.6908         -DE/DX =    0.0                 !
 ! D5    D(12,1,3,5)           169.1192         -DE/DX =    0.0                 !
 ! D6    D(12,1,3,6)           -69.4735         -DE/DX =    0.0                 !
 ! D7    D(1,3,5,7)            -60.0912         -DE/DX =    0.0                 !
 ! D8    D(1,3,5,8)             58.1279         -DE/DX =    0.0                 !
 ! D9    D(1,3,5,9)            178.9954         -DE/DX =    0.0                 !
 ! D10   D(4,3,5,7)             58.2046         -DE/DX =    0.0                 !
 ! D11   D(4,3,5,8)            176.4237         -DE/DX =    0.0                 !
 ! D12   D(4,3,5,9)            -62.7088         -DE/DX =    0.0                 !
 ! D13   D(6,3,5,7)            176.5445         -DE/DX =    0.0                 !
 ! D14   D(6,3,5,8)            -65.2364         -DE/DX =    0.0                 !
 ! D15   D(6,3,5,9)             55.631          -DE/DX =    0.0                 !
 ! D16   D(1,3,6,10)           -50.389          -DE/DX =    0.0                 !
 ! D17   D(1,3,6,13)           128.6767         -DE/DX =    0.0                 !
 ! D18   D(4,3,6,10)          -170.7156         -DE/DX =    0.0                 !
 ! D19   D(4,3,6,13)             8.3502         -DE/DX =    0.0                 !
 ! D20   D(5,3,6,10)            70.6384         -DE/DX =    0.0                 !
 ! D21   D(5,3,6,13)          -110.2959         -DE/DX =    0.0                 !
 ! D22   D(3,5,9,11)          -175.6755         -DE/DX =    0.0                 !
 ! D23   D(7,5,9,11)            65.4231         -DE/DX =    0.0                 !
 ! D24   D(8,5,9,11)           -55.7351         -DE/DX =    0.0                 !
 ! D25   D(3,6,13,14)          179.6807         -DE/DX =    0.0                 !
 ! D26   D(10,6,13,14)          -1.2421         -DE/DX =    0.0                 !
 --------------------------------------------------------------------------------
 GradGradGradGradGradGradGradGradGradGradGradGradGradGradGradGradGradGrad

 Leave Link  103 at Sun Apr 17 22:37:44 2016, MaxMem=   33554432 cpu:       0.0
 (Enter c:\G09w02\l9999.exe)
 1|1|UNPC-WIN-20150318OUM|Freq|RB3LYP|6-311++G(d,p)|C3H7N1O3|ADMINISTRA
 TOR|17-Apr-2016|0||#P Geom=AllCheck Guess=TCheck SCRF=Check GenChk RB3
 LYP/6-311++G(d,p) Freq||Ser-S-opt-freq-cpcm-w-6-311++gdp||0,1|N,0.1578
 481124,2.0209731165,-0.2060044006|H,-0.0749297653,2.1972643214,0.76771
 02063|C,0.2512858307,0.5829530355,-0.4532436858|H,0.3066232196,0.41598
 96296,-1.5300000484|C,1.5327110089,0.054507294,0.1974237844|C,-0.95282
 06601,-0.1885382654,0.0948306011|H,2.3832649634,0.5750073265,-0.252652
 948|H,1.512020238,0.2765338383,1.2709920709|O,1.6060571686,-1.35418220
 71,-0.0274974481|O,-1.374132461,-0.0752296158,1.2247478059|H,2.3746991
 09,-1.7003807508,0.4380692565|H,-0.5787282709,2.4341036794,-0.76892488
 31|O,-1.5150251983,-0.9989903511,-0.8186247183|H,-2.2648352948,-1.4587
 36051,-0.405700593||Version=IA32W-G09RevB.01|HF=-399.1061529|RMSD=5.75
 7e-009|RMSF=1.258e-005|ZeroPoint=0.1124129|Thermal=0.1205169|Dipole=0.
 1913604,0.0708467,-0.1701248|DipoleDeriv=-0.60512,-0.1106302,0.0774271
 ,-0.1048017,-0.8116384,0.0561079,0.0657453,0.0070171,-0.3540853,0.3019
 152,0.1086767,0.0829751,0.0627802,0.2265511,0.0574566,0.0369584,-0.017
 8554,0.094405,0.1075779,-0.1183975,-0.0229293,-0.0572001,0.5621545,-0.
 0286884,-0.0480283,0.0859521,0.2140484,0.0433524,-0.0051049,-0.0012128
 ,-0.0040479,0.0236841,-0.0167199,0.0119311,-0.0356559,-0.1128679,0.404
 8924,-0.1416116,-0.0826128,-0.1604865,1.0207471,0.0818083,-0.0075424,0
 .083688,0.4120178,1.1871841,0.6361339,-0.0579355,0.6277879,0.9495361,0
 .6483806,-0.1330829,0.6332787,2.0782342,-0.123693,-0.107493,0.0663136,
 -0.0478995,-0.0769708,0.0307248,0.0777234,0.0498096,0.0317537,0.051159
 1,0.0302552,0.0287777,0.0321449,-0.0498441,-0.0493844,-0.0238479,-0.09
 44863,-0.1807274,-0.580771,0.1984203,0.1298832,0.1927787,-1.2206445,-0
 .012472,0.1160307,0.0064355,-0.5760041,-0.8222088,-0.1206546,0.4208518
 ,-0.1948323,-0.6463437,-0.0655382,0.2346254,-0.2144335,-1.4786463,0.29
 86385,-0.0019222,-0.0943702,-0.0231424,0.3235993,-0.0356402,-0.0943361
 ,-0.0287357,0.358773,0.1323503,0.1332308,-0.1236565,0.0410619,0.220556
 2,-0.0647157,-0.0728062,-0.0645903,0.2216592,-0.7517148,-0.4607457,-0.
 4934683,-0.3402586,-0.9366804,-0.6116292,-0.2482269,-0.4223826,-0.9977
 903,0.3564378,-0.0401571,0.069957,-0.0238845,0.4152937,0.0103098,0.084
 8565,0.0119587,0.2892298|Polar=71.78264,5.5669538,74.1046903,-1.506213
 2,3.2637718,71.4811963|PG=C01 [X(C3H7N1O3)]|NImag=0||0.34977898,-0.180
 67972,0.43409710,0.08765056,0.01041814,0.65880507,-0.04934166,0.041915
 17,0.10745990,0.04725211,0.02815844,-0.05768691,-0.03788126,-0.0316668
 6,0.06943078,0.06442439,-0.06129196,-0.39276062,-0.07720808,0.06495905
 ,0.41570767,-0.06210214,-0.00135062,-0.00992251,-0.00332735,0.00834963
 ,0.00251006,0.43968491,0.03357725,-0.19980608,-0.02784927,-0.00619342,
 -0.01092781,-0.00121431,-0.00686742,0.46136438,-0.00316231,-0.01263980
 ,-0.10517893,0.00132254,-0.04126437,-0.00540331,0.00011444,0.03908486,
 0.63658539,0.00035777,0.00140431,0.00284458,0.00048325,0.00077457,0.00
 040791,-0.05008894,-0.00004396,0.01217310,0.05709528,0.00196439,-0.012
 18624,-0.03824777,0.00053808,-0.00651923,-0.00094291,0.00107721,-0.054
 50284,-0.03128584,-0.00022555,0.06699822,0.00004145,-0.00321743,-0.002
 84770,0.00004317,-0.00014521,0.00170505,0.01733681,-0.03471996,-0.3079
 1108,-0.01510112,0.04122095,0.33167051,0.00084836,0.00531012,0.0003829
 3,0.00027603,-0.00063848,0.00017475,-0.15408212,0.01855736,-0.04433956
 ,-0.00084049,-0.00065108,-0.00122904,0.53782542,0.02977061,-0.02529128
 ,0.01644018,0.00074621,0.00061161,-0.00008475,0.01348167,-0.06890548,0
 .01274724,-0.00372889,0.00150403,-0.00151819,0.04472969,0.46082192,0.0
 0590926,-0.00357708,0.00389496,0.00219513,-0.00137210,0.00088227,-0.03
 902085,0.01096845,-0.10543358,-0.03087358,0.01158658,-0.01439152,-0.03
 045867,-0.00701688,0.57903887,0.00871375,0.00034552,-0.00403625,-0.000
 51355,-0.00091202,0.00020002,-0.13575852,-0.02863406,0.02694880,0.0001
 1177,0.00180164,-0.00197091,-0.04118695,-0.00785168,0.00535771,0.50371
 381,-0.02345656,-0.03759761,0.00599133,-0.00079953,-0.00046921,0.00118
 145,-0.02030923,-0.09263661,0.02285998,0.00395820,0.00353112,-0.003351
 34,0.00361689,0.01737536,-0.01058833,0.13679528,0.37220609,-0.00269480
 ,-0.00219773,0.00198427,-0.00243649,-0.00468799,-0.00002964,0.01276402
 ,0.01660705,-0.09231735,0.02685682,0.01534717,-0.01319259,-0.00791690,
 -0.01221245,0.01026143,-0.19656073,0.08654178,0.83331873,0.00250342,-0
 .00065207,0.00021354,0.00000266,-0.00009706,-0.00005438,-0.02617791,-0
 .01135743,0.01180924,0.00150019,-0.00042947,-0.00006661,-0.20879121,-0
 .08743678,0.08667693,-0.00079085,0.00489077,-0.00419874,0.22211013,0.0
 0052599,0.00099851,-0.00014615,0.00015727,-0.00001070,0.00008178,0.008
 48144,0.00466720,-0.00405865,-0.00050521,0.00034946,-0.00005943,-0.085
 69538,-0.09282283,0.04749713,0.00112983,-0.00274116,0.00124252,0.09748
 520,0.11769305,0.00081165,-0.00105437,0.00025591,-0.00007104,0.0001677
 6,-0.00002863,-0.01632945,-0.00489639,0.00488555,0.00042572,-0.0007100
 8,0.00112483,0.09045295,0.04786042,-0.10207361,-0.00142841,0.00291743,
 -0.00230787,-0.09186207,-0.05211119,0.10153316,0.00151426,-0.00156957,
 0.00113151,-0.00024041,0.00058103,0.00033356,-0.00197647,-0.00374188,-
 0.03000662,-0.00417916,0.00203013,-0.00201043,-0.05373587,-0.00085439,
 0.00844243,0.00207099,-0.00040157,-0.00233034,0.00089587,0.00304215,0.
 02533228,0.05218783,-0.00062898,0.00120032,0.00018451,0.00027370,-0.00
 003763,-0.00015470,-0.00004433,0.00219237,0.01125280,0.00259717,-0.000
 62734,0.00065662,0.00045585,-0.05330720,-0.03300606,-0.00069065,-0.000
 08416,-0.00032722,-0.00005655,0.00509727,0.01258828,-0.00293534,0.0705
 5633,0.00033000,0.00000284,0.00128990,-0.00058793,0.00091531,0.0000157
 6,-0.00090603,-0.00196867,-0.01534141,-0.00237009,0.00084878,0.0003131
 7,0.00623599,-0.03751027,-0.29248519,0.00188367,0.00059680,-0.00147703
 ,0.00005353,-0.00128857,-0.01245595,-0.00478511,0.04788435,0.31520023,
 -0.00650837,0.00532036,-0.00471565,-0.00012297,-0.00016399,-0.00018899
 ,0.00290719,0.03389927,0.00764422,0.00144441,-0.00056330,0.00058175,-0
 .08449923,0.01871802,-0.01202052,0.00337024,-0.00132220,0.00061704,0.0
 0933480,-0.02402898,-0.00731934,0.00282885,0.00239165,0.00102397,0.412
 54909,0.00554541,-0.00334763,0.00358449,-0.00009006,0.00027966,0.00027
 419,0.00384611,-0.02513933,-0.00409437,-0.00106858,0.00110126,0.000265
 15,-0.01603679,-0.20505423,-0.03863292,-0.00364514,-0.00248220,0.00136
 844,0.00061691,-0.03594723,-0.00381361,0.00351609,-0.02685131,-0.00880
 343,-0.14937860,0.38868810,-0.00373202,0.00313987,-0.00143179,-0.00061
 125,0.00050080,-0.00009159,0.00164133,0.01568723,0.00560084,0.00165249
 ,-0.00024870,0.00105889,-0.01939822,-0.01414307,-0.07711408,0.00108345
 ,-0.00036864,-0.00120518,-0.00310213,0.01009478,0.00737114,0.00172729,
 -0.03859161,0.00187778,0.22614122,-0.03661568,0.19408867,-0.00182604,-
 0.00297811,0.00038453,0.00055030,0.00101553,-0.00023545,-0.00046460,0.
 00146980,0.03738614,-0.00628683,-0.00480971,0.00311787,0.00418028,-0.0
 0192628,0.00144275,-0.18223855,-0.00585804,0.20243348,-0.00056340,0.00
 037936,0.00001300,0.00029599,0.00028054,-0.00012766,-0.00140527,0.0014
 4251,-0.00004036,0.15352652,-0.00129006,0.00254109,0.00171125,0.000848
 67,0.00186740,0.00055903,-0.00992988,0.01207600,0.01142842,-0.00324306
 ,-0.00105546,0.00174725,-0.00158982,-0.00304172,0.00244052,0.00209942,
 -0.09196845,-0.04619422,-0.00098302,0.00068221,-0.00063536,0.00033606,
 -0.00012341,0.00001401,0.00064834,0.00094832,-0.00031963,0.00558056,0.
 07015518,0.00008533,-0.00089155,0.00136625,-0.00032124,0.00140580,0.00
 045945,0.01896375,-0.00387125,-0.02412359,0.00391825,0.00261871,-0.000
 49067,-0.00252565,0.00387526,-0.00450684,0.21766701,-0.03399749,-0.594
 56570,0.00129369,-0.00061314,0.00162219,0.00095693,-0.00010949,0.00154
 006,0.00041946,-0.00117284,0.00088779,-0.23370628,0.08416097,0.7117777
 8,0.00003320,-0.00039609,-0.00045805,-0.00005970,0.00001570,0.00000859
 ,0.00071883,0.00111932,0.00083245,0.00005477,-0.00012595,0.00003253,-0
 .00072120,-0.00468352,-0.00025975,0.00025518,-0.00072884,-0.00014876,0
 .00076764,-0.00110735,0.00001315,0.00033479,-0.00148291,-0.00036923,-0
 .33796986,0.15308188,-0.20384936,0.00014451,0.00002441,-0.00003026,0.3
 3633638,0.00170236,-0.00100632,0.00115210,0.00006029,-0.00003837,-0.00
 000095,-0.00240263,-0.00581132,-0.00251204,-0.00036501,0.00015712,0.00
 001523,0.03563241,-0.01963636,0.02081694,0.00016461,-0.00054387,-0.000
 38587,-0.00018757,0.00101322,0.00076076,0.00029015,0.00172393,-0.00052
 993,0.11139091,-0.09301388,0.05943309,-0.00002912,0.00009131,0.0000352
 1,-0.14622734,0.11726009,0.00034281,-0.00051007,0.00081198,-0.00005358
 ,0.00015727,0.00001283,0.00043602,-0.00131887,-0.00052308,0.00020949,-
 0.00008795,0.00036179,0.00802285,-0.00704688,0.00205475,-0.00050379,-0
 .00023282,-0.00008390,-0.00059546,-0.00061496,-0.00000595,0.00070459,-
 0.00044822,0.00087359,-0.21293214,0.08872721,-0.13180456,0.00011812,0.
 00004708,-0.00001448,0.20409824,-0.07855306,0.12821996,-0.23711426,0.1
 4108423,-0.18201396,0.00429561,-0.00599590,0.00938779,-0.00406855,-0.0
 0742916,0.00132122,0.00009799,-0.00004557,0.00020129,0.00065915,0.0015
 8299,0.00108910,0.00148935,-0.00151861,0.00058646,0.00043746,-0.000113
 65,0.00012830,0.00011415,-0.00020437,-0.00003359,-0.00060903,0.0007191
 2,-0.00062721,-0.00022275,0.00019943,-0.00012370,0.00015189,0.00024636
 ,0.00001584,0.23460888,0.10687972,-0.09809372,0.06368349,-0.00621871,0
 .00297479,-0.00340424,0.02769618,-0.01918018,0.02162211,-0.00012981,0.
 00160511,-0.00040943,-0.00276283,-0.00495689,-0.00248770,0.00112344,-0
 .00084564,0.00083840,0.00013511,0.00013638,-0.00015877,-0.00025660,0.0
 0004196,0.00006988,0.00205816,-0.00091024,0.00095189,-0.00020730,0.000
 42170,0.00011850,0.00009831,-0.00048655,-0.00022939,-0.12893615,0.1191
 5702,-0.14874781,0.07196922,-0.16762897,-0.03045807,0.01586793,-0.0204
 5284,0.00786374,-0.00423589,0.00549600,0.00053572,-0.00008946,0.000470
 37,-0.00047003,-0.00165919,-0.00025802,0.00066916,0.00059389,-0.000585
 90,-0.00023323,-0.00006499,-0.00012230,0.00022390,0.00008042,0.0004047
 1,0.00089637,-0.00126022,0.00068358,0.00004274,-0.00003475,0.00026669,
 0.00002839,-0.00030171,0.00000265,0.17021220,-0.08059356,0.18185993,-0
 .00560534,-0.00634917,0.00127842,0.00080974,0.00068521,0.00015570,-0.0
 0970860,-0.02196200,-0.01992751,-0.00016660,-0.00096720,-0.00111859,0.
 00002658,-0.00266688,0.00155964,-0.13716304,-0.07562351,-0.03057006,-0
 .00129552,0.00030706,-0.00018072,-0.00009861,0.00005550,-0.00037017,-0
 .00145998,0.00128791,-0.00084169,0.03360752,0.00063507,-0.01135194,-0.
 00004882,-0.00032800,0.00015783,0.00014440,0.00038837,-0.00048069,0.41
 004002,-0.00269252,-0.00373213,0.00090238,0.00051799,0.00065874,0.0000
 4593,-0.01842631,-0.00652109,-0.01852107,0.00018099,-0.00046595,-0.000
 44001,-0.00006973,-0.00583839,0.00284975,-0.07037478,-0.14437981,-0.06
 469844,-0.00160000,0.00073986,-0.00070114,-0.00000975,0.00020689,-0.00
 017386,0.00065873,0.00164612,0.00038331,-0.00045285,0.00558052,-0.0567
 0015,0.00034749,0.00023899,0.00006885,0.00030884,0.00021062,-0.0002908
 1,0.26211319,0.27151736,-0.00050168,0.00084605,0.00105740,0.00066293,0
 .00131789,-0.00009491,0.00409789,0.00054089,0.00587304,-0.00049061,0.0
 0005351,0.00179751,0.00109408,0.00006473,-0.00006971,-0.01977484,-0.05
 371261,-0.15776969,0.00011222,0.00003595,0.00017113,0.00023064,0.00000
 662,0.00020635,-0.00013241,0.00015862,0.00012990,-0.01356596,-0.058604
 71,-0.09283132,0.00011222,0.00004182,0.00009107,-0.00010831,-0.0000048
 0,-0.00005909,-0.11229263,0.03894638,0.37655753,-0.00125193,-0.0014043
 6,-0.00019956,-0.00006406,-0.00010579,0.00008415,0.00444426,-0.0023936
 8,-0.00211616,0.00041659,0.00040636,0.00014182,0.00004127,0.00011923,-
 0.00003960,-0.02207361,-0.01924303,0.00359900,0.00006671,-0.00005773,0
 .00001398,-0.00001219,-0.00001126,0.00002264,0.00014013,0.00016324,-0.
 00004353,0.00070233,0.00666388,0.00475468,0.00000238,0.00005259,-0.000
 02083,0.00001573,0.00013211,-0.00008241,-0.28908176,-0.17050130,0.1405
 5647,0.30665414,0.00062369,-0.00008909,0.00005659,-0.00008879,-0.00013
 310,-0.00000763,-0.00360182,0.00313080,-0.00461928,0.00039484,0.000110
 74,-0.00004420,-0.00085820,-0.00145853,0.00052170,-0.03135141,-0.01936
 386,0.00875856,-0.00032807,0.00014477,-0.00021374,-0.00002651,0.000011
 98,-0.00005725,0.00037164,0.00008259,0.00009636,0.00609312,0.00182531,
 0.00514147,0.00006491,0.00005200,0.00004181,0.00010243,-0.00007435,0.0
 0001911,-0.15757555,-0.11986173,0.07030967,0.18617973,0.13562248,-0.00
 075681,-0.00099612,0.00038227,0.00006399,0.00005912,0.00007853,0.00045
 078,-0.00281386,-0.00220848,-0.00018868,-0.00006298,0.00033144,-0.0000
 2549,0.00020384,0.00020028,-0.02953489,-0.01843142,0.01797043,-0.00004
 655,0.00000491,0.00003041,0.00004936,-0.00001631,0.00003804,-0.0000149
 8,0.00001497,-0.00005138,0.00273709,0.00368014,-0.00138761,-0.00001017
 ,0.00002842,0.00000334,-0.00003544,0.00000361,-0.00007681,0.17398241,0
 .09832886,-0.13505921,-0.14667063,-0.08000319,0.11974876||0.00000402,-
 0.00001340,-0.00000922,0.00000716,0.00000250,-0.00000980,-0.00000545,0
 .00001471,-0.00000375,0.00000499,-0.00000290,0.00000042,0.00000397,-0.
 00003578,0.00000095,0.00001458,0.00003023,0.00003537,0.00000407,-0.000
 00334,0.00000510,-0.00000234,0.00000351,0.00000267,-0.00000684,0.00002
 152,0.00001238,-0.00000852,-0.00000015,-0.00001553,-0.00000563,-0.0000
 0440,0.00001043,0.00000910,-0.00000128,-0.00000827,-0.00001366,-0.0000
 1645,-0.00001898,-0.00000546,0.00000522,-0.00000177|||@


 HE THAT RISETH LATE MUST TROT ALL DAY.

                  -- BENJAMIN FRANKLIN
 Job cpu time:  0 days  0 hours 20 minutes 29.0 seconds.
 File lengths (MBytes):  RWF=     77 Int=      0 D2E=      0 Chk=      7 Scr=      1
 Normal termination of Gaussian 09 at Sun Apr 17 22:37:44 2016.
