 Entering Link 1 = c:\G09w04\l1.exe PID=      5588.
  
 Copyright (c) 1988,1990,1992,1993,1995,1998,2003,2009,2010,
            Gaussian, Inc.  All Rights Reserved.
  
 This is part of the Gaussian(R) 09 program.  It is based on
 the Gaussian(R) 03 system (copyright 2003, Gaussian, Inc.),
 the Gaussian(R) 98 system (copyright 1998, Gaussian, Inc.),
 the Gaussian(R) 94 system (copyright 1995, Gaussian, Inc.),
 the Gaussian 92(TM) system (copyright 1992, Gaussian, Inc.),
 the Gaussian 90(TM) system (copyright 1990, Gaussian, Inc.),
 the Gaussian 88(TM) system (copyright 1988, Gaussian, Inc.),
 the Gaussian 86(TM) system (copyright 1986, Carnegie Mellon
 University), and the Gaussian 82(TM) system (copyright 1983,
 Carnegie Mellon University). Gaussian is a federally registered
 trademark of Gaussian, Inc.
  
 This software contains proprietary and confidential information,
 including trade secrets, belonging to Gaussian, Inc.
  
 This software is provided under written license and may be
 used, copied, transmitted, or stored only in accord with that
 written license.
  
 The following legend is applicable only to US Government
 contracts under FAR:
  
                    RESTRICTED RIGHTS LEGEND
  
 Use, reproduction and disclosure by the US Government is
 subject to restrictions as set forth in subparagraphs (a)
 and (c) of the Commercial Computer Software - Restricted
 Rights clause in FAR 52.227-19.
  
 Gaussian, Inc.
 340 Quinnipiac St., Bldg. 40, Wallingford CT 06492
  
  
 ---------------------------------------------------------------
 Warning -- This program may not be used in any manner that
 competes with the business of Gaussian, Inc. or will provide
 assistance to any competitor of Gaussian, Inc.  The licensee
 of this program is prohibited from giving any competitor of
 Gaussian, Inc. access to this program.  By using this program,
 the user acknowledges that Gaussian, Inc. is engaged in the
 business of creating and licensing software in the field of
 computational chemistry and represents and warrants to the
 licensee that it is not a competitor of Gaussian, Inc. and that
 it will not use this program in any manner prohibited above.
 ---------------------------------------------------------------
  

 Cite this work as:
 Gaussian 09, Revision B.01,
 M. J. Frisch, G. W. Trucks, H. B. Schlegel, G. E. Scuseria, 
 M. A. Robb, J. R. Cheeseman, G. Scalmani, V. Barone, B. Mennucci, 
 G. A. Petersson, H. Nakatsuji, M. Caricato, X. Li, H. P. Hratchian, 
 A. F. Izmaylov, J. Bloino, G. Zheng, J. L. Sonnenberg, M. Hada, 
 M. Ehara, K. Toyota, R. Fukuda, J. Hasegawa, M. Ishida, T. Nakajima, 
 Y. Honda, O. Kitao, H. Nakai, T. Vreven, J. A. Montgomery, Jr., 
 J. E. Peralta, F. Ogliaro, M. Bearpark, J. J. Heyd, E. Brothers, 
 K. N. Kudin, V. N. Staroverov, T. Keith, R. Kobayashi, J. Normand, 
 K. Raghavachari, A. Rendell, J. C. Burant, S. S. Iyengar, J. Tomasi, 
 M. Cossi, N. Rega, J. M. Millam, M. Klene, J. E. Knox, J. B. Cross, 
 V. Bakken, C. Adamo, J. Jaramillo, R. Gomperts, R. E. Stratmann, 
 O. Yazyev, A. J. Austin, R. Cammi, C. Pomelli, J. W. Ochterski, 
 R. L. Martin, K. Morokuma, V. G. Zakrzewski, G. A. Voth, 
 P. Salvador, J. J. Dannenberg, S. Dapprich, A. D. Daniels, 
 O. Farkas, J. B. Foresman, J. V. Ortiz, J. Cioslowski, 
 and D. J. Fox, Gaussian, Inc., Wallingford CT, 2010.
 
 ******************************************
 Gaussian 09:  IA32W-G09RevB.01 12-Aug-2010
                19-Apr-2016 
 ******************************************
 %chk=Val-S-opt-freq-cpcm-w-pa3-6-311++gdp.chk
 -----------------------------------------------------------------
 #p opt freq rb3lyp/6-311++g(d,p) scrf=(cpcm,solvent=water) nosymm
 -----------------------------------------------------------------
 1/14=-1,18=20,19=15,26=3,38=1/1,3;
 2/9=110,12=2,15=1,17=6,18=5,40=1/2;
 3/5=4,6=6,7=1111,11=2,16=1,25=1,30=1,70=2101,71=1,72=1,74=-5,116=1/1,2,3;
 4//1;
 5/5=2,38=5,53=1/2;
 6/7=2,8=2,9=2,10=2,28=1/1;
 7/30=1/1,2,3,16;
 1/14=-1,18=20,19=15/3(2);
 2/9=110,15=1/2;
 99//99;
 2/9=110,15=1/2;
 3/5=4,6=6,7=1111,11=2,16=1,25=1,30=1,70=2105,71=1,72=1,74=-5,116=1/1,2,3;
 4/5=5,16=3/1;
 5/5=2,38=5,53=1/2;
 7/30=1/1,2,3,16;
 1/14=-1,18=20,19=15/3(-5);
 2/9=110,15=1/2;
 6/7=2,8=2,9=2,10=2,19=2,28=1/1;
 99/9=1/99;
 Leave Link    1 at Tue Apr 19 19:09:05 2016, MaxMem=          0 cpu:       0.0
 (Enter c:\G09w04\l101.exe)
 ------------------------------------
 Val-S-opt-freq-cpcm-w-pa3-6-311++gdp
 ------------------------------------
 Symbolic Z-matrix:
 Charge =  0 Multiplicity = 1
 N                    -0.34962   1.68972   1.27606 
 H                     0.00397   1.56359   2.21896 
 C                    -0.24491   0.4977    0.50048 
 H                    -0.50603  -0.84187  -1.75372 
 C                     1.13033  -0.15421   0.52234 
 C                    -1.27955   0.09371  -0.24749 
 C                     1.10152  -1.67377   0.75907 
 O                    -2.5262    0.6565   -0.10501 
 H                     0.64458  -2.21269  -0.07383 
 H                     2.12053  -2.05208   0.88158 
 H                     0.53878  -1.91721   1.66407 
 H                    -1.30327   2.02895   1.32781 
 O                    -1.28034  -0.91783  -1.18481 
 H                    -1.06512   0.73181   0.96237 
 H                     1.63886   0.28623   1.38756 
 C                     1.97745   0.2164   -0.71105 
 H                     2.00366   1.29876  -0.85822 
 H                     3.00606  -0.1366   -0.59113 
 H                     1.58738  -0.23786  -1.62861 
 
 NAtoms=     19 NQM=     19 NQMF=      0 NMic=      0 NMicF=      0 NTot=     19.
                    Isotopes and Nuclear Properties:
 (Nuclear quadrupole moments (NQMom) in fm**2, nuclear magnetic moments (NMagM)
  in nuclear magnetons)

  Atom         1           2           3           4           5           6           7           8           9          10
 IAtWgt=          14           1          12           1          12          12          12          16           1           1
 AtmWgt=  14.0030740   1.0078250  12.0000000   1.0078250  12.0000000  12.0000000  12.0000000  15.9949146   1.0078250   1.0078250
 NucSpn=           2           1           0           1           0           0           0           0           1           1
 AtZEff=   0.0000000   0.0000000   0.0000000   0.0000000   0.0000000   0.0000000   0.0000000   0.0000000   0.0000000   0.0000000
 NQMom=    2.0440000   0.0000000   0.0000000   0.0000000   0.0000000   0.0000000   0.0000000   0.0000000   0.0000000   0.0000000
 NMagM=    0.4037610   2.7928460   0.0000000   2.7928460   0.0000000   0.0000000   0.0000000   0.0000000   2.7928460   2.7928460

  Atom        11          12          13          14          15          16          17          18          19
 IAtWgt=           1           1          16           1           1          12           1           1           1
 AtmWgt=   1.0078250   1.0078250  15.9949146   1.0078250   1.0078250  12.0000000   1.0078250   1.0078250   1.0078250
 NucSpn=           1           1           0           1           1           0           1           1           1
 AtZEff=   0.0000000   0.0000000   0.0000000   0.0000000   0.0000000   0.0000000   0.0000000   0.0000000   0.0000000
 NQMom=    0.0000000   0.0000000   0.0000000   0.0000000   0.0000000   0.0000000   0.0000000   0.0000000   0.0000000
 NMagM=    2.7928460   2.7928460   0.0000000   2.7928460   2.7928460   0.0000000   2.7928460   2.7928460   2.7928460
 Leave Link  101 at Tue Apr 19 19:09:05 2016, MaxMem=   33554432 cpu:       0.0
 (Enter c:\G09w04\l103.exe)

 GradGradGradGradGradGradGradGradGradGradGradGradGradGradGradGradGradGrad
 Berny optimization.
 Initialization pass.
                           ----------------------------
                           !    Initial Parameters    !
                           ! (Angstroms and Degrees)  !
 --------------------------                            --------------------------
 ! Name  Definition              Value          Derivative Info.                !
 --------------------------------------------------------------------------------
 ! R1    R(1,2)                  1.0149         estimate D2E/DX2                !
 ! R2    R(1,3)                  1.426          estimate D2E/DX2                !
 ! R3    R(1,12)                 1.0135         estimate D2E/DX2                !
 ! R4    R(1,14)                 1.2361         estimate D2E/DX2                !
 ! R5    R(3,5)                  1.5221         estimate D2E/DX2                !
 ! R6    R(3,6)                  1.3391         estimate D2E/DX2                !
 ! R7    R(3,14)                 0.97           estimate D2E/DX2                !
 ! R8    R(4,13)                 0.9638         estimate D2E/DX2                !
 ! R9    R(5,7)                  1.5382         estimate D2E/DX2                !
 ! R10   R(5,15)                 1.096          estimate D2E/DX2                !
 ! R11   R(5,16)                 1.5415         estimate D2E/DX2                !
 ! R12   R(6,8)                  1.3752         estimate D2E/DX2                !
 ! R13   R(6,13)                 1.379          estimate D2E/DX2                !
 ! R14   R(6,14)                 1.3845         estimate D2E/DX2                !
 ! R15   R(7,9)                  1.0922         estimate D2E/DX2                !
 ! R16   R(7,10)                 1.0938         estimate D2E/DX2                !
 ! R17   R(7,11)                 1.0931         estimate D2E/DX2                !
 ! R18   R(16,17)                1.0926         estimate D2E/DX2                !
 ! R19   R(16,18)                1.0941         estimate D2E/DX2                !
 ! R20   R(16,19)                1.0956         estimate D2E/DX2                !
 ! A1    A(2,1,3)              112.0764         estimate D2E/DX2                !
 ! A2    A(2,1,12)             108.783          estimate D2E/DX2                !
 ! A3    A(2,1,14)             109.946          estimate D2E/DX2                !
 ! A4    A(3,1,12)             112.1272         estimate D2E/DX2                !
 ! A5    A(12,1,14)             74.1982         estimate D2E/DX2                !
 ! A6    A(1,3,5)              114.6181         estimate D2E/DX2                !
 ! A7    A(1,3,6)              119.9507         estimate D2E/DX2                !
 ! A8    A(5,3,6)              125.2339         estimate D2E/DX2                !
 ! A9    A(5,3,14)             149.3769         estimate D2E/DX2                !
 ! A10   A(3,5,7)              114.105          estimate D2E/DX2                !
 ! A11   A(3,5,15)             104.9783         estimate D2E/DX2                !
 ! A12   A(3,5,16)             112.4616         estimate D2E/DX2                !
 ! A13   A(7,5,15)             106.511          estimate D2E/DX2                !
 ! A14   A(7,5,16)             111.7736         estimate D2E/DX2                !
 ! A15   A(15,5,16)            106.2631         estimate D2E/DX2                !
 ! A16   A(3,6,8)              121.2709         estimate D2E/DX2                !
 ! A17   A(3,6,13)             126.969          estimate D2E/DX2                !
 ! A18   A(8,6,13)             111.7209         estimate D2E/DX2                !
 ! A19   A(8,6,14)              82.0244         estimate D2E/DX2                !
 ! A20   A(13,6,14)            158.7619         estimate D2E/DX2                !
 ! A21   A(5,7,9)              112.2049         estimate D2E/DX2                !
 ! A22   A(5,7,10)             109.9658         estimate D2E/DX2                !
 ! A23   A(5,7,11)             110.9194         estimate D2E/DX2                !
 ! A24   A(9,7,10)             107.7282         estimate D2E/DX2                !
 ! A25   A(9,7,11)             107.8229         estimate D2E/DX2                !
 ! A26   A(10,7,11)            108.0488         estimate D2E/DX2                !
 ! A27   A(4,13,6)             110.0551         estimate D2E/DX2                !
 ! A28   A(1,14,6)             131.9564         estimate D2E/DX2                !
 ! A29   A(5,16,17)            111.0451         estimate D2E/DX2                !
 ! A30   A(5,16,18)            110.5723         estimate D2E/DX2                !
 ! A31   A(5,16,19)            112.0088         estimate D2E/DX2                !
 ! A32   A(17,16,18)           108.1689         estimate D2E/DX2                !
 ! A33   A(17,16,19)           107.8453         estimate D2E/DX2                !
 ! A34   A(18,16,19)           107.0222         estimate D2E/DX2                !
 ! D1    D(2,1,3,5)            -50.3184         estimate D2E/DX2                !
 ! D2    D(2,1,3,6)            134.5228         estimate D2E/DX2                !
 ! D3    D(12,1,3,5)          -173.0017         estimate D2E/DX2                !
 ! D4    D(12,1,3,6)            11.8394         estimate D2E/DX2                !
 ! D5    D(2,1,14,6)          -146.138          estimate D2E/DX2                !
 ! D6    D(12,1,14,6)          109.1902         estimate D2E/DX2                !
 ! D7    D(1,3,5,7)            133.4428         estimate D2E/DX2                !
 ! D8    D(1,3,5,15)            17.2109         estimate D2E/DX2                !
 ! D9    D(1,3,5,16)           -97.8959         estimate D2E/DX2                !
 ! D10   D(6,3,5,7)            -51.6933         estimate D2E/DX2                !
 ! D11   D(6,3,5,15)          -167.9253         estimate D2E/DX2                !
 ! D12   D(6,3,5,16)            76.968          estimate D2E/DX2                !
 ! D13   D(14,3,5,7)            64.2318         estimate D2E/DX2                !
 ! D14   D(14,3,5,15)          -52.0002         estimate D2E/DX2                !
 ! D15   D(14,3,5,16)         -167.1069         estimate D2E/DX2                !
 ! D16   D(1,3,6,8)            -12.0797         estimate D2E/DX2                !
 ! D17   D(1,3,6,13)           170.3916         estimate D2E/DX2                !
 ! D18   D(5,3,6,8)            173.3101         estimate D2E/DX2                !
 ! D19   D(5,3,6,13)            -4.2187         estimate D2E/DX2                !
 ! D20   D(3,5,7,9)             66.8702         estimate D2E/DX2                !
 ! D21   D(3,5,7,10)          -173.2476         estimate D2E/DX2                !
 ! D22   D(3,5,7,11)           -53.7905         estimate D2E/DX2                !
 ! D23   D(15,5,7,9)          -177.7924         estimate D2E/DX2                !
 ! D24   D(15,5,7,10)          -57.9102         estimate D2E/DX2                !
 ! D25   D(15,5,7,11)           61.5468         estimate D2E/DX2                !
 ! D26   D(16,5,7,9)           -62.1385         estimate D2E/DX2                !
 ! D27   D(16,5,7,10)           57.7437         estimate D2E/DX2                !
 ! D28   D(16,5,7,11)          177.2008         estimate D2E/DX2                !
 ! D29   D(3,5,16,17)           51.0897         estimate D2E/DX2                !
 ! D30   D(3,5,16,18)          171.1741         estimate D2E/DX2                !
 ! D31   D(3,5,16,19)          -69.5532         estimate D2E/DX2                !
 ! D32   D(7,5,16,17)         -179.0419         estimate D2E/DX2                !
 ! D33   D(7,5,16,18)          -58.9575         estimate D2E/DX2                !
 ! D34   D(7,5,16,19)           60.3153         estimate D2E/DX2                !
 ! D35   D(15,5,16,17)         -63.2367         estimate D2E/DX2                !
 ! D36   D(15,5,16,18)          56.8478         estimate D2E/DX2                !
 ! D37   D(15,5,16,19)         176.1205         estimate D2E/DX2                !
 ! D38   D(3,6,13,4)           -46.0348         estimate D2E/DX2                !
 ! D39   D(8,6,13,4)           136.2388         estimate D2E/DX2                !
 ! D40   D(14,6,13,4)          -95.9738         estimate D2E/DX2                !
 ! D41   D(8,6,14,1)          -111.8469         estimate D2E/DX2                !
 ! D42   D(13,6,14,1)          115.9994         estimate D2E/DX2                !
 --------------------------------------------------------------------------------
 Trust Radius=3.00D-01 FncErr=1.00D-07 GrdErr=1.00D-06
 Number of steps in this run=    106 maximum allowed number of steps=    114.
 GradGradGradGradGradGradGradGradGradGradGradGradGradGradGradGradGradGrad

 Leave Link  103 at Tue Apr 19 19:09:05 2016, MaxMem=   33554432 cpu:       0.0
 (Enter c:\G09w04\l202.exe)
                          Input orientation:                          
 ---------------------------------------------------------------------
 Center     Atomic      Atomic             Coordinates (Angstroms)
 Number     Number       Type             X           Y           Z
 ---------------------------------------------------------------------
      1          7           0       -0.349621    1.689717    1.276061
      2          1           0        0.003967    1.563588    2.218964
      3          6           0       -0.244905    0.497698    0.500484
      4          1           0       -0.506026   -0.841874   -1.753718
      5          6           0        1.130328   -0.154205    0.522344
      6          6           0       -1.279552    0.093711   -0.247495
      7          6           0        1.101523   -1.673774    0.759069
      8          8           0       -2.526196    0.656503   -0.105012
      9          1           0        0.644579   -2.212690   -0.073833
     10          1           0        2.120529   -2.052080    0.881583
     11          1           0        0.538781   -1.917211    1.664067
     12          1           0       -1.303274    2.028952    1.327809
     13          8           0       -1.280341   -0.917825   -1.184813
     14          1           0       -1.065122    0.731807    0.962369
     15          1           0        1.638864    0.286234    1.387559
     16          6           0        1.977452    0.216396   -0.711054
     17          1           0        2.003659    1.298762   -0.858220
     18          1           0        3.006063   -0.136601   -0.591135
     19          1           0        1.587378   -0.237859   -1.628611
 ---------------------------------------------------------------------
                    Distance matrix (angstroms):
                    1          2          3          4          5
     1  N    0.000000
     2  H    1.014889   0.000000
     3  C    1.425971   2.037457   0.000000
     4  H    3.951326   4.672103   2.635159   0.000000
     5  C    2.481610   2.664211   1.522078   2.886347   0.000000
     6  C    2.394416   3.145056   1.339094   1.934520   2.541975
     7  C    3.699483   3.717047   2.568078   3.096832   1.538167
     8  O    2.777116   3.553223   2.365615   3.007400   3.797498
     9  H    4.247285   4.464032   2.909850   2.454596   2.197439
    10  H    4.500922   4.397895   3.498840   3.912570   2.170594
    11  H    3.734935   3.565094   2.792826   3.732188   2.182120
    12  H    1.013515   1.649121   2.036995   4.286380   3.367101
    13  O    3.704243   4.403698   2.432295   0.963839   3.051037
    14  H    1.236097   1.847659   0.970000   3.188446   2.408036
    15  H    2.436446   2.235119   2.092894   3.967468   1.095989
    16  C    3.396258   3.780817   2.546728   2.893915   1.541504
    17  H    3.200926   3.679397   2.746602   3.418005   2.186270
    18  H    4.252349   4.449706   3.487515   3.766136   2.181405
    19  H    3.988061   4.533898   2.903679   2.182390   2.200568
                    6          7          8          9         10
     6  C    0.000000
     7  C    3.131564   0.000000
     8  O    1.375194   4.397405   0.000000
     9  H    3.008642   1.092224   4.276337   0.000000
    10  H    4.176097   1.093846   5.468258   1.765515   0.000000
    11  H    3.317260   1.093143   4.375812   1.766012   1.769858
    12  H    2.495457   4.451595   2.330693   4.873424   5.345687
    13  O    1.379047   3.165977   2.279613   2.572211   4.137927
    14  H    1.384528   3.243841   1.810997   3.559053   4.231421
    15  H    3.350764   2.127291   4.439886   3.060864   2.440435
    16  C    3.292114   2.549756   4.565504   2.843072   2.775418
    17  H    3.550297   3.502205   4.636745   3.846122   3.777395
    18  H    4.305535   2.795215   5.609921   3.186590   2.573350
    19  H    3.199486   2.828237   4.476911   2.684430   3.142725
                   11         12         13         14         15
    11  H    0.000000
    12  H    4.367887   0.000000
    13  O    3.524783   3.872633   0.000000
    14  H    3.175246   1.368520   2.716246   0.000000
    15  H    2.478267   3.420060   4.072912   2.773240   0.000000
    16  C    3.501893   4.266789   3.481971   3.510448   2.126898
    17  H    4.341691   4.030844   3.975497   3.612948   2.490344
    18  H    3.787346   5.190602   4.397275   4.443203   2.441977
    19  H    3.842071   4.715371   2.980457   3.832647   3.061798
                   16         17         18         19
    16  C    0.000000
    17  H    1.092639   0.000000
    18  H    1.094088   1.770993   0.000000
    19  H    1.095635   1.768614   1.760476   0.000000
 Symmetry turned off by external request.
 Stoichiometry    C5H11NO2
 Framework group  C1[X(C5H11NO2)]
 Deg. of freedom    51
 Full point group                 C1      NOp   1
 Rotational constants (GHZ):      2.6610455      1.5921896      1.2650454
 Leave Link  202 at Tue Apr 19 19:09:05 2016, MaxMem=   33554432 cpu:       0.0
 (Enter c:\G09w04\l301.exe)
 Standard basis: 6-311++G(d,p) (5D, 7F)
 Ernie: Thresh=  0.10000D-02 Tol=  0.10000D-05 Strict=F.
 Integral buffers will be    262144 words long.
 Raffenetti 2 integral format.
 Two-electron integral symmetry is turned off.
   253 basis functions,   387 primitive gaussians,   261 cartesian basis functions
    32 alpha electrons       32 beta electrons
       nuclear repulsion energy       408.5535929684 Hartrees.
 IExCor=  402 DFT=T Ex+Corr=B3LYP ExCW=0 ScaHFX=  0.200000
 ScaDFX=  0.800000  0.720000  1.000000  0.810000 ScalE2=  1.000000  1.000000
 IRadAn=      0 IRanWt=     -1 IRanGd=            0 ICorTp=0
 NAtoms=   19 NActive=   19 NUniq=   19 SFac= 1.00D+00 NAtFMM=   50 NAOKFM=F Big=F
 ------------------------------------------------------------------------------
 Polarizable Continuum Model (PCM)
 =================================
 Model                : C-PCM.
 Atomic radii         : UFF (Universal Force Field).
 Polarization charges : Total charges.
 Charge compensation  : None.
 Solution method      : Matrix inversion.
 Cavity type          : Scaled VdW (van der Waals Surface) (Alpha=1.100).
 Cavity algorithm     : GePol (No added spheres)
                        Default sphere list used, NSphG=   19.
                        Lebedev-Laikov grids with approx.  5.0 points / Ang**2.
                        Smoothing algorithm: Karplus/York (Gamma=1.0000).
                        Polarization charges: spherical gaussians, with
                                              point-specific exponents (IZeta= 3).
                        Self-potential: point-specific (ISelfS= 7).
                        Self-field    : sphere-specific E.n sum rule (ISelfD= 2).
 1st derivatives      : Analytical E(r).r(x)/FMM algorithm (CHGder, D1EAlg=3).
                        Cavity 1st derivative terms included.
 Solvent              : Water, Eps=  78.355300 Eps(inf)=   1.777849
 ------------------------------------------------------------------------------
 Spheres list:
 ISph  on   Nord    Re0     Alpha      Xe            Ye            Ze
    1   N      1    1.830   1.100     -0.349621      1.689717      1.276061
    2   H      2    1.443   1.100      0.003967      1.563588      2.218964
    3   C      3    1.926   1.100     -0.244905      0.497698      0.500484
    4   H      4    1.443   1.100     -0.506026     -0.841874     -1.753718
    5   C      5    1.926   1.100      1.130328     -0.154205      0.522344
    6   C      6    1.926   1.100     -1.279552      0.093711     -0.247495
    7   C      7    1.926   1.100      1.101523     -1.673774      0.759069
    8   O      8    1.750   1.100     -2.526196      0.656503     -0.105012
    9   H      9    1.443   1.100      0.644579     -2.212690     -0.073833
   10   H     10    1.443   1.100      2.120529     -2.052080      0.881583
   11   H     11    1.443   1.100      0.538781     -1.917211      1.664067
   12   H     12    1.443   1.100     -1.303274      2.028952      1.327809
   13   O     13    1.750   1.100     -1.280341     -0.917825     -1.184813
   14   H     14    1.443   1.100     -1.065122      0.731807      0.962369
   15   H     15    1.443   1.100      1.638864      0.286234      1.387559
   16   C     16    1.926   1.100      1.977452      0.216396     -0.711054
   17   H     17    1.443   1.100      2.003659      1.298762     -0.858220
   18   H     18    1.443   1.100      3.006063     -0.136601     -0.591135
   19   H     19    1.443   1.100      1.587378     -0.237859     -1.628611
 ------------------------------------------------------------------------------
 GePol: Number of generator spheres                  =      19
 GePol: Total number of spheres                      =      19
 GePol: Number of exposed spheres                    =      19 (100.00%)
 GePol: Number of points                             =    1399
 GePol: Average weight of points                     =       0.13
 GePol: Minimum weight of points                     =   0.26D-10
 GePol: Maximum weight of points                     =    0.20577
 GePol: Number of points with low weight             =      89
 GePol: Fraction of low-weight points (<1% of avg)   =       6.36%
 GePol: Cavity surface area                          =    186.270 Ang**2
 GePol: Cavity volume                                =    183.651 Ang**3
 Leave Link  301 at Tue Apr 19 19:09:05 2016, MaxMem=   33554432 cpu:       0.0
 (Enter c:\G09w04\l302.exe)
 NPDir=0 NMtPBC=     1 NCelOv=     1 NCel=       1 NClECP=     1 NCelD=      1
         NCelK=      1 NCelE2=     1 NClLst=     1 CellRange=     0.0.
 One-electron integrals computed using PRISM.
 NBasis=   253 RedAO= T  NBF=   253
 NBsUse=   253 1.00D-06 NBFU=   253
 Precomputing XC quadrature grid using
 IXCGrd= 2 IRadAn=           0 IRanWt=          -1 IRanGd=           0 AccXCQ= 0.00D+00.
 NRdTot=    1231 NPtTot=      157136 NUsed=      162879 NTot=      162895
 NSgBfM=   261   261   261   261   261 NAtAll=    19    19.
 Leave Link  302 at Tue Apr 19 19:09:06 2016, MaxMem=   33554432 cpu:       1.0
 (Enter c:\G09w04\l303.exe)
 DipDrv:  MaxL=1.
 Leave Link  303 at Tue Apr 19 19:09:07 2016, MaxMem=   33554432 cpu:       1.0
 (Enter c:\G09w04\l401.exe)
 Harris functional with IExCor=  402 diagonalized for initial guess.
 ExpMin= 3.60D-02 ExpMax= 8.59D+03 ExpMxC= 1.30D+03 IAcc=3 IRadAn=         0 AccDes= 0.00D+00
 HarFok:  IExCor=  402 AccDes= 0.00D+00 IRadAn=         0 IDoV= 1
 ScaDFX=  1.000000  1.000000  1.000000  1.000000
 FoFCou: FMM=F IPFlag=           0 FMFlag=      100000 FMFlg1=           0
         NFxFlg=           0 DoJE=T BraDBF=F KetDBF=T FulRan=T
         Omega=  0.000000  0.000000  1.000000  0.000000  0.000000 ICntrl=     500 IOpCl=  0
         NMat0=    1 NMatS0=    1 NMatT0=    0 NMatD0=    1 NMtDS0=    0 NMtDT0=    0
         I1Cent=           4 NGrid=           0.
 Symmetry not used in FoFCou.
 Harris En= -402.316919524281    
 Leave Link  401 at Tue Apr 19 19:09:20 2016, MaxMem=   33554432 cpu:      13.0
 (Enter c:\G09w04\l502.exe)
 Closed shell SCF:
 Requested convergence on RMS density matrix=1.00D-08 within 128 cycles.
 Requested convergence on MAX density matrix=1.00D-06.
 Requested convergence on             energy=1.00D-06.
 No special actions if energy rises.
 Using DIIS extrapolation, IDIIS=  1040.
 Two-electron integral symmetry not used.
       162714 words used for storage of precomputed grid.
 IEnd=      388233 IEndB=      388233 NGot=    33554432 MDV=    33251222
 LenX=    33251222 LenY=    33182660
 Fock matrices will be formed incrementally for  20 cycles.

 Cycle   1  Pass 1  IDiag  1:
 FoFCou: FMM=F IPFlag=           0 FMFlag=      100000 FMFlg1=           0
         NFxFlg=           0 DoJE=F BraDBF=F KetDBF=F FulRan=T
         Omega=  0.000000  0.000000  1.000000  0.000000  0.000000 ICntrl=       0 IOpCl=  0
         NMat0=    1 NMatS0=    1 NMatT0=    0 NMatD0=    1 NMtDS0=    0 NMtDT0=    0
         I1Cent=           0 NGrid=           0.
 Symmetry not used in FoFCou.
 E= -401.999422451305    
 DIIS: error= 3.21D-02 at cycle   1 NSaved=   1.
 NSaved= 1 IEnMin= 1 EnMin= -401.999422451305     IErMin= 1 ErrMin= 3.21D-02
 ErrMax= 3.21D-02 EMaxC= 1.00D-01 BMatC= 3.43D-01 BMatP= 3.43D-01
 IDIUse=3 WtCom= 6.79D-01 WtEn= 3.21D-01
 Coeff-Com:  0.100D+01
 Coeff-En:   0.100D+01
 Coeff:      0.100D+01
 Gap=     0.189 Goal=   None    Shift=    0.000
 GapD=    0.189 DampG=1.000 DampE=0.500 DampFc=0.5000 IDamp=-1.
 Damping current iteration by 5.00D-01
 RMSDP=2.26D-02 MaxDP=2.64D+00              OVMax= 2.81D-01

 Cycle   2  Pass 1  IDiag  1:
 RMSU=  7.43D-03    CP:  1.21D+00
 E= -402.073176017081     Delta-E=       -0.073753565776 Rises=F Damp=T
 DIIS: error= 1.51D-02 at cycle   2 NSaved=   2.
 NSaved= 2 IEnMin= 2 EnMin= -402.073176017081     IErMin= 2 ErrMin= 1.51D-02
 ErrMax= 1.51D-02 EMaxC= 1.00D-01 BMatC= 4.84D-02 BMatP= 3.43D-01
 IDIUse=3 WtCom= 8.49D-01 WtEn= 1.51D-01
 Coeff-Com:  0.208D+00 0.792D+00
 Coeff-En:   0.351D+00 0.649D+00
 Coeff:      0.230D+00 0.770D+00
 Gap=     0.217 Goal=   None    Shift=    0.000
 RMSDP=9.91D-03 MaxDP=1.29D+00 DE=-7.38D-02 OVMax= 2.15D-01

 Cycle   3  Pass 1  IDiag  1:
 RMSU=  2.85D-03    CP:  9.57D-01  2.79D-01
 E= -402.235745697479     Delta-E=       -0.162569680398 Rises=F Damp=F
 DIIS: error= 1.74D-02 at cycle   3 NSaved=   3.
 NSaved= 3 IEnMin= 3 EnMin= -402.235745697479     IErMin= 2 ErrMin= 1.51D-02
 ErrMax= 1.74D-02 EMaxC= 1.00D-01 BMatC= 5.22D-02 BMatP= 4.84D-02
 IDIUse=3 WtCom= 8.26D-01 WtEn= 1.74D-01
 Coeff-Com:  0.735D-01 0.505D+00 0.421D+00
 Coeff-En:   0.000D+00 0.000D+00 0.100D+01
 Coeff:      0.607D-01 0.417D+00 0.522D+00
 Gap=     0.213 Goal=   None    Shift=    0.000
 RMSDP=2.52D-03 MaxDP=1.53D-01 DE=-1.63D-01 OVMax= 1.08D-01

 Cycle   4  Pass 1  IDiag  1:
 RMSU=  1.43D-03    CP:  1.01D+00  3.60D-01  8.45D-01
 E= -402.265328444486     Delta-E=       -0.029582747007 Rises=F Damp=F
 DIIS: error= 7.92D-03 at cycle   4 NSaved=   4.
 NSaved= 4 IEnMin= 4 EnMin= -402.265328444486     IErMin= 4 ErrMin= 7.92D-03
 ErrMax= 7.92D-03 EMaxC= 1.00D-01 BMatC= 1.46D-02 BMatP= 4.84D-02
 IDIUse=3 WtCom= 9.21D-01 WtEn= 7.92D-02
 Coeff-Com:  0.689D-02 0.952D-01 0.349D+00 0.549D+00
 Coeff-En:   0.000D+00 0.000D+00 0.269D+00 0.731D+00
 Coeff:      0.634D-02 0.876D-01 0.342D+00 0.564D+00
 Gap=     0.207 Goal=   None    Shift=    0.000
 RMSDP=1.35D-03 MaxDP=1.35D-01 DE=-2.96D-02 OVMax= 4.48D-02

 Cycle   5  Pass 1  IDiag  1:
 RMSU=  3.18D-04    CP:  9.74D-01  3.15D-01  9.49D-01  5.98D-01
 E= -402.276442173920     Delta-E=       -0.011113729434 Rises=F Damp=F
 DIIS: error= 1.24D-03 at cycle   5 NSaved=   5.
 NSaved= 5 IEnMin= 5 EnMin= -402.276442173920     IErMin= 5 ErrMin= 1.24D-03
 ErrMax= 1.24D-03 EMaxC= 1.00D-01 BMatC= 4.89D-04 BMatP= 1.46D-02
 IDIUse=3 WtCom= 9.88D-01 WtEn= 1.24D-02
 Coeff-Com: -0.116D-02 0.185D-01 0.151D+00 0.312D+00 0.520D+00
 Coeff-En:   0.000D+00 0.000D+00 0.000D+00 0.000D+00 0.100D+01
 Coeff:     -0.115D-02 0.183D-01 0.149D+00 0.308D+00 0.526D+00
 Gap=     0.204 Goal=   None    Shift=    0.000
 RMSDP=1.83D-04 MaxDP=1.09D-02 DE=-1.11D-02 OVMax= 8.90D-03

 Cycle   6  Pass 1  IDiag  1:
 RMSU=  9.52D-05    CP:  9.72D-01  3.14D-01  9.42D-01  6.33D-01  7.99D-01
 E= -402.276838312890     Delta-E=       -0.000396138970 Rises=F Damp=F
 DIIS: error= 2.95D-04 at cycle   6 NSaved=   6.
 NSaved= 6 IEnMin= 6 EnMin= -402.276838312890     IErMin= 6 ErrMin= 2.95D-04
 ErrMax= 2.95D-04 EMaxC= 1.00D-01 BMatC= 3.17D-05 BMatP= 4.89D-04
 IDIUse=3 WtCom= 9.97D-01 WtEn= 2.95D-03
 Coeff-Com: -0.132D-02-0.156D-02 0.272D-01 0.772D-01 0.263D+00 0.636D+00
 Coeff-En:   0.000D+00 0.000D+00 0.000D+00 0.000D+00 0.000D+00 0.100D+01
 Coeff:     -0.132D-02-0.156D-02 0.272D-01 0.769D-01 0.262D+00 0.637D+00
 Gap=     0.204 Goal=   None    Shift=    0.000
 RMSDP=8.64D-05 MaxDP=6.69D-03 DE=-3.96D-04 OVMax= 1.58D-03

 Cycle   7  Pass 1  IDiag  1:
 RMSU=  3.36D-05    CP:  9.74D-01  3.16D-01  9.48D-01  6.44D-01  8.06D-01
                    CP:  6.68D-01
 E= -402.276863850890     Delta-E=       -0.000025538000 Rises=F Damp=F
 DIIS: error= 5.43D-05 at cycle   7 NSaved=   7.
 NSaved= 7 IEnMin= 7 EnMin= -402.276863850890     IErMin= 7 ErrMin= 5.43D-05
 ErrMax= 5.43D-05 EMaxC= 1.00D-01 BMatC= 2.01D-06 BMatP= 3.17D-05
 IDIUse=1 WtCom= 1.00D+00 WtEn= 0.00D+00
 Coeff-Com: -0.452D-03-0.139D-02 0.835D-02 0.268D-01 0.117D+00 0.320D+00
 Coeff-Com:  0.530D+00
 Coeff:     -0.452D-03-0.139D-02 0.835D-02 0.268D-01 0.117D+00 0.320D+00
 Coeff:      0.530D+00
 Gap=     0.204 Goal=   None    Shift=    0.000
 RMSDP=1.86D-05 MaxDP=1.53D-03 DE=-2.55D-05 OVMax= 3.69D-04

 Cycle   8  Pass 1  IDiag  1:
 RMSU=  7.14D-06    CP:  9.74D-01  3.15D-01  9.48D-01  6.45D-01  8.07D-01
                    CP:  6.89D-01  7.91D-01
 E= -402.276865378543     Delta-E=       -0.000001527653 Rises=F Damp=F
 DIIS: error= 2.51D-05 at cycle   8 NSaved=   8.
 NSaved= 8 IEnMin= 8 EnMin= -402.276865378543     IErMin= 8 ErrMin= 2.51D-05
 ErrMax= 2.51D-05 EMaxC= 1.00D-01 BMatC= 2.45D-07 BMatP= 2.01D-06
 IDIUse=1 WtCom= 1.00D+00 WtEn= 0.00D+00
 Coeff-Com:  0.630D-04-0.465D-03-0.253D-03 0.158D-03 0.151D-01 0.460D-01
 Coeff-Com:  0.267D+00 0.672D+00
 Coeff:      0.630D-04-0.465D-03-0.253D-03 0.158D-03 0.151D-01 0.460D-01
 Coeff:      0.267D+00 0.672D+00
 Gap=     0.204 Goal=   None    Shift=    0.000
 RMSDP=6.97D-06 MaxDP=6.95D-04 DE=-1.53D-06 OVMax= 1.75D-04

 Cycle   9  Pass 1  IDiag  1:
 RMSU=  2.64D-06    CP:  9.73D-01  3.15D-01  9.48D-01  6.45D-01  8.18D-01
                    CP:  6.84D-01  8.12D-01  8.21D-01
 E= -402.276865561502     Delta-E=       -0.000000182959 Rises=F Damp=F
 DIIS: error= 7.24D-06 at cycle   9 NSaved=   9.
 NSaved= 9 IEnMin= 9 EnMin= -402.276865561502     IErMin= 9 ErrMin= 7.24D-06
 ErrMax= 7.24D-06 EMaxC= 1.00D-01 BMatC= 2.59D-08 BMatP= 2.45D-07
 IDIUse=1 WtCom= 1.00D+00 WtEn= 0.00D+00
 Coeff-Com:  0.529D-04-0.174D-03-0.559D-03-0.125D-02 0.265D-02 0.853D-02
 Coeff-Com:  0.124D+00 0.378D+00 0.489D+00
 Coeff:      0.529D-04-0.174D-03-0.559D-03-0.125D-02 0.265D-02 0.853D-02
 Coeff:      0.124D+00 0.378D+00 0.489D+00
 Gap=     0.204 Goal=   None    Shift=    0.000
 RMSDP=2.31D-06 MaxDP=3.07D-04 DE=-1.83D-07 OVMax= 3.64D-05

 Cycle  10  Pass 1  IDiag  1:
 RMSU=  5.60D-07    CP:  9.73D-01  3.15D-01  9.48D-01  6.45D-01  8.15D-01
                    CP:  6.83D-01  8.33D-01  8.53D-01  7.17D-01
 E= -402.276865580963     Delta-E=       -0.000000019462 Rises=F Damp=F
 DIIS: error= 2.23D-06 at cycle  10 NSaved=  10.
 NSaved=10 IEnMin=10 EnMin= -402.276865580963     IErMin=10 ErrMin= 2.23D-06
 ErrMax= 2.23D-06 EMaxC= 1.00D-01 BMatC= 1.30D-09 BMatP= 2.59D-08
 IDIUse=1 WtCom= 1.00D+00 WtEn= 0.00D+00
 Coeff-Com:  0.861D-05-0.182D-04-0.245D-03-0.557D-03-0.462D-03-0.156D-02
 Coeff-Com:  0.247D-01 0.867D-01 0.213D+00 0.679D+00
 Coeff:      0.861D-05-0.182D-04-0.245D-03-0.557D-03-0.462D-03-0.156D-02
 Coeff:      0.247D-01 0.867D-01 0.213D+00 0.679D+00
 Gap=     0.204 Goal=   None    Shift=    0.000
 RMSDP=3.33D-07 MaxDP=1.13D-05 DE=-1.95D-08 OVMax= 9.15D-06

 Cycle  11  Pass 1  IDiag  1:
 RMSU=  1.81D-07    CP:  9.73D-01  3.15D-01  9.48D-01  6.45D-01  8.15D-01
                    CP:  6.84D-01  8.36D-01  8.58D-01  7.27D-01  8.65D-01
 E= -402.276865582002     Delta-E=       -0.000000001039 Rises=F Damp=F
 DIIS: error= 6.59D-07 at cycle  11 NSaved=  11.
 NSaved=11 IEnMin=11 EnMin= -402.276865582002     IErMin=11 ErrMin= 6.59D-07
 ErrMax= 6.59D-07 EMaxC= 1.00D-01 BMatC= 1.15D-10 BMatP= 1.30D-09
 IDIUse=1 WtCom= 1.00D+00 WtEn= 0.00D+00
 Coeff-Com: -0.371D-05 0.118D-04-0.692D-04-0.129D-03-0.428D-03-0.131D-02
 Coeff-Com:  0.491D-03 0.544D-02 0.441D-01 0.249D+00 0.703D+00
 Coeff:     -0.371D-05 0.118D-04-0.692D-04-0.129D-03-0.428D-03-0.131D-02
 Coeff:      0.491D-03 0.544D-02 0.441D-01 0.249D+00 0.703D+00
 Gap=     0.204 Goal=   None    Shift=    0.000
 RMSDP=1.40D-07 MaxDP=1.00D-05 DE=-1.04D-09 OVMax= 3.15D-06

 Cycle  12  Pass 1  IDiag  1:
 RMSU=  4.31D-08    CP:  9.73D-01  3.15D-01  9.48D-01  6.45D-01  8.15D-01
                    CP:  6.83D-01  8.37D-01  8.60D-01  7.46D-01  8.90D-01
                    CP:  9.63D-01
 E= -402.276865582091     Delta-E=       -0.000000000089 Rises=F Damp=F
 DIIS: error= 2.14D-07 at cycle  12 NSaved=  12.
 NSaved=12 IEnMin=12 EnMin= -402.276865582091     IErMin=12 ErrMin= 2.14D-07
 ErrMax= 2.14D-07 EMaxC= 1.00D-01 BMatC= 1.46D-11 BMatP= 1.15D-10
 IDIUse=1 WtCom= 1.00D+00 WtEn= 0.00D+00
 Coeff-Com: -0.339D-05 0.808D-05-0.171D-04-0.163D-04-0.185D-03-0.526D-03
 Coeff-Com: -0.196D-02-0.502D-02 0.347D-02 0.644D-01 0.353D+00 0.587D+00
 Coeff:     -0.339D-05 0.808D-05-0.171D-04-0.163D-04-0.185D-03-0.526D-03
 Coeff:     -0.196D-02-0.502D-02 0.347D-02 0.644D-01 0.353D+00 0.587D+00
 Gap=     0.204 Goal=   None    Shift=    0.000
 RMSDP=3.02D-08 MaxDP=1.38D-06 DE=-8.89D-11 OVMax= 6.82D-07

 Cycle  13  Pass 1  IDiag  1:
 RMSU=  1.31D-08    CP:  9.73D-01  3.15D-01  9.48D-01  6.45D-01  8.15D-01
                    CP:  6.83D-01  8.37D-01  8.60D-01  7.46D-01  8.98D-01
                    CP:  9.76D-01  8.23D-01
 E= -402.276865582120     Delta-E=       -0.000000000028 Rises=F Damp=F
 DIIS: error= 4.52D-08 at cycle  13 NSaved=  13.
 NSaved=13 IEnMin=13 EnMin= -402.276865582120     IErMin=13 ErrMin= 4.52D-08
 ErrMax= 4.52D-08 EMaxC= 1.00D-01 BMatC= 4.59D-13 BMatP= 1.46D-11
 IDIUse=1 WtCom= 1.00D+00 WtEn= 0.00D+00
 Coeff-Com: -0.676D-06 0.158D-05-0.160D-05 0.195D-05-0.240D-04-0.553D-04
 Coeff-Com: -0.431D-03-0.118D-02-0.159D-02-0.112D-02 0.346D-01 0.146D+00
 Coeff-Com:  0.824D+00
 Coeff:     -0.676D-06 0.158D-05-0.160D-05 0.195D-05-0.240D-04-0.553D-04
 Coeff:     -0.431D-03-0.118D-02-0.159D-02-0.112D-02 0.346D-01 0.146D+00
 Coeff:      0.824D+00
 Gap=     0.204 Goal=   None    Shift=    0.000
 RMSDP=6.57D-09 MaxDP=3.61D-07 DE=-2.83D-11 OVMax= 2.10D-07

 Error on total polarization charges =  0.01461
 SCF Done:  E(RB3LYP) =  -402.276865582     A.U. after   13 cycles
             Convg  =    0.6574D-08             -V/T =  2.0029
 KE= 4.011098003659D+02 PE=-1.756781421625D+03 EE= 5.448411627089D+02
 Leave Link  502 at Tue Apr 19 19:18:50 2016, MaxMem=   33554432 cpu:     570.0
 (Enter c:\G09w04\l601.exe)
 Copying SCF densities to generalized density rwf, IOpCl= 0 IROHF=0.

 **********************************************************************

            Population analysis using the SCF density.

 **********************************************************************

 Alpha  occ. eigenvalues --  -19.17194 -19.08186 -14.37798 -10.30832 -10.22751
 Alpha  occ. eigenvalues --  -10.20905 -10.17241 -10.16677  -1.09497  -1.05181
 Alpha  occ. eigenvalues --   -0.94491  -0.82246  -0.77813  -0.69702  -0.64556
 Alpha  occ. eigenvalues --   -0.62578  -0.56197  -0.54442  -0.50862  -0.47684
 Alpha  occ. eigenvalues --   -0.45115  -0.42906  -0.42406  -0.40248  -0.39462
 Alpha  occ. eigenvalues --   -0.37590  -0.36601  -0.35522  -0.34670  -0.30851
 Alpha  occ. eigenvalues --   -0.26963  -0.21874
 Alpha virt. eigenvalues --   -0.01496  -0.00786   0.00840   0.01308   0.01530
 Alpha virt. eigenvalues --    0.03626   0.03998   0.04088   0.04512   0.05571
 Alpha virt. eigenvalues --    0.05949   0.06943   0.07638   0.07859   0.08649
 Alpha virt. eigenvalues --    0.09420   0.09814   0.10331   0.10982   0.11760
 Alpha virt. eigenvalues --    0.11825   0.12955   0.13451   0.14104   0.14270
 Alpha virt. eigenvalues --    0.14640   0.14899   0.15565   0.15894   0.16506
 Alpha virt. eigenvalues --    0.16872   0.17492   0.18375   0.18804   0.19253
 Alpha virt. eigenvalues --    0.20228   0.20590   0.20724   0.22070   0.22911
 Alpha virt. eigenvalues --    0.23377   0.24896   0.25476   0.25961   0.26691
 Alpha virt. eigenvalues --    0.26945   0.27306   0.28870   0.29412   0.30397
 Alpha virt. eigenvalues --    0.30972   0.31152   0.31903   0.32302   0.34004
 Alpha virt. eigenvalues --    0.34607   0.35383   0.38120   0.39708   0.40714
 Alpha virt. eigenvalues --    0.41477   0.43578   0.44760   0.46897   0.47700
 Alpha virt. eigenvalues --    0.51109   0.52860   0.54879   0.56060   0.58346
 Alpha virt. eigenvalues --    0.59253   0.60443   0.61565   0.63184   0.64323
 Alpha virt. eigenvalues --    0.65545   0.66442   0.67193   0.67262   0.68306
 Alpha virt. eigenvalues --    0.68753   0.70851   0.71791   0.73529   0.75754
 Alpha virt. eigenvalues --    0.77536   0.80173   0.82582   0.83400   0.85215
 Alpha virt. eigenvalues --    0.87428   0.89542   0.92115   0.94528   0.97037
 Alpha virt. eigenvalues --    0.99930   1.03141   1.08570   1.10301   1.11912
 Alpha virt. eigenvalues --    1.13610   1.16165   1.18258   1.20348   1.21850
 Alpha virt. eigenvalues --    1.22930   1.26174   1.30274   1.33733   1.35367
 Alpha virt. eigenvalues --    1.40509   1.42373   1.44428   1.46869   1.48125
 Alpha virt. eigenvalues --    1.48996   1.51951   1.53891   1.55044   1.57844
 Alpha virt. eigenvalues --    1.58528   1.58744   1.62198   1.63024   1.64427
 Alpha virt. eigenvalues --    1.65556   1.68325   1.69790   1.70803   1.72449
 Alpha virt. eigenvalues --    1.74526   1.75578   1.76321   1.78195   1.80030
 Alpha virt. eigenvalues --    1.80613   1.86724   1.88279   1.95129   1.97629
 Alpha virt. eigenvalues --    1.99209   2.03113   2.06057   2.06990   2.08371
 Alpha virt. eigenvalues --    2.12895   2.14281   2.16494   2.25289   2.29738
 Alpha virt. eigenvalues --    2.31390   2.34909   2.37827   2.41489   2.46947
 Alpha virt. eigenvalues --    2.48919   2.49680   2.51500   2.52559   2.54125
 Alpha virt. eigenvalues --    2.55498   2.56122   2.60257   2.62695   2.64054
 Alpha virt. eigenvalues --    2.66944   2.69161   2.71248   2.72923   2.74145
 Alpha virt. eigenvalues --    2.76445   2.77829   2.82283   2.84189   2.86747
 Alpha virt. eigenvalues --    2.90218   2.90734   2.95174   2.98350   2.99953
 Alpha virt. eigenvalues --    3.02560   3.06171   3.08327   3.12953   3.13315
 Alpha virt. eigenvalues --    3.17476   3.19025   3.22223   3.26141   3.35287
 Alpha virt. eigenvalues --    3.38906   3.44242   3.58572   3.71327   3.77316
 Alpha virt. eigenvalues --    3.79349   3.82214   3.82971   3.85995   3.92089
 Alpha virt. eigenvalues --    4.07843   4.09520   4.21059   4.28929   4.35113
 Alpha virt. eigenvalues --    4.75049   4.86385   5.04466   5.07912   5.18164
 Alpha virt. eigenvalues --    5.37939   5.56033   5.80400  23.70457  23.83707
 Alpha virt. eigenvalues --   23.96163  23.98239  24.34630  35.55748  49.88276
 Alpha virt. eigenvalues --   49.97589
          Condensed to atoms (all electrons):
              1          2          3          4          5          6
     1  N    6.881550   0.355678  -0.259229  -0.005967  -0.231680   0.194155
     2  H    0.355678   0.381447  -0.064539  -0.000727  -0.001074   0.027501
     3  C   -0.259229  -0.064539  10.590782  -0.096162  -1.635681  -1.860959
     4  H   -0.005967  -0.000727  -0.096162   0.462494   0.006509   0.161278
     5  C   -0.231680  -0.001074  -1.635681   0.006509   8.089941  -0.786030
     6  C    0.194155   0.027501  -1.860959   0.161278  -0.786030   8.220359
     7  C   -0.005323  -0.001335   0.505638  -0.026825  -0.236319  -0.334921
     8  O   -0.063737   0.005583  -0.391515   0.011831   0.080106   0.461792
     9  H    0.000084  -0.000016  -0.024815   0.000560   0.064743   0.004097
    10  H    0.001618   0.000978   0.005734  -0.000401  -0.033528  -0.021347
    11  H   -0.000233  -0.001490  -0.036191   0.000101  -0.054532   0.048985
    12  H    0.311275  -0.021755   0.053735  -0.000810   0.068980  -0.130425
    13  O   -0.037805   0.001639  -0.088391   0.225714   0.230091  -0.074879
    14  H    0.054367  -0.002691  -0.763775   0.017310   0.038925   0.473727
    15  H   -0.017985   0.007185  -0.017999   0.004212   0.479915   0.019040
    16  C    0.010916   0.003011  -0.058205  -0.041910  -0.094547  -0.050047
    17  H    0.018616   0.000076  -0.025641  -0.002049  -0.045907  -0.026098
    18  H   -0.002870   0.000178   0.027231   0.000444  -0.073579  -0.002281
    19  H   -0.005931   0.000006  -0.024844   0.001620   0.111790  -0.018821
              7          8          9         10         11         12
     1  N   -0.005323  -0.063737   0.000084   0.001618  -0.000233   0.311275
     2  H   -0.001335   0.005583  -0.000016   0.000978  -0.001490  -0.021755
     3  C    0.505638  -0.391515  -0.024815   0.005734  -0.036191   0.053735
     4  H   -0.026825   0.011831   0.000560  -0.000401   0.000101  -0.000810
     5  C   -0.236319   0.080106   0.064743  -0.033528  -0.054532   0.068980
     6  C   -0.334921   0.461792   0.004097  -0.021347   0.048985  -0.130425
     7  C    5.734438  -0.020511   0.352709   0.408054   0.402902   0.014382
     8  O   -0.020511   8.486822   0.003205   0.000707  -0.001836   0.036385
     9  H    0.352709   0.003205   0.554207  -0.038019  -0.043987  -0.002298
    10  H    0.408054   0.000707  -0.038019   0.561665  -0.028548   0.000356
    11  H    0.402902  -0.001836  -0.043987  -0.028548   0.558897   0.001206
    12  H    0.014382   0.036385  -0.002298   0.000356   0.001206   0.410820
    13  O   -0.012089  -0.117165  -0.005914   0.006887  -0.007976   0.009890
    14  H   -0.138744   0.115969   0.003159  -0.002941   0.002528  -0.010637
    15  H   -0.086119   0.000452   0.019469  -0.007824  -0.013982  -0.009209
    16  C    0.001868  -0.011827  -0.047986  -0.007169   0.021592   0.007373
    17  H    0.026040   0.000664  -0.002579   0.000859  -0.002100   0.001921
    18  H    0.003046   0.000256   0.004402  -0.004572  -0.000256   0.000233
    19  H   -0.023173  -0.000141   0.010244   0.005273  -0.002777  -0.001402
             13         14         15         16         17         18
     1  N   -0.037805   0.054367  -0.017985   0.010916   0.018616  -0.002870
     2  H    0.001639  -0.002691   0.007185   0.003011   0.000076   0.000178
     3  C   -0.088391  -0.763775  -0.017999  -0.058205  -0.025641   0.027231
     4  H    0.225714   0.017310   0.004212  -0.041910  -0.002049   0.000444
     5  C    0.230091   0.038925   0.479915  -0.094547  -0.045907  -0.073579
     6  C   -0.074879   0.473727   0.019040  -0.050047  -0.026098  -0.002281
     7  C   -0.012089  -0.138744  -0.086119   0.001868   0.026040   0.003046
     8  O   -0.117165   0.115969   0.000452  -0.011827   0.000664   0.000256
     9  H   -0.005914   0.003159   0.019469  -0.047986  -0.002579   0.004402
    10  H    0.006887  -0.002941  -0.007824  -0.007169   0.000859  -0.004572
    11  H   -0.007976   0.002528  -0.013982   0.021592  -0.002100  -0.000256
    12  H    0.009890  -0.010637  -0.009209   0.007373   0.001921   0.000233
    13  O    8.096443   0.013578  -0.003076   0.005556   0.002689   0.000507
    14  H    0.013578   0.922544   0.002454   0.027412  -0.017996   0.002227
    15  H   -0.003076   0.002454   0.594871  -0.131746  -0.012243  -0.009786
    16  C    0.005556   0.027412  -0.131746   5.734879   0.421550   0.420662
    17  H    0.002689  -0.017996  -0.012243   0.421550   0.551137  -0.022165
    18  H    0.000507   0.002227  -0.009786   0.420662  -0.022165   0.530383
    19  H   -0.011186  -0.004771   0.016419   0.302609  -0.041210  -0.037954
             19
     1  N   -0.005931
     2  H    0.000006
     3  C   -0.024844
     4  H    0.001620
     5  C    0.111790
     6  C   -0.018821
     7  C   -0.023173
     8  O   -0.000141
     9  H    0.010244
    10  H    0.005273
    11  H   -0.002777
    12  H   -0.001402
    13  O   -0.011186
    14  H   -0.004771
    15  H    0.016419
    16  C    0.302609
    17  H   -0.041210
    18  H   -0.037954
    19  H    0.582449
 Mulliken atomic charges:
              1
     1  N   -0.197499
     2  H    0.310346
     3  C    0.164825
     4  H    0.282780
     5  C    0.021875
     6  C   -0.305126
     7  C   -0.563717
     8  O   -0.597042
     9  H    0.148736
    10  H    0.152216
    11  H    0.157697
    12  H    0.259979
    13  O   -0.234514
    14  H    0.267353
    15  H    0.165953
    16  C   -0.513992
    17  H    0.174435
    18  H    0.163893
    19  H    0.141799
 Sum of Mulliken atomic charges =   0.00000
 Mulliken charges with hydrogens summed into heavy atoms:
              1
     1  N    0.372826
     3  C    0.432178
     5  C    0.187829
     6  C   -0.305126
     7  C   -0.105067
     8  O   -0.597042
    13  O    0.048267
    16  C   -0.033865
 Sum of Mulliken charges with hydrogens summed into heavy atoms =   0.00000
 Electronic spatial extent (au):  <R**2>=           1063.2869
 Charge=              0.0000 electrons
 Dipole moment (field-independent basis, Debye):
    X=              7.8150    Y=              0.1383    Z=              3.4510  Tot=              8.5442
 Quadrupole moment (field-independent basis, Debye-Ang):
   XX=            -69.3399   YY=            -51.6185   ZZ=            -40.3897
   XY=             -0.2438   XZ=             -4.8060   YZ=              5.3537
 Traceless Quadrupole moment (field-independent basis, Debye-Ang):
   XX=            -15.5572   YY=              2.1642   ZZ=             13.3930
   XY=             -0.2438   XZ=             -4.8060   YZ=              5.3537
 Octapole moment (field-independent basis, Debye-Ang**2):
  XXX=             79.9185  YYY=             -3.0517  ZZZ=             -6.3013  XYY=              5.5564
  XXY=             -8.4956  XXZ=              5.8469  XZZ=              5.7004  YZZ=              8.0978
  YYZ=              2.4123  XYZ=             -3.1445
 Hexadecapole moment (field-independent basis, Debye-Ang**3):
 XXXX=           -873.4593 YYYY=           -399.9895 ZZZZ=           -227.2798 XXXY=             86.3064
 XXXZ=            -37.0677 YYYX=             53.1374 YYYZ=            -24.4088 ZZZX=            -23.8568
 ZZZY=             -1.2993 XXYY=           -191.0274 XXZZ=           -174.0778 YYZZ=            -90.5562
 XXYZ=             -8.3675 YYXZ=            -20.0089 ZZXY=             15.3950
 N-N= 4.085535929684D+02 E-N=-1.756781419614D+03  KE= 4.011098003659D+02
 No NMR shielding tensors so no spin-rotation constants.
 Leave Link  601 at Tue Apr 19 19:18:50 2016, MaxMem=   33554432 cpu:       0.0
 (Enter c:\G09w04\l701.exe)
 Compute integral first derivatives.
 ... and contract with generalized density number  0.
 D1PCM: C-PCM CHGder 1st derivatives, ID1Alg=3 FixD1E=F DoIter=F DoCFld=F I1PDM=0.
 GePol: Maximum number of non-zero 1st derivatives   =     204
 Leave Link  701 at Tue Apr 19 19:19:00 2016, MaxMem=   33554432 cpu:      10.0
 (Enter c:\G09w04\l702.exe)
 L702 exits ... SP integral derivatives will be done elsewhere.
 Leave Link  702 at Tue Apr 19 19:19:00 2016, MaxMem=   33554432 cpu:       0.0
 (Enter c:\G09w04\l703.exe)
 Compute integral first derivatives, UseDBF=F ICtDFT=           0.
 Integral derivatives from FoFDir, PRISM(SPDF).
 Calling FoFJK, ICntrl=      2127 FMM=F ISym2X=0 I1Cent= 0 IOpClX= 0 NMat=1 NMatS=1 NMatT=0.
 FoFCou: FMM=F IPFlag=           0 FMFlag=      100000 FMFlg1=         800
         NFxFlg=           0 DoJE=F BraDBF=F KetDBF=F FulRan=T
         Omega=  0.000000  0.000000  1.000000  0.000000  0.000000 ICntrl=    2127 IOpCl=  0
         NMat0=    1 NMatS0=    1 NMatT0=    0 NMatD0=    1 NMtDS0=    0 NMtDT0=    0
         I1Cent=           0 NGrid=           0.
 Symmetry not used in FoFCou.
 Leave Link  703 at Tue Apr 19 19:21:07 2016, MaxMem=   33554432 cpu:     127.0
 (Enter c:\G09w04\l716.exe)
 Dipole        = 3.07465400D+00 5.44048084D-02 1.35774440D+00
 -------------------------------------------------------------------
 Center     Atomic                   Forces (Hartrees/Bohr)
 Number     Number              X              Y              Z
 -------------------------------------------------------------------
      1        7           0.016143950    0.086272754    0.015290172
      2        1          -0.001805532   -0.007190676    0.001447153
      3        6           0.178284921   -0.062565865   -0.101138358
      4        1           0.004735169   -0.002478745    0.000266806
      5        6           0.006282552   -0.007778642    0.011426630
      6        6          -0.125805220    0.024475698   -0.072213789
      7        6          -0.000598275   -0.000914205    0.000784548
      8        8           0.069768439   -0.025786686    0.000107162
      9        1           0.000359782    0.000201566    0.000159727
     10        1          -0.000482756    0.000866061   -0.000229855
     11        1           0.000240968    0.000036680   -0.000038937
     12        1          -0.004706576    0.020855222   -0.000175608
     13        8           0.009134527    0.003742557    0.013873801
     14        1          -0.145877695   -0.031558544    0.130358984
     15        1          -0.000316515   -0.000788260   -0.000232316
     16        6          -0.004351221    0.002514812   -0.001382357
     17        1           0.000260012    0.000019249   -0.000201776
     18        1          -0.001535814   -0.000020814    0.001481845
     19        1           0.000269283    0.000097839    0.000416169
 -------------------------------------------------------------------
 Cartesian Forces:  Max     0.178284921 RMS     0.046151692
 Leave Link  716 at Tue Apr 19 19:21:07 2016, MaxMem=   33554432 cpu:       0.0
 (Enter c:\G09w04\l103.exe)

 GradGradGradGradGradGradGradGradGradGradGradGradGradGradGradGradGradGrad
 Berny optimization.
 Internal  Forces:  Max     0.109915179 RMS     0.019553267
 Search for a local minimum.
 Step number   1 out of a maximum of  106
 All quantities printed in internal units (Hartrees-Bohrs-Radians)
 RMS Force = .19553D-01 SwitMx=.10000D-02 MixMth= 1
 Mixed Optimization -- RFO/linear search
 Second derivative matrix not updated -- first step.
 ITU=  0
     Eigenvalues ---    0.00230   0.00261   0.00474   0.01596   0.01755
     Eigenvalues ---    0.01969   0.02262   0.02270   0.02962   0.03721
     Eigenvalues ---    0.04845   0.05009   0.05327   0.05339   0.05459
     Eigenvalues ---    0.05552   0.06202   0.06675   0.11028   0.13928
     Eigenvalues ---    0.15766   0.16000   0.16000   0.16000   0.16000
     Eigenvalues ---    0.16000   0.16000   0.16000   0.17548   0.17950
     Eigenvalues ---    0.18153   0.21684   0.22587   0.28386   0.28682
     Eigenvalues ---    0.30167   0.33052   0.34130   0.34169   0.34344
     Eigenvalues ---    0.34372   0.34452   0.34509   0.34557   0.40510
     Eigenvalues ---    0.45164   0.45389   0.49069   0.49277   0.49991
     Eigenvalues ---    0.54656
 RFO step:  Lambda=-8.23342636D-02 EMin= 2.30000000D-03
 Linear search not attempted -- first point.
 Maximum step size (   0.300) exceeded in Quadratic search.
    -- Step size scaled by   0.687
 Iteration  1 RMS(Cart)=  0.02918650 RMS(Int)=  0.00165907
 Iteration  2 RMS(Cart)=  0.00129781 RMS(Int)=  0.00066833
 Iteration  3 RMS(Cart)=  0.00000454 RMS(Int)=  0.00066832
 Iteration  4 RMS(Cart)=  0.00000000 RMS(Int)=  0.00066832
 Variable       Old X    -DE/DX   Delta X   Delta X   Delta X     New X
                                 (Linear)    (Quad)   (Total)
    R1        1.91786   0.00163   0.00000   0.00209   0.00209   1.91995
    R2        2.69470   0.05824   0.00000   0.08384   0.08123   2.77592
    R3        1.91527   0.01139   0.00000   0.01459   0.01459   1.92985
    R4        2.33588   0.05752   0.00000   0.10802   0.11041   2.44630
    R5        2.87631   0.00275   0.00000   0.00492   0.00492   2.88123
    R6        2.53052   0.04147   0.00000   0.04989   0.04822   2.57874
    R7        1.83303   0.10992   0.00000   0.15223   0.15403   1.98706
    R8        1.82139   0.00344   0.00000   0.00376   0.00376   1.82515
    R9        2.90671  -0.00007   0.00000  -0.00013  -0.00013   2.90659
   R10        2.07112  -0.00065   0.00000  -0.00106  -0.00106   2.07006
   R11        2.91302  -0.00255   0.00000  -0.00478  -0.00478   2.90824
   R12        2.59874  -0.07378   0.00000  -0.08703  -0.08703   2.51171
   R13        2.60602  -0.01057   0.00000  -0.01262  -0.01262   2.59340
   R14        2.61638   0.05354   0.00000   0.10324   0.10402   2.72040
   R15        2.06400  -0.00036   0.00000  -0.00058  -0.00058   2.06343
   R16        2.06707  -0.00077   0.00000  -0.00125  -0.00125   2.06582
   R17        2.06574  -0.00018   0.00000  -0.00028  -0.00028   2.06546
   R18        2.06479   0.00006   0.00000   0.00009   0.00009   2.06488
   R19        2.06753  -0.00128   0.00000  -0.00207  -0.00207   2.06546
   R20        2.07045  -0.00048   0.00000  -0.00077  -0.00077   2.06968
    A1        1.95610  -0.00303   0.00000  -0.00385  -0.00420   1.95190
    A2        1.89862  -0.00268   0.00000   0.00567   0.00568   1.90431
    A3        1.91892  -0.01624   0.00000  -0.04316  -0.04315   1.87577
    A4        1.95699   0.02415   0.00000   0.04954   0.04817   2.00516
    A5        1.29500   0.00312   0.00000   0.03897   0.04006   1.33506
    A6        2.00046   0.00476   0.00000  -0.00303  -0.00180   1.99866
    A7        2.09353  -0.02653   0.00000  -0.01885  -0.01988   2.07365
    A8        2.18574   0.02197   0.00000   0.02237   0.02219   2.20793
    A9        2.60712  -0.01357   0.00000  -0.05377  -0.05222   2.55489
   A10        1.99151   0.00230   0.00000   0.00569   0.00571   1.99721
   A11        1.83222   0.00108   0.00000   0.00282   0.00281   1.83503
   A12        1.96283  -0.00553   0.00000  -0.01537  -0.01537   1.94746
   A13        1.85897  -0.00161   0.00000  -0.00269  -0.00271   1.85626
   A14        1.95082   0.00278   0.00000   0.00688   0.00689   1.95770
   A15        1.85464   0.00100   0.00000   0.00299   0.00298   1.85762
   A16        2.11658   0.01208   0.00000   0.00736   0.00676   2.12333
   A17        2.21603  -0.03434   0.00000  -0.04901  -0.04765   2.16838
   A18        1.94990   0.02244   0.00000   0.04171   0.04091   1.99081
   A19        1.43160  -0.01436   0.00000  -0.01956  -0.01914   1.41246
   A20        2.77092  -0.01643   0.00000  -0.04503  -0.04505   2.72587
   A21        1.95834   0.00010   0.00000   0.00037   0.00037   1.95871
   A22        1.91927  -0.00103   0.00000  -0.00320  -0.00320   1.91606
   A23        1.93591   0.00026   0.00000   0.00093   0.00093   1.93684
   A24        1.88021   0.00030   0.00000   0.00050   0.00050   1.88071
   A25        1.88186   0.00010   0.00000   0.00079   0.00079   1.88265
   A26        1.88581   0.00031   0.00000   0.00070   0.00070   1.88651
   A27        1.92082   0.00086   0.00000   0.00244   0.00244   1.92326
   A28        2.30307  -0.04932   0.00000  -0.10094  -0.09958   2.20349
   A29        1.93810   0.00087   0.00000   0.00270   0.00270   1.94080
   A30        1.92985  -0.00263   0.00000  -0.00794  -0.00794   1.92191
   A31        1.95492   0.00043   0.00000   0.00148   0.00147   1.95640
   A32        1.88790   0.00065   0.00000   0.00135   0.00135   1.88925
   A33        1.88226  -0.00019   0.00000   0.00034   0.00033   1.88259
   A34        1.86789   0.00094   0.00000   0.00224   0.00224   1.87013
    D1       -0.87822   0.00508   0.00000   0.01273   0.01305  -0.86517
    D2        2.34786   0.00146   0.00000   0.00550   0.00548   2.35335
    D3       -3.01945  -0.00710   0.00000  -0.02863  -0.02869  -3.04814
    D4        0.20664  -0.01072   0.00000  -0.03586  -0.03626   0.17038
    D5       -2.55059  -0.00155   0.00000  -0.01548  -0.01595  -2.56654
    D6        1.90573  -0.00280   0.00000  -0.04187  -0.04091   1.86482
    D7        2.32902   0.00050   0.00000   0.00625   0.00577   2.33479
    D8        0.30039   0.00058   0.00000   0.00478   0.00429   0.30468
    D9       -1.70861   0.00147   0.00000   0.00711   0.00662  -1.70198
   D10       -0.90222   0.00157   0.00000   0.01153   0.01154  -0.89067
   D11       -2.93085   0.00165   0.00000   0.01006   0.01006  -2.92078
   D12        1.34334   0.00254   0.00000   0.01239   0.01239   1.35574
   D13        1.12106  -0.00306   0.00000  -0.01666  -0.01617   1.10488
   D14       -0.90757  -0.00298   0.00000  -0.01813  -0.01765  -0.92523
   D15       -2.91657  -0.00209   0.00000  -0.01580  -0.01533  -2.93189
   D16       -0.21083   0.00384   0.00000   0.00002  -0.00052  -0.21135
   D17        2.97389  -0.00240   0.00000  -0.00293  -0.00229   2.97160
   D18        3.02483   0.00106   0.00000  -0.00641  -0.00749   3.01734
   D19       -0.07363  -0.00518   0.00000  -0.00936  -0.00926  -0.08289
   D20        1.16711  -0.00139   0.00000  -0.00405  -0.00405   1.16306
   D21       -3.02374  -0.00164   0.00000  -0.00536  -0.00535  -3.02909
   D22       -0.93882  -0.00176   0.00000  -0.00596  -0.00596  -0.94478
   D23       -3.10306   0.00015   0.00000   0.00075   0.00076  -3.10231
   D24       -1.01072  -0.00011   0.00000  -0.00055  -0.00055  -1.01127
   D25        1.07420  -0.00023   0.00000  -0.00116  -0.00116   1.07304
   D26       -1.08452   0.00185   0.00000   0.00634   0.00633  -1.07819
   D27        1.00782   0.00159   0.00000   0.00503   0.00502   1.01284
   D28        3.09274   0.00147   0.00000   0.00442   0.00442   3.09716
   D29        0.89168  -0.00030   0.00000   0.00016   0.00017   0.89185
   D30        2.98755  -0.00066   0.00000  -0.00163  -0.00163   2.98593
   D31       -1.21393  -0.00096   0.00000  -0.00317  -0.00317  -1.21710
   D32       -3.12487   0.00052   0.00000   0.00074   0.00073  -3.12414
   D33       -1.02900   0.00017   0.00000  -0.00105  -0.00106  -1.03006
   D34        1.05270  -0.00013   0.00000  -0.00259  -0.00260   1.05010
   D35       -1.10369   0.00062   0.00000   0.00284   0.00284  -1.10085
   D36        0.99218   0.00027   0.00000   0.00105   0.00105   0.99323
   D37        3.07388  -0.00004   0.00000  -0.00050  -0.00049   3.07339
   D38       -0.80346   0.01094   0.00000   0.02925   0.02823  -0.77522
   D39        2.37782   0.00527   0.00000   0.02702   0.02711   2.40492
   D40       -1.67506  -0.00929   0.00000  -0.00965  -0.00873  -1.68378
   D41       -1.95210  -0.00164   0.00000   0.01818   0.02017  -1.93193
   D42        2.02457   0.00317   0.00000   0.03426   0.03401   2.05859
         Item               Value     Threshold  Converged?
 Maximum Force            0.109915     0.000450     NO 
 RMS     Force            0.019553     0.000300     NO 
 Maximum Displacement     0.158662     0.001800     NO 
 RMS     Displacement     0.028608     0.001200     NO 
 Predicted change in Energy=-4.116198D-02
 GradGradGradGradGradGradGradGradGradGradGradGradGradGradGradGradGradGrad

 Leave Link  103 at Tue Apr 19 19:21:07 2016, MaxMem=   33554432 cpu:       0.0
 (Enter c:\G09w04\l202.exe)
                          Input orientation:                          
 ---------------------------------------------------------------------
 Center     Atomic      Atomic             Coordinates (Angstroms)
 Number     Number       Type             X           Y           Z
 ---------------------------------------------------------------------
      1          7           0       -0.352118    1.716564    1.280062
      2          1           0        0.008534    1.591488    2.221621
      3          6           0       -0.243216    0.485976    0.485316
      4          1           0       -0.476253   -0.848947   -1.731843
      5          6           0        1.133377   -0.168666    0.518270
      6          6           0       -1.311872    0.091673   -0.266123
      7          6           0        1.109513   -1.688775    0.751617
      8          8           0       -2.510843    0.646084   -0.118761
      9          1           0        0.658189   -2.227856   -0.083838
     10          1           0        2.130189   -2.060132    0.875591
     11          1           0        0.545992   -1.937151    1.654605
     12          1           0       -1.291873    2.112912    1.331931
     13          8           0       -1.273524   -0.921056   -1.191491
     14          1           0       -1.120548    0.707525    1.020923
     15          1           0        1.637528    0.268872    1.386809
     16          6           0        1.973106    0.216795   -0.712468
     17          1           0        1.993768    1.300191   -0.853154
     18          1           0        3.001665   -0.132075   -0.590034
     19          1           0        1.586471   -0.234177   -1.632608
 ---------------------------------------------------------------------
                    Distance matrix (angstroms):
                    1          2          3          4          5
     1  N    0.000000
     2  H    1.015996   0.000000
     3  C    1.468954   2.073714   0.000000
     4  H    3.958387   4.671255   2.598485   0.000000
     5  C    2.518156   2.695332   1.524681   2.848983   0.000000
     6  C    2.439689   3.190891   1.364610   1.931674   2.581142
     7  C    3.743255   3.759414   2.574944   3.063909   1.538101
     8  O    2.786167   3.566292   2.352164   2.996116   3.788135
     9  H    4.294112   4.508280   2.915709   2.429870   2.197409
    10  H    4.537497   4.432555   3.502576   3.880621   2.167708
    11  H    3.781073   3.614092   2.803860   3.700973   2.182617
    12  H    1.021235   1.659665   2.112665   4.338728   3.427751
    13  O    3.730228   4.427853   2.419288   0.965827   3.046727
    14  H    1.294525   1.870265   1.051508   3.227297   2.469929
    15  H    2.462905   2.258284   2.096908   3.929833   1.095430
    16  C    3.409714   3.789222   2.533620   2.859071   1.538974
    17  H    3.197993   3.671546   2.731034   3.389969   2.186005
    18  H    4.261758   4.453640   3.473848   3.730086   2.172597
    19  H    4.005891   4.547309   2.889980   2.154674   2.199060
                    6          7          8          9         10
     6  C    0.000000
     7  C    3.173153   0.000000
     8  O    1.329142   4.395009   0.000000
     9  H    3.048702   1.091919   4.278261   0.000000
    10  H    4.216819   1.093185   5.463654   1.765055   0.000000
    11  H    3.355142   1.092993   4.377461   1.766149   1.769652
    12  H    2.576738   4.533899   2.396243   4.964817   5.415999
    13  O    1.372369   3.169215   2.266635   2.581886   4.141929
    14  H    1.439572   3.284502   1.798771   3.605672   4.271807
    15  H    3.385638   2.124771   4.429223   3.058686   2.434814
    16  C    3.317523   2.553534   4.543410   2.846138   2.780468
    17  H    3.568246   3.505869   4.610716   3.850031   3.781394
    18  H    4.331465   2.793489   5.587072   3.184401   2.573894
    19  H    3.220847   2.833350   4.455848   2.689824   3.149730
                   11         12         13         14         15
    11  H    0.000000
    12  H    4.459245   0.000000
    13  O    3.527513   3.946258   0.000000
    14  H    3.189548   1.449548   2.751446   0.000000
    15  H    2.475823   3.461919   4.066667   2.816607   0.000000
    16  C    3.504165   4.293589   3.473438   3.579966   2.126568
    17  H    4.343420   4.028715   3.965300   3.682714   2.491578
    18  H    3.785106   5.212329   4.388790   4.504748   2.435064
    19  H    3.845580   4.752071   2.974216   3.905891   3.061462
                   16         17         18         19
    16  C    0.000000
    17  H    1.092688   0.000000
    18  H    1.092994   1.771010   0.000000
    19  H    1.095226   1.768538   1.760726   0.000000
 Symmetry turned off by external request.
 Stoichiometry    C5H11NO2
 Framework group  C1[X(C5H11NO2)]
 Deg. of freedom    51
 Full point group                 C1      NOp   1
 Rotational constants (GHZ):      2.6312168      1.5908944      1.2579082
 Leave Link  202 at Tue Apr 19 19:21:07 2016, MaxMem=   33554432 cpu:       0.0
 (Enter c:\G09w04\l301.exe)
 Standard basis: 6-311++G(d,p) (5D, 7F)
 Ernie: Thresh=  0.10000D-02 Tol=  0.10000D-05 Strict=F.
 Integral buffers will be    262144 words long.
 Raffenetti 2 integral format.
 Two-electron integral symmetry is turned off.
   253 basis functions,   387 primitive gaussians,   261 cartesian basis functions
    32 alpha electrons       32 beta electrons
       nuclear repulsion energy       407.1924237369 Hartrees.
 IExCor=  402 DFT=T Ex+Corr=B3LYP ExCW=0 ScaHFX=  0.200000
 ScaDFX=  0.800000  0.720000  1.000000  0.810000 ScalE2=  1.000000  1.000000
 IRadAn=      0 IRanWt=     -1 IRanGd=            0 ICorTp=0
 NAtoms=   19 NActive=   19 NUniq=   19 SFac= 1.00D+00 NAtFMM=   50 NAOKFM=F Big=F
 ------------------------------------------------------------------------------
 Polarizable Continuum Model (PCM)
 =================================
 Model                : C-PCM.
 Atomic radii         : UFF (Universal Force Field).
 Polarization charges : Total charges.
 Charge compensation  : None.
 Solution method      : Matrix inversion.
 Cavity type          : Scaled VdW (van der Waals Surface) (Alpha=1.100).
 Cavity algorithm     : GePol (No added spheres)
                        Default sphere list used, NSphG=   19.
                        Lebedev-Laikov grids with approx.  5.0 points / Ang**2.
                        Smoothing algorithm: Karplus/York (Gamma=1.0000).
                        Polarization charges: spherical gaussians, with
                                              point-specific exponents (IZeta= 3).
                        Self-potential: point-specific (ISelfS= 7).
                        Self-field    : sphere-specific E.n sum rule (ISelfD= 2).
 1st derivatives      : Analytical E(r).r(x)/FMM algorithm (CHGder, D1EAlg=3).
                        Cavity 1st derivative terms included.
 Solvent              : Water, Eps=  78.355300 Eps(inf)=   1.777849
 ------------------------------------------------------------------------------
 Spheres list:
 ISph  on   Nord    Re0     Alpha      Xe            Ye            Ze
    1   N      1    1.830   1.100     -0.352118      1.716564      1.280062
    2   H      2    1.443   1.100      0.008534      1.591488      2.221621
    3   C      3    1.926   1.100     -0.243216      0.485976      0.485316
    4   H      4    1.443   1.100     -0.476253     -0.848947     -1.731843
    5   C      5    1.926   1.100      1.133377     -0.168666      0.518270
    6   C      6    1.926   1.100     -1.311872      0.091673     -0.266123
    7   C      7    1.926   1.100      1.109513     -1.688775      0.751617
    8   O      8    1.750   1.100     -2.510843      0.646084     -0.118761
    9   H      9    1.443   1.100      0.658189     -2.227856     -0.083838
   10   H     10    1.443   1.100      2.130189     -2.060132      0.875591
   11   H     11    1.443   1.100      0.545992     -1.937151      1.654605
   12   H     12    1.443   1.100     -1.291873      2.112912      1.331931
   13   O     13    1.750   1.100     -1.273524     -0.921056     -1.191491
   14   H     14    1.443   1.100     -1.120548      0.707525      1.020923
   15   H     15    1.443   1.100      1.637528      0.268872      1.386809
   16   C     16    1.926   1.100      1.973106      0.216795     -0.712468
   17   H     17    1.443   1.100      1.993768      1.300191     -0.853154
   18   H     18    1.443   1.100      3.001665     -0.132075     -0.590034
   19   H     19    1.443   1.100      1.586471     -0.234177     -1.632608
 ------------------------------------------------------------------------------
 GePol: Number of generator spheres                  =      19
 GePol: Total number of spheres                      =      19
 GePol: Number of exposed spheres                    =      19 (100.00%)
 GePol: Number of points                             =    1401
 GePol: Average weight of points                     =       0.13
 GePol: Minimum weight of points                     =   0.99D-08
 GePol: Maximum weight of points                     =    0.20577
 GePol: Number of points with low weight             =      94
 GePol: Fraction of low-weight points (<1% of avg)   =       6.71%
 GePol: Cavity surface area                          =    186.941 Ang**2
 GePol: Cavity volume                                =    184.360 Ang**3
 Leave Link  301 at Tue Apr 19 19:21:07 2016, MaxMem=   33554432 cpu:       0.0
 (Enter c:\G09w04\l302.exe)
 NPDir=0 NMtPBC=     1 NCelOv=     1 NCel=       1 NClECP=     1 NCelD=      1
         NCelK=      1 NCelE2=     1 NClLst=     1 CellRange=     0.0.
 One-electron integrals computed using PRISM.
 NBasis=   253 RedAO= T  NBF=   253
 NBsUse=   253 1.00D-06 NBFU=   253
 Precomputing XC quadrature grid using
 IXCGrd= 2 IRadAn=           0 IRanWt=          -1 IRanGd=           0 AccXCQ= 0.00D+00.
 NRdTot=    1231 NPtTot=      157136 NUsed=      162879 NTot=      162895
 NSgBfM=   261   261   261   261   261 NAtAll=    19    19.
 Leave Link  302 at Tue Apr 19 19:21:08 2016, MaxMem=   33554432 cpu:       1.0
 (Enter c:\G09w04\l303.exe)
 DipDrv:  MaxL=1.
 Leave Link  303 at Tue Apr 19 19:21:08 2016, MaxMem=   33554432 cpu:       0.0
 (Enter c:\G09w04\l401.exe)
 Initial guess read from the read-write file.
 B after Tr=     0.000000    0.000000    0.000000
         Rot=    1.000000    0.000000    0.000000    0.000000 Ang=   0.00 deg.
 Guess basis will be translated and rotated to current coordinates.
 Generating alternative initial guess.
 Harris functional with IExCor=  402 diagonalized for initial guess.
 ExpMin= 3.60D-02 ExpMax= 8.59D+03 ExpMxC= 1.30D+03 IAcc=3 IRadAn=         0 AccDes= 0.00D+00
 HarFok:  IExCor=  402 AccDes= 0.00D+00 IRadAn=         0 IDoV= 1
 ScaDFX=  1.000000  1.000000  1.000000  1.000000
 FoFCou: FMM=F IPFlag=           0 FMFlag=      100000 FMFlg1=           0
         NFxFlg=           0 DoJE=T BraDBF=F KetDBF=T FulRan=T
         Omega=  0.000000  0.000000  1.000000  0.000000  0.000000 ICntrl=     500 IOpCl=  0
         NMat0=    1 NMatS0=    1 NMatT0=    0 NMatD0=    1 NMtDS0=    0 NMtDT0=    0
         I1Cent=           4 NGrid=           0.
 Symmetry not used in FoFCou.
 Harris En= -402.359013410419    
 Leave Link  401 at Tue Apr 19 19:21:21 2016, MaxMem=   33554432 cpu:      13.0
 (Enter c:\G09w04\l502.exe)
 Closed shell SCF:
 Requested convergence on RMS density matrix=1.00D-08 within 128 cycles.
 Requested convergence on MAX density matrix=1.00D-06.
 Requested convergence on             energy=1.00D-06.
 No special actions if energy rises.
 Using DIIS extrapolation, IDIIS=  1040.
 Two-electron integral symmetry not used.
       162714 words used for storage of precomputed grid.
 IEnd=      388233 IEndB=      388233 NGot=    33554432 MDV=    33251222
 LenX=    33251222 LenY=    33182660
 Fock matrices will be formed incrementally for  20 cycles.

 Cycle   1  Pass 1  IDiag  1:
 FoFCou: FMM=F IPFlag=           0 FMFlag=      100000 FMFlg1=           0
         NFxFlg=           0 DoJE=F BraDBF=F KetDBF=F FulRan=T
         Omega=  0.000000  0.000000  1.000000  0.000000  0.000000 ICntrl=       0 IOpCl=  0
         NMat0=    1 NMatS0=    1 NMatT0=    0 NMatD0=    1 NMtDS0=    0 NMtDT0=    0
         I1Cent=           0 NGrid=           0.
 Symmetry not used in FoFCou.
 E= -402.315944384871    
 DIIS: error= 2.90D-03 at cycle   1 NSaved=   1.
 NSaved= 1 IEnMin= 1 EnMin= -402.315944384871     IErMin= 1 ErrMin= 2.90D-03
 ErrMax= 2.90D-03 EMaxC= 1.00D-01 BMatC= 6.12D-03 BMatP= 6.12D-03
 IDIUse=3 WtCom= 9.71D-01 WtEn= 2.90D-02
 Coeff-Com:  0.100D+01
 Coeff-En:   0.100D+01
 Coeff:      0.100D+01
 Gap=     0.203 Goal=   None    Shift=    0.000
 GapD=    0.203 DampG=1.000 DampE=1.000 DampFc=1.0000 IDamp=-1.
 RMSDP=2.32D-03 MaxDP=2.30D-01              OVMax= 2.32D-02

 Cycle   2  Pass 1  IDiag  1:
 RMSU=  1.43D-03    CP:  9.42D-01
 E= -402.320814527073     Delta-E=       -0.004870142201 Rises=F Damp=F
 DIIS: error= 2.55D-03 at cycle   2 NSaved=   2.
 NSaved= 2 IEnMin= 2 EnMin= -402.320814527073     IErMin= 2 ErrMin= 2.55D-03
 ErrMax= 2.55D-03 EMaxC= 1.00D-01 BMatC= 1.89D-03 BMatP= 6.12D-03
 IDIUse=3 WtCom= 9.74D-01 WtEn= 2.55D-02
 Coeff-Com:  0.292D+00 0.708D+00
 Coeff-En:   0.000D+00 0.100D+01
 Coeff:      0.285D+00 0.715D+00
 Gap=     0.201 Goal=   None    Shift=    0.000
 RMSDP=7.08D-04 MaxDP=4.67D-02 DE=-4.87D-03 OVMax= 3.56D-02

 Cycle   3  Pass 1  IDiag  1:
 RMSU=  4.23D-04    CP:  9.61D-01  9.99D-01
 E= -402.320193848151     Delta-E=        0.000620678921 Rises=F Damp=F
 DIIS: error= 3.56D-03 at cycle   3 NSaved=   3.
 NSaved= 3 IEnMin= 2 EnMin= -402.320814527073     IErMin= 2 ErrMin= 2.55D-03
 ErrMax= 3.56D-03 EMaxC= 1.00D-01 BMatC= 2.78D-03 BMatP= 1.89D-03
 IDIUse=3 WtCom= 1.44D-01 WtEn= 8.56D-01
 Coeff-Com:  0.127D-01 0.546D+00 0.441D+00
 Coeff-En:   0.000D+00 0.565D+00 0.435D+00
 Coeff:      0.183D-02 0.562D+00 0.436D+00
 Gap=     0.201 Goal=   None    Shift=    0.000
 RMSDP=4.76D-04 MaxDP=3.44D-02 DE= 6.21D-04 OVMax= 1.69D-02

 Cycle   4  Pass 1  IDiag  1:
 RMSU=  1.43D-04    CP:  9.47D-01  1.02D+00  4.57D-01
 E= -402.322315708007     Delta-E=       -0.002121859856 Rises=F Damp=F
 DIIS: error= 3.53D-04 at cycle   4 NSaved=   4.
 NSaved= 4 IEnMin= 4 EnMin= -402.322315708007     IErMin= 4 ErrMin= 3.53D-04
 ErrMax= 3.53D-04 EMaxC= 1.00D-01 BMatC= 6.76D-05 BMatP= 1.89D-03
 IDIUse=3 WtCom= 9.96D-01 WtEn= 3.53D-03
 Coeff-Com: -0.969D-02 0.267D+00 0.230D+00 0.512D+00
 Coeff-En:   0.000D+00 0.000D+00 0.000D+00 0.100D+01
 Coeff:     -0.966D-02 0.266D+00 0.230D+00 0.514D+00
 Gap=     0.200 Goal=   None    Shift=    0.000
 RMSDP=8.67D-05 MaxDP=6.34D-03 DE=-2.12D-03 OVMax= 1.64D-03

 Cycle   5  Pass 1  IDiag  1:
 RMSU=  3.56D-05    CP:  9.46D-01  1.03D+00  4.26D-01  6.99D-01
 E= -402.322370277848     Delta-E=       -0.000054569841 Rises=F Damp=F
 DIIS: error= 8.53D-05 at cycle   5 NSaved=   5.
 NSaved= 5 IEnMin= 5 EnMin= -402.322370277848     IErMin= 5 ErrMin= 8.53D-05
 ErrMax= 8.53D-05 EMaxC= 1.00D-01 BMatC= 4.55D-06 BMatP= 6.76D-05
 IDIUse=1 WtCom= 1.00D+00 WtEn= 0.00D+00
 Coeff-Com: -0.574D-02 0.850D-01 0.789D-01 0.242D+00 0.599D+00
 Coeff:     -0.574D-02 0.850D-01 0.789D-01 0.242D+00 0.599D+00
 Gap=     0.200 Goal=   None    Shift=    0.000
 RMSDP=2.29D-05 MaxDP=1.76D-03 DE=-5.46D-05 OVMax= 8.11D-04

 Cycle   6  Pass 1  IDiag  1:
 RMSU=  1.36D-05    CP:  9.46D-01  1.04D+00  4.29D-01  6.98D-01  9.57D-01
 E= -402.322373684368     Delta-E=       -0.000003406520 Rises=F Damp=F
 DIIS: error= 4.06D-05 at cycle   6 NSaved=   6.
 NSaved= 6 IEnMin= 6 EnMin= -402.322373684368     IErMin= 6 ErrMin= 4.06D-05
 ErrMax= 4.06D-05 EMaxC= 1.00D-01 BMatC= 6.84D-07 BMatP= 4.55D-06
 IDIUse=1 WtCom= 1.00D+00 WtEn= 0.00D+00
 Coeff-Com: -0.200D-02 0.166D-01 0.169D-01 0.686D-01 0.317D+00 0.583D+00
 Coeff:     -0.200D-02 0.166D-01 0.169D-01 0.686D-01 0.317D+00 0.583D+00
 Gap=     0.200 Goal=   None    Shift=    0.000
 RMSDP=9.47D-06 MaxDP=7.36D-04 DE=-3.41D-06 OVMax= 2.55D-04

 Cycle   7  Pass 1  IDiag  1:
 RMSU=  4.14D-06    CP:  9.46D-01  1.04D+00  4.31D-01  7.21D-01  1.01D+00
                    CP:  7.64D-01
 E= -402.322374134735     Delta-E=       -0.000000450366 Rises=F Damp=F
 DIIS: error= 1.16D-05 at cycle   7 NSaved=   7.
 NSaved= 7 IEnMin= 7 EnMin= -402.322374134735     IErMin= 7 ErrMin= 1.16D-05
 ErrMax= 1.16D-05 EMaxC= 1.00D-01 BMatC= 9.25D-08 BMatP= 6.84D-07
 IDIUse=1 WtCom= 1.00D+00 WtEn= 0.00D+00
 Coeff-Com: -0.702D-04-0.423D-02-0.400D-02-0.217D-02 0.803D-01 0.312D+00
 Coeff-Com:  0.619D+00
 Coeff:     -0.702D-04-0.423D-02-0.400D-02-0.217D-02 0.803D-01 0.312D+00
 Coeff:      0.619D+00
 Gap=     0.200 Goal=   None    Shift=    0.000
 RMSDP=4.03D-06 MaxDP=3.05D-04 DE=-4.50D-07 OVMax= 1.48D-04

 Cycle   8  Pass 1  IDiag  1:
 RMSU=  1.70D-06    CP:  9.46D-01  1.04D+00  4.31D-01  7.23D-01  1.02D+00
                    CP:  8.59D-01  6.12D-01
 E= -402.322374212572     Delta-E=       -0.000000077837 Rises=F Damp=F
 DIIS: error= 4.84D-06 at cycle   8 NSaved=   8.
 NSaved= 8 IEnMin= 8 EnMin= -402.322374212572     IErMin= 8 ErrMin= 4.84D-06
 ErrMax= 4.84D-06 EMaxC= 1.00D-01 BMatC= 5.69D-09 BMatP= 9.25D-08
 IDIUse=1 WtCom= 1.00D+00 WtEn= 0.00D+00
 Coeff-Com:  0.108D-03-0.306D-02-0.352D-02-0.650D-02 0.424D-02 0.618D-01
 Coeff-Com:  0.240D+00 0.707D+00
[...]
 0112951,-0.00139804,-0.00115495,0.04261556,0.00126677,0.00115131,0.000
 68767,-0.00004704,0.00041046,0.00010603,-0.00087048,0.00042569,-0.0004
 5514,-0.05898460,0.25057344,0.00027375,0.00167236,-0.00061046,-0.00024
 148,-0.00037718,0.00001277,-0.00170168,-0.00410285,0.00125324,0.089935
 54,-0.22306075,0.28196874,-0.00142210,0.00710335,0.00093920,0.00122137
 ,-0.00138140,-0.00027614,-0.12479774,0.01712053,0.01495903,-0.00092780
 ,-0.00157005,0.00004184,0.44889199,0.03577618,-0.02319097,-0.00358667,
 0.00050240,0.00102785,0.00037030,0.00372956,-0.07414179,-0.00692196,-0
 .00161821,0.00028270,-0.00011235,0.02654977,0.47834997,0.00832720,-0.0
 0706904,-0.00039006,0.00149724,-0.00082947,0.00002421,-0.00616946,0.00
 238380,-0.07545513,-0.00031980,-0.00010896,-0.00037131,0.03967169,0.03
 080005,0.54730640,-0.00106906,-0.00231316,-0.00195136,-0.00021680,0.00
 216708,0.00014122,-0.10295392,-0.01186026,-0.03245987,-0.00057067,0.01
 293679,0.00624127,-0.02572570,0.00126078,-0.02740523,0.33454759,-0.020
 02207,-0.01325772,-0.03164356,0.00049187,-0.00745531,-0.00072516,-0.00
 328108,-0.07615667,-0.01111508,-0.00640573,-0.02898678,-0.00387180,0.0
 0522092,0.00324197,0.01266211,-0.03996512,0.72733509,-0.00763415,-0.01
 036258,-0.01438736,0.00047215,0.00111139,0.00006128,-0.01259206,-0.016
 54784,-0.14113027,0.01542212,0.03369089,0.00551164,-0.01600014,0.01215
 258,0.01294855,0.19273693,-0.23501853,0.63517728,-0.00643030,0.0035289
 8,-0.00034892,-0.00019983,-0.00008959,0.00011839,-0.00161708,0.0299764
 5,0.00173884,0.00022652,0.00013758,-0.00065606,-0.07839480,0.00426116,
 0.00037822,0.00113561,-0.00083698,0.00195160,0.56377723,0.00093502,0.0
 0074060,0.00058931,0.00000150,0.00000060,-0.00002091,0.00563945,-0.013
 50681,-0.00138347,-0.00125311,0.00048490,-0.00003079,0.00328258,-0.178
 19576,-0.00616492,0.00085310,0.00138037,0.00140547,0.00915835,0.458424
 56,0.00119876,-0.00055262,0.00035360,-0.00032741,0.00039669,0.00044021
 ,-0.00058244,-0.00047275,-0.00178102,-0.00136396,-0.00004552,0.0015757
 8,-0.00083741,-0.00563887,-0.07851297,0.00032966,0.00162170,0.00005151
 ,-0.00492237,-0.00219956,0.56396270,-0.00087190,-0.00003502,-0.0010717
 8,0.00059352,0.00009395,-0.00024022,0.01388654,0.01880070,-0.02310275,
 0.00507361,-0.00456680,-0.00248491,0.00214011,-0.00057586,0.00257122,-
 0.11921142,0.09620408,-0.10785262,-0.00039188,-0.00031512,-0.00017094,
 0.08531753,-0.00206575,0.00199505,-0.00519984,-0.00023798,0.00175084,-
 0.00100116,0.00649925,-0.00669331,0.01416318,-0.00522148,-0.00553966,-
 0.00540679,-0.00413171,0.00144432,0.00068277,0.10961336,-0.40779477,0.
 29509843,0.00114772,-0.00037655,-0.00046451,-0.10472400,0.52331039,-0.
 00006554,0.00186515,0.00027374,0.00030920,0.00053131,0.00005814,-0.021
 41121,0.03432653,-0.01849087,-0.00234640,-0.00305715,0.00503543,0.0041
 4587,-0.00366282,-0.00830202,-0.11273850,0.27629833,-0.35530494,-0.001
 29796,-0.00022904,0.00035774,0.12647257,-0.34428180,0.35845725,0.00002
 706,-0.00006419,-0.00005351,-0.00000964,0.00001554,-0.00002075,0.00042
 017,-0.00011258,0.00054183,-0.00167501,0.00073538,0.00011944,-0.000148
 18,0.00097995,0.00266194,-0.00010854,0.00130459,-0.00020868,-0.0783379
 9,-0.03372660,-0.07712846,0.00009604,-0.00043046,0.00030250,0.08423540
 ,0.00031251,-0.00019936,0.00019354,-0.00015771,0.00019696,0.00019910,-
 0.00086042,0.00102006,-0.00000888,0.00092771,0.00003419,-0.00044422,-0
 .01302195,-0.01280565,-0.02915805,0.00049089,-0.00200105,-0.00054698,-
 0.03356025,-0.08060079,-0.07858236,-0.00002450,0.00051654,-0.00002111,
 0.03595613,0.08992213,0.00020789,-0.00017811,0.00004277,-0.00000220,0.
 00008050,0.00003054,-0.00026394,-0.00011472,0.00036567,0.00154359,-0.0
 0028131,-0.00033391,0.00053021,-0.00043376,-0.00070205,-0.00040135,-0.
 00156062,-0.00038991,-0.07757099,-0.08010282,-0.23768735,0.00014960,0.
 00051908,-0.00014015,0.08700188,0.08887909,0.25686142,-0.00035955,0.00
 020088,-0.00017114,-0.00001925,-0.00005064,-0.00001395,0.00149177,0.00
 010175,0.00033189,0.00080133,0.00000267,0.00003025,-0.00144574,-0.0004
 1779,0.00050271,0.00023977,-0.00087284,0.00036914,-0.28855938,0.070148
 85,-0.01920106,-0.00009148,0.00036532,-0.00036295,-0.01062912,0.002475
 23,-0.00093618,0.31150186,0.00202942,-0.00103782,-0.00002160,0.0000190
 6,0.00004150,0.00003113,-0.00166562,-0.00525478,0.00094474,0.00068282,
 -0.00043353,0.00011921,0.03262761,-0.01065582,0.00251039,-0.00094446,-
 0.00079517,-0.00155137,0.06780382,-0.06450885,0.00579581,0.00028570,-0
 .00004801,0.00057934,-0.01151389,0.00282648,-0.00007789,-0.07595803,0.
 07305838,0.00009664,-0.00018739,0.00030265,0.00000584,0.00005687,0.000
 00637,0.00068244,-0.00069598,0.00026673,0.00060368,0.00002480,-0.00059
 839,0.00139312,-0.00083999,-0.00148882,0.00005070,-0.00120948,-0.00014
 870,-0.01935202,0.00618908,-0.04658542,0.00003630,0.00036074,-0.000057
 35,-0.02751437,0.00798289,-0.00190974,0.02076047,-0.00536172,0.0469953
 2,0.00013751,-0.00037968,-0.00002734,-0.00002858,0.00000358,0.00001156
 ,0.00065094,0.00086244,-0.00068970,-0.00077053,0.00009865,-0.00041476,
 -0.00040386,0.00155242,-0.00258346,-0.00017626,0.00036319,-0.00048494,
 -0.11092873,-0.05253246,0.09739664,0.00009181,-0.00025224,0.00026684,0
 .00660930,0.00617732,-0.00933607,-0.01460319,-0.01286211,0.02412526,0.
 11785711,-0.00002263,0.00051974,-0.00038756,-0.00007729,-0.00007188,0.
 00000681,-0.00121267,0.00087576,0.00130131,0.00037260,-0.00016059,0.00
 055598,-0.01653734,-0.01200071,0.02602037,0.00003651,-0.00034252,-0.00
 012119,-0.05204652,-0.08961338,0.07839630,-0.00004785,0.00014512,-0.00
 006065,0.00736861,0.00467735,-0.00849789,0.00369737,0.00327890,-0.0073
 8312,0.05704391,0.09798395,-0.00029791,-0.00009853,0.00015582,0.000059
 27,0.00000773,-0.00004107,0.00036492,-0.00034588,0.00004094,-0.0008188
 8,0.00064645,-0.00072049,-0.00143752,-0.00123264,0.00080295,0.00030044
 ,0.00024105,0.00011702,0.09787693,0.07981956,-0.19876473,-0.00003678,-
 0.00014426,0.00002811,0.01452933,0.01107999,-0.01940691,-0.00138068,-0
 .00206027,0.00239264,-0.10851942,-0.08843742,0.21293451,-0.37711014,0.
 14761762,-0.00679463,-0.01471702,0.00351701,0.00564893,0.00247288,-0.0
 0722538,0.00193099,-0.00000055,0.00003516,0.00005241,0.00026631,0.0008
 1564,-0.00032438,0.00076007,0.00029141,-0.00115620,0.00002361,-0.00033
 242,0.00027003,-0.00023027,-0.00091210,-0.00010136,-0.00003993,0.00015
 492,-0.00000002,0.00007033,0.00004100,0.00000472,0.00003805,0.00003747
 ,-0.00004733,0.38714186,0.11183008,-0.08450053,-0.02172063,-0.00349699
 ,0.00073319,0.00143701,0.03497192,-0.01736790,-0.00240496,0.00009998,-
 0.00015278,0.00002850,-0.00224251,-0.00570918,-0.00145111,0.00070549,-
 0.00056896,-0.00024425,0.00174089,0.00010049,-0.00022486,-0.00035159,0
 .00066482,-0.00019700,-0.00002731,-0.00001886,-0.00008074,0.00011515,-
 0.00055930,-0.00006054,-0.00000192,0.00008243,0.00002839,-0.14349951,0
 .10526264,0.02255563,-0.03493604,-0.04013931,-0.03571168,0.01562510,0.
 00062825,0.01132020,0.00062504,-0.00305358,0.00011115,0.00011991,0.000
 07178,-0.00048668,-0.00309931,-0.00121357,0.00148595,-0.00428227,0.001
 49470,0.00104484,0.00006232,0.00022321,-0.00056341,0.00233141,0.000404
 61,-0.00002559,0.00000750,-0.00005413,0.00000606,-0.00039383,0.0000197
 2,-0.00010415,-0.00002594,0.00005248,0.00102535,0.02364747,0.04085645,
 -0.00331754,0.00010447,-0.00637590,0.00056643,-0.00193069,-0.00038338,
 0.00783753,-0.02420101,-0.00691658,-0.04429506,0.05002527,-0.09193378,
 0.00266124,0.00068731,0.00255015,-0.09245650,-0.04332885,-0.06111812,-
 0.00271852,0.00124689,0.00097904,0.01904007,-0.00195237,0.01259735,-0.
 00124756,-0.00048330,-0.00159203,-0.00046066,-0.00022914,-0.00065986,0
 .00022308,-0.00004746,-0.00008923,-0.00006870,0.00026212,0.00017744,0.
 11488746,-0.00261878,0.00168048,-0.00432674,0.00001023,-0.00120643,-0.
 00052222,-0.01099608,-0.01396502,-0.00133308,0.07184780,-0.21838288,0.
 23494603,0.00261022,-0.00376491,-0.00315411,-0.07546456,-0.19203437,-0
 .07784391,0.00096806,-0.00148322,-0.00100829,-0.00434828,-0.11117807,0
 .03716471,-0.00014317,0.00100547,0.00159540,0.00035103,0.00092529,0.00
 080279,-0.00006573,0.00015022,-0.00025721,-0.00017265,0.00053231,0.000
 90134,0.01949222,0.53609402,-0.00520979,-0.00139700,-0.00504001,0.0000
 9818,-0.00187244,-0.00032963,-0.01455617,-0.02573994,0.00022585,-0.101
 78641,0.19310729,-0.29060417,0.00109199,-0.00221616,-0.00248646,-0.044
 62295,-0.01845499,-0.12428419,-0.00072837,-0.00035572,-0.00037720,0.01
 269052,0.04308093,0.02074756,-0.00019317,0.00055178,0.00027904,0.00004
 196,0.00024114,0.00026585,0.00005882,-0.00001099,0.00011216,0.00005521
 ,0.00043933,-0.00021988,0.15472471,-0.18588377,0.39976915,0.00268579,-
 0.00362974,-0.00190823,0.00030898,-0.00039769,-0.00010137,-0.09232396,
 -0.05795887,0.07331451,0.00060738,0.00011763,0.00060047,-0.01810508,-0
 .01348101,0.02530859,0.00864203,0.00833348,-0.01450629,0.00142049,-0.0
 0165328,0.00076968,-0.00393372,0.00119711,-0.00264127,-0.00003296,0.00
 018016,0.00000477,0.00032359,-0.00017666,-0.00044600,0.00021395,0.0010
 3829,-0.00055498,0.00060053,0.00024276,-0.00073565,-0.00035665,0.00075
 073,0.00006682,0.10447061,-0.01475059,-0.03790484,0.01458790,0.0014141
 7,0.00171674,0.00012103,-0.05884064,-0.11246886,0.09064075,-0.00042210
 ,0.00063919,0.00003133,0.00464900,0.00408574,-0.00601324,0.00147212,-0
 .00086029,0.00141331,0.00144928,0.00075044,-0.00101374,-0.00087344,0.0
 0182378,-0.00055812,-0.00008838,-0.00003804,0.00004647,-0.00007631,0.0
 0011984,-0.00011737,0.00013281,0.00056620,0.00008915,-0.00042817,0.001
 07169,-0.00032406,0.00036738,0.00032147,-0.00231682,0.06393609,0.14011
 533,-0.00575337,-0.00999063,0.01096974,-0.00001654,0.00032543,0.001639
 95,0.07278425,0.08818102,-0.17000711,-0.00039640,-0.00147445,-0.002141
 12,0.00219030,0.00194020,-0.00266343,0.01671952,0.01797876,-0.02037851
 ,-0.00042278,0.00029122,0.00015465,-0.00600286,0.00068738,-0.00440173,
 0.00003452,0.00003868,-0.00002344,-0.00015733,-0.00019026,0.00020028,0
 .00036092,-0.00056588,0.00028866,-0.00053229,0.00069134,0.00032330,-0.
 00176232,-0.00115311,0.00196174,-0.07812641,-0.09638962,0.18222163,0.0
 0242684,-0.00170900,-0.00019296,-0.00031761,0.00096769,0.00082583,-0.0
 2568681,-0.00572181,-0.02778266,0.00006640,0.00033008,-0.00006073,-0.0
 9648022,-0.03439933,-0.09622474,-0.00309250,0.00285058,0.00730156,0.00
 088855,0.00070071,0.00195119,-0.00007694,0.00098539,-0.00346884,0.0009
 2774,0.00078924,0.00047706,0.00071447,-0.00005075,0.00057029,-0.000038
 99,-0.00019564,-0.00018076,0.00043238,-0.00031562,0.00006963,0.0002066
 7,-0.00164993,-0.00120811,0.00127307,-0.00036635,0.00014369,0.11174875
 ,0.00070657,0.00066889,0.00108419,0.00031343,-0.00000665,-0.00042236,0
 .00845912,0.00128595,0.00777879,0.00039241,-0.00011917,-0.00003665,-0.
 03500929,-0.06659607,-0.06238513,0.00184519,-0.00123366,-0.00180688,-0
 .01453451,-0.01569956,-0.02884939,-0.00027282,-0.00010264,0.00108642,0
 .00017438,-0.00656278,-0.00000372,0.00023038,0.00168740,0.00013327,-0.
 00024059,0.00106556,0.00048833,-0.00015767,0.00003447,0.00017715,-0.00
 020803,0.00062964,0.00048299,-0.00057161,0.00014201,-0.00011455,0.0339
 8306,0.08062789,0.00112760,0.00005080,0.00085517,-0.00029031,0.0003866
 4,0.00027316,-0.00010151,-0.00011083,0.00030461,0.00010624,0.00007479,
 -0.00000784,-0.09522847,-0.06235431,-0.22397192,0.00132335,-0.00083241
 ,0.00078860,-0.00023420,-0.00076101,-0.00048404,-0.00018816,0.00004736
 ,0.00048440,0.00012539,0.00006226,0.00125402,0.00039747,-0.00020420,0.
 00027057,-0.00000033,-0.00044528,0.00054399,0.00022030,0.00009391,0.00
 029808,-0.00020985,0.00003395,-0.00014980,-0.00057480,0.00023593,0.000
 65646,0.10021921,0.06783086,0.24458423,0.00058570,-0.00047912,0.000697
 71,-0.00037476,0.00002926,0.00026133,-0.02236499,-0.01234457,0.0240771
 0,-0.00007411,0.00028916,0.00012510,-0.09807164,-0.01867166,0.03679760
 ,0.00015451,-0.00029520,0.00243448,0.00070361,-0.00312194,-0.00022690,
 -0.00072470,-0.00006652,0.00039860,0.00001051,0.00029064,0.00056060,0.
 00039026,0.00084433,-0.00043038,0.00058788,0.00148585,-0.00017050,0.00
 023521,-0.00023784,-0.00007500,-0.00030084,-0.00055363,-0.00040053,-0.
 00519971,0.00216833,0.00089803,0.00644219,0.00549687,-0.00949011,0.538
 48273,0.00002948,-0.00063094,0.00026651,-0.00008074,0.00014613,0.00004
 064,0.00172891,0.00621709,-0.00718184,0.00019732,-0.00027732,0.0000331
 5,-0.01741666,-0.09447442,0.03041868,-0.00132687,-0.00022640,-0.001090
 02,-0.01753324,-0.02008700,0.02909342,0.00077737,-0.00028929,0.0003222
 6,-0.00026594,0.00193106,0.00051090,-0.00049591,0.00137436,0.00019576,
 -0.00020287,-0.00658444,0.00058735,0.00003534,-0.00000908,-0.00022045,
 0.00020097,0.00061750,0.00040518,0.00287608,-0.00038816,-0.00035797,0.
 00465768,0.00371917,-0.00648603,-0.02564519,0.55766137,0.00104739,0.00
 034254,-0.00027157,0.00004031,0.00011147,-0.00013058,0.00453850,-0.001
 50328,-0.00220505,0.00019042,0.00008508,0.00012436,0.03641737,0.033111
 92,-0.14282011,-0.00038928,-0.00045424,0.00300407,-0.00016600,0.004096
 69,-0.00101021,0.00032200,0.00025583,-0.00089051,-0.00030666,-0.001495
 58,0.00126221,0.00003614,-0.00039947,0.00004991,-0.00046233,-0.0017976
 8,0.00110065,-0.00014846,0.00024211,0.00023347,-0.00009030,-0.00023635
 ,-0.00046731,-0.00176583,-0.00014219,0.00117607,0.01545229,0.01329348,
 -0.02470081,0.04000541,0.03250538,0.49731817,-0.00069647,0.00041209,-0
 .00004368,-0.00004079,0.00000644,0.00003580,0.00026353,-0.00068320,-0.
 00034914,0.00008864,-0.00000779,-0.00000379,0.00026617,-0.01691199,-0.
 00187066,-0.00018654,-0.00043717,-0.00016778,-0.00149697,-0.00065432,0
 .00280613,-0.00000657,0.00010811,0.00012023,-0.00004361,0.00036508,0.0
 0005574,0.00029360,-0.00020358,0.00004612,0.00025674,-0.00103855,0.000
 34380,0.00012397,0.00016430,-0.00020726,0.00002072,0.00019399,0.000105
 77,0.00026931,0.00000749,-0.00002522,0.00043849,0.00055952,-0.00025766
 ,-0.04752498,0.01955606,-0.00037168,0.04832948,0.00159564,0.00017306,-
 0.00092396,0.00007262,0.00001834,-0.00009321,0.00043899,-0.00125342,-0
 .00025135,0.00012948,0.00001009,0.00002688,0.00035431,-0.01232232,-0.0
 0081451,0.00001481,-0.00059809,0.00035478,-0.00180436,0.00022128,0.003
 17285,0.00019053,0.00043618,-0.00028094,0.00003128,0.00028771,-0.00008
 124,0.00013004,0.00021279,-0.00010809,0.00009924,-0.00095630,-0.000044
 14,0.00006157,0.00020144,-0.00006768,-0.00003784,0.00020058,-0.0000033
 2,-0.00016643,0.00002789,-0.00001960,0.00007620,0.00054437,0.00026261,
 0.01671694,-0.31074868,-0.00803599,-0.01930012,0.33847678,-0.00023211,
 -0.00006901,-0.00005914,0.00011138,0.00002597,-0.00016747,-0.00006143,
 0.00009589,0.00084139,-0.00008845,0.00004912,-0.00003921,-0.00322466,0
 .02633108,0.00156882,0.00033505,-0.00015134,-0.00015367,0.00308916,0.0
 0104287,-0.00385289,0.00009655,-0.00004911,0.00006600,0.00015217,0.000
 17728,0.00016412,-0.00002950,-0.00033811,-0.00004554,0.00034865,0.0016
 8387,0.00004938,-0.00014962,-0.00023350,0.00020552,-0.00011375,-0.0000
 9132,0.00001330,-0.00027189,0.00002943,-0.00002925,-0.00085793,-0.0004
 4448,0.00100456,-0.00024988,-0.01010997,-0.04754912,-0.00175648,0.0077
 3776,0.04915801,-0.00009714,0.00011971,0.00001510,-0.00002624,-0.00001
 630,-0.00002493,0.00021787,-0.00225870,0.00208929,0.00006018,0.0001487
 9,0.00002888,-0.01533640,0.00432165,-0.00109379,0.00124626,0.00022583,
 0.00101313,0.00036652,0.00072581,-0.00069107,-0.00032849,0.00007791,-0
 .00031201,-0.00005248,-0.00004984,0.00002339,0.00038421,-0.00064994,0.
 00008253,0.00032888,-0.00006964,0.00013165,0.00001992,0.00004194,0.000
 07570,-0.00020496,-0.00034597,-0.00025448,-0.00103051,0.00033865,0.000
 28761,0.00088143,0.00024183,0.00018030,-0.28990072,0.06460236,-0.01060
 246,-0.00066259,0.00067887,-0.00005867,0.31517387,0.00067767,0.0005022
 0,-0.00045008,0.00001787,0.00004692,-0.00005345,-0.00129462,-0.0019210
 5,0.00188440,-0.00001525,0.00005843,0.00001398,-0.01416768,0.00221053,
 -0.00081190,0.00031186,-0.00040323,0.00044970,-0.00061270,0.00064252,-
 0.00029817,0.00011096,0.00016374,-0.00008990,-0.00002880,-0.00004975,0
 .00000967,0.00006470,-0.00016245,0.00022655,0.00016621,0.00023133,-0.0
 0012592,0.00007179,0.00009391,0.00000526,0.00002323,0.00004683,-0.0000
 4464,-0.00082629,0.00031331,0.00023606,0.00051074,0.00040276,-0.000418
 65,0.06589057,-0.06348608,0.00248473,0.03111089,-0.00641641,0.00194856
 ,-0.07093104,0.06539163,-0.00020025,0.00002820,0.00015523,0.00000530,-
 0.00001612,0.00002670,0.00265684,0.00305992,-0.00303948,-0.00001812,-0
 .00011326,-0.00005106,0.02575109,-0.00685122,-0.00014349,-0.00048921,0
 .00048785,-0.00181879,-0.00013403,-0.00089657,0.00079277,-0.00019839,-
 0.00043911,0.00077051,-0.00006539,0.00011785,-0.00002576,-0.00023656,0
 .00033843,0.00003887,-0.00019702,-0.00024952,-0.00007523,-0.00001697,0
 .00000634,-0.00005457,0.00020699,0.00023541,0.00032241,0.00149054,-0.0
 0042314,-0.00019133,-0.00034131,-0.00078147,0.00115584,-0.01237617,0.0
 0293469,-0.04593787,0.00131942,-0.00042614,-0.00104868,0.00977736,-0.0
 0508428,0.04973662,-0.00025739,0.00014406,-0.00008998,0.00002707,-0.00
 004105,-0.00005216,0.00148592,0.00039732,0.00017662,-0.00005473,-0.000
 07718,0.00004824,0.00581207,0.00563904,0.01572496,-0.00095793,0.000159
 09,0.00001983,0.00053333,0.00089697,-0.00024912,-0.00037185,0.00000044
 ,0.00013286,-0.00000119,0.00003813,-0.00045196,-0.00004281,-0.00007956
 ,-0.00005549,-0.00004510,0.00021498,-0.00007237,-0.00001850,-0.0000013
 4,0.00003748,-0.00001619,0.00013448,0.00002602,0.00016686,-0.00008934,
 -0.00022331,-0.00075392,-0.00140823,0.00287553,-0.08305614,-0.03169415
 ,-0.08374682,0.00030787,0.00071822,0.00296141,-0.01103961,-0.01108010,
 -0.02693413,0.08828222,0.00061868,-0.00020508,-0.00014387,-0.00001620,
 -0.00005909,0.00004822,0.00029588,0.00012699,-0.00051138,-0.00009121,-
 0.00001770,0.00001595,0.00596029,0.00321453,0.01248227,0.00016645,0.00
 075759,-0.00054299,0.00084585,0.00132616,0.00087387,-0.00032802,-0.000
 22848,0.00026448,-0.00016454,-0.00014166,-0.00022828,-0.00001187,-0.00
 006919,-0.00000907,0.00003781,0.00015327,-0.00024173,0.00004897,0.0001
 0921,-0.00015291,0.00000884,-0.00018890,-0.00001286,0.00018925,-0.0000
 3344,-0.00011400,-0.00144292,-0.00048757,0.00253361,-0.03179627,-0.074
 46484,-0.07246446,-0.01324725,-0.00851527,-0.02763500,0.00279808,0.002
 33487,0.00807216,0.03612820,0.07638862,0.00034795,-0.00009565,-0.00001
 588,-0.00010620,0.00014610,0.00011920,-0.00097564,-0.00009812,0.000772
 21,0.00001343,0.00000451,-0.00007578,-0.00964069,-0.00775608,-0.024129
 59,0.00079366,0.00002968,-0.00115832,-0.00036427,-0.00135171,0.0011436
 7,-0.00042595,-0.00024056,0.00090409,0.00004761,0.00096724,0.00041356,
 0.00001325,0.00003854,0.00002504,0.00025083,0.00001849,0.00038915,0.00
 006331,0.00000320,-0.00007652,0.00000941,0.00013048,0.00026160,0.00007
 735,0.00010300,0.00024344,0.00330729,0.00248917,-0.00315927,-0.0828365
 0,-0.07186766,-0.23828577,0.00022035,-0.00040471,-0.00012612,-0.000667
 56,0.00011808,-0.00061269,0.08987239,0.07776598,0.26336799||0.00000308
 ,0.00002097,-0.00001186,-0.00000248,-0.00000278,-0.00000266,0.00000695
 ,-0.00002080,0.00002035,0.00000073,-0.00000131,0.00000335,-0.00000282,
 0.00000405,-0.00000045,-0.00000936,-0.00000296,-0.00001589,0.00000254,
 0.00000325,0.00000907,-0.00000151,-0.00000290,-0.00000512,0.00000305,-
 0.00000333,0.00000590,0.00000011,0.00000101,0.00000424,0.00000008,0.00
 000347,0.00000576,-0.00000353,-0.00000099,-0.00000521,-0.00000156,-0.0
 0000479,0.00000419,0.00000540,0.00001186,-0.00000452,0.00000042,0.0000
 0388,-0.00000158,0.00000040,-0.00000263,-0.00000105,-0.00000078,-0.000
 00103,-0.00000457,0.00000009,-0.00000060,-0.00000050,-0.00000080,-0.00
 000437,0.00000053|||@


 HE THAT IS UNAWARE OF HIS IGNORANCE WILL BE MISLED BY HIS KNOWLEDGE.

                                        -- WHATLEY
 Job cpu time:  0 days  0 hours 44 minutes 39.0 seconds.
 File lengths (MBytes):  RWF=    138 Int=      0 D2E=      0 Chk=      9 Scr=      1
 Normal termination of Gaussian 09 at Tue Apr 19 23:54:35 2016.
