 Entering Gaussian System, Link 0=g09
 Input=Val-R-opt-6-311++g(d,p).com
 Output=Val-R-opt-6-311++g(d,p).log
 Initial command:
 /usr/local/gau/g09/l1.exe "/tmp/Gau-2387.inp" -scrdir="/tmp/"
 Entering Link 1 = /usr/local/gau/g09/l1.exe PID=      2389.
  
 Copyright (c) 1988,1990,1992,1993,1995,1998,2003,2009,2013,
            Gaussian, Inc.  All Rights Reserved.
  
 This is part of the Gaussian(R) 09 program.  It is based on
 the Gaussian(R) 03 system (copyright 2003, Gaussian, Inc.),
 the Gaussian(R) 98 system (copyright 1998, Gaussian, Inc.),
 the Gaussian(R) 94 system (copyright 1995, Gaussian, Inc.),
 the Gaussian 92(TM) system (copyright 1992, Gaussian, Inc.),
 the Gaussian 90(TM) system (copyright 1990, Gaussian, Inc.),
 the Gaussian 88(TM) system (copyright 1988, Gaussian, Inc.),
 the Gaussian 86(TM) system (copyright 1986, Carnegie Mellon
 University), and the Gaussian 82(TM) system (copyright 1983,
 Carnegie Mellon University). Gaussian is a federally registered
 trademark of Gaussian, Inc.
  
 This software contains proprietary and confidential information,
 including trade secrets, belonging to Gaussian, Inc.
  
 This software is provided under written license and may be
 used, copied, transmitted, or stored only in accord with that
 written license.
  
 The following legend is applicable only to US Government
 contracts under FAR:
  
                    RESTRICTED RIGHTS LEGEND
  
 Use, reproduction and disclosure by the US Government is
 subject to restrictions as set forth in subparagraphs (a)
 and (c) of the Commercial Computer Software - Restricted
 Rights clause in FAR 52.227-19.
  
 Gaussian, Inc.
 340 Quinnipiac St., Bldg. 40, Wallingford CT 06492
  
  
 ---------------------------------------------------------------
 Warning -- This program may not be used in any manner that
 competes with the business of Gaussian, Inc. or will provide
 assistance to any competitor of Gaussian, Inc.  The licensee
 of this program is prohibited from giving any competitor of
 Gaussian, Inc. access to this program.  By using this program,
 the user acknowledges that Gaussian, Inc. is engaged in the
 business of creating and licensing software in the field of
 computational chemistry and represents and warrants to the
 licensee that it is not a competitor of Gaussian, Inc. and that
 it will not use this program in any manner prohibited above.
 ---------------------------------------------------------------
  

 Cite this work as:
 Gaussian 09, Revision D.01,
 M. J. Frisch, G. W. Trucks, H. B. Schlegel, G. E. Scuseria, 
 M. A. Robb, J. R. Cheeseman, G. Scalmani, V. Barone, B. Mennucci, 
 G. A. Petersson, H. Nakatsuji, M. Caricato, X. Li, H. P. Hratchian, 
 A. F. Izmaylov, J. Bloino, G. Zheng, J. L. Sonnenberg, M. Hada, 
 M. Ehara, K. Toyota, R. Fukuda, J. Hasegawa, M. Ishida, T. Nakajima, 
 Y. Honda, O. Kitao, H. Nakai, T. Vreven, J. A. Montgomery, Jr., 
 J. E. Peralta, F. Ogliaro, M. Bearpark, J. J. Heyd, E. Brothers, 
 K. N. Kudin, V. N. Staroverov, T. Keith, R. Kobayashi, J. Normand, 
 K. Raghavachari, A. Rendell, J. C. Burant, S. S. Iyengar, J. Tomasi, 
 M. Cossi, N. Rega, J. M. Millam, M. Klene, J. E. Knox, J. B. Cross, 
 V. Bakken, C. Adamo, J. Jaramillo, R. Gomperts, R. E. Stratmann, 
 O. Yazyev, A. J. Austin, R. Cammi, C. Pomelli, J. W. Ochterski, 
 R. L. Martin, K. Morokuma, V. G. Zakrzewski, G. A. Voth, 
 P. Salvador, J. J. Dannenberg, S. Dapprich, A. D. Daniels, 
 O. Farkas, J. B. Foresman, J. V. Ortiz, J. Cioslowski, 
 and D. J. Fox, Gaussian, Inc., Wallingford CT, 2013.
 
 ******************************************
 Gaussian 09:  ES64L-G09RevD.01 24-Apr-2013
                28-Mar-2016 
 ******************************************
 %chk=Val-R-opt-6-311gdp.chk
 -------------------------------------------
 # opt b3lyp/6-311++g(d,p) geom=connectivity
 -------------------------------------------
 1/14=-1,18=20,19=15,26=3,38=1,57=2/1,3;
 2/9=110,12=2,17=6,18=5,40=1/2;
 3/5=4,6=6,7=1111,11=2,16=1,25=1,30=1,71=1,74=-5/1,2,3;
 4//1;
 5/5=2,38=5/2;
 6/7=2,8=2,9=2,10=2,28=1/1;
 7//1,2,3,16;
 1/14=-1,18=20,19=15,26=3/3(2);
 2/9=110/2;
 99//99;
 2/9=110/2;
 3/5=4,6=6,7=1111,11=2,16=1,25=1,30=1,71=1,74=-5/1,2,3;
 4/5=5,16=3,69=1/1;
 5/5=2,38=5/2;
 7//1,2,3,16;
 1/14=-1,18=20,19=15,26=3/3(-5);
 2/9=110/2;
 6/7=2,8=2,9=2,10=2,19=2,28=1/1;
 99/9=1/99;
 -----------------------
 Val-R-opt-6-311++g(d,p)
 -----------------------
 Symbolic Z-matrix:
 Charge =  0 Multiplicity = 1
 C                    -0.06364   0.44725   0.31136 
 H                     0.00542   0.40693   1.41975 
 C                    -1.32187  -0.32664  -0.05539 
 O                    -1.40545  -1.39494  -0.6618 
 O                    -2.45168   0.33469   0.39808 
 H                    -3.26015  -0.158     0.13788 
 C                     1.20849  -0.22798  -0.26162 
 C                     2.43128   0.70548  -0.16433 
 H                     2.61916   1.01148   0.87456 
 H                     3.32787   0.18524  -0.51934 
 H                     2.30788   1.60222  -0.77994 
 N                    -0.24972   1.81232  -0.19752 
 H                    -1.16141   2.20206   0.01017 
 H                     0.50721   2.44636   0.02259 
 H                     1.01205  -0.43365  -1.32156 
 C                     1.49693  -1.56096   0.45838 
 H                     0.66201  -2.25889   0.3591 
 H                     2.38707  -2.03723   0.03183 
 H                     1.69086  -1.39373   1.52696 
 

 GradGradGradGradGradGradGradGradGradGradGradGradGradGradGradGradGradGrad
 Berny optimization.
 Initialization pass.
                           ----------------------------
                           !    Initial Parameters    !
                           ! (Angstroms and Degrees)  !
 --------------------------                            --------------------------
 ! Name  Definition              Value          Derivative Info.                !
 --------------------------------------------------------------------------------
 ! R1    R(1,2)                  1.1113         estimate D2E/DX2                !
 ! R2    R(1,3)                  1.522          estimate D2E/DX2                !
 ! R3    R(1,7)                  1.55           estimate D2E/DX2                !
 ! R4    R(1,12)                 1.4687         estimate D2E/DX2                !
 ! R5    R(3,4)                  1.2312         estimate D2E/DX2                !
 ! R6    R(3,5)                  1.3854         estimate D2E/DX2                !
 ! R7    R(5,6)                  0.9819         estimate D2E/DX2                !
 ! R8    R(7,8)                  1.5414         estimate D2E/DX2                !
 ! R9    R(7,15)                 1.0974         estimate D2E/DX2                !
 ! R10   R(7,16)                 1.5422         estimate D2E/DX2                !
 ! R11   R(8,9)                  1.0992         estimate D2E/DX2                !
 ! R12   R(8,10)                 1.0957         estimate D2E/DX2                !
 ! R13   R(8,11)                 1.0947         estimate D2E/DX2                !
 ! R14   R(12,13)                1.013          estimate D2E/DX2                !
 ! R15   R(12,14)                1.0116         estimate D2E/DX2                !
 ! R16   R(16,17)                1.0927         estimate D2E/DX2                !
 ! R17   R(16,18)                1.096          estimate D2E/DX2                !
 ! R18   R(16,19)                1.0988         estimate D2E/DX2                !
 ! A1    A(2,1,3)              105.8583         estimate D2E/DX2                !
 ! A2    A(2,1,7)              107.5718         estimate D2E/DX2                !
 ! A3    A(2,1,12)             112.7798         estimate D2E/DX2                !
 ! A4    A(3,1,7)              111.5861         estimate D2E/DX2                !
 ! A5    A(3,1,12)             106.5203         estimate D2E/DX2                !
 ! A6    A(7,1,12)             112.3832         estimate D2E/DX2                !
 ! A7    A(1,3,4)              128.022          estimate D2E/DX2                !
 ! A8    A(1,3,5)              110.6445         estimate D2E/DX2                !
 ! A9    A(4,3,5)              121.333          estimate D2E/DX2                !
 ! A10   A(3,5,6)              110.1946         estimate D2E/DX2                !
 ! A11   A(1,7,8)              111.3414         estimate D2E/DX2                !
 ! A12   A(1,7,15)             106.9641         estimate D2E/DX2                !
 ! A13   A(1,7,16)             110.9435         estimate D2E/DX2                !
 ! A14   A(8,7,15)             108.4477         estimate D2E/DX2                !
 ! A15   A(8,7,16)             110.2175         estimate D2E/DX2                !
 ! A16   A(15,7,16)            108.8079         estimate D2E/DX2                !
 ! A17   A(7,8,9)              111.3356         estimate D2E/DX2                !
 ! A18   A(7,8,10)             109.9472         estimate D2E/DX2                !
 ! A19   A(7,8,11)             111.787          estimate D2E/DX2                !
 ! A20   A(9,8,10)             107.3698         estimate D2E/DX2                !
 ! A21   A(9,8,11)             108.8278         estimate D2E/DX2                !
 ! A22   A(10,8,11)            107.3961         estimate D2E/DX2                !
 ! A23   A(1,12,13)            113.6146         estimate D2E/DX2                !
 ! A24   A(1,12,14)            114.352          estimate D2E/DX2                !
 ! A25   A(13,12,14)           112.8078         estimate D2E/DX2                !
 ! A26   A(7,16,17)            111.5144         estimate D2E/DX2                !
 ! A27   A(7,16,18)            110.2317         estimate D2E/DX2                !
 ! A28   A(7,16,19)            110.8221         estimate D2E/DX2                !
 ! A29   A(17,16,18)           107.918          estimate D2E/DX2                !
 ! A30   A(17,16,19)           108.6877         estimate D2E/DX2                !
 ! A31   A(18,16,19)           107.5339         estimate D2E/DX2                !
 ! D1    D(2,1,3,4)           -112.9643         estimate D2E/DX2                !
 ! D2    D(2,1,3,5)             66.7863         estimate D2E/DX2                !
 ! D3    D(7,1,3,4)              3.7735         estimate D2E/DX2                !
 ! D4    D(7,1,3,5)           -176.4759         estimate D2E/DX2                !
 ! D5    D(12,1,3,4)           126.7643         estimate D2E/DX2                !
 ! D6    D(12,1,3,5)           -53.4851         estimate D2E/DX2                !
 ! D7    D(2,1,7,8)            -76.9741         estimate D2E/DX2                !
 ! D8    D(2,1,7,15)           164.707          estimate D2E/DX2                !
 ! D9    D(2,1,7,16)            46.1745         estimate D2E/DX2                !
 ! D10   D(3,1,7,8)            167.3331         estimate D2E/DX2                !
 ! D11   D(3,1,7,15)            49.0143         estimate D2E/DX2                !
 ! D12   D(3,1,7,16)           -69.5183         estimate D2E/DX2                !
 ! D13   D(12,1,7,8)            47.7518         estimate D2E/DX2                !
 ! D14   D(12,1,7,15)          -70.5671         estimate D2E/DX2                !
 ! D15   D(12,1,7,16)          170.9004         estimate D2E/DX2                !
 ! D16   D(2,1,12,13)          -69.944          estimate D2E/DX2                !
 ! D17   D(2,1,12,14)           61.5288         estimate D2E/DX2                !
 ! D18   D(3,1,12,13)           45.7582         estimate D2E/DX2                !
 ! D19   D(3,1,12,14)          177.231          estimate D2E/DX2                !
 ! D20   D(7,1,12,13)          168.2485         estimate D2E/DX2                !
 ! D21   D(7,1,12,14)          -60.2787         estimate D2E/DX2                !
 ! D22   D(1,3,5,6)            178.5384         estimate D2E/DX2                !
 ! D23   D(4,3,5,6)             -1.6916         estimate D2E/DX2                !
 ! D24   D(1,7,8,9)             57.7644         estimate D2E/DX2                !
 ! D25   D(1,7,8,10)           176.6274         estimate D2E/DX2                !
 ! D26   D(1,7,8,11)           -64.1903         estimate D2E/DX2                !
 ! D27   D(15,7,8,9)           175.1875         estimate D2E/DX2                !
 ! D28   D(15,7,8,10)          -65.9494         estimate D2E/DX2                !
 ! D29   D(15,7,8,11)           53.2329         estimate D2E/DX2                !
 ! D30   D(16,7,8,9)           -65.7984         estimate D2E/DX2                !
 ! D31   D(16,7,8,10)           53.0647         estimate D2E/DX2                !
 ! D32   D(16,7,8,11)          172.247          estimate D2E/DX2                !
 ! D33   D(1,7,16,17)           59.0885         estimate D2E/DX2                !
 ! D34   D(1,7,16,18)          178.9383         estimate D2E/DX2                !
 ! D35   D(1,7,16,19)          -62.1357         estimate D2E/DX2                !
 ! D36   D(8,7,16,17)         -177.1178         estimate D2E/DX2                !
 ! D37   D(8,7,16,18)          -57.268          estimate D2E/DX2                !
 ! D38   D(8,7,16,19)           61.658          estimate D2E/DX2                !
 ! D39   D(15,7,16,17)         -58.3236         estimate D2E/DX2                !
 ! D40   D(15,7,16,18)          61.5262         estimate D2E/DX2                !
 ! D41   D(15,7,16,19)        -179.5478         estimate D2E/DX2                !
 --------------------------------------------------------------------------------
 Trust Radius=3.00D-01 FncErr=1.00D-07 GrdErr=1.00D-06
 Number of steps in this run=    100 maximum allowed number of steps=    114.
 GradGradGradGradGradGradGradGradGradGradGradGradGradGradGradGradGradGrad

                          Input orientation:                          
 ---------------------------------------------------------------------
 Center     Atomic      Atomic             Coordinates (Angstroms)
 Number     Number       Type             X           Y           Z
 ---------------------------------------------------------------------
      1          6           0       -0.063635    0.447251    0.311363
      2          1           0        0.005416    0.406932    1.419747
      3          6           0       -1.321868   -0.326638   -0.055390
      4          8           0       -1.405451   -1.394935   -0.661799
      5          8           0       -2.451678    0.334691    0.398080
      6          1           0       -3.260153   -0.157999    0.137882
      7          6           0        1.208485   -0.227977   -0.261616
      8          6           0        2.431277    0.705476   -0.164331
      9          1           0        2.619163    1.011479    0.874563
     10          1           0        3.327874    0.185237   -0.519344
     11          1           0        2.307880    1.602219   -0.779938
     12          7           0       -0.249721    1.812322   -0.197523
     13          1           0       -1.161406    2.202063    0.010168
     14          1           0        0.507211    2.446363    0.022592
     15          1           0        1.012054   -0.433649   -1.321557
     16          6           0        1.496925   -1.560962    0.458376
     17          1           0        0.662013   -2.258893    0.359096
     18          1           0        2.387066   -2.037229    0.031833
     19          1           0        1.690860   -1.393730    1.526958
 ---------------------------------------------------------------------
                    Distance matrix (angstroms):
                    1          2          3          4          5
     1  C    0.000000
     2  H    1.111264   0.000000
     3  C    1.522026   2.115617   0.000000
     4  O    2.478137   3.093558   1.231250   0.000000
     5  O    2.392266   2.662017   1.385446   2.282442   0.000000
     6  H    3.257937   3.553346   1.955183   2.368421   0.981875
     7  C    1.550009   2.162745   2.540659   2.890432   3.761461
     8  C    2.552949   2.912599   3.893999   4.402236   4.929202
     9  H    2.798741   2.737586   4.264633   4.934446   5.137948
    10  H    3.501579   3.853304   4.700784   4.992154   5.853821
    11  H    2.854640   3.401274   4.173791   4.773439   5.064360
    12  N    1.468677   2.157725   2.396842   3.440605   2.717858
    13  H    2.091694   2.563373   2.534635   3.667355   2.302684
    14  H    2.098977   2.522522   3.322822   4.345370   3.654473
    15  H    2.144649   3.038856   2.657409   2.683968   3.942707
    16  C    2.547524   2.649800   3.119792   3.115468   4.380480
    17  H    2.802153   2.943250   2.800213   2.462328   4.052563
    18  H    3.500959   3.684085   4.085330   3.908561   5.401258
    19  H    2.818712   2.468724   3.566376   3.791807   4.628437
                    6          7          8          9         10
     6  H    0.000000
     7  C    4.487006   0.000000
     8  C    5.764486   1.541434   0.000000
     9  H    6.039597   2.194804   1.099200   0.000000
    10  H    6.629620   2.174622   1.095705   1.768594   0.000000
    11  H    5.911324   2.197031   1.094690   1.784165   1.765258
    12  N    3.613497   2.508644   2.900683   3.165630   3.943369
    13  H    3.160845   3.405194   3.895843   4.056769   4.949910
    14  H    4.581378   2.779326   2.601472   2.691670   3.655479
    15  H    4.523019   1.097434   2.156611   3.081256   2.527763
    16  C    4.969991   1.542218   2.529332   2.837267   2.712475
    17  H    4.454894   2.192837   3.491669   3.845969   3.721860
    18  H    5.952633   2.179119   2.750066   3.171543   2.475534
    19  H    5.288581   2.188758   2.795593   2.659398   3.059461
                   11         12         13         14         15
    11  H    0.000000
    12  N    2.631477   0.000000
    13  H    3.608327   1.013017   0.000000
    14  H    2.144538   1.011635   1.686452   0.000000
    15  H    2.473312   2.810679   3.666660   3.218085   0.000000
    16  C    3.492389   3.854870   4.629036   4.150674   2.161966
    17  H    4.349076   4.209023   4.831846   4.719813   2.505721
    18  H    3.729722   4.671648   5.528446   4.861742   2.508743
    19  H    3.831213   4.125343   4.833818   4.290741   3.081651
                   16         17         18         19
    16  C    0.000000
    17  H    1.092722   0.000000
    18  H    1.095956   1.769758   0.000000
    19  H    1.098838   1.780712   1.770365   0.000000
 Stoichiometry    C5H11NO2
 Framework group  C1[X(C5H11NO2)]
 Deg. of freedom    51
 Full point group                 C1      NOp   1
 Largest Abelian subgroup         C1      NOp   1
 Largest concise Abelian subgroup C1      NOp   1
                         Standard orientation:                         
 ---------------------------------------------------------------------
 Center     Atomic      Atomic             Coordinates (Angstroms)
 Number     Number       Type             X           Y           Z
 ---------------------------------------------------------------------
      1          6           0       -0.063635    0.447251    0.311363
      2          1           0        0.005416    0.406932    1.419747
      3          6           0       -1.321868   -0.326638   -0.055390
      4          8           0       -1.405451   -1.394935   -0.661799
      5          8           0       -2.451678    0.334691    0.398080
      6          1           0       -3.260153   -0.157999    0.137882
      7          6           0        1.208485   -0.227977   -0.261616
      8          6           0        2.431277    0.705476   -0.164331
      9          1           0        2.619163    1.011479    0.874563
     10          1           0        3.327874    0.185237   -0.519344
     11          1           0        2.307880    1.602219   -0.779938
     12          7           0       -0.249721    1.812322   -0.197523
     13          1           0       -1.161406    2.202063    0.010168
     14          1           0        0.507211    2.446363    0.022592
     15          1           0        1.012054   -0.433649   -1.321557
     16          6           0        1.496925   -1.560962    0.458376
     17          1           0        0.662013   -2.258893    0.359096
     18          1           0        2.387066   -2.037229    0.031833
     19          1           0        1.690860   -1.393730    1.526958
 ---------------------------------------------------------------------
 Rotational constants (GHZ):      3.0177848      1.5182281      1.1115266
 Standard basis: 6-311++G(d,p) (5D, 7F)
 There are   261 symmetry adapted cartesian basis functions of A   symmetry.
 There are   253 symmetry adapted basis functions of A   symmetry.
   253 basis functions,   387 primitive gaussians,   261 cartesian basis functions
    32 alpha electrons       32 beta electrons
       nuclear repulsion energy       402.8202670133 Hartrees.
 NAtoms=   19 NActive=   19 NUniq=   19 SFac= 1.00D+00 NAtFMM=   60 NAOKFM=F Big=F
 Integral buffers will be    131072 words long.
 Raffenetti 2 integral format.
 Two-electron integral symmetry is turned on.
 One-electron integrals computed using PRISM.
 NBasis=   253 RedAO= T EigKep=  8.94D-06  NBF=   253
 NBsUse=   253 1.00D-06 EigRej= -1.00D+00 NBFU=   253
 ExpMin= 3.60D-02 ExpMax= 8.59D+03 ExpMxC= 1.30D+03 IAcc=3 IRadAn=         5 AccDes= 0.00D+00
 Harris functional with IExCor=  402 and IRadAn=       5 diagonalized for initial guess.
 HarFok:  IExCor=  402 AccDes= 0.00D+00 IRadAn=         5 IDoV= 1 UseB2=F ITyADJ=14
 ICtDFT=  3500011 ScaDFX=  1.000000  1.000000  1.000000  1.000000
 FoFCou: FMM=F IPFlag=           0 FMFlag=      100000 FMFlg1=           0
         NFxFlg=           0 DoJE=T BraDBF=F KetDBF=T FulRan=T
         wScrn=  0.000000 ICntrl=     500 IOpCl=  0 I1Cent=   200000004 NGrid=           0
         NMat0=    1 NMatS0=      1 NMatT0=    0 NMatD0=    1 NMtDS0=    0 NMtDT0=    0
 Petite list used in FoFCou.
 Requested convergence on RMS density matrix=1.00D-08 within 128 cycles.
 Requested convergence on MAX density matrix=1.00D-06.
 Requested convergence on             energy=1.00D-06.
 No special actions if energy rises.
 SCF Done:  E(RB3LYP) =  -402.495023901     A.U. after   13 cycles
            NFock= 13  Conv=0.59D-08     -V/T= 2.0047

 **********************************************************************

            Population analysis using the SCF density.

 **********************************************************************

 Orbital symmetries:
       Occupied  (A) (A) (A) (A) (A) (A) (A) (A) (A) (A) (A) (A)
                 (A) (A) (A) (A) (A) (A) (A) (A) (A) (A) (A) (A)
                 (A) (A) (A) (A) (A) (A) (A) (A)
       Virtual   (A) (A) (A) (A) (A) (A) (A) (A) (A) (A) (A) (A)
                 (A) (A) (A) (A) (A) (A) (A) (A) (A) (A) (A) (A)
                 (A) (A) (A) (A) (A) (A) (A) (A) (A) (A) (A) (A)
                 (A) (A) (A) (A) (A) (A) (A) (A) (A) (A) (A) (A)
                 (A) (A) (A) (A) (A) (A) (A) (A) (A) (A) (A) (A)
                 (A) (A) (A) (A) (A) (A) (A) (A) (A) (A) (A) (A)
                 (A) (A) (A) (A) (A) (A) (A) (A) (A) (A) (A) (A)
                 (A) (A) (A) (A) (A) (A) (A) (A) (A) (A) (A) (A)
                 (A) (A) (A) (A) (A) (A) (A) (A) (A) (A) (A) (A)
                 (A) (A) (A) (A) (A) (A) (A) (A) (A) (A) (A) (A)
                 (A) (A) (A) (A) (A) (A) (A) (A) (A) (A) (A) (A)
                 (A) (A) (A) (A) (A) (A) (A) (A) (A) (A) (A) (A)
                 (A) (A) (A) (A) (A) (A) (A) (A) (A) (A) (A) (A)
                 (A) (A) (A) (A) (A) (A) (A) (A) (A) (A) (A) (A)
                 (A) (A) (A) (A) (A) (A) (A) (A) (A) (A) (A) (A)
                 (A) (A) (A) (A) (A) (A) (A) (A) (A) (A) (A) (A)
                 (A) (A) (A) (A) (A) (A) (A) (A) (A) (A) (A) (A)
                 (A) (A) (A) (A) (A) (A) (A) (A) (A) (A) (A) (A)
                 (A) (A) (A) (A) (A)
 The electronic state is 1-A.
 Alpha  occ. eigenvalues --  -19.18334 -19.13089 -14.30538 -10.32325 -10.22929
 Alpha  occ. eigenvalues --  -10.18384 -10.16684 -10.15818  -1.10963  -1.02486
 Alpha  occ. eigenvalues --   -0.90288  -0.79759  -0.72224  -0.68545  -0.63115
 Alpha  occ. eigenvalues --   -0.56369  -0.52671  -0.50306  -0.49404  -0.47687
 Alpha  occ. eigenvalues --   -0.44936  -0.43123  -0.42036  -0.40961  -0.39501
 Alpha  occ. eigenvalues --   -0.38576  -0.35044  -0.34479  -0.34055  -0.33192
 Alpha  occ. eigenvalues --   -0.29480  -0.24934
 Alpha virt. eigenvalues --   -0.03051  -0.01348  -0.00170   0.00743   0.01351
 Alpha virt. eigenvalues --    0.02683   0.03723   0.03958   0.04846   0.05177
 Alpha virt. eigenvalues --    0.06128   0.07251   0.08307   0.09069   0.09275
 Alpha virt. eigenvalues --    0.09708   0.09920   0.10423   0.11254   0.12076
 Alpha virt. eigenvalues --    0.12269   0.13040   0.13360   0.13843   0.14530
 Alpha virt. eigenvalues --    0.14842   0.15474   0.15925   0.16626   0.16781
 Alpha virt. eigenvalues --    0.17273   0.18145   0.19011   0.19164   0.19536
 Alpha virt. eigenvalues --    0.20006   0.21394   0.21747   0.22189   0.23835
 Alpha virt. eigenvalues --    0.23853   0.24332   0.24927   0.25386   0.26283
 Alpha virt. eigenvalues --    0.26663   0.28803   0.29209   0.30146   0.30377
 Alpha virt. eigenvalues --    0.30514   0.31637   0.32156   0.32964   0.33219
 Alpha virt. eigenvalues --    0.35091   0.35751   0.36893   0.39060   0.39897
 Alpha virt. eigenvalues --    0.41175   0.43836   0.45160   0.47888   0.49815
 Alpha virt. eigenvalues --    0.51378   0.52637   0.54500   0.55450   0.56344
 Alpha virt. eigenvalues --    0.59028   0.61343   0.62193   0.62549   0.64053
 Alpha virt. eigenvalues --    0.65113   0.65748   0.67361   0.67810   0.69205
 Alpha virt. eigenvalues --    0.69788   0.70359   0.72401   0.76007   0.76382
 Alpha virt. eigenvalues --    0.77568   0.77899   0.79948   0.82909   0.87443
 Alpha virt. eigenvalues --    0.87928   0.90326   0.92003   1.00233   1.02084
 Alpha virt. eigenvalues --    1.02325   1.03914   1.07895   1.12148   1.13118
 Alpha virt. eigenvalues --    1.14417   1.17216   1.20548   1.21264   1.22200
 Alpha virt. eigenvalues --    1.24381   1.25634   1.30446   1.32316   1.38488
 Alpha virt. eigenvalues --    1.41725   1.42996   1.45502   1.46456   1.46816
 Alpha virt. eigenvalues --    1.49637   1.53200   1.53780   1.54178   1.55692
 Alpha virt. eigenvalues --    1.57778   1.59057   1.59661   1.62671   1.63065
 Alpha virt. eigenvalues --    1.65675   1.66794   1.69888   1.70505   1.70914
 Alpha virt. eigenvalues --    1.72215   1.75868   1.76396   1.79707   1.81173
 Alpha virt. eigenvalues --    1.84689   1.88386   1.91620   1.93933   1.95767
 Alpha virt. eigenvalues --    1.96979   2.00511   2.02112   2.05602   2.07191
 Alpha virt. eigenvalues --    2.11250   2.13202   2.15965   2.18004   2.20318
 Alpha virt. eigenvalues --    2.25127   2.31403   2.35402   2.38395   2.46486
 Alpha virt. eigenvalues --    2.46998   2.48184   2.49987   2.51608   2.52736
 Alpha virt. eigenvalues --    2.54898   2.55933   2.57357   2.59981   2.62329
 Alpha virt. eigenvalues --    2.64314   2.64891   2.69305   2.70926   2.73099
 Alpha virt. eigenvalues --    2.75446   2.78557   2.79723   2.84064   2.84805
 Alpha virt. eigenvalues --    2.86867   2.89345   2.92193   2.93989   2.98753
 Alpha virt. eigenvalues --    3.00791   3.02301   3.05620   3.08372   3.13478
 Alpha virt. eigenvalues --    3.14176   3.17612   3.19319   3.22882   3.34741
 Alpha virt. eigenvalues --    3.44647   3.53494   3.57650   3.65816   3.77115
 Alpha virt. eigenvalues --    3.78972   3.80967   3.81810   3.83789   3.90804
 Alpha virt. eigenvalues --    4.05483   4.05846   4.15374   4.28201   4.30581
 Alpha virt. eigenvalues --    4.77250   4.84544   4.97627   5.05819   5.18500
 Alpha virt. eigenvalues --    5.34341   5.55160   5.82468  23.73804  23.79201
 Alpha virt. eigenvalues --   23.83015  23.96259  23.97486  35.61386  49.84728
 Alpha virt. eigenvalues --   49.97492
          Condensed to atoms (all electrons):
               1          2          3          4          5          6
     1  C    8.418898   0.513595  -1.483911  -0.046731  -0.289990  -0.070917
     2  H    0.513595   0.606387  -0.095149  -0.005945  -0.011524   0.003907
     3  C   -1.483911  -0.095149   6.581746   0.422419   0.281254   0.073539
     4  O   -0.046731  -0.005945   0.422419   8.010448  -0.114865  -0.007346
     5  O   -0.289990  -0.011524   0.281254  -0.114865   8.087549   0.234622
     6  H   -0.070917   0.003907   0.073539  -0.007346   0.234622   0.463199
     7  C   -0.958474  -0.052962   0.241805   0.049532   0.043899  -0.000424
     8  C    0.398587   0.001236  -0.156601   0.012928   0.002509   0.000440
     9  H   -0.051766   0.008008   0.000864   0.000375   0.000094  -0.000057
    10  H    0.028564  -0.000920  -0.001838   0.000252   0.000324  -0.000062
    11  H   -0.026457   0.002813   0.021028   0.000632   0.000680   0.000351
    12  N    0.046981  -0.103979   0.046942  -0.011716  -0.002080   0.006717
    13  H    0.009731   0.005369  -0.055198   0.001105   0.005639  -0.002407
    14  H   -0.022804  -0.002861  -0.010219  -0.000423  -0.000839  -0.000788
    15  H   -0.096138   0.018145  -0.032666  -0.004466  -0.002676  -0.001881
    16  C   -0.242936  -0.100201   0.264910  -0.042457  -0.014626   0.000322
    17  H   -0.031813  -0.006728   0.044334   0.003939   0.001093   0.001706
    18  H    0.053164  -0.002430  -0.007770  -0.000087  -0.000384   0.000030
    19  H   -0.094656   0.014248   0.009593   0.003723   0.002125  -0.000381
               7          8          9         10         11         12
     1  C   -0.958474   0.398587  -0.051766   0.028564  -0.026457   0.046981
     2  H   -0.052962   0.001236   0.008008  -0.000920   0.002813  -0.103979
     3  C    0.241805  -0.156601   0.000864  -0.001838   0.021028   0.046942
     4  O    0.049532   0.012928   0.000375   0.000252   0.000632  -0.011716
     5  O    0.043899   0.002509   0.000094   0.000324   0.000680  -0.002080
     6  H   -0.000424   0.000440  -0.000057  -0.000062   0.000351   0.006717
     7  C    6.470172  -0.419025   0.073539  -0.097524  -0.018284  -0.111552
     8  C   -0.419025   5.901799   0.353703   0.428122   0.372155  -0.012851
     9  H    0.073539   0.353703   0.551652  -0.028163  -0.045243  -0.011222
    10  H   -0.097524   0.428122  -0.028163   0.547148  -0.019804   0.004662
    11  H   -0.018284   0.372155  -0.045243  -0.019804   0.582112   0.004076
    12  N   -0.111552  -0.012851  -0.011222   0.004662   0.004076   6.684487
    13  H    0.021824  -0.000786  -0.000254   0.000365  -0.000683   0.378902
    14  H   -0.035710   0.024815  -0.001869   0.000894   0.000895   0.389051
    15  H    0.568762  -0.091553   0.010517  -0.008872  -0.006312  -0.003237
    16  C    0.128700  -0.184487  -0.026067  -0.003337   0.009392   0.044070
    17  H   -0.095910   0.021184  -0.002839   0.001153  -0.001937   0.002710
    18  H   -0.091752   0.005392   0.002079   0.002350   0.001552  -0.003916
    19  H    0.093557  -0.027825   0.009597   0.000881  -0.001835  -0.003409
              13         14         15         16         17         18
     1  C    0.009731  -0.022804  -0.096138  -0.242936  -0.031813   0.053164
     2  H    0.005369  -0.002861   0.018145  -0.100201  -0.006728  -0.002430
     3  C   -0.055198  -0.010219  -0.032666   0.264910   0.044334  -0.007770
     4  O    0.001105  -0.000423  -0.004466  -0.042457   0.003939  -0.000087
     5  O    0.005639  -0.000839  -0.002676  -0.014626   0.001093  -0.000384
     6  H   -0.002407  -0.000788  -0.001881   0.000322   0.001706   0.000030
     7  C    0.021824  -0.035710   0.568762   0.128700  -0.095910  -0.091752
     8  C   -0.000786   0.024815  -0.091553  -0.184487   0.021184   0.005392
     9  H   -0.000254  -0.001869   0.010517  -0.026067  -0.002839   0.002079
    10  H    0.000365   0.000894  -0.008872  -0.003337   0.001153   0.002350
    11  H   -0.000683   0.000895  -0.006312   0.009392  -0.001937   0.001552
    12  N    0.378902   0.389051  -0.003237   0.044070   0.002710  -0.003916
    13  H    0.438167  -0.048617  -0.000254  -0.004992   0.000022   0.000164
    14  H   -0.048617   0.464485   0.002013   0.004380  -0.000333  -0.001017
    15  H   -0.000254   0.002013   0.528921  -0.083344  -0.016383  -0.013380
    16  C   -0.004992   0.004380  -0.083344   5.640601   0.444594   0.404150
    17  H    0.000022  -0.000333  -0.016383   0.444594   0.530001  -0.014431
    18  H    0.000164  -0.001017  -0.013380   0.404150  -0.014431   0.571119
    19  H   -0.001085   0.002026   0.015264   0.354974  -0.046396  -0.041231
              19
     1  C   -0.094656
     2  H    0.014248
     3  C    0.009593
     4  O    0.003723
     5  O    0.002125
     6  H   -0.000381
     7  C    0.093557
     8  C   -0.027825
     9  H    0.009597
    10  H    0.000881
    11  H   -0.001835
    12  N   -0.003409
    13  H   -0.001085
    14  H    0.002026
    15  H    0.015264
    16  C    0.354974
    17  H   -0.046396
    18  H   -0.041231
    19  H    0.586531
 Mulliken charges:
               1
     1  C   -0.052927
     2  H    0.208991
     3  C   -0.145083
     4  O   -0.271319
     5  O   -0.222803
     6  H    0.299429
     7  C    0.189828
     8  C   -0.629741
     9  H    0.157053
    10  H    0.145805
    11  H    0.124867
    12  N   -0.344635
    13  H    0.252988
    14  H    0.236919
    15  H    0.217539
    16  C   -0.593647
    17  H    0.166035
    18  H    0.136399
    19  H    0.124300
 Sum of Mulliken charges =   0.00000
 Mulliken charges with hydrogens summed into heavy atoms:
               1
     1  C    0.156065
     3  C   -0.145083
     4  O   -0.271319
     5  O    0.076626
     7  C    0.407366
     8  C   -0.202016
    12  N    0.145272
    16  C   -0.166913
 Electronic spatial extent (au):  <R**2>=           1105.5766
 Charge=              0.0000 electrons
 Dipole moment (field-independent basis, Debye):
    X=              0.0606    Y=              1.5106    Z=              1.5227  Tot=              2.1457
 Quadrupole moment (field-independent basis, Debye-Ang):
   XX=            -43.4284   YY=            -52.1299   ZZ=            -53.1562
   XY=             -0.6462   XZ=             -0.9688   YZ=             -0.2627
 Traceless Quadrupole moment (field-independent basis, Debye-Ang):
   XX=              6.1431   YY=             -2.5584   ZZ=             -3.5847
   XY=             -0.6462   XZ=             -0.9688   YZ=             -0.2627
 Octapole moment (field-independent basis, Debye-Ang**2):
  XXX=            -47.5893  YYY=             16.4303  ZZZ=              1.1555  XYY=              0.5615
  XXY=             -1.3677  XXZ=             -2.8874  XZZ=             -1.8021  YZZ=             -1.6630
  YYZ=              5.3469  XYZ=              4.5810
 Hexadecapole moment (field-independent basis, Debye-Ang**3):
 XXXX=           -739.9360 YYYY=           -428.3984 ZZZZ=           -127.5258 XXXY=              8.7901
 XXXZ=             -4.6809 YYYX=             -5.1272 YYYZ=              6.1819 ZZZX=             -0.2010
 ZZZY=              6.8428 XXYY=           -225.3707 XXZZ=           -173.0519 YYZZ=           -106.7941
 XXYZ=             -4.0111 YYXZ=             -7.7415 ZZXY=              1.6349
 N-N= 4.028202670133D+02 E-N=-1.745998566741D+03  KE= 4.006065157370D+02
 Calling FoFJK, ICntrl=      2127 FMM=F ISym2X=0 I1Cent= 0 IOpClX= 0 NMat=1 NMatS=1 NMatT=0.
 ***** Axes restored to original set *****
 -------------------------------------------------------------------
 Center     Atomic                   Forces (Hartrees/Bohr)
 Number     Number              X              Y              Z
 -------------------------------------------------------------------
      1        6           0.002540080    0.003602417    0.000968406
      2        1          -0.001047171    0.000416622   -0.002845675
      3        6          -0.024408086   -0.032373324   -0.016136796
      4        8           0.003867314    0.039346840    0.021985955
      5        8           0.005097435   -0.009581791   -0.005697057
      6        1           0.014245882    0.002522395    0.000958693
      7        6           0.000651687   -0.000236507    0.000743757
      8        6          -0.001504823   -0.001056320    0.000161647
      9        1          -0.000146134   -0.000404818   -0.001744838
     10        1          -0.001522284    0.000979343    0.000498385
     11        1           0.000797320   -0.001296292    0.001062509
     12        7           0.000245452   -0.003840670   -0.008086136
     13        1           0.004440804    0.000196482    0.003871455
     14        1          -0.003697210   -0.001369771    0.003745291
     15        1           0.000766437    0.000288204    0.001873801
     16        6          -0.000303363    0.001368986   -0.000622212
     17        1           0.001651757    0.000947773    0.000410525
     18        1          -0.001454512    0.000834816    0.000630371
     19        1          -0.000220584   -0.000344384   -0.001778079
 -------------------------------------------------------------------
 Cartesian Forces:  Max     0.039346840 RMS     0.008901935

 GradGradGradGradGradGradGradGradGradGradGradGradGradGradGradGradGradGrad
 Berny optimization.
 FormGI is forming the generalized inverse of G from B-inverse, IUseBI=4.
 Internal  Forces:  Max     0.045231582 RMS     0.005697862
 Search for a local minimum.
 Step number   1 out of a maximum of  100
 All quantities printed in internal units (Hartrees-Bohrs-Radians)
 Mixed Optimization -- RFO/linear search
 Second derivative matrix not updated -- first step.
 ITU=  0
     Eigenvalues ---    0.00230   0.00230   0.00230   0.00475   0.00783
     Eigenvalues ---    0.00786   0.01884   0.02902   0.03477   0.04490
     Eigenvalues ---    0.04680   0.04732   0.04945   0.05291   0.05368
     Eigenvalues ---    0.05547   0.05558   0.06672   0.16000   0.16000
     Eigenvalues ---    0.16000   0.16000   0.16000   0.16000   0.16000
     Eigenvalues ---    0.16000   0.16000   0.16594   0.16782   0.17624
     Eigenvalues ---    0.17883   0.25000   0.25000   0.27650   0.28323
     Eigenvalues ---    0.28392   0.30172   0.32467   0.33771   0.33811
     Eigenvalues ---    0.33968   0.34133   0.34162   0.34276   0.34500
     Eigenvalues ---    0.35899   0.45471   0.45700   0.48120   0.51022
     Eigenvalues ---    0.90568
 RFO step:  Lambda=-5.93015000D-03 EMin= 2.30000000D-03
 Linear search not attempted -- first point.
 Iteration  1 RMS(Cart)=  0.02841333 RMS(Int)=  0.00134517
 Iteration  2 RMS(Cart)=  0.00118770 RMS(Int)=  0.00082881
 Iteration  3 RMS(Cart)=  0.00000359 RMS(Int)=  0.00082881
 Iteration  4 RMS(Cart)=  0.00000002 RMS(Int)=  0.00082881
 Variable       Old X    -DE/DX   Delta X   Delta X   Delta X     New X
                                 (Linear)    (Quad)   (Total)
    R1        2.09999  -0.00292   0.00000  -0.00883  -0.00883   2.09116
    R2        2.87621   0.00076   0.00000   0.00248   0.00248   2.87869
    R3        2.92909  -0.00198   0.00000  -0.00702  -0.00702   2.92208
    R4        2.77540  -0.00462   0.00000  -0.01266  -0.01266   2.76274
    R5        2.32673  -0.04523   0.00000  -0.04962  -0.04962   2.27711
    R6        2.61811  -0.02069   0.00000  -0.04248  -0.04248   2.57564
    R7        1.85547  -0.01325   0.00000  -0.02567  -0.02567   1.82980
    R8        2.91289  -0.00297   0.00000  -0.01023  -0.01023   2.90266
    R9        2.07385  -0.00200   0.00000  -0.00579  -0.00579   2.06806
   R10        2.91437  -0.00312   0.00000  -0.01079  -0.01079   2.90358
   R11        2.07719  -0.00179   0.00000  -0.00520  -0.00520   2.07198
   R12        2.07058  -0.00187   0.00000  -0.00538  -0.00538   2.06520
   R13        2.06866  -0.00175   0.00000  -0.00502  -0.00502   2.06365
   R14        1.91432  -0.00313   0.00000  -0.00679  -0.00679   1.90753
   R15        1.91171  -0.00281   0.00000  -0.00607  -0.00607   1.90564
   R16        2.06495  -0.00190   0.00000  -0.00543  -0.00543   2.05952
   R17        2.07106  -0.00179   0.00000  -0.00516  -0.00516   2.06590
   R18        2.07650  -0.00182   0.00000  -0.00529  -0.00529   2.07122
    A1        1.84758  -0.00071   0.00000  -0.00806  -0.00805   1.83953
    A2        1.87748   0.00020   0.00000  -0.00053  -0.00052   1.87697
    A3        1.96838  -0.00022   0.00000  -0.00641  -0.00640   1.96198
    A4        1.94754   0.00073   0.00000   0.00763   0.00760   1.95515
    A5        1.85913   0.00052   0.00000   0.00651   0.00647   1.86560
    A6        1.96146  -0.00051   0.00000   0.00056   0.00051   1.96196
    A7        2.23441  -0.00120   0.00000  -0.00470  -0.00472   2.22969
    A8        1.93111   0.00051   0.00000   0.00198   0.00196   1.93307
    A9        2.11766   0.00069   0.00000   0.00268   0.00266   2.12032
   A10        1.92326  -0.01092   0.00000  -0.06581  -0.06581   1.85745
   A11        1.94327   0.00002   0.00000  -0.00073  -0.00073   1.94254
   A12        1.86688   0.00005   0.00000   0.00404   0.00404   1.87092
   A13        1.93633   0.00037   0.00000   0.00168   0.00167   1.93800
   A14        1.89277   0.00008   0.00000  -0.00048  -0.00048   1.89229
   A15        1.92366  -0.00055   0.00000  -0.00498  -0.00498   1.91868
   A16        1.89906   0.00004   0.00000   0.00074   0.00073   1.89979
   A17        1.94317   0.00014   0.00000   0.00112   0.00112   1.94429
   A18        1.91894  -0.00014   0.00000  -0.00144  -0.00144   1.91750
   A19        1.95105   0.00083   0.00000   0.00533   0.00533   1.95638
   A20        1.87396  -0.00008   0.00000  -0.00113  -0.00113   1.87283
   A21        1.89940  -0.00040   0.00000  -0.00130  -0.00131   1.89809
   A22        1.87442  -0.00041   0.00000  -0.00297  -0.00297   1.87145
   A23        1.98295  -0.00152   0.00000  -0.03723  -0.04034   1.94261
   A24        1.99582  -0.00252   0.00000  -0.04307  -0.04615   1.94966
   A25        1.96887  -0.00081   0.00000  -0.04666  -0.05218   1.91668
   A26        1.94629   0.00063   0.00000   0.00430   0.00430   1.95059
   A27        1.92391  -0.00026   0.00000  -0.00202  -0.00202   1.92188
   A28        1.93421   0.00003   0.00000   0.00008   0.00008   1.93429
   A29        1.88352  -0.00016   0.00000  -0.00084  -0.00084   1.88269
   A30        1.89696  -0.00025   0.00000  -0.00066  -0.00067   1.89629
   A31        1.87682   0.00000   0.00000  -0.00105  -0.00105   1.87577
    D1       -1.97160  -0.00034   0.00000  -0.01860  -0.01860  -1.99020
    D2        1.16564  -0.00050   0.00000  -0.02989  -0.02988   1.13576
    D3        0.06586  -0.00014   0.00000  -0.02001  -0.02005   0.04581
    D4       -3.08009  -0.00030   0.00000  -0.03131  -0.03133  -3.11141
    D5        2.21245   0.00002   0.00000  -0.01034  -0.01032   2.20213
    D6       -0.93349  -0.00014   0.00000  -0.02163  -0.02160  -0.95510
    D7       -1.34345   0.00021   0.00000   0.00012   0.00012  -1.34333
    D8        2.87468   0.00007   0.00000  -0.00135  -0.00135   2.87333
    D9        0.80590  -0.00022   0.00000  -0.00561  -0.00561   0.80028
   D10        2.92051   0.00055   0.00000   0.00601   0.00601   2.92653
   D11        0.85546   0.00041   0.00000   0.00454   0.00455   0.86001
   D12       -1.21332   0.00013   0.00000   0.00028   0.00028  -1.21304
   D13        0.83343  -0.00027   0.00000  -0.00805  -0.00805   0.82538
   D14       -1.23163  -0.00041   0.00000  -0.00951  -0.00952  -1.24114
   D15        2.98277  -0.00070   0.00000  -0.01377  -0.01378   2.96899
   D16       -1.22075   0.00285   0.00000   0.08526   0.08385  -1.13690
   D17        1.07388  -0.00232   0.00000  -0.06274  -0.06131   1.01257
   D18        0.79863   0.00219   0.00000   0.07608   0.07466   0.87329
   D19        3.09326  -0.00299   0.00000  -0.07192  -0.07051   3.02276
   D20        2.93649   0.00313   0.00000   0.09032   0.08890   3.02539
   D21       -1.05206  -0.00204   0.00000  -0.05769  -0.05627  -1.10833
   D22        3.11608   0.00015   0.00000   0.00827   0.00829   3.12437
   D23       -0.02952   0.00000   0.00000  -0.00217  -0.00219  -0.03172
   D24        1.00818   0.00008   0.00000  -0.00017  -0.00016   1.00802
   D25        3.08273  -0.00002   0.00000  -0.00180  -0.00179   3.08094
   D26       -1.12033  -0.00009   0.00000  -0.00307  -0.00307  -1.12340
   D27        3.05760   0.00021   0.00000   0.00404   0.00405   3.06164
   D28       -1.15103   0.00011   0.00000   0.00241   0.00241  -1.14862
   D29        0.92909   0.00004   0.00000   0.00114   0.00114   0.93023
   D30       -1.14840  -0.00001   0.00000   0.00174   0.00174  -1.14666
   D31        0.92615  -0.00011   0.00000   0.00011   0.00011   0.92626
   D32        3.00628  -0.00018   0.00000  -0.00116  -0.00117   3.00511
   D33        1.03129   0.00014   0.00000   0.00032   0.00032   1.03161
   D34        3.12306   0.00017   0.00000   0.00072   0.00072   3.12378
   D35       -1.08447   0.00001   0.00000  -0.00183  -0.00183  -1.08630
   D36       -3.09129   0.00004   0.00000  -0.00295  -0.00295  -3.09424
   D37       -0.99952   0.00006   0.00000  -0.00256  -0.00256  -1.00208
   D38        1.07614  -0.00009   0.00000  -0.00510  -0.00510   1.07103
   D39       -1.01794  -0.00016   0.00000  -0.00603  -0.00603  -1.02397
   D40        1.07383  -0.00014   0.00000  -0.00564  -0.00564   1.06819
   D41       -3.13370  -0.00029   0.00000  -0.00818  -0.00818   3.14130
         Item               Value     Threshold  Converged?
 Maximum Force            0.045232     0.000450     NO 
 RMS     Force            0.005698     0.000300     NO 
 Maximum Displacement     0.110170     0.001800     NO 
 RMS     Displacement     0.028586     0.001200     NO 
 Predicted change in Energy=-3.038366D-03
 GradGradGradGradGradGradGradGradGradGradGradGradGradGradGradGradGradGrad

                          Input orientation:                          
 ---------------------------------------------------------------------
 Center     Atomic      Atomic             Coordinates (Angstroms)
 Number     Number       Type             X           Y           Z
 ---------------------------------------------------------------------
      1          6           0       -0.069045    0.453075    0.287979
      2          1           0       -0.006855    0.421672    1.392376
      3          6           0       -1.333703   -0.317949   -0.067995
      4          8           0       -1.418173   -1.361822   -0.663985
      5          8           0       -2.439726    0.324411    0.402929
      6          1           0       -3.201854   -0.206933    0.130133
      7          6           0        1.201889   -0.228441   -0.269959
      8          6           0        2.421512    0.700192   -0.172410
      9          1           0        2.603501    1.014218    0.862221
     10          1           0        3.316554    0.174905   -0.514916
     11          1           0        2.310776    1.590390   -0.795165
     12          7           0       -0.242376    1.812158   -0.222147
     13          1           0       -1.128377    2.201410    0.064941
     14          1           0        0.508325    2.418788    0.070026
     15          1           0        1.015673   -0.444871   -1.326429
     16          6           0        1.487901   -1.547606    0.464114
     17          1           0        0.658412   -2.248648    0.373203
     18          1           0        2.378060   -2.025138    0.046113
     19          1           0        1.679819   -1.367793    1.528134
 ---------------------------------------------------------------------
                    Distance matrix (angstroms):
                    1          2          3          4          5
     1  C    0.000000
     2  H    1.106592   0.000000
     3  C    1.523338   2.107190   0.000000
     4  O    2.453617   3.066152   1.204994   0.000000
     5  O    2.376951   2.628179   1.362968   2.241709   0.000000
     6  H    3.205467   3.492337   1.881905   2.268459   0.968289
     7  C    1.546296   2.155706   2.545197   2.881758   3.744300
     8  C    2.544779   2.902257   3.892192   4.385970   4.909568
     9  H    2.790543   2.728760   4.259289   4.914136   5.110862
    10  H    3.490601   3.839753   4.697609   4.980099   5.830913
    11  H    2.851356   3.394503   4.177650   4.757922   5.060178
    12  N    1.461977   2.143736   2.398357   3.413483   2.726253
    13  H    2.056357   2.487441   2.531206   3.648553   2.314519
    14  H    2.060312   2.449998   3.301795   4.306179   3.631562
    15  H    2.142249   3.031231   2.668208   2.683885   3.939830
    16  C    2.541226   2.640838   3.123563   3.122881   4.351372
    17  H    2.799244   2.934605   2.809053   2.484839   4.027403
    18  H    3.491184   3.672483   4.087139   3.918624   5.372035
    19  H    2.812840   2.462821   3.568069   3.795125   4.593505
                    6          7          8          9         10
     6  H    0.000000
     7  C    4.421932   0.000000
     8  C    5.704091   1.536020   0.000000
     9  H    5.977399   2.188732   1.096446   0.000000
    10  H    6.561366   2.166679   1.092856   1.763348   0.000000
    11  H    5.871595   2.193996   1.092035   1.778930   1.758899
    12  N    3.599908   2.500446   2.887082   3.148266   3.928395
    13  H    3.178628   3.383264   3.861568   3.996497   4.919387
    14  H    4.545707   2.757616   2.583145   2.643890   3.641884
    15  H    4.468302   1.094370   2.149258   3.072511   2.517285
    16  C    4.889043   1.536510   2.515827   2.822409   2.696204
    17  H    4.373709   2.188666   3.478774   3.829987   3.705142
    18  H    5.869274   2.170577   2.734422   3.155082   2.456769
    19  H    5.208909   2.181669   2.778223   2.640191   3.038564
                   11         12         13         14         15
    11  H    0.000000
    12  N    2.626046   0.000000
    13  H    3.597346   1.009423   0.000000
    14  H    2.164170   1.008423   1.651082   0.000000
    15  H    2.470186   2.810036   3.679085   3.226148   0.000000
    16  C    3.479932   3.840941   4.589049   4.104529   2.155242
    17  H    4.339770   4.201905   4.805274   4.679680   2.503996
    18  H    3.712725   4.654406   5.491737   4.821304   2.497442
    19  H    3.814010   4.107360   4.771384   4.223349   3.072686
                   16         17         18         19
    16  C    0.000000
    17  H    1.089851   0.000000
    18  H    1.093227   1.764691   0.000000
    19  H    1.096040   1.775681   1.765228   0.000000
 Stoichiometry    C5H11NO2
 Framework group  C1[X(C5H11NO2)]
 Deg. of freedom    51
 Full point group                 C1      NOp   1
 Largest Abelian subgroup         C1      NOp   1
 Largest concise Abelian subgroup C1      NOp   1
                         Standard orientation:                         
 ---------------------------------------------------------------------
 Center     Atomic      Atomic             Coordinates (Angstroms)
 Number     Number       Type             X           Y           Z
 ---------------------------------------------------------------------
      1          6           0       -0.064604    0.447708    0.295783
      2          1           0       -0.002738    0.410759    1.400027
      3          6           0       -1.332224   -0.316611   -0.064093
      4          8           0       -1.420696   -1.357270   -0.665102
      5          8           0       -2.435794    0.327833    0.409730
      6          1           0       -3.199959   -0.199190    0.134262
      7          6           0        1.203737   -0.236123   -0.265214
      8          6           0        2.426991    0.687220   -0.163010
      9          1           0        2.610027    0.995557    0.873146
     10          1           0        3.320018    0.160062   -0.507888
     11          1           0        2.319873    1.580827   -0.781502
     12          7           0       -0.232489    1.809896   -0.207840
     13          1           0       -1.117002    2.201253    0.080970
     14          1           0        0.520542    2.412155    0.087364
     15          1           0        1.016862   -0.446743   -1.322741
     16          6           0        1.484419   -1.559913    0.462564
     17          1           0        0.652192   -2.257237    0.368153
     18          1           0        2.372767   -2.038936    0.042420
     19          1           0        1.676851   -1.385967    1.527466
 ---------------------------------------------------------------------
 Rotational constants (GHZ):      3.0597413      1.5256935      1.1222225
 Standard basis: 6-311++G(d,p) (5D, 7F)
 There are   261 symmetry adapted cartesian basis functions of A   symmetry.
 There are   253 symmetry adapted basis functions of A   symmetry.
   253 basis functions,   387 primitive gaussians,   261 cartesian basis functions
    32 alpha electrons       32 beta electrons
       nuclear repulsion energy       405.1821952421 Hartrees.
 NAtoms=   19 NActive=   19 NUniq=   19 SFac= 1.00D+00 NAtFMM=   60 NAOKFM=F Big=F
 Integral buffers will be    131072 words long.
 Raffenetti 2 integral format.
 Two-electron integral symmetry is turned on.
 One-electron integrals computed using PRISM.
 NBasis=   253 RedAO= T EigKep=  8.82D-06  NBF=   253
 NBsUse=   253 1.00D-06 EigRej= -1.00D+00 NBFU=   253
 Initial guess from the checkpoint file:  "Val-R-opt-6-311gdp.chk"
 B after Tr=     0.000000    0.000000    0.000000
         Rot=    0.999995   -0.001445   -0.000214    0.002844 Ang=  -0.37 deg.
 ExpMin= 3.60D-02 ExpMax= 8.59D+03 ExpMxC= 1.30D+03 IAcc=3 IRadAn=         5 AccDes= 0.00D+00
 Harris functional with IExCor=  402 and IRadAn=       5 diagonalized for initial guess.
 HarFok:  IExCor=  402 AccDes= 0.00D+00 IRadAn=         5 IDoV= 1 UseB2=F ITyADJ=14
 ICtDFT=  3500011 ScaDFX=  1.000000  1.000000  1.000000  1.000000
 FoFCou: FMM=F IPFlag=           0 FMFlag=      100000 FMFlg1=           0
         NFxFlg=           0 DoJE=T BraDBF=F KetDBF=T FulRan=T
         wScrn=  0.000000 ICntrl=     500 IOpCl=  0 I1Cent=   200000004 NGrid=           0
         NMat0=    1 NMatS0=      1 NMatT0=    0 NMatD0=    1 NMtDS0=    0 NMtDT0=    0
 Petite list used in FoFCou.
 Requested convergence on RMS density matrix=1.00D-08 within 128 cycles.
 Requested convergence on MAX density matrix=1.00D-06.
 Requested convergence on             energy=1.00D-06.
 No special actions if energy rises.
 SCF Done:  E(RB3LYP) =  -402.498320170     A.U. after   11 cycles
            NFock= 11  Conv=0.80D-08     -V/T= 2.0040
 Calling FoFJK, ICntrl=      2127 FMM=F ISym2X=0 I1Cent= 0 IOpClX= 0 NMat=1 NMatS=1 NMatT=0.
 ***** Axes restored to original set *****
 -------------------------------------------------------------------
 Center     Atomic                   Forces (Hartrees/Bohr)
 Number     Number              X              Y              Z
 -------------------------------------------------------------------
      1        6           0.002995452   -0.002223453    0.001321226
      2        1          -0.000331498    0.000081072   -0.000025478
      3        6          -0.003729841   -0.004088424   -0.000029088
      4        8           0.001406914    0.003066452    0.000792339
      5        8           0.001654379   -0.000609930   -0.000638576
      6        1          -0.001361866    0.000207816    0.000195201
      7        6          -0.000430393    0.000496592    0.001019620
      8        6          -0.000287762   -0.000245266   -0.000426585
      9        1           0.000154643    0.000044520    0.000076030
     10        1           0.000188228    0.000117802    0.000040097
     11        1           0.000117147    0.000118620    0.000121217
     12        7           0.000124511   -0.001286336   -0.006764962
     13        1          -0.001186833    0.002323100    0.002355550
     14        1           0.000771935    0.002312297    0.002349551
     15        1           0.000092960   -0.000070074   -0.000141468
     16        6          -0.000111799    0.000377270   -0.000491351
     17        1          -0.000024680   -0.000301094    0.000198845
     18        1          -0.000047585   -0.000216526    0.000044028
     19        1           0.000006087   -0.000104437    0.000003805
 -------------------------------------------------------------------
 Cartesian Forces:  Max     0.006764962 RMS     0.001554090

 GradGradGradGradGradGradGradGradGradGradGradGradGradGradGradGradGradGrad
 Berny optimization.
 Using GEDIIS/GDIIS optimizer.
 FormGI is forming the generalized inverse of G from B-inverse, IUseBI=4.
 Internal  Forces:  Max     0.003867835 RMS     0.000834839
 Search for a local minimum.
 Step number   2 out of a maximum of  100
 All quantities printed in internal units (Hartrees-Bohrs-Radians)
 Mixed Optimization -- En-DIIS/RFO-DIIS
 Update second derivatives using D2CorX and points    1    2
 DE= -3.30D-03 DEPred=-3.04D-03 R= 1.08D+00
 TightC=F SS=  1.41D+00  RLast= 2.31D-01 DXNew= 5.0454D-01 6.9206D-01
 Trust test= 1.08D+00 RLast= 2.31D-01 DXMaxT set to 5.05D-01
 ITU=  1  0
 Use linear search instead of GDIIS.
     Eigenvalues ---    0.00230   0.00230   0.00230   0.00474   0.00783
     Eigenvalues ---    0.00793   0.01884   0.03184   0.03507   0.04414
     Eigenvalues ---    0.04696   0.04705   0.04942   0.05255   0.05341
     Eigenvalues ---    0.05556   0.05558   0.06699   0.15958   0.16000
     Eigenvalues ---    0.16000   0.16000   0.16000   0.16000   0.16000
     Eigenvalues ---    0.16000   0.16528   0.16759   0.16930   0.17746
     Eigenvalues ---    0.18004   0.24907   0.25003   0.27617   0.28332
     Eigenvalues ---    0.28414   0.30116   0.32469   0.33776   0.33810
     Eigenvalues ---    0.33974   0.34134   0.34164   0.34275   0.34507
     Eigenvalues ---    0.36511   0.45392   0.45625   0.48936   0.52397
     Eigenvalues ---    0.88642
 RFO step:  Lambda=-4.29349664D-04 EMin= 2.29915833D-03
 Quartic linear search produced a step of  0.07579.
 Iteration  1 RMS(Cart)=  0.01359277 RMS(Int)=  0.00029328
 Iteration  2 RMS(Cart)=  0.00035592 RMS(Int)=  0.00018951
 Iteration  3 RMS(Cart)=  0.00000011 RMS(Int)=  0.00018951
 Variable       Old X    -DE/DX   Delta X   Delta X   Delta X     New X
                                 (Linear)    (Quad)   (Total)
    R1        2.09116  -0.00005  -0.00067  -0.00011  -0.00078   2.09038
    R2        2.87869   0.00233   0.00019   0.00824   0.00843   2.88712
    R3        2.92208  -0.00054  -0.00053  -0.00204  -0.00257   2.91950
    R4        2.76274   0.00387  -0.00096   0.01157   0.01061   2.77335
    R5        2.27711  -0.00315  -0.00376  -0.00360  -0.00736   2.26975
    R6        2.57564  -0.00058  -0.00322  -0.00113  -0.00435   2.57129
    R7        1.82980   0.00090  -0.00195   0.00198   0.00004   1.82984
    R8        2.90266   0.00015  -0.00078   0.00061  -0.00017   2.90249
    R9        2.06806   0.00013  -0.00044   0.00045   0.00001   2.06807
   R10        2.90358   0.00006  -0.00082   0.00029  -0.00053   2.90306
   R11        2.07198   0.00011  -0.00039   0.00037  -0.00002   2.07196
   R12        2.06520   0.00009  -0.00041   0.00029  -0.00011   2.06508
   R13        2.06365   0.00002  -0.00038   0.00007  -0.00031   2.06334
   R14        1.90753   0.00261  -0.00051   0.00616   0.00564   1.91317
   R15        1.90564   0.00265  -0.00046   0.00621   0.00575   1.91140
   R16        2.05952   0.00020  -0.00041   0.00063   0.00022   2.05974
   R17        2.06590   0.00004  -0.00039   0.00015  -0.00024   2.06566
   R18        2.07122  -0.00001  -0.00040  -0.00001  -0.00041   2.07081
    A1        1.83953  -0.00020  -0.00061  -0.00280  -0.00341   1.83612
    A2        1.87697   0.00020  -0.00004   0.00058   0.00054   1.87750
    A3        1.96198  -0.00005  -0.00049   0.00049   0.00001   1.96199
    A4        1.95515  -0.00032   0.00058  -0.00185  -0.00128   1.95386
    A5        1.86560   0.00053   0.00049   0.00368   0.00417   1.86978
    A6        1.96196  -0.00018   0.00004  -0.00032  -0.00029   1.96167
    A7        2.22969  -0.00148  -0.00036  -0.00605  -0.00688   2.22280
    A8        1.93307   0.00014   0.00015   0.00086   0.00053   1.93360
    A9        2.12032   0.00134   0.00020   0.00598   0.00570   2.12602
   A10        1.85745   0.00194  -0.00499   0.01354   0.00855   1.86600
   A11        1.94254   0.00012  -0.00006   0.00218   0.00212   1.94466
   A12        1.87092  -0.00002   0.00031  -0.00136  -0.00106   1.86986
   A13        1.93800  -0.00006   0.00013   0.00065   0.00077   1.93877
   A14        1.89229  -0.00007  -0.00004  -0.00111  -0.00115   1.89114
   A15        1.91868   0.00009  -0.00038   0.00178   0.00140   1.92008
   A16        1.89979  -0.00007   0.00006  -0.00238  -0.00233   1.89746
   A17        1.94429   0.00007   0.00008   0.00011   0.00019   1.94448
   A18        1.91750   0.00024  -0.00011   0.00176   0.00165   1.91915
   A19        1.95638   0.00019   0.00040   0.00140   0.00180   1.95818
   A20        1.87283  -0.00019  -0.00009  -0.00162  -0.00170   1.87113
   A21        1.89809  -0.00017  -0.00010  -0.00137  -0.00147   1.89662
   A22        1.87145  -0.00016  -0.00023  -0.00045  -0.00068   1.87077
   A23        1.94261   0.00028  -0.00306  -0.00791  -0.01155   1.93106
   A24        1.94966  -0.00027  -0.00350  -0.01146  -0.01554   1.93413
   A25        1.91668  -0.00143  -0.00395  -0.02656  -0.03163   1.88505
   A26        1.95059   0.00035   0.00033   0.00228   0.00261   1.95320
   A27        1.92188   0.00020  -0.00015   0.00152   0.00136   1.92324
   A28        1.93429   0.00003   0.00001   0.00008   0.00009   1.93437
   A29        1.88269  -0.00027  -0.00006  -0.00158  -0.00165   1.88104
   A30        1.89629  -0.00023  -0.00005  -0.00176  -0.00181   1.89448
   A31        1.87577  -0.00012  -0.00008  -0.00072  -0.00080   1.87497
    D1       -1.99020  -0.00035  -0.00141  -0.05784  -0.05919  -2.04940
    D2        1.13576   0.00010  -0.00226   0.00066  -0.00167   1.13409
    D3        0.04581  -0.00039  -0.00152  -0.05975  -0.06121  -0.01539
    D4       -3.11141   0.00006  -0.00237  -0.00125  -0.00368  -3.11510
    D5        2.20213  -0.00045  -0.00078  -0.05880  -0.05951   2.14262
    D6       -0.95510   0.00000  -0.00164  -0.00030  -0.00199  -0.95709
    D7       -1.34333  -0.00009   0.00001   0.01923   0.01923  -1.32410
    D8        2.87333  -0.00006  -0.00010   0.02018   0.02008   2.89341
    D9        0.80028   0.00007  -0.00043   0.02353   0.02310   0.82339
   D10        2.92653   0.00020   0.00046   0.02326   0.02372   2.95024
   D11        0.86001   0.00022   0.00034   0.02421   0.02456   0.88456
   D12       -1.21304   0.00035   0.00002   0.02756   0.02758  -1.18546
   D13        0.82538  -0.00013  -0.00061   0.02005   0.01944   0.84481
   D14       -1.24114  -0.00010  -0.00072   0.02100   0.02028  -1.22086
   D15        2.96899   0.00002  -0.00104   0.02435   0.02331   2.99230
   D16       -1.13690   0.00100   0.00635   0.03098   0.03704  -1.09986
   D17        1.01257  -0.00085  -0.00465  -0.01759  -0.02194   0.99062
   D18        0.87329   0.00105   0.00566   0.03008   0.03544   0.90873
   D19        3.02276  -0.00080  -0.00534  -0.01850  -0.02355   2.99921
   D20        3.02539   0.00091   0.00674   0.03010   0.03654   3.06193
   D21       -1.10833  -0.00095  -0.00426  -0.01847  -0.02244  -1.13077
   D22        3.12437  -0.00021   0.00063  -0.02835  -0.02790   3.09647
   D23       -0.03172   0.00017  -0.00017   0.02577   0.02578  -0.00594
   D24        1.00802   0.00006  -0.00001   0.01254   0.01253   1.02054
   D25        3.08094   0.00001  -0.00014   0.01173   0.01159   3.09253
   D26       -1.12340   0.00009  -0.00023   0.01323   0.01300  -1.11040
   D27        3.06164   0.00006   0.00031   0.01146   0.01176   3.07341
   D28       -1.14862   0.00001   0.00018   0.01065   0.01083  -1.13780
   D29        0.93023   0.00009   0.00009   0.01215   0.01223   0.94246
   D30       -1.14666  -0.00001   0.00013   0.00894   0.00907  -1.13759
   D31        0.92626  -0.00006   0.00001   0.00813   0.00814   0.93440
   D32        3.00511   0.00002  -0.00009   0.00963   0.00954   3.01465
   D33        1.03161  -0.00014   0.00002  -0.01470  -0.01468   1.01694
   D34        3.12378  -0.00012   0.00005  -0.01419  -0.01413   3.10964
   D35       -1.08630  -0.00012  -0.00014  -0.01407  -0.01421  -1.10051
   D36       -3.09424   0.00003  -0.00022  -0.01022  -0.01045  -3.10469
   D37       -1.00208   0.00005  -0.00019  -0.00971  -0.00990  -1.01198
   D38        1.07103   0.00006  -0.00039  -0.00959  -0.00998   1.06105
   D39       -1.02397  -0.00004  -0.00046  -0.01195  -0.01241  -1.03638
   D40        1.06819  -0.00002  -0.00043  -0.01144  -0.01187   1.05633
   D41        3.14130  -0.00001  -0.00062  -0.01132  -0.01194   3.12936
         Item               Value     Threshold  Converged?
 Maximum Force            0.003868     0.000450     NO 
 RMS     Force            0.000835     0.000300     NO 
 Maximum Displacement     0.051306     0.001800     NO 
 RMS     Displacement     0.013539     0.001200     NO 
 Predicted change in Energy=-2.481000D-04
 GradGradGradGradGradGradGradGradGradGradGradGradGradGradGradGradGradGrad

                          Input orientation:                          
 ---------------------------------------------------------------------
 Center     Atomic      Atomic             Coordinates (Angstroms)
 Number     Number       Type             X           Y           Z
 ---------------------------------------------------------------------
      1          6           0       -0.067574    0.458009    0.283412
      2          1           0       -0.001586    0.444157    1.387537
      3          6           0       -1.331752   -0.331496   -0.052306
      4          8           0       -1.407743   -1.354452   -0.677149
      5          8           0       -2.438447    0.307332    0.415173
      6          1           0       -3.204272   -0.216196    0.137588
      7          6           0        1.203482   -0.225145   -0.268441
      8          6           0        2.426252    0.698675   -0.166116
      9          1           0        2.613154    1.001882    0.870851
     10          1           0        3.319509    0.175282   -0.515905
     11          1           0        2.317584    1.596110   -0.778479
     12          7           0       -0.250083    1.813274   -0.249297
     13          1           0       -1.126431    2.207167    0.069815
     14          1           0        0.496600    2.423252    0.056413
     15          1           0        1.021035   -0.439465   -1.326005
     16          6           0        1.481313   -1.547858    0.461798
     17          1           0        0.645721   -2.242569    0.376983
     18          1           0        2.364007   -2.034317    0.038630
     19          1           0        1.681544   -1.371621    1.524660
 ---------------------------------------------------------------------
                    Distance matrix (angstroms):
                    1          2          3          4          5
     1  C    0.000000
     2  H    1.106181   0.000000
     3  C    1.527799   2.108110   0.000000
     4  O    2.450254   3.078181   1.201100   0.000000
     5  O    2.379307   2.627262   1.360667   2.239876   0.000000
     6  H    3.211649   3.500805   1.885653   2.277485   0.968309
     7  C    1.544935   2.154627   2.546651   2.874173   3.743595
     8  C    2.545420   2.893616   3.898307   4.379041   4.914910
     9  H    2.797711   2.723029   4.265254   4.910827   5.119445
    10  H    3.491587   3.837324   4.701699   4.971217   5.834244
    11  H    2.848135   3.375970   4.190543   4.753331   5.070068
    12  N    1.467594   2.148361   2.410156   3.399665   2.738306
    13  H    2.055810   2.471815   2.549879   3.649962   2.334530
    14  H    2.057183   2.436574   3.308070   4.293679   3.635977
    15  H    2.140269   3.031476   2.677605   2.675290   3.944290
    16  C    2.540545   2.650302   3.107598   3.111471   4.336868
    17  H    2.794757   2.942571   2.783323   2.473189   4.001944
    18  H    3.490586   3.682175   4.070196   3.898802   5.356180
    19  H    2.819159   2.479673   3.556492   3.793673   4.585213
                    6          7          8          9         10
     6  H    0.000000
     7  C    4.426424   0.000000
     8  C    5.712444   1.535930   0.000000
     9  H    5.988641   2.188780   1.096434   0.000000
    10  H    6.568107   2.167753   1.092796   1.762186   0.000000
    11  H    5.883411   2.195070   1.091873   1.777852   1.758281
    12  N    3.604949   2.503671   2.900348   3.179813   3.936507
    13  H    3.192914   3.385122   3.866880   4.009846   4.923211
    14  H    4.546397   2.760293   2.597545   2.676453   3.653729
    15  H    4.477183   1.094377   2.148334   3.072214   2.513396
    16  C    4.881919   1.536232   2.516763   2.819496   2.702606
    17  H    4.357287   2.190359   3.480828   3.826377   3.713811
    18  H    5.858420   2.171224   2.741357   3.158032   2.470389
    19  H    5.208664   2.181322   2.774786   2.632276   3.039695
                   11         12         13         14         15
    11  H    0.000000
    12  N    2.630610   0.000000
    13  H    3.599199   1.012408   0.000000
    14  H    2.167301   1.011467   1.637407   0.000000
    15  H    2.474751   2.801763   3.683013   3.221996   0.000000
    16  C    3.481691   3.847154   4.588484   4.111412   2.153283
    17  H    4.343464   4.200543   4.799482   4.679197   2.508428
    18  H    3.721535   4.660507   5.493115   4.832954   2.491858
    19  H    3.810042   4.125732   4.775879   4.238030   3.071071
                   16         17         18         19
    16  C    0.000000
    17  H    1.089968   0.000000
    18  H    1.093098   1.763620   0.000000
    19  H    1.095823   1.774442   1.764428   0.000000
 Stoichiometry    C5H11NO2
 Framework group  C1[X(C5H11NO2)]
 Deg. of freedom    51
 Full point group                 C1      NOp   1
 Largest Abelian subgroup         C1      NOp   1
 Largest concise Abelian subgroup C1      NOp   1
                         Standard orientation:                         
 ---------------------------------------------------------------------
 Center     Atomic      Atomic             Coordinates (Angstroms)
 Number     Number       Type             X           Y           Z
 ---------------------------------------------------------------------
      1          6           0       -0.062876    0.453348    0.294084
      2          1           0        0.001777    0.429985    1.398127
      3          6           0       -1.332025   -0.324734   -0.049457
      4          8           0       -1.414283   -1.341984   -0.682762
      5          8           0       -2.434867    0.317771    0.422075
      6          1           0       -3.203928   -0.198225    0.139382
      7          6           0        1.204115   -0.233908   -0.262008
      8          6           0        2.433034    0.680679   -0.150793
      9          1           0        2.620834    0.974083    0.888828
     10          1           0        3.323097    0.154092   -0.503918
     11          1           0        2.331170    1.583829   -0.755879
     12          7           0       -0.235550    1.814153   -0.227669
     13          1           0       -1.109552    2.211382    0.093734
     14          1           0        0.514927    2.416494    0.083837
     15          1           0        1.021399   -0.438292   -1.321490
     16          6           0        1.472109   -1.564434    0.457637
     17          1           0        0.631900   -2.252710    0.366227
     18          1           0        2.351943   -2.053414    0.031429
     19          1           0        1.672344   -1.398296    1.522124
 ---------------------------------------------------------------------
 Rotational constants (GHZ):      3.0558473      1.5254470      1.1239312
 Standard basis: 6-311++G(d,p) (5D, 7F)
 There are   261 symmetry adapted cartesian basis functions of A   symmetry.
 There are   253 symmetry adapted basis functions of A   symmetry.
   253 basis functions,   387 primitive gaussians,   261 cartesian basis functions
    32 alpha electrons       32 beta electrons
       nuclear repulsion energy       405.1315818767 Hartrees.
 NAtoms=   19 NActive=   19 NUniq=   19 SFac= 1.00D+00 NAtFMM=   60 NAOKFM=F Big=F
 Integral buffers will be    131072 words long.
 Raffenetti 2 integral format.
 Two-electron integral symmetry is turned on.
 One-electron integrals computed using PRISM.
 NBasis=   253 RedAO= T EigKep=  8.89D-06  NBF=   253
 NBsUse=   253 1.00D-06 EigRej= -1.00D+00 NBFU=   253
 Initial guess from the checkpoint file:  "Val-R-opt-6-311gdp.chk"
 B after Tr=     0.000000    0.000000    0.000000
         Rot=    0.999999   -0.001391    0.000416    0.000635 Ang=  -0.18 deg.
 ExpMin= 3.60D-02 ExpMax= 8.59D+03 ExpMxC= 1.30D+03 IAcc=3 IRadAn=         5 AccDes= 0.00D+00
 Harris functional with IExCor=  402 and IRadAn=       5 diagonalized for initial guess.
 HarFok:  IExCor=  402 AccDes= 0.00D+00 IRadAn=         5 IDoV= 1 UseB2=F ITyADJ=14
 ICtDFT=  3500011 ScaDFX=  1.000000  1.000000  1.000000  1.000000
 FoFCou: FMM=F IPFlag=           0 FMFlag=      100000 FMFlg1=           0
         NFxFlg=           0 DoJE=T BraDBF=F KetDBF=T FulRan=T
         wScrn=  0.000000 ICntrl=     500 IOpCl=  0 I1Cent=   200000004 NGrid=           0
         NMat0=    1 NMatS0=      1 NMatT0=    0 NMatD0=    1 NMtDS0=    0 NMtDT0=    0
 Petite list used in FoFCou.
 Requested convergence on RMS density matrix=1.00D-08 within 128 cycles.
 Requested convergence on MAX density matrix=1.00D-06.
 Requested convergence on             energy=1.00D-06.
 No special actions if energy rises.
 SCF Done:  E(RB3LYP) =  -402.498477653     A.U. after   11 cycles
            NFock= 11  Conv=0.47D-08     -V/T= 2.0040
 Calling FoFJK, ICntrl=      2127 FMM=F ISym2X=0 I1Cent= 0 IOpClX= 0 NMat=1 NMatS=1 NMatT=0.
 ***** Axes restored to original set *****
 -------------------------------------------------------------------
 Center     Atomic                   Forces (Hartrees/Bohr)
 Number     Number              X              Y              Z
 -------------------------------------------------------------------
      1        6           0.001564229   -0.002933277    0.003411068
      2        1           0.000185002    0.000784640    0.000060896
      3        6          -0.000785244    0.005312068   -0.004736305
      4        8           0.000192835   -0.003695770    0.000096689
      5        8           0.000643453   -0.000503744    0.002194433
      6        1          -0.000865297   -0.000120490   -0.000052068
      7        6          -0.000622650    0.000265834    0.000063446
      8        6          -0.000195791   -0.000124555    0.000020395
      9        1           0.000000938    0.000076815    0.000145607
     10        1           0.000124834   -0.000077287   -0.000060556
     11        1          -0.000014785    0.000115961   -0.000078811
     12        7          -0.000389270   -0.000426947   -0.002658541
     13        1          -0.000794736    0.000607361    0.000766818
     14        1           0.000717585    0.000719382    0.000822861
     15        1          -0.000037407    0.000004544   -0.000201857
     16        6           0.000055216    0.000212060    0.000072066
     17        1           0.000064296   -0.000129700   -0.000029640
     18        1           0.000089967   -0.000079932   -0.000049986
     19        1           0.000066825   -0.000006965    0.000213484
 -------------------------------------------------------------------
 Cartesian Forces:  Max     0.005312068 RMS     0.001363912

 GradGradGradGradGradGradGradGradGradGradGradGradGradGradGradGradGradGrad
 Berny optimization.
 Using GEDIIS/GDIIS optimizer.
 FormGI is forming the generalized inverse of G from B-inverse, IUseBI=4.
 Internal  Forces:  Max     0.003084706 RMS     0.000587882
 Search for a local minimum.
 Step number   3 out of a maximum of  100
 All quantities printed in internal units (Hartrees-Bohrs-Radians)
 Mixed Optimization -- En-DIIS/RFO-DIIS
 Swapping is turned off.
 Update second derivatives using D2CorX and points    1    2    3
 DE= -1.57D-04 DEPred=-2.48D-04 R= 6.35D-01
 TightC=F SS=  1.41D+00  RLast= 1.63D-01 DXNew= 8.4853D-01 4.9040D-01
 Trust test= 6.35D-01 RLast= 1.63D-01 DXMaxT set to 5.05D-01
 ITU=  1  1  0
     Eigenvalues ---    0.00225   0.00230   0.00232   0.00374   0.00775
     Eigenvalues ---    0.01328   0.01884   0.03198   0.03515   0.04495
     Eigenvalues ---    0.04710   0.04717   0.05243   0.05307   0.05427
     Eigenvalues ---    0.05545   0.05552   0.06706   0.15873   0.15989
     Eigenvalues ---    0.16000   0.16000   0.16000   0.16000   0.16000
     Eigenvalues ---    0.16031   0.16589   0.16721   0.16852   0.17907
     Eigenvalues ---    0.18294   0.24328   0.25244   0.27459   0.28341
     Eigenvalues ---    0.28392   0.29522   0.32463   0.33778   0.33825
     Eigenvalues ---    0.33982   0.34134   0.34169   0.34276   0.34494
     Eigenvalues ---    0.35162   0.44060   0.45588   0.49090   0.52399
     Eigenvalues ---    0.94809
 En-DIIS/RFO-DIIS IScMMF=        0 using points:     3    2
 RFO step:  Lambda=-1.10401390D-04.
 DidBck=T Rises=F RFO-DIIS coefs:    0.74050    0.25950
 Iteration  1 RMS(Cart)=  0.04858437 RMS(Int)=  0.00221790
 Iteration  2 RMS(Cart)=  0.00313889 RMS(Int)=  0.00055538
 Iteration  3 RMS(Cart)=  0.00000363 RMS(Int)=  0.00055537
 Iteration  4 RMS(Cart)=  0.00000000 RMS(Int)=  0.00055537
 Variable       Old X    -DE/DX   Delta X   Delta X   Delta X     New X
                                 (Linear)    (Quad)   (Total)
    R1        2.09038   0.00006   0.00020  -0.00233  -0.00213   2.08825
    R2        2.88712   0.00071  -0.00219   0.01680   0.01461   2.90173
    R3        2.91950  -0.00053   0.00067  -0.00681  -0.00615   2.91336
    R4        2.77335   0.00128  -0.00275   0.01961   0.01685   2.79021
    R5        2.26975   0.00308   0.00191  -0.01655  -0.01464   2.25511
    R6        2.57129   0.00062   0.00113  -0.01198  -0.01085   2.56044
    R7        1.82984   0.00076  -0.00001  -0.00205  -0.00206   1.82778
    R8        2.90249  -0.00007   0.00004  -0.00178  -0.00173   2.90075
    R9        2.06807   0.00020   0.00000  -0.00027  -0.00027   2.06780
   R10        2.90306   0.00015   0.00014  -0.00188  -0.00174   2.90131
   R11        2.07196   0.00016   0.00001  -0.00035  -0.00034   2.07162
   R12        2.06508   0.00016   0.00003  -0.00053  -0.00050   2.06458
   R13        2.06334   0.00014   0.00008  -0.00086  -0.00078   2.06256
   R14        1.91317   0.00117  -0.00146   0.01092   0.00945   1.92263
   R15        1.91140   0.00121  -0.00149   0.01127   0.00978   1.92117
   R16        2.05974   0.00004  -0.00006  -0.00022  -0.00028   2.05946
   R17        2.06566   0.00013   0.00006  -0.00080  -0.00074   2.06492
   R18        2.07081   0.00022   0.00011  -0.00090  -0.00080   2.07001
    A1        1.83612   0.00048   0.00088  -0.00033   0.00056   1.83668
    A2        1.87750  -0.00008  -0.00014   0.00297   0.00283   1.88033
    A3        1.96199  -0.00004   0.00000  -0.00259  -0.00259   1.95939
    A4        1.95386   0.00046   0.00033   0.00002   0.00036   1.95422
    A5        1.86978  -0.00081  -0.00108   0.00266   0.00157   1.87135
    A6        1.96167   0.00002   0.00008  -0.00267  -0.00259   1.95908
    A7        2.22280   0.00016   0.00179  -0.01059  -0.01103   2.21177
    A8        1.93360  -0.00070  -0.00014   0.00078  -0.00163   1.93197
    A9        2.12602   0.00062  -0.00148   0.01395   0.01015   2.13617
   A10        1.86600   0.00078  -0.00222   0.01022   0.00800   1.87401
   A11        1.94466  -0.00017  -0.00055   0.00222   0.00167   1.94633
   A12        1.86986  -0.00003   0.00027  -0.00079  -0.00051   1.86935
   A13        1.93877   0.00028  -0.00020   0.00275   0.00254   1.94132
   A14        1.89114   0.00006   0.00030  -0.00245  -0.00216   1.88898
   A15        1.92008  -0.00018  -0.00036   0.00055   0.00018   1.92026
   A16        1.89746   0.00004   0.00060  -0.00258  -0.00198   1.89548
   A17        1.94448   0.00000  -0.00005   0.00049   0.00044   1.94492
[...]
     16          6           0        1.467900   -1.546617    0.463570
     17          1           0        0.630923   -2.238966    0.365457
     18          1           0        2.353423   -2.037258    0.050927
     19          1           0        1.654237   -1.374896    1.529919
 ---------------------------------------------------------------------
                    Distance matrix (angstroms):
                    1          2          3          4          5
     1  C    0.000000
     2  H    1.104283   0.000000
     3  C    1.528824   2.119324   0.000000
     4  O    2.452916   3.123042   1.202412   0.000000
     5  O    2.375342   2.568614   1.360813   2.244704   0.000000
     6  H    3.212613   3.464422   1.890552   2.290363   0.969168
     7  C    1.541425   2.158377   2.544670   2.877908   3.735871
     8  C    2.543338   2.886707   3.897482   4.376696   4.916104
     9  H    2.793550   2.711248   4.263101   4.921724   5.094474
    10  H    3.489363   3.833205   4.700925   4.971656   5.832575
    11  H    2.850958   3.367769   4.193365   4.733895   5.106737
    12  N    1.473885   2.149340   2.399048   3.352182   2.792410
    13  H    2.056602   2.447261   2.553554   3.624890   2.411576
    14  H    2.058668   2.440990   3.300724   4.253198   3.683091
    15  H    2.137161   3.035065   2.674338   2.651007   3.968863
    16  C    2.535581   2.664485   3.102867   3.151531   4.278259
    17  H    2.792101   2.965019   2.779041   2.530227   3.933358
    18  H    3.486338   3.694276   4.065943   3.930977   5.308099
    19  H    2.814627   2.493155   3.551334   3.844636   4.498505
                    6          7          8          9         10
     6  H    0.000000
     7  C    4.428253   0.000000
     8  C    5.720093   1.535928   0.000000
     9  H    5.972813   2.189238   1.096633   0.000000
    10  H    6.575385   2.168447   1.093025   1.762912   0.000000
    11  H    5.919489   2.195806   1.092281   1.777796   1.757778
    12  N    3.637305   2.504069   2.912018   3.197058   3.946267
    13  H    3.243935   3.384068   3.865600   4.000534   4.923828
    14  H    4.577475   2.747465   2.591007   2.688405   3.644437
    15  H    4.507643   1.094459   2.149323   3.073187   2.517205
    16  C    4.841363   1.536342   2.517180   2.823037   2.702040
    17  H    4.307097   2.191404   3.481987   3.830703   3.713803
    18  H    5.827011   2.171905   2.742358   3.163022   2.470401
    19  H    5.142185   2.182688   2.777699   2.638922   3.040429
                   11         12         13         14         15
    11  H    0.000000
    12  N    2.644029   0.000000
    13  H    3.604890   1.014684   0.000000
    14  H    2.150883   1.013583   1.633230   0.000000
    15  H    2.474505   2.789126   3.685094   3.190846   0.000000
    16  C    3.482388   3.849826   4.584556   4.110819   2.153516
    17  H    4.344892   4.198949   4.797772   4.677352   2.507869
    18  H    3.721553   4.662824   5.491098   4.827996   2.493517
    19  H    3.814171   4.137323   4.769378   4.253854   3.072251
                   16         17         18         19
    16  C    0.000000
    17  H    1.090643   0.000000
    18  H    1.093231   1.762561   0.000000
    19  H    1.096043   1.774756   1.764936   0.000000
 Stoichiometry    C5H11NO2
 Framework group  C1[X(C5H11NO2)]
 Deg. of freedom    51
 Full point group                 C1      NOp   1
 Largest Abelian subgroup         C1      NOp   1
 Largest concise Abelian subgroup C1      NOp   1
                         Standard orientation:                         
 ---------------------------------------------------------------------
 Center     Atomic      Atomic             Coordinates (Angstroms)
 Number     Number       Type             X           Y           Z
 ---------------------------------------------------------------------
      1          6           0       -0.057626    0.458906    0.287427
      2          1           0       -0.004688    0.462781    1.390433
      3          6           0       -1.334293   -0.301337   -0.072376
      4          8           0       -1.434065   -1.267254   -0.781491
      5          8           0       -2.414389    0.276008    0.520816
      6          1           0       -3.198311   -0.214750    0.231147
      7          6           0        1.203346   -0.244198   -0.252560
      8          6           0        2.444514    0.651625   -0.125755
      9          1           0        2.620127    0.948067    0.915344
     10          1           0        3.332292    0.110250   -0.462604
     11          1           0        2.367303    1.553627   -0.736908
     12          7           0       -0.221300    1.815064   -0.266090
     13          1           0       -1.075959    2.234221    0.085265
     14          1           0        0.546731    2.409224    0.024517
     15          1           0        1.029863   -0.446710   -1.314036
     16          6           0        1.440871   -1.578190    0.471589
     17          1           0        0.592281   -2.255329    0.367280
     18          1           0        2.318824   -2.081666    0.058233
     19          1           0        1.627398   -1.416029    1.539400
 ---------------------------------------------------------------------
 Rotational constants (GHZ):      3.0420335      1.5129565      1.1357183

 **********************************************************************

            Population analysis using the SCF density.

 **********************************************************************

 Orbital symmetries:
       Occupied  (A) (A) (A) (A) (A) (A) (A) (A) (A) (A) (A) (A)
                 (A) (A) (A) (A) (A) (A) (A) (A) (A) (A) (A) (A)
                 (A) (A) (A) (A) (A) (A) (A) (A)
       Virtual   (A) (A) (A) (A) (A) (A) (A) (A) (A) (A) (A) (A)
                 (A) (A) (A) (A) (A) (A) (A) (A) (A) (A) (A) (A)
                 (A) (A) (A) (A) (A) (A) (A) (A) (A) (A) (A) (A)
                 (A) (A) (A) (A) (A) (A) (A) (A) (A) (A) (A) (A)
                 (A) (A) (A) (A) (A) (A) (A) (A) (A) (A) (A) (A)
                 (A) (A) (A) (A) (A) (A) (A) (A) (A) (A) (A) (A)
                 (A) (A) (A) (A) (A) (A) (A) (A) (A) (A) (A) (A)
                 (A) (A) (A) (A) (A) (A) (A) (A) (A) (A) (A) (A)
                 (A) (A) (A) (A) (A) (A) (A) (A) (A) (A) (A) (A)
                 (A) (A) (A) (A) (A) (A) (A) (A) (A) (A) (A) (A)
                 (A) (A) (A) (A) (A) (A) (A) (A) (A) (A) (A) (A)
                 (A) (A) (A) (A) (A) (A) (A) (A) (A) (A) (A) (A)
                 (A) (A) (A) (A) (A) (A) (A) (A) (A) (A) (A) (A)
                 (A) (A) (A) (A) (A) (A) (A) (A) (A) (A) (A) (A)
                 (A) (A) (A) (A) (A) (A) (A) (A) (A) (A) (A) (A)
                 (A) (A) (A) (A) (A) (A) (A) (A) (A) (A) (A) (A)
                 (A) (A) (A) (A) (A) (A) (A) (A) (A) (A) (A) (A)
                 (A) (A) (A) (A) (A) (A) (A) (A) (A) (A) (A) (A)
                 (A) (A) (A) (A) (A)
 The electronic state is 1-A.
 Alpha  occ. eigenvalues --  -19.18332 -19.12849 -14.30842 -10.31634 -10.22406
 Alpha  occ. eigenvalues --  -10.18175 -10.16573 -10.15857  -1.12490  -1.03664
 Alpha  occ. eigenvalues --   -0.90687  -0.80046  -0.72172  -0.68706  -0.63269
 Alpha  occ. eigenvalues --   -0.56305  -0.52667  -0.50447  -0.49394  -0.48012
 Alpha  occ. eigenvalues --   -0.45135  -0.43412  -0.42351  -0.41278  -0.39540
 Alpha  occ. eigenvalues --   -0.38636  -0.35017  -0.34534  -0.34189  -0.33431
 Alpha  occ. eigenvalues --   -0.29627  -0.25795
 Alpha virt. eigenvalues --   -0.02467  -0.01086  -0.00056   0.00753   0.01362
 Alpha virt. eigenvalues --    0.02671   0.03766   0.03922   0.04916   0.05206
 Alpha virt. eigenvalues --    0.06143   0.07185   0.08321   0.09056   0.09198
 Alpha virt. eigenvalues --    0.09755   0.09959   0.10345   0.11389   0.12133
 Alpha virt. eigenvalues --    0.12324   0.12926   0.13410   0.13935   0.14570
 Alpha virt. eigenvalues --    0.14761   0.15537   0.16090   0.16685   0.16898
 Alpha virt. eigenvalues --    0.17309   0.18492   0.19060   0.19401   0.19753
 Alpha virt. eigenvalues --    0.20223   0.21223   0.21873   0.22295   0.23861
 Alpha virt. eigenvalues --    0.23894   0.24204   0.24960   0.25860   0.26259
 Alpha virt. eigenvalues --    0.27081   0.28445   0.29098   0.30001   0.30353
 Alpha virt. eigenvalues --    0.30918   0.31759   0.32792   0.33386   0.33490
 Alpha virt. eigenvalues --    0.35121   0.35478   0.37515   0.39072   0.39655
 Alpha virt. eigenvalues --    0.41526   0.44070   0.45333   0.49182   0.49855
 Alpha virt. eigenvalues --    0.51511   0.52135   0.54619   0.55437   0.56807
 Alpha virt. eigenvalues --    0.59341   0.60855   0.62447   0.62977   0.64369
 Alpha virt. eigenvalues --    0.65740   0.65945   0.67598   0.68080   0.68711
 Alpha virt. eigenvalues --    0.70044   0.70356   0.73442   0.75400   0.76813
 Alpha virt. eigenvalues --    0.77728   0.78583   0.80570   0.83118   0.87296
 Alpha virt. eigenvalues --    0.88715   0.91115   0.92866   0.99626   1.01365
 Alpha virt. eigenvalues --    1.03056   1.04490   1.07738   1.10713   1.14002
 Alpha virt. eigenvalues --    1.15055   1.16940   1.19877   1.20259   1.22185
 Alpha virt. eigenvalues --    1.25264   1.26315   1.31052   1.31757   1.39825
 Alpha virt. eigenvalues --    1.39952   1.42604   1.45044   1.46404   1.47148
 Alpha virt. eigenvalues --    1.49637   1.52184   1.53479   1.55186   1.56619
 Alpha virt. eigenvalues --    1.57871   1.59070   1.61006   1.62811   1.63674
 Alpha virt. eigenvalues --    1.66032   1.66820   1.69356   1.70825   1.71605
 Alpha virt. eigenvalues --    1.72892   1.75027   1.77166   1.79820   1.80443
 Alpha virt. eigenvalues --    1.85465   1.89677   1.91690   1.95776   1.97257
 Alpha virt. eigenvalues --    1.98014   2.00226   2.02805   2.06031   2.07030
 Alpha virt. eigenvalues --    2.10417   2.14706   2.15985   2.18793   2.22912
 Alpha virt. eigenvalues --    2.26322   2.31915   2.37737   2.39557   2.46789
 Alpha virt. eigenvalues --    2.48468   2.48911   2.50427   2.52223   2.53694
 Alpha virt. eigenvalues --    2.55438   2.56641   2.57205   2.61112   2.63337
 Alpha virt. eigenvalues --    2.64160   2.66116   2.69672   2.71919   2.73456
 Alpha virt. eigenvalues --    2.75548   2.78253   2.78921   2.83149   2.84705
 Alpha virt. eigenvalues --    2.87864   2.90348   2.92333   2.94571   2.98795
 Alpha virt. eigenvalues --    3.01017   3.03659   3.06070   3.10263   3.14488
 Alpha virt. eigenvalues --    3.17348   3.18290   3.20286   3.25879   3.37433
 Alpha virt. eigenvalues --    3.45223   3.56186   3.60866   3.67599   3.77762
 Alpha virt. eigenvalues --    3.78955   3.80415   3.82415   3.84087   3.93632
 Alpha virt. eigenvalues --    4.06565   4.08854   4.20699   4.29525   4.32303
 Alpha virt. eigenvalues --    4.73978   4.83085   4.97649   5.06276   5.19524
 Alpha virt. eigenvalues --    5.38688   5.59047   5.84871  23.79699  23.80472
 Alpha virt. eigenvalues --   23.84486  23.97315  23.98348  35.60863  49.85965
 Alpha virt. eigenvalues --   50.00554
          Condensed to atoms (all electrons):
               1          2          3          4          5          6
     1  C    8.394754   0.505491  -1.334817  -0.082468  -0.270872  -0.062323
     2  H    0.505491   0.635602  -0.106877  -0.002716  -0.014857   0.004252
     3  C   -1.334817  -0.106877   6.512703   0.442040   0.257641   0.069096
     4  O   -0.082468  -0.002716   0.442040   8.015626  -0.127253  -0.003395
     5  O   -0.270872  -0.014857   0.257641  -0.127253   8.085811   0.240066
     6  H   -0.062323   0.004252   0.069096  -0.003395   0.240066   0.461033
     7  C   -1.218749  -0.056691   0.295217   0.071028   0.047121  -0.000982
     8  C    0.506389  -0.003782  -0.198311   0.016849   0.003665   0.000082
     9  H   -0.062034   0.007798   0.002812   0.000047   0.000174  -0.000050
    10  H    0.033059   0.000135  -0.002838   0.000673   0.000333  -0.000066
    11  H   -0.027432   0.002703   0.020754   0.000606   0.000490   0.000367
    12  N    0.151675  -0.095890  -0.038486  -0.012857  -0.012922   0.004316
    13  H   -0.000300   0.002667  -0.047868  -0.000240   0.008129  -0.002055
    14  H   -0.030282  -0.004617  -0.008512   0.000009  -0.001156  -0.000870
    15  H   -0.104880   0.018943  -0.034831  -0.005121  -0.001798  -0.001611
    16  C   -0.224313  -0.100880   0.265311  -0.048557  -0.019806   0.000789
    17  H   -0.033648  -0.008521   0.047863   0.002124  -0.000196   0.001543
    18  H    0.049128  -0.003261  -0.004969  -0.000098  -0.000618   0.000087
    19  H   -0.103569   0.013355   0.010554   0.004379   0.002684  -0.000350
               7          8          9         10         11         12
     1  C   -1.218749   0.506389  -0.062034   0.033059  -0.027432   0.151675
     2  H   -0.056691  -0.003782   0.007798   0.000135   0.002703  -0.095890
     3  C    0.295217  -0.198311   0.002812  -0.002838   0.020754  -0.038486
     4  O    0.071028   0.016849   0.000047   0.000673   0.000606  -0.012857
     5  O    0.047121   0.003665   0.000174   0.000333   0.000490  -0.012922
     6  H   -0.000982   0.000082  -0.000050  -0.000066   0.000367   0.004316
     7  C    6.892226  -0.590527   0.091019  -0.102920  -0.020058  -0.165091
     8  C   -0.590527   5.973651   0.348652   0.425878   0.381107   0.009355
     9  H    0.091019   0.348652   0.554322  -0.028610  -0.048062  -0.009565
    10  H   -0.102920   0.425878  -0.028610   0.548491  -0.017691   0.004455
    11  H   -0.020058   0.381107  -0.048062  -0.017691   0.577038   0.000617
    12  N   -0.165091   0.009355  -0.009565   0.004455   0.000617   6.661259
    13  H    0.022613  -0.001246  -0.000427   0.000170  -0.000554   0.383261
    14  H   -0.041437   0.026353  -0.001590   0.000710   0.003954   0.396817
    15  H    0.583625  -0.090651   0.010240  -0.008478  -0.008053  -0.002769
    16  C    0.108282  -0.175110  -0.028034  -0.002634   0.009269   0.037894
    17  H   -0.099337   0.021082  -0.002616   0.000944  -0.001587   0.002491
    18  H   -0.089324   0.004040   0.002219   0.001636   0.001492  -0.004584
    19  H    0.102352  -0.029245   0.009456   0.001302  -0.002121  -0.002872
              13         14         15         16         17         18
     1  C   -0.000300  -0.030282  -0.104880  -0.224313  -0.033648   0.049128
     2  H    0.002667  -0.004617   0.018943  -0.100880  -0.008521  -0.003261
     3  C   -0.047868  -0.008512  -0.034831   0.265311   0.047863  -0.004969
     4  O   -0.000240   0.000009  -0.005121  -0.048557   0.002124  -0.000098
     5  O    0.008129  -0.001156  -0.001798  -0.019806  -0.000196  -0.000618
     6  H   -0.002055  -0.000870  -0.001611   0.000789   0.001543   0.000087
     7  C    0.022613  -0.041437   0.583625   0.108282  -0.099337  -0.089324
     8  C   -0.001246   0.026353  -0.090651  -0.175110   0.021082   0.004040
     9  H   -0.000427  -0.001590   0.010240  -0.028034  -0.002616   0.002219
    10  H    0.000170   0.000710  -0.008478  -0.002634   0.000944   0.001636
    11  H   -0.000554   0.003954  -0.008053   0.009269  -0.001587   0.001492
    12  N    0.383261   0.396817  -0.002769   0.037894   0.002491  -0.004584
    13  H    0.454964  -0.058339  -0.000486  -0.004171   0.000336   0.000243
    14  H   -0.058339   0.476451   0.001395   0.008874  -0.000461  -0.001135
    15  H   -0.000486   0.001395   0.523621  -0.083151  -0.017147  -0.014815
    16  C   -0.004171   0.008874  -0.083151   5.632661   0.443573   0.406354
    17  H    0.000336  -0.000461  -0.017147   0.443573   0.540824  -0.012963
    18  H    0.000243  -0.001135  -0.014815   0.406354  -0.012963   0.568904
    19  H   -0.001371   0.002354   0.014894   0.359331  -0.047640  -0.040957
              19
     1  C   -0.103569
     2  H    0.013355
     3  C    0.010554
     4  O    0.004379
     5  O    0.002684
     6  H   -0.000350
     7  C    0.102352
     8  C   -0.029245
     9  H    0.009456
    10  H    0.001302
    11  H   -0.002121
    12  N   -0.002872
    13  H   -0.001371
    14  H    0.002354
    15  H    0.014894
    16  C    0.359331
    17  H   -0.047640
    18  H   -0.040957
    19  H    0.582738
 Mulliken charges:
               1
     1  C   -0.084809
     2  H    0.207145
     3  C   -0.146483
     4  O   -0.270677
     5  O   -0.196637
     6  H    0.290070
     7  C    0.171635
     8  C   -0.628230
     9  H    0.154249
    10  H    0.145450
    11  H    0.127158
    12  N   -0.307105
    13  H    0.244675
    14  H    0.231481
    15  H    0.221072
    16  C   -0.585681
    17  H    0.163335
    18  H    0.138623
    19  H    0.124726
 Sum of Mulliken charges =   0.00000
 Mulliken charges with hydrogens summed into heavy atoms:
               1
     1  C    0.122336
     3  C   -0.146483
     4  O   -0.270677
     5  O    0.093434
     7  C    0.392707
     8  C   -0.201373
    12  N    0.169052
    16  C   -0.158997
 Electronic spatial extent (au):  <R**2>=           1095.3504
 Charge=              0.0000 electrons
 Dipole moment (field-independent basis, Debye):
    X=              0.1451    Y=              1.2726    Z=              1.8860  Tot=              2.2798
 Quadrupole moment (field-independent basis, Debye-Ang):
   XX=            -43.7737   YY=            -51.3533   ZZ=            -53.8049
   XY=             -0.3712   XZ=             -1.4057   YZ=              0.1938
 Traceless Quadrupole moment (field-independent basis, Debye-Ang):
   XX=              5.8703   YY=             -1.7093   ZZ=             -4.1610
   XY=             -0.3712   XZ=             -1.4057   YZ=              0.1938
 Octapole moment (field-independent basis, Debye-Ang**2):
  XXX=            -45.0465  YYY=             14.1539  ZZZ=              1.6375  XYY=             -0.4771
  XXY=             -2.0657  XXZ=             -1.9491  XZZ=             -0.8134  YZZ=             -1.3919
  YYZ=              7.0613  XYZ=              4.6457
 Hexadecapole moment (field-independent basis, Debye-Ang**3):
 XXXX=           -740.7595 YYYY=           -415.0368 ZZZZ=           -138.3046 XXXY=             10.8644
 XXXZ=             -8.5229 YYYX=             -2.4340 YYYZ=             11.0955 ZZZX=             -1.0709
 ZZZY=              7.4351 XXYY=           -218.9477 XXZZ=           -174.4774 YYZZ=           -106.7960
 XXYZ=             -5.0137 YYXZ=             -9.2449 ZZXY=              1.1161
 N-N= 4.048707961560D+02 E-N=-1.750229742062D+03  KE= 4.008662151199D+02
 1\1\GINC-KALI\FOpt\RB3LYP\6-311++G(d,p)\C5H11N1O2\ROOT\28-Mar-2016\0\\
 # opt b3lyp/6-311++g(d,p) geom=connectivity\\Val-R-opt-6-311++g(d,p)\\
 0,1\C,-0.0661487606,0.4630786534,0.2712501852\H,-0.0105483311,0.474434
 7827,1.374073682\C,-1.3303290484,-0.3212964772,-0.0807542398\O,-1.4150
 965293,-1.2930006897,-0.7838906309\O,-2.4187987163,0.240768466,0.51180
 60401\H,-3.1948096565,-0.2652127265,0.2270678444\C,1.2054826748,-0.221
 2734994,-0.2678305569\C,2.4312406416,0.6966574147,-0.1495280036\H,2.60
 4269609,1.002288624,0.8893436915\H,3.3274339791,0.1687494791,-0.485466
 5533\H,2.3368838166,1.5935335094,-0.7657979781\N,-0.2546874669,1.81287
 97471,-0.2898438394\H,-1.1156114194,2.2192492435,0.0612362133\H,0.5036
 442862,2.4219760637,-0.0047381831\H,1.0329031059,-0.4330746453,-1.3276
 401947\C,1.4679001275,-1.5466172201,0.4635697796\H,0.6309234073,-2.238
 9655944,0.3654567424\H,2.3534233582,-2.0372577133,0.0509273082\H,1.654
 2369222,-1.3748964178,1.529918693\\Version=ES64L-G09RevD.01\State=1-A\
 HF=-402.4987046\RMSD=9.729e-09\RMSF=6.237e-06\Dipole=0.0502345,0.50598
 34,0.7388852\Quadrupole=4.3670374,-1.277272,-3.0897654,-0.1841392,-1.0
 649149,0.1156005\PG=C01 [X(C5H11N1O2)]\\@


 TOM, TOM, THE BURGLAR'S SON
 STOLE A MACHINE AND AWAY HE RUN
 THE JOB WAS NEAT, BUT TOM GOT BEAT
 BY THE TIME HE GOT HOME IT WAS OBSOLETE.
 Job cpu time:       0 days  0 hours 57 minutes 28.4 seconds.
 File lengths (MBytes):  RWF=     40 Int=      0 D2E=      0 Chk=      5 Scr=      1
 Normal termination of Gaussian 09 at Mon Mar 28 15:43:35 2016.
