 Entering Link 1 = c:\G09w04\l1.exe PID=      5256.
  
 Copyright (c) 1988,1990,1992,1993,1995,1998,2003,2009,2010,
            Gaussian, Inc.  All Rights Reserved.
  
 This is part of the Gaussian(R) 09 program.  It is based on
 the Gaussian(R) 03 system (copyright 2003, Gaussian, Inc.),
 the Gaussian(R) 98 system (copyright 1998, Gaussian, Inc.),
 the Gaussian(R) 94 system (copyright 1995, Gaussian, Inc.),
 the Gaussian 92(TM) system (copyright 1992, Gaussian, Inc.),
 the Gaussian 90(TM) system (copyright 1990, Gaussian, Inc.),
 the Gaussian 88(TM) system (copyright 1988, Gaussian, Inc.),
 the Gaussian 86(TM) system (copyright 1986, Carnegie Mellon
 University), and the Gaussian 82(TM) system (copyright 1983,
 Carnegie Mellon University). Gaussian is a federally registered
 trademark of Gaussian, Inc.
  
 This software contains proprietary and confidential information,
 including trade secrets, belonging to Gaussian, Inc.
  
 This software is provided under written license and may be
 used, copied, transmitted, or stored only in accord with that
 written license.
  
 The following legend is applicable only to US Government
 contracts under FAR:
  
                    RESTRICTED RIGHTS LEGEND
  
 Use, reproduction and disclosure by the US Government is
 subject to restrictions as set forth in subparagraphs (a)
 and (c) of the Commercial Computer Software - Restricted
 Rights clause in FAR 52.227-19.
  
 Gaussian, Inc.
 340 Quinnipiac St., Bldg. 40, Wallingford CT 06492
  
  
 ---------------------------------------------------------------
 Warning -- This program may not be used in any manner that
 competes with the business of Gaussian, Inc. or will provide
 assistance to any competitor of Gaussian, Inc.  The licensee
 of this program is prohibited from giving any competitor of
 Gaussian, Inc. access to this program.  By using this program,
 the user acknowledges that Gaussian, Inc. is engaged in the
 business of creating and licensing software in the field of
 computational chemistry and represents and warrants to the
 licensee that it is not a competitor of Gaussian, Inc. and that
 it will not use this program in any manner prohibited above.
 ---------------------------------------------------------------
  

 Cite this work as:
 Gaussian 09, Revision B.01,
 M. J. Frisch, G. W. Trucks, H. B. Schlegel, G. E. Scuseria, 
 M. A. Robb, J. R. Cheeseman, G. Scalmani, V. Barone, B. Mennucci, 
 G. A. Petersson, H. Nakatsuji, M. Caricato, X. Li, H. P. Hratchian, 
 A. F. Izmaylov, J. Bloino, G. Zheng, J. L. Sonnenberg, M. Hada, 
 M. Ehara, K. Toyota, R. Fukuda, J. Hasegawa, M. Ishida, T. Nakajima, 
 Y. Honda, O. Kitao, H. Nakai, T. Vreven, J. A. Montgomery, Jr., 
 J. E. Peralta, F. Ogliaro, M. Bearpark, J. J. Heyd, E. Brothers, 
 K. N. Kudin, V. N. Staroverov, T. Keith, R. Kobayashi, J. Normand, 
 K. Raghavachari, A. Rendell, J. C. Burant, S. S. Iyengar, J. Tomasi, 
 M. Cossi, N. Rega, J. M. Millam, M. Klene, J. E. Knox, J. B. Cross, 
 V. Bakken, C. Adamo, J. Jaramillo, R. Gomperts, R. E. Stratmann, 
 O. Yazyev, A. J. Austin, R. Cammi, C. Pomelli, J. W. Ochterski, 
 R. L. Martin, K. Morokuma, V. G. Zakrzewski, G. A. Voth, 
 P. Salvador, J. J. Dannenberg, S. Dapprich, A. D. Daniels, 
 O. Farkas, J. B. Foresman, J. V. Ortiz, J. Cioslowski, 
 and D. J. Fox, Gaussian, Inc., Wallingford CT, 2010.
 
 ******************************************
 Gaussian 09:  IA32W-G09RevB.01 12-Aug-2010
                19-Apr-2016 
 ******************************************
 %chk=Ala-S-qst2-cpcm-w-tsb2-6-311++gdp.chk
 -------------------------------------
 #p freq rb3lyp/6-311++g(d,p) opt=QST2
 -------------------------------------
 1/5=1,14=-1,18=20,26=3,27=202,38=1/1,3;
 2/9=110,12=2,17=6,18=5,40=1/2;
 3/5=4,6=6,7=1111,11=2,16=1,25=1,30=1,71=1,74=-5,116=1/1,2,3;
 4//1;
 5/5=2,38=5/2;
 6/7=2,8=2,9=2,10=2,28=1/1;
 7//1,2,3,16;
 1/5=1,14=-1,18=20,27=202/3(2);
 2/9=110/2;
 99//99;
 2/9=110/2;
 3/5=4,6=6,7=1111,11=2,16=1,25=1,30=1,71=1,74=-5,116=1/1,2,3;
 4/5=5,16=3/1;
 5/5=2,38=5/2;
 7//1,2,3,16;
 1/5=1,14=-1,18=20,27=202/3(-5);
 2/9=110/2;
 6/7=2,8=2,9=2,10=2,19=2,28=1/1;
 99/9=1/99;
 Leave Link    1 at Tue Apr 19 17:46:51 2016, MaxMem=          0 cpu:       1.0
 (Enter c:\G09w04\l101.exe)
 ------------------------------------
 Ala-S-opt-freq-cpcm-w-pb1-6-311++gdp
 ------------------------------------
 Symbolic Z-matrix:
 Charge =  0 Multiplicity = 1
 N                    -1.3462   -1.22284  -0.1851 
 H                    -2.01952  -1.46511   0.53809 
 C                    -0.7563    0.07574   0.05064 
 H                     0.64894  -1.78266  -0.05056 
 C                    -1.60709   1.30958   0.12231 
 C                     0.57783   0.05711   0.19297 
 H                    -2.34579   1.23627   0.93038 
 H                    -1.00428   2.20218   0.29889 
 H                    -2.16688   1.45936  -0.80941 
 O                     1.31252  -1.08386   0.11873 
 H                    -1.84658  -1.25111  -1.07042 
 O                     1.33758   1.1554    0.42666 
 H                     2.26485   0.88752   0.45656 
 
 NAtoms=     13 NQM=     13 NQMF=      0 NMic=      0 NMicF=      0 NTot=     13.
 ------------------------------------
 Ala-S-opt-freq-cpcm-w-pb2-6-311++gdp
 ------------------------------------
 Symbolic Z-matrix:
 Charge =  0 Multiplicity = 1
 N                     1.21818  -1.19358  -0.54018 
 H                     2.18038  -1.11796  -0.8575 
 C                     0.64245   0.15187  -0.4273 
 H                     0.6971    0.62007  -1.41189 
 C                     1.3355    1.07517   0.59708 
 C                    -0.84033   0.07303  -0.09765 
 H                     2.38531   1.19473   0.31954 
 H                     0.87227   2.06519   0.61876 
 H                     1.2896    0.64447   1.60077 
 O                    -1.68648   0.81071  -0.55226 
 H                     1.24611  -1.64336   0.37097 
 O                    -1.11983  -0.88217   0.8091 
 H                    -2.07037  -0.85604   1.00361 
 
 NAtoms=     13 NQM=     13 NQMF=      0 NMic=      0 NMicF=      0 NTot=     13.
 Iteration  1 RMS(Cart)=  0.15741808 RMS(Int)=  0.36617779
 Iteration  2 RMS(Cart)=  0.14566005 RMS(Int)=  0.28311982
 Iteration  3 RMS(Cart)=  0.13174560 RMS(Int)=  0.20782112
 Iteration  4 RMS(Cart)=  0.10522353 RMS(Int)=  0.14470261
 Iteration  5 RMS(Cart)=  0.09668939 RMS(Int)=  0.10453676
 Iteration  6 RMS(Cart)=  0.02999303 RMS(Int)=  0.08813838
 Iteration  7 RMS(Cart)=  0.01766610 RMS(Int)=  0.08063830
 Iteration  8 RMS(Cart)=  0.01760278 RMS(Int)=  0.07661280
 Iteration  9 RMS(Cart)=  0.01642820 RMS(Int)=  0.07557590
 Iteration 10 RMS(Cart)=  0.00623732 RMS(Int)=  0.07564627
 Iteration 11 RMS(Cart)=  0.00252853 RMS(Int)=  0.07569339
 Iteration 12 RMS(Cart)=  0.00103590 RMS(Int)=  0.07571613
 Iteration 13 RMS(Cart)=  0.00042254 RMS(Int)=  0.07572592
 Iteration 14 RMS(Cart)=  0.00017264 RMS(Int)=  0.07573000
 Iteration 15 RMS(Cart)=  0.00007049 RMS(Int)=  0.07573169
 Iteration 16 RMS(Cart)=  0.00002878 RMS(Int)=  0.07573238
 Iteration 17 RMS(Cart)=  0.00001175 RMS(Int)=  0.07573266
 Iteration 18 RMS(Cart)=  0.00000480 RMS(Int)=  0.07573277
 Iteration 19 RMS(Cart)=  0.00000196 RMS(Int)=  0.07573282
 Iteration 20 RMS(Cart)=  0.00000080 RMS(Int)=  0.07573284
                    Isotopes and Nuclear Properties:
 (Nuclear quadrupole moments (NQMom) in fm**2, nuclear magnetic moments (NMagM)
  in nuclear magnetons)

  Atom         1           2           3           4           5           6           7           8           9          10
 IAtWgt=          14           1          12           1          12          12           1           1           1          16
 AtmWgt=  14.0030740   1.0078250  12.0000000   1.0078250  12.0000000  12.0000000   1.0078250   1.0078250   1.0078250  15.9949146
 NucSpn=           2           1           0           1           0           0           1           1           1           0
 AtZEff=   0.0000000   0.0000000   0.0000000   0.0000000   0.0000000   0.0000000   0.0000000   0.0000000   0.0000000   0.0000000
 NQMom=    2.0440000   0.0000000   0.0000000   0.0000000   0.0000000   0.0000000   0.0000000   0.0000000   0.0000000   0.0000000
 NMagM=    0.4037610   2.7928460   0.0000000   2.7928460   0.0000000   0.0000000   2.7928460   2.7928460   2.7928460   0.0000000

  Atom        11          12          13
 IAtWgt=           1          16           1
 AtmWgt=   1.0078250  15.9949146   1.0078250
 NucSpn=           1           0           1
 AtZEff=   0.0000000   0.0000000   0.0000000
 NQMom=    0.0000000   0.0000000   0.0000000
 NMagM=    2.7928460   0.0000000   2.7928460
 Leave Link  101 at Tue Apr 19 17:46:51 2016, MaxMem=   33554432 cpu:       0.0
 (Enter c:\G09w04\l103.exe)

 GradGradGradGradGradGradGradGradGradGradGradGradGradGradGradGradGradGrad
 Berny optimization.
 Initialization pass.
                           ----------------------------
                           !    Initial Parameters    !
                           ! (Angstroms and Degrees)  !
 --------------------------                            --------------------------
 ! Name  Definition        TS        Reactant  Product Derivative Info.         !
 --------------------------------------------------------------------------------
 ! R1    R(1,2)             1.0167    1.0174    1.016  estimate D2E/DX2         !
 ! R2    R(1,3)             1.4567    1.4456    1.4678 estimate D2E/DX2         !
 ! R3    R(1,11)            1.0169    1.0173    1.0165 estimate D2E/DX2         !
 ! R4    R(3,5)             1.5219    1.5005    1.5434 estimate D2E/DX2         !
 ! R5    R(3,6)             1.4706    1.3418    1.521  estimate D2E/DX2         !
 ! R6    R(4,10)            1.7121    0.9784    2.541  estimate D2E/DX2         !
 ! R7    R(5,7)             1.0949    1.0973    1.0924 estimate D2E/DX2         !
 ! R8    R(5,8)             1.0924    1.0915    1.0933 estimate D2E/DX2         !
 ! R9    R(5,9)             1.0952    1.0972    1.0932 estimate D2E/DX2         !
 ! R10   R(6,10)            1.2792    1.3591    1.2111 estimate D2E/DX2         !
 ! R11   R(6,12)            1.3511    1.3558    1.3464 estimate D2E/DX2         !
 ! R12   R(12,13)           0.9681    0.9657    0.9706 estimate D2E/DX2         !
 ! R13   R(3,4)             1.7301    2.3321    1.0916 estimate D2E/DX2         !
 ! A1    A(2,1,3)         110.3575  111.5954  109.1025 estimate D2E/DX2         !
 ! A2    A(2,1,11)        106.6749  106.6456  106.6705 estimate D2E/DX2         !
 ! A3    A(3,1,11)        110.9571  111.5662  110.331  estimate D2E/DX2         !
 ! A4    A(1,3,5)         128.092   121.0026  115.0407 estimate D2E/DX2         !
 ! A5    A(1,3,6)         123.0814  114.2388  110.5809 estimate D2E/DX2         !
 ! A6    A(5,3,6)         101.176   124.7586  108.9598 estimate D2E/DX2         !
 ! A7    A(3,5,7)         110.1979  111.2205  109.1695 estimate D2E/DX2         !
 ! A8    A(3,5,8)         111.461   111.5336  111.3845 estimate D2E/DX2         !
 ! A9    A(3,5,9)         110.9726  111.1605  110.7835 estimate D2E/DX2         !
 ! A10   A(7,5,8)         108.076   107.8971  108.2469 estimate D2E/DX2         !
 ! A11   A(7,5,9)         107.6938  106.9185  108.4659 estimate D2E/DX2         !
 ! A12   A(8,5,9)         108.3097  107.9095  108.7105 estimate D2E/DX2         !
 ! A13   A(3,6,10)        127.9947  122.9113  124.6222 estimate D2E/DX2         !
 ! A14   A(3,6,12)        116.3506  124.3476  112.6506 estimate D2E/DX2         !
 ! A15   A(10,6,12)       115.6378  112.741   122.6757 estimate D2E/DX2         !
 ! A16   A(4,10,6)         71.8231  104.0289   54.9652 estimate D2E/DX2         !
 ! A17   A(6,12,13)       108.5997  108.5863  108.6131 estimate D2E/DX2         !
 ! A18   A(1,3,4)          81.6538   61.5092  107.7076 estimate D2E/DX2         !
 ! A19   A(4,3,5)         145.4058  177.4832  108.6378 estimate D2E/DX2         !
 ! A20   A(4,3,6)          67.4078   52.73    105.4566 estimate D2E/DX2         !
 ! D1    D(2,1,3,5)       -66.8782  -59.6264  -62.0692 estimate D2E/DX2         !
 ! D2    D(2,1,3,6)       149.5542  120.3363  173.9801 estimate D2E/DX2         !
 ! D3    D(11,1,3,5)       51.1466   59.5643   54.8079 estimate D2E/DX2         !
 ! D4    D(11,1,3,6)      -92.421  -120.473   -69.1429 estimate D2E/DX2         !
 ! D5    D(1,3,5,7)        57.9705   59.8713   59.4386 estimate D2E/DX2         !
 ! D6    D(1,3,5,8)       177.9616 -179.6239  178.9195 estimate D2E/DX2         !
 ! D7    D(1,3,5,9)       -61.228   -59.1444  -59.9425 estimate D2E/DX2         !
 ! D8    D(6,3,5,7)      -152.5086 -120.0874 -175.7589 estimate D2E/DX2         !
 ! D9    D(6,3,5,8)       -32.5175    0.4174  -56.278  estimate D2E/DX2         !
 ! D10   D(6,3,5,9)        88.2929  120.8969   64.8601 estimate D2E/DX2         !
 ! D11   D(1,3,6,10)      -72.2872    0.1538 -141.6008 estimate D2E/DX2         !
 ! D12   D(1,3,6,12)      109.287  -179.6975   40.9557 estimate D2E/DX2         !
 ! D13   D(5,3,6,10)      136.1651 -179.885    91.0225 estimate D2E/DX2         !
 ! D14   D(5,3,6,12)      -42.2607    0.2637  -86.421  estimate D2E/DX2         !
 ! D15   D(3,6,10,4)        9.4157    0.1729   12.5455 estimate D2E/DX2         !
 ! D16   D(12,6,10,4)    -172.149  -179.9602 -170.2576 estimate D2E/DX2         !
 ! D17   D(3,6,12,13)     179.8209 -177.9068  177.6073 estimate D2E/DX2         !
 ! D18   D(10,6,12,13)      1.1969    2.2286    0.1066 estimate D2E/DX2         !
 ! D19   D(2,1,3,4)        93.5388  120.5557   59.2258 estimate D2E/DX2         !
 ! D20   D(11,1,3,4)     -148.4364 -120.2536  176.1029 estimate D2E/DX2         !
 ! D21   D(4,3,5,7)       -86.2909 -123.7763  -61.3491 estimate D2E/DX2         !
 ! D22   D(4,3,5,8)        33.7002   -3.2714   58.1318 estimate D2E/DX2         !
 ! D23   D(4,3,5,9)       154.5106  117.208   179.2699 estimate D2E/DX2         !
 ! D24   D(4,3,6,10)       -9.59     -0.0884  -25.4386 estimate D2E/DX2         !
 ! D25   D(4,3,6,12)      171.9842 -179.9397  157.1179 estimate D2E/DX2         !
 --------------------------------------------------------------------------------
 Trust Radius=3.00D-01 FncErr=1.00D-07 GrdErr=1.00D-06
 Number of steps in this run=     68 maximum allowed number of steps=    100.
 Search for a saddle point of order  1.
 GradGradGradGradGradGradGradGradGradGradGradGradGradGradGradGradGradGrad

 Leave Link  103 at Tue Apr 19 17:46:51 2016, MaxMem=   33554432 cpu:       0.0
 (Enter c:\G09w04\l202.exe)
                          Input orientation:                          
 ---------------------------------------------------------------------
 Center     Atomic      Atomic             Coordinates (Angstroms)
 Number     Number       Type             X           Y           Z
 ---------------------------------------------------------------------
      1          7           0       -1.441565   -1.345129   -0.510611
      2          1           0       -2.276448   -1.661366   -0.024178
      3          6           0       -0.826131   -0.236858    0.207018
      4          1           0        0.086329   -1.528257    0.909103
      5          6           0       -1.375440    1.167035    0.415915
      6          6           0        0.621405    0.022351    0.194717
      7          1           0       -2.345992    1.121985    0.920607
      8          1           0       -0.702936    1.772367    1.027936
      9          1           0       -1.521774    1.677275   -0.542045
     10          8           0        1.545300   -0.641895    0.779030
     11          1           0       -1.736845   -1.057316   -1.440178
     12          8           0        1.029801    1.111372   -0.492760
     13          1           0        1.993368    1.176002   -0.424815
 ---------------------------------------------------------------------
                    Distance matrix (angstroms):
                    1          2          3          4          5
     1  N    0.000000
     2  H    1.016687   0.000000
     3  C    1.456713   2.045994   0.000000
     4  H    2.093701   2.543904   1.730092   0.000000
     5  C    2.678393   3.000891   1.521938   3.105576   0.000000
     6  C    2.573583   3.358626   1.470612   1.789145   2.312275
     7  H    2.992161   2.940153   2.160010   3.597236   1.094859
     8  H    3.554079   3.920893   2.173952   3.395759   1.092363
     9  H    3.023631   3.461826   2.170005   3.868755   1.095193
    10  O    3.328524   4.036114   2.472840   1.712061   3.454678
    11  H    1.016917   1.631289   2.053242   3.010792   2.919491
    12  O    3.484589   4.340383   2.398311   3.134167   2.571764
    13  H    4.261716   5.142226   3.216358   3.567794   3.472143
                    6          7          8          9         10
     6  C    0.000000
     7  H    3.246776   0.000000
     8  H    2.347485   1.770353   0.000000
     9  H    2.806209   1.768343   1.773240   0.000000
    10  O    1.279151   4.274748   3.308350   4.065801   0.000000
    11  H    3.065926   3.270125   3.894567   2.886327   3.983708
    12  O    1.351065   3.659740   2.398292   2.614041   2.226463
    13  H    1.896579   4.543471   3.120287   3.552639   2.225929
                   11         12         13
    11  H    0.000000
    12  O    3.640760   0.000000
    13  H    4.464656   0.968120   0.000000
 Stoichiometry    C3H7NO2
 Framework group  C1[X(C3H7NO2)]
 Deg. of freedom    33
 Full point group                 C1      NOp   1
 Largest Abelian subgroup         C1      NOp   1
 Largest concise Abelian subgroup C1      NOp   1
                         Standard orientation:                         
 ---------------------------------------------------------------------
 Center     Atomic      Atomic             Coordinates (Angstroms)
 Number     Number       Type             X           Y           Z
 ---------------------------------------------------------------------
      1          7           0        1.667357   -1.011955    0.457917
      2          1           0        2.497194   -1.143426   -0.114567
      3          6           0        0.738325   -0.101538   -0.197868
      4          1           0        0.084106   -1.592447   -0.783024
      5          6           0        0.919598    1.383156   -0.479145
      6          6           0       -0.720205   -0.183574   -0.028568
      7          1           0        1.815346    1.546080   -1.087263
      8          1           0        0.063917    1.795045   -1.018975
      9          1           0        1.042478    1.946395    0.452042
     10          8           0       -1.519551   -1.063242   -0.501282
     11          1           0        1.983174   -0.631554    1.346553
     12          8           0       -1.297104    0.804828    0.689503
     13          1           0       -2.250784    0.642644    0.727542
 ---------------------------------------------------------------------
 Rotational constants (GHZ):      4.8792584      3.0018603      2.2403233
 Leave Link  202 at Tue Apr 19 17:46:51 2016, MaxMem=   33554432 cpu:       0.0
 (Enter c:\G09w04\l301.exe)
 Standard basis: 6-311++G(d,p) (5D, 7F)
 Ernie: Thresh=  0.10000D-02 Tol=  0.10000D-05 Strict=F.
 There are   181 symmetry adapted basis functions of A   symmetry.
 Integral buffers will be    262144 words long.
 Raffenetti 2 integral format.
 Two-electron integral symmetry is turned on.
   181 basis functions,   279 primitive gaussians,   187 cartesian basis functions
    24 alpha electrons       24 beta electrons
       nuclear repulsion energy       246.6916718213 Hartrees.
 IExCor=  402 DFT=T Ex+Corr=B3LYP ExCW=0 ScaHFX=  0.200000
 ScaDFX=  0.800000  0.720000  1.000000  0.810000 ScalE2=  1.000000  1.000000
 IRadAn=      0 IRanWt=     -1 IRanGd=            0 ICorTp=0
 NAtoms=   13 NActive=   13 NUniq=   13 SFac= 1.00D+00 NAtFMM=   50 NAOKFM=F Big=F
 Leave Link  301 at Tue Apr 19 17:46:51 2016, MaxMem=   33554432 cpu:       0.0
 (Enter c:\G09w04\l302.exe)
 NPDir=0 NMtPBC=     1 NCelOv=     1 NCel=       1 NClECP=     1 NCelD=      1
         NCelK=      1 NCelE2=     1 NClLst=     1 CellRange=     0.0.
 One-electron integrals computed using PRISM.
 NBasis=   181 RedAO= T  NBF=   181
 NBsUse=   181 1.00D-06 NBFU=   181
 Precomputing XC quadrature grid using
 IXCGrd= 2 IRadAn=           0 IRanWt=          -1 IRanGd=           0 AccXCQ= 0.00D+00.
 NRdTot=     842 NPtTot=      107058 NUsed=      110990 NTot=      111006
 NSgBfM=   187   187   187   187   187 NAtAll=    13    13.
 Leave Link  302 at Tue Apr 19 17:46:51 2016, MaxMem=   33554432 cpu:       0.0
 (Enter c:\G09w04\l303.exe)
 DipDrv:  MaxL=1.
 Leave Link  303 at Tue Apr 19 17:46:51 2016, MaxMem=   33554432 cpu:       0.0
 (Enter c:\G09w04\l401.exe)
 Harris functional with IExCor=  402 diagonalized for initial guess.
 ExpMin= 3.60D-02 ExpMax= 8.59D+03 ExpMxC= 1.30D+03 IAcc=3 IRadAn=         0 AccDes= 0.00D+00
 HarFok:  IExCor=  402 AccDes= 0.00D+00 IRadAn=         0 IDoV= 1
 ScaDFX=  1.000000  1.000000  1.000000  1.000000
 FoFCou: FMM=F IPFlag=           0 FMFlag=      100000 FMFlg1=           0
         NFxFlg=           0 DoJE=T BraDBF=F KetDBF=T FulRan=T
         Omega=  0.000000  0.000000  1.000000  0.000000  0.000000 ICntrl=     500 IOpCl=  0
         NMat0=    1 NMatS0=    1 NMatT0=    0 NMatD0=    1 NMtDS0=    0 NMtDT0=    0
         I1Cent=           4 NGrid=           0.
 Petite list used in FoFCou.
 Harris En= -323.706022658762    
 Initial guess orbital symmetries:
       Occupied  (A) (A) (A) (A) (A) (A) (A) (A) (A) (A) (A) (A)
                 (A) (A) (A) (A) (A) (A) (A) (A) (A) (A) (A) (A)
       Virtual   (A) (A) (A) (A) (A) (A) (A) (A) (A) (A) (A) (A)
                 (A) (A) (A) (A) (A) (A) (A) (A) (A) (A) (A) (A)
                 (A) (A) (A) (A) (A) (A) (A) (A) (A) (A) (A) (A)
                 (A) (A) (A) (A) (A) (A) (A) (A) (A) (A) (A) (A)
                 (A) (A) (A) (A) (A) (A) (A) (A) (A) (A) (A) (A)
                 (A) (A) (A) (A) (A) (A) (A) (A) (A) (A) (A) (A)
                 (A) (A) (A) (A) (A) (A) (A) (A) (A) (A) (A) (A)
                 (A) (A) (A) (A) (A) (A) (A) (A) (A) (A) (A) (A)
                 (A) (A) (A) (A) (A) (A) (A) (A) (A) (A) (A) (A)
                 (A) (A) (A) (A) (A) (A) (A) (A) (A) (A) (A) (A)
                 (A) (A) (A) (A) (A) (A) (A) (A) (A) (A) (A) (A)
                 (A) (A) (A) (A) (A) (A) (A) (A) (A) (A) (A) (A)
                 (A) (A) (A) (A) (A) (A) (A) (A) (A) (A) (A) (A)
                 (A)
 The electronic state of the initial guess is 1-A.
 Leave Link  401 at Tue Apr 19 17:46:56 2016, MaxMem=   33554432 cpu:       5.0
 (Enter c:\G09w04\l502.exe)
 Closed shell SCF:
 Requested convergence on RMS density matrix=1.00D-08 within 128 cycles.
 Requested convergence on MAX density matrix=1.00D-06.
 Requested convergence on             energy=1.00D-06.
 No special actions if energy rises.
 Using DIIS extrapolation, IDIIS=  1040.
 Integral symmetry usage will be decided dynamically.
       110873 words used for storage of precomputed grid.
 IEnd=      236206 IEndB=      236206 NGot=    33554432 MDV=    33370023
 LenX=    33370023 LenY=    33334613
 Fock matrices will be formed incrementally for  20 cycles.

 Cycle   1  Pass 1  IDiag  1:
 FoFCou: FMM=F IPFlag=           0 FMFlag=      100000 FMFlg1=           0
         NFxFlg=           0 DoJE=F BraDBF=F KetDBF=F FulRan=T
         Omega=  0.000000  0.000000  1.000000  0.000000  0.000000 ICntrl=       0 IOpCl=  0
         NMat0=    1 NMatS0=    1 NMatT0=    0 NMatD0=    1 NMtDS0=    0 NMtDT0=    0
         I1Cent=           0 NGrid=           0.
 Symmetry not used in FoFCou.
 E= -323.467742635978    
 DIIS: error= 2.50D-02 at cycle   1 NSaved=   1.
 NSaved= 1 IEnMin= 1 EnMin= -323.467742635978     IErMin= 1 ErrMin= 2.50D-02
 ErrMax= 2.50D-02 EMaxC= 1.00D-01 BMatC= 2.68D-01 BMatP= 2.68D-01
 IDIUse=3 WtCom= 7.50D-01 WtEn= 2.50D-01
 Coeff-Com:  0.100D+01
 Coeff-En:   0.100D+01
 Coeff:      0.100D+01
 Gap=     0.105 Goal=   None    Shift=    0.000
 GapD=    0.105 DampG=1.000 DampE=0.500 DampFc=0.5000 IDamp=-1.
 Damping current iteration by 5.00D-01
 RMSDP=9.18D-03 MaxDP=2.38D-01              OVMax= 2.32D-01

 Cycle   2  Pass 1  IDiag  1:
 RMSU=  3.25D-03    CP:  1.00D+00
 E= -323.528270684606     Delta-E=       -0.060528048628 Rises=F Damp=T
 DIIS: error= 1.01D-02 at cycle   2 NSaved=   2.
 NSaved= 2 IEnMin= 2 EnMin= -323.528270684606     IErMin= 2 ErrMin= 1.01D-02
 ErrMax= 1.01D-02 EMaxC= 1.00D-01 BMatC= 2.80D-02 BMatP= 2.68D-01
 IDIUse=3 WtCom= 8.99D-01 WtEn= 1.01D-01
 Coeff-Com:  0.199D+00 0.801D+00
 Coeff-En:   0.347D+00 0.653D+00
 Coeff:      0.214D+00 0.786D+00
 Gap=     0.156 Goal=   None    Shift=    0.000
 RMSDP=2.37D-03 MaxDP=6.56D-02 DE=-6.05D-02 OVMax= 1.61D-01

 Cycle   3  Pass 1  IDiag  1:
 RMSU=  1.56D-03    CP:  9.85D-01  8.26D-01
 E= -323.670717633126     Delta-E=       -0.142446948521 Rises=F Damp=F
 DIIS: error= 6.80D-03 at cycle   3 NSaved=   3.
 NSaved= 3 IEnMin= 3 EnMin= -323.670717633126     IErMin= 3 ErrMin= 6.80D-03
 ErrMax= 6.80D-03 EMaxC= 1.00D-01 BMatC= 1.23D-02 BMatP= 2.80D-02
 IDIUse=3 WtCom= 9.32D-01 WtEn= 6.80D-02
 Coeff-Com:  0.684D-01 0.417D+00 0.515D+00
 Coeff-En:   0.000D+00 0.000D+00 0.100D+01
 Coeff:      0.638D-01 0.389D+00 0.548D+00
 Gap=     0.149 Goal=   None    Shift=    0.000
 RMSDP=9.79D-04 MaxDP=4.14D-02 DE=-1.42D-01 OVMax= 5.89D-02

 Cycle   4  Pass 1  IDiag  1:
 RMSU=  6.22D-04    CP:  9.81D-01  8.16D-01  8.08D-01
 E= -323.674656309192     Delta-E=       -0.003938676065 Rises=F Damp=F
 DIIS: error= 5.77D-03 at cycle   4 NSaved=   4.
 NSaved= 4 IEnMin= 4 EnMin= -323.674656309192     IErMin= 4 ErrMin= 5.77D-03
 ErrMax= 5.77D-03 EMaxC= 1.00D-01 BMatC= 6.93D-03 BMatP= 1.23D-02
 IDIUse=3 WtCom= 9.42D-01 WtEn= 5.77D-02
 Coeff-Com:  0.915D-02 0.128D+00 0.419D+00 0.444D+00
 Coeff-En:   0.000D+00 0.000D+00 0.396D+00 0.604D+00
 Coeff:      0.862D-02 0.121D+00 0.417D+00 0.453D+00
 Gap=     0.145 Goal=   None    Shift=    0.000
 RMSDP=6.39D-04 MaxDP=2.28D-02 DE=-3.94D-03 OVMax= 4.14D-02

 Cycle   5  Pass 1  IDiag  1:
 RMSU=  3.89D-04    CP:  9.73D-01  8.36D-01  8.20D-01  6.77D-01
 E= -323.679497446393     Delta-E=       -0.004841137201 Rises=F Damp=F
 DIIS: error= 1.50D-03 at cycle   5 NSaved=   5.
 NSaved= 5 IEnMin= 5 EnMin= -323.679497446393     IErMin= 5 ErrMin= 1.50D-03
 ErrMax= 1.50D-03 EMaxC= 1.00D-01 BMatC= 7.83D-04 BMatP= 6.93D-03
 IDIUse=3 WtCom= 9.85D-01 WtEn= 1.50D-02
 Coeff-Com: -0.276D-02 0.304D-01 0.214D+00 0.320D+00 0.438D+00
 Coeff-En:   0.000D+00 0.000D+00 0.000D+00 0.136D+00 0.864D+00
 Coeff:     -0.272D-02 0.299D-01 0.211D+00 0.318D+00 0.444D+00
 Gap=     0.147 Goal=   None    Shift=    0.000
 RMSDP=2.60D-04 MaxDP=1.45D-02 DE=-4.84D-03 OVMax= 1.75D-02

 Cycle   6  Pass 1  IDiag  1:
 RMSU=  7.02D-05    CP:  9.75D-01  8.34D-01  8.64D-01  6.74D-01  6.05D-01
 E= -323.680272898049     Delta-E=       -0.000775451656 Rises=F Damp=F
 DIIS: error= 2.56D-04 at cycle   6 NSaved=   6.
 NSaved= 6 IEnMin= 6 EnMin= -323.680272898049     IErMin= 6 ErrMin= 2.56D-04
 ErrMax= 2.56D-04 EMaxC= 1.00D-01 BMatC= 2.19D-05 BMatP= 7.83D-04
 IDIUse=3 WtCom= 9.97D-01 WtEn= 2.56D-03
 Coeff-Com: -0.147D-02 0.387D-02 0.707D-01 0.121D+00 0.213D+00 0.593D+00
 Coeff-En:   0.000D+00 0.000D+00 0.000D+00 0.000D+00 0.000D+00 0.100D+01
 Coeff:     -0.146D-02 0.386D-02 0.705D-01 0.121D+00 0.212D+00 0.594D+00
 Gap=     0.147 Goal=   None    Shift=    0.000
 RMSDP=4.14D-05 MaxDP=1.01D-03 DE=-7.75D-04 OVMax= 3.49D-03

 Cycle   7  Pass 1  IDiag  1:
 RMSU=  2.65D-05    CP:  9.75D-01  8.33D-01  8.64D-01  6.67D-01  6.17D-01
                    CP:  8.53D-01
 E= -323.680288880875     Delta-E=       -0.000015982826 Rises=F Damp=F
 DIIS: error= 1.47D-04 at cycle   7 NSaved=   7.
 NSaved= 7 IEnMin= 7 EnMin= -323.680288880875     IErMin= 7 ErrMin= 1.47D-04
 ErrMax= 1.47D-04 EMaxC= 1.00D-01 BMatC= 5.28D-06 BMatP= 2.19D-05
 IDIUse=3 WtCom= 9.99D-01 WtEn= 1.47D-03
 Coeff-Com: -0.610D-03-0.809D-03 0.236D-01 0.454D-01 0.845D-01 0.377D+00
 Coeff-Com:  0.471D+00
 Coeff-En:   0.000D+00 0.000D+00 0.000D+00 0.000D+00 0.000D+00 0.192D+00
 Coeff-En:   0.808D+00
 Coeff:     -0.609D-03-0.808D-03 0.236D-01 0.453D-01 0.844D-01 0.377D+00
 Coeff:      0.471D+00
 Gap=     0.147 Goal=   None    Shift=    0.000
 RMSDP=1.97D-05 MaxDP=7.16D-04 DE=-1.60D-05 OVMax= 7.84D-04

 Cycle   8  Pass 1  IDiag  1:
 RMSU=  6.84D-06    CP:  9.75D-01  8.34D-01  8.66D-01  6.67D-01  6.09D-01
                    CP:  8.40D-01  6.11D-01
 E= -323.680293679717     Delta-E=       -0.000004798842 Rises=F Damp=F
 DIIS: error= 2.17D-05 at cycle   8 NSaved=   8.
 NSaved= 8 IEnMin= 8 EnMin= -323.680293679717     IErMin= 8 ErrMin= 2.17D-05
 ErrMax= 2.17D-05 EMaxC= 1.00D-01 BMatC= 1.47D-07 BMatP= 5.28D-06
 IDIUse=1 WtCom= 1.00D+00 WtEn= 0.00D+00
 Coeff-Com:  0.389D-04-0.783D-03 0.260D-02 0.621D-02 0.889D-02 0.986D-01
 Coeff-Com:  0.162D+00 0.723D+00
 Coeff:      0.389D-04-0.783D-03 0.260D-02 0.621D-02 0.889D-02 0.986D-01
 Coeff:      0.162D+00 0.723D+00
 Gap=     0.147 Goal=   None    Shift=    0.000
 RMSDP=8.51D-06 MaxDP=3.43D-04 DE=-4.80D-06 OVMax= 2.83D-04

 Cycle   9  Pass 1  IDiag  1:
 RMSU=  3.82D-06    CP:  9.75D-01  8.34D-01  8.65D-01  6.69D-01  6.17D-01
                    CP:  8.22D-01  5.33D-01  1.14D+00
 E= -323.680293779215     Delta-E=       -0.000000099498 Rises=F Damp=F
 DIIS: error= 9.01D-06 at cycle   9 NSaved=   9.
 NSaved= 9 IEnMin= 9 EnMin= -323.680293779215     IErMin= 9 ErrMin= 9.01D-06
 ErrMax= 9.01D-06 EMaxC= 1.00D-01 BMatC= 3.27D-08 BMatP= 1.47D-07
 IDIUse=1 WtCom= 1.00D+00 WtEn= 0.00D+00
 Coeff-Com:  0.104D-03-0.300D-03-0.137D-02-0.203D-02-0.687D-02 0.563D-02
 Coeff-Com:  0.808D-02 0.339D+00 0.658D+00
 Coeff:      0.104D-03-0.300D-03-0.137D-02-0.203D-02-0.687D-02 0.563D-02
 Coeff:      0.808D-02 0.339D+00 0.658D+00
 Gap=     0.147 Goal=   None    Shift=    0.000
 RMSDP=2.31D-06 MaxDP=1.23D-04 DE=-9.95D-08 OVMax= 8.01D-05

 Cycle  10  Pass 1  IDiag  1:
 RMSU=  7.14D-07    CP:  9.75D-01  8.34D-01  8.65D-01  6.69D-01  6.14D-01
                    CP:  8.28D-01  5.50D-01  1.19D+00  9.30D-01
 E= -323.680293818079     Delta-E=       -0.000000038864 Rises=F Damp=F
 DIIS: error= 2.95D-06 at cycle  10 NSaved=  10.
 NSaved=10 IEnMin=10 EnMin= -323.680293818079     IErMin=10 ErrMin= 2.95D-06
 ErrMax= 2.95D-06 EMaxC= 1.00D-01 BMatC= 2.53D-09 BMatP= 3.27D-08
 IDIUse=1 WtCom= 1.00D+00 WtEn= 0.00D+00
 Coeff-Com:  0.432D-04-0.943D-04-0.849D-03-0.140D-02-0.417D-02-0.327D-02
 Coeff-Com: -0.102D-01 0.116D+00 0.319D+00 0.586D+00
 Coeff:      0.432D-04-0.943D-04-0.849D-03-0.140D-02-0.417D-02-0.327D-02
 Coeff:     -0.102D-01 0.116D+00 0.319D+00 0.586D+00
 Gap=     0.147 Goal=   None    Shift=    0.000
 RMSDP=8.42D-07 MaxDP=4.35D-05 DE=-3.89D-08 OVMax= 1.88D-05

 Cycle  11  Pass 1  IDiag  1:
 RMSU=  2.77D-07    CP:  9.75D-01  8.34D-01  8.66D-01  6.68D-01  6.14D-01
                    CP:  8.32D-01  5.57D-01  1.21D+00  8.93D-01  9.97D-01
 E= -323.680293820305     Delta-E=       -0.000000002226 Rises=F Damp=F
 DIIS: error= 1.10D-06 at cycle  11 NSaved=  11.
 NSaved=11 IEnMin=11 EnMin= -323.680293820305     IErMin=11 ErrMin= 1.10D-06
 ErrMax= 1.10D-06 EMaxC= 1.00D-01 BMatC= 4.12D-10 BMatP= 2.53D-09
 IDIUse=1 WtCom= 1.00D+00 WtEn= 0.00D+00
 Coeff-Com: -0.680D-05 0.250D-04-0.790D-04-0.156D-03-0.472D-03-0.167D-02
 Coeff-Com: -0.632D-02-0.146D-01-0.655D-02 0.287D+00 0.743D+00
 Coeff:     -0.680D-05 0.250D-04-0.790D-04-0.156D-03-0.472D-03-0.167D-02
 Coeff:     -0.632D-02-0.146D-01-0.655D-02 0.287D+00 0.743D+00
 Gap=     0.147 Goal=   None    Shift=    0.000
 RMSDP=4.65D-07 MaxDP=1.66D-05 DE=-2.23D-09 OVMax= 2.36D-05

 Cycle  12  Pass 1  IDiag  1:
 RMSU=  9.43D-08    CP:  9.75D-01  8.34D-01  8.66D-01  6.68D-01  6.14D-01
                    CP:  8.30D-01  5.52D-01  1.22D+00  9.40D-01  1.09D+00
                    CP:  8.63D-01
 E= -323.680293820801     Delta-E=       -0.000000000496 Rises=F Damp=F
 DIIS: error= 3.29D-07 at cycle  12 NSaved=  12.
 NSaved=12 IEnMin=12 EnMin= -323.680293820801     IErMin=12 ErrMin= 3.29D-07
 ErrMax= 3.29D-07 EMaxC= 1.00D-01 BMatC= 3.66D-11 BMatP= 4.12D-10
 IDIUse=1 WtCom= 1.00D+00 WtEn= 0.00D+00
 Coeff-Com: -0.308D-05 0.108D-04 0.475D-05 0.251D-04 0.168D-05-0.288D-03
 Coeff-Com: -0.111D-02-0.896D-02-0.248D-01 0.946D-02 0.171D+00 0.854D+00
 Coeff:     -0.308D-05 0.108D-04 0.475D-05 0.251D-04 0.168D-05-0.288D-03
 Coeff:     -0.111D-02-0.896D-02-0.248D-01 0.946D-02 0.171D+00 0.854D+00
 Gap=     0.147 Goal=   None    Shift=    0.000
 RMSDP=8.90D-08 MaxDP=2.46D-06 DE=-4.96D-10 OVMax= 3.76D-06

 Cycle  13  Pass 1  IDiag  1:
 RMSU=  2.60D-08    CP:  9.75D-01  8.34D-01  8.66D-01  6.68D-01  6.14D-01
                    CP:  8.30D-01  5.53D-01  1.22D+00  9.38D-01  1.12D+00
                    CP:  9.46D-01  9.71D-01
 E= -323.680293820844     Delta-E=       -0.000000000043 Rises=F Damp=F
 DIIS: error= 6.60D-08 at cycle  13 NSaved=  13.
 NSaved=13 IEnMin=13 EnMin= -323.680293820844     IErMin=13 ErrMin= 6.60D-08
 ErrMax= 6.60D-08 EMaxC= 1.00D-01 BMatC= 1.80D-12 BMatP= 3.66D-11
 IDIUse=1 WtCom= 1.00D+00 WtEn= 0.00D+00
 Coeff-Com: -0.971D-06 0.277D-05 0.130D-04 0.337D-04 0.580D-04 0.715D-04
 Coeff-Com:  0.733D-04-0.288D-02-0.116D-01-0.186D-01 0.228D-01 0.378D+00
 Coeff-Com:  0.632D+00
 Coeff:     -0.971D-06 0.277D-05 0.130D-04 0.337D-04 0.580D-04 0.715D-04
 Coeff:      0.733D-04-0.288D-02-0.116D-01-0.186D-01 0.228D-01 0.378D+00
 Coeff:      0.632D+00
 Gap=     0.147 Goal=   None    Shift=    0.000
 RMSDP=2.25D-08 MaxDP=1.19D-06 DE=-4.32D-11 OVMax= 1.26D-06

 Cycle  14  Pass 1  IDiag  1:
 RMSU=  6.77D-09    CP:  9.75D-01  8.34D-01  8.66D-01  6.68D-01  6.14D-01
                    CP:  8.30D-01  5.54D-01  1.22D+00  9.38D-01  1.13D+00
                    CP:  9.57D-01  1.06D+00  8.99D-01
 E= -323.680293820844     Delta-E=        0.000000000000 Rises=F Damp=F
 DIIS: error= 2.17D-08 at cycle  14 NSaved=  14.
 NSaved=14 IEnMin=13 EnMin= -323.680293820844     IErMin=14 ErrMin= 2.17D-08
 ErrMax= 2.17D-08 EMaxC= 1.00D-01 BMatC= 1.80D-13 BMatP= 1.80D-12
 IDIUse=1 WtCom= 1.00D+00 WtEn= 0.00D+00
 Coeff-Com:  0.191D-06-0.278D-06 0.194D-05 0.461D-05 0.158D-04 0.322D-04
 Coeff-Com:  0.124D-03 0.155D-03-0.810D-03-0.767D-02-0.130D-01 0.284D-01
 Coeff-Com:  0.247D+00 0.746D+00
 Coeff:      0.191D-06-0.278D-06 0.194D-05 0.461D-05 0.158D-04 0.322D-04
 Coeff:      0.124D-03 0.155D-03-0.810D-03-0.767D-02-0.130D-01 0.284D-01
 Coeff:      0.247D+00 0.746D+00
 Gap=     0.147 Goal=   None    Shift=    0.000
 RMSDP=4.82D-09 MaxDP=1.03D-07 DE= 2.27D-13 OVMax= 3.17D-07

 SCF Done:  E(RB3LYP) =  -323.680293821     A.U. after   14 cycles
             Convg  =    0.4818D-08             -V/T =  2.0044
 KE= 3.222713416308D+02 PE=-1.251478349960D+03 EE= 3.588350426870D+02
 Leave Link  502 at Tue Apr 19 17:49:22 2016, MaxMem=   33554432 cpu:     146.0
 (Enter c:\G09w04\l601.exe)
 Copying SCF densities to generalized density rwf, IOpCl= 0 IROHF=0.

 **********************************************************************

            Population analysis using the SCF density.

 **********************************************************************

 Orbital symmetries:
       Occupied  (A) (A) (A) (A) (A) (A) (A) (A) (A) (A) (A) (A)
                 (A) (A) (A) (A) (A) (A) (A) (A) (A) (A) (A) (A)
       Virtual   (A) (A) (A) (A) (A) (A) (A) (A) (A) (A) (A) (A)
                 (A) (A) (A) (A) (A) (A) (A) (A) (A) (A) (A) (A)
                 (A) (A) (A) (A) (A) (A) (A) (A) (A) (A) (A) (A)
                 (A) (A) (A) (A) (A) (A) (A) (A) (A) (A) (A) (A)
                 (A) (A) (A) (A) (A) (A) (A) (A) (A) (A) (A) (A)
                 (A) (A) (A) (A) (A) (A) (A) (A) (A) (A) (A) (A)
                 (A) (A) (A) (A) (A) (A) (A) (A) (A) (A) (A) (A)
                 (A) (A) (A) (A) (A) (A) (A) (A) (A) (A) (A) (A)
                 (A) (A) (A) (A) (A) (A) (A) (A) (A) (A) (A) (A)
                 (A) (A) (A) (A) (A) (A) (A) (A) (A) (A) (A) (A)
                 (A) (A) (A) (A) (A) (A) (A) (A) (A) (A) (A) (A)
                 (A) (A) (A) (A) (A) (A) (A) (A) (A) (A) (A) (A)
                 (A) (A) (A) (A) (A) (A) (A) (A) (A) (A) (A) (A)
                 (A)
 The electronic state is 1-A.
 Alpha  occ. eigenvalues --  -19.18436 -19.13808 -14.32785 -10.32505 -10.22806
 Alpha  occ. eigenvalues --  -10.17866  -1.12343  -1.01619  -0.90659  -0.78007
 Alpha  occ. eigenvalues --   -0.67675  -0.60708  -0.50911  -0.50605  -0.50064
 Alpha  occ. eigenvalues --   -0.47234  -0.44112  -0.42237  -0.41280  -0.38791
 Alpha  occ. eigenvalues --   -0.33542  -0.31958  -0.28285  -0.21841
 Alpha virt. eigenvalues --   -0.07116  -0.01595  -0.01302  -0.00064   0.01438
 Alpha virt. eigenvalues --    0.02674   0.04108   0.05089   0.05511   0.06783
 Alpha virt. eigenvalues --    0.07362   0.08621   0.09837   0.10286   0.11058
 Alpha virt. eigenvalues --    0.12221   0.12662   0.12861   0.13628   0.14172
 Alpha virt. eigenvalues --    0.15258   0.15925   0.16576   0.17790   0.18959
 Alpha virt. eigenvalues --    0.20259   0.21067   0.22348   0.23479   0.24450
 Alpha virt. eigenvalues --    0.25745   0.26418   0.27388   0.27517   0.29309
 Alpha virt. eigenvalues --    0.29801   0.30860   0.32305   0.33897   0.33929
 Alpha virt. eigenvalues --    0.36065   0.38599   0.39412   0.41923   0.44265
 Alpha virt. eigenvalues --    0.47880   0.50336   0.53701   0.54547   0.56053
 Alpha virt. eigenvalues --    0.57986   0.59987   0.60590   0.64925   0.65689
 Alpha virt. eigenvalues --    0.68144   0.70674   0.71177   0.72839   0.74564
 Alpha virt. eigenvalues --    0.79019   0.80394   0.81883   0.87838   0.89866
 Alpha virt. eigenvalues --    0.91894   1.03405   1.05102   1.06529   1.13120
 Alpha virt. eigenvalues --    1.13711   1.16368   1.19926   1.21591   1.23801
 Alpha virt. eigenvalues --    1.27975   1.32820   1.35605   1.37147   1.43091
 Alpha virt. eigenvalues --    1.45031   1.45990   1.48282   1.48699   1.52506
 Alpha virt. eigenvalues --    1.53998   1.55394   1.57967   1.60310   1.62922
 Alpha virt. eigenvalues --    1.65187   1.70757   1.71608   1.80950   1.82636
 Alpha virt. eigenvalues --    1.85916   1.87922   1.91777   1.92648   2.00841
 Alpha virt. eigenvalues --    2.01847   2.02916   2.05073   2.12038   2.17842
 Alpha virt. eigenvalues --    2.20479   2.32420   2.33720   2.45481   2.49124
 Alpha virt. eigenvalues --    2.50162   2.55188   2.55774   2.59967   2.61264
 Alpha virt. eigenvalues --    2.64469   2.67315   2.68771   2.71137   2.75513
 Alpha virt. eigenvalues --    2.79673   2.84515   2.92413   2.92832   2.97662
 Alpha virt. eigenvalues --    2.99140   3.04556   3.06666   3.07353   3.13397
 Alpha virt. eigenvalues --    3.16941   3.26292   3.28497   3.29968   3.54002
 Alpha virt. eigenvalues --    3.56027   3.76762   3.78968   3.81954   3.84691
 Alpha virt. eigenvalues --    4.06473   4.15116   4.17522   4.70504   4.80212
 Alpha virt. eigenvalues --    4.97611   5.04084   5.15200   5.36817   5.53478
 Alpha virt. eigenvalues --    5.83998  23.65787  23.78560  23.95141  35.58070
 Alpha virt. eigenvalues --   49.85585  49.94666
          Condensed to atoms (all electrons):
              1          2          3          4          5          6
     1  N    6.528753   0.395412   0.199166  -0.051656  -0.077320  -0.135676
     2  H    0.395412   0.482470  -0.086361  -0.020802  -0.005322   0.046947
     3  C    0.199166  -0.086361   7.088563   0.189814  -0.034978  -0.508705
     4  H   -0.051656  -0.020802   0.189814   0.695777   0.055639  -0.070899
     5  C   -0.077320  -0.005322  -0.034978   0.055639   5.566599  -0.106059
     6  C   -0.135676   0.046947  -0.508705  -0.070899  -0.106059   6.207006
     7  H   -0.002407  -0.001409  -0.075710  -0.004819   0.394645   0.037352
     8  H    0.015672  -0.000742  -0.029743   0.003250   0.405806  -0.042329
     9  H    0.020096  -0.000422  -0.080038   0.006172   0.493198  -0.098962
    10  O    0.000571   0.005235  -0.238525  -0.045206  -0.053078   0.538043
    11  H    0.399519  -0.079162  -0.088442   0.024101   0.059177  -0.092348
    12  O   -0.001728  -0.001980  -0.266139   0.040275   0.006616   0.221853
    13  H   -0.000754   0.000186  -0.035723   0.000027  -0.017349   0.051217
              7          8          9         10         11         12
     1  N   -0.002407   0.015672   0.020096   0.000571   0.399519  -0.001728
     2  H   -0.001409  -0.000742  -0.000422   0.005235  -0.079162  -0.001980
     3  C   -0.075710  -0.029743  -0.080038  -0.238525  -0.088442  -0.266139
     4  H   -0.004819   0.003250   0.006172  -0.045206   0.024101   0.040275
     5  C    0.394645   0.405806   0.493198  -0.053078   0.059177   0.006616
     6  C    0.037352  -0.042329  -0.098962   0.538043  -0.092348   0.221853
     7  H    0.553929  -0.026994  -0.033554   0.002775   0.000371   0.009604
     8  H   -0.026994   0.557037  -0.036422  -0.005025   0.000227  -0.028971
     9  H   -0.033554  -0.036422   0.558506  -0.006666   0.012465  -0.002468
    10  O    0.002775  -0.005025  -0.006666   8.203490  -0.008895  -0.142374
    11  H    0.000371   0.000227   0.012465  -0.008895   0.556745   0.007711
    12  O    0.009604  -0.028971  -0.002468  -0.142374   0.007711   8.070799
    13  H   -0.001368  -0.000397  -0.000502  -0.004432  -0.001363   0.242944
             13
     1  N   -0.000754
     2  H    0.000186
     3  C   -0.035723
     4  H    0.000027
     5  C   -0.017349
     6  C    0.051217
     7  H   -0.001368
     8  H   -0.000397
     9  H   -0.000502
    10  O   -0.004432
    11  H   -0.001363
    12  O    0.242944
    13  H    0.466602
 Mulliken atomic charges:
              1
     1  N   -0.289649
     2  H    0.265951
     3  C   -0.033177
     4  H    0.178327
     5  C   -0.687573
     6  C   -0.047440
     7  H    0.147585
     8  H    0.188631
     9  H    0.168596
    10  O   -0.245912
    11  H    0.209894
    12  O   -0.156142
    13  H    0.300911
 Sum of Mulliken atomic charges =   0.00000
 Mulliken charges with hydrogens summed into heavy atoms:
              1
     1  N    0.186196
     3  C   -0.033177
     5  C   -0.182762
     6  C   -0.047440
    10  O   -0.067585
    12  O    0.144769
 Sum of Mulliken charges with hydrogens summed into heavy atoms =   0.00000
 Electronic spatial extent (au):  <R**2>=            596.2995
 Charge=              0.0000 electrons
 Dipole moment (field-independent basis, Debye):
    X=              1.3256    Y=              2.0221    Z=              0.8594  Tot=              2.5661
 Quadrupole moment (field-independent basis, Debye-Ang):
   XX=            -31.1437   YY=            -41.4428   ZZ=            -37.9713
   XY=             -3.4744   XZ=             -1.8983   YZ=             -0.9134
 Traceless Quadrupole moment (field-independent basis, Debye-Ang):
   XX=              5.7089   YY=             -4.5902   ZZ=             -1.1187
   XY=             -3.4744   XZ=             -1.8983   YZ=             -0.9134
 Octapole moment (field-independent basis, Debye-Ang**2):
  XXX=             -4.1600  YYY=              5.0091  ZZZ=              7.1634  XYY=             -0.7291
  XXY=              5.5316  XXZ=              8.6506  XZZ=             -0.7995  YZZ=              1.2267
  YYZ=             -1.8410  XYZ=              2.8297
 Hexadecapole moment (field-independent basis, Debye-Ang**3):
 XXXX=           -330.0838 YYYY=           -278.7128 ZZZZ=           -105.0537 XXXY=            -41.0372
 XXXZ=            -19.6703 YYYX=             -1.0991 YYYZ=              6.6404 ZZZX=              4.5660
 ZZZY=             -1.1152 XXYY=           -115.5827 XXZZ=            -76.0767 YYZZ=            -63.1060
 XXYZ=              1.4260 YYXZ=             -4.2031 ZZXY=             -2.3018
 N-N= 2.466916718213D+02 E-N=-1.251478354390D+03  KE= 3.222713416308D+02
 No NMR shielding tensors so no spin-rotation constants.
 Leave Link  601 at Tue Apr 19 17:49:22 2016, MaxMem=   33554432 cpu:       0.0
 (Enter c:\G09w04\l701.exe)
 Compute integral first derivatives.
 ... and contract with generalized density number  0.
 Leave Link  701 at Tue Apr 19 17:49:22 2016, MaxMem=   33554432 cpu:       0.0
 (Enter c:\G09w04\l702.exe)
 L702 exits ... SP integral derivatives will be done elsewhere.
 Leave Link  702 at Tue Apr 19 17:49:22 2016, MaxMem=   33554432 cpu:       0.0
 (Enter c:\G09w04\l703.exe)
 Compute integral first derivatives, UseDBF=F ICtDFT=           0.
 Integral derivatives from FoFDir, PRISM(SPDF).
 Calling FoFJK, ICntrl=      2127 FMM=F ISym2X=0 I1Cent= 0 IOpClX= 0 NMat=1 NMatS=1 NMatT=0.
 FoFCou: FMM=F IPFlag=           0 FMFlag=      100000 FMFlg1=         800
         NFxFlg=           0 DoJE=F BraDBF=F KetDBF=F FulRan=T
         Omega=  0.000000  0.000000  1.000000  0.000000  0.000000 ICntrl=    2127 IOpCl=  0
         NMat0=    1 NMatS0=    1 NMatT0=    0 NMatD0=    1 NMtDS0=    0 NMtDT0=    0
         I1Cent=           0 NGrid=           0.
 Symmetry not used in FoFCou.
 Leave Link  703 at Tue Apr 19 17:49:58 2016, MaxMem=   33554432 cpu:      36.0
 (Enter c:\G09w04\l716.exe)
 Dipole        = 5.21549166D-01 7.95564026D-01 3.38108531D-01
 ***** Axes restored to original set *****
 -------------------------------------------------------------------
 Center     Atomic                   Forces (Hartrees/Bohr)
 Number     Number              X              Y              Z
 -------------------------------------------------------------------
      1        7           0.003044267    0.022501318   -0.011755500
      2        1           0.006865665   -0.002137317    0.002201877
      3        6           0.049071651   -0.031052168    0.032638924
      4        1          -0.029219464    0.034585391    0.014789277
      5        6          -0.033492175   -0.011256689    0.009990176
      6        6           0.062070186   -0.029993738   -0.013549982
      7        1          -0.001104036    0.002922762   -0.000139229
      8        1          -0.003450748   -0.001372737   -0.000932431
      9        1           0.001022668    0.000496766   -0.002821447
     10        8          -0.048747467    0.010192028   -0.024535795
     11        1          -0.004868498    0.000920401   -0.005760053
     12        8          -0.000271005    0.004609340   -0.003337542
     13        1          -0.000921047   -0.000415357    0.003211725
 -------------------------------------------------------------------
 Cartesian Forces:  Max     0.062070186 RMS     0.020827821
 Leave Link  716 at Tue Apr 19 17:49:58 2016, MaxMem=   33554432 cpu:       0.0
 (Enter c:\G09w04\l103.exe)

 GradGradGradGradGradGradGradGradGradGradGradGradGradGradGradGradGradGrad
 Berny optimization.
 Internal  Forces:  Max     0.045539873 RMS     0.012671348
 Search for a saddle point.
 Step number   1 out of a maximum of   68
 All quantities printed in internal units (Hartrees-Bohrs-Radians)
 Second derivative matrix not updated -- first step.
 ITU=  0
 LST/QST climbing along tangent vector
     Eigenvalues ---    0.00476   0.00943   0.01400   0.01803   0.02330
     Eigenvalues ---    0.02355   0.04229   0.04298   0.05543   0.05694
     Eigenvalues ---    0.07053   0.07987   0.11254   0.15999   0.16000
     Eigenvalues ---    0.16000   0.16000   0.16000   0.16000   0.20011
     Eigenvalues ---    0.21511   0.24963   0.30177   0.34089   0.34219
     Eigenvalues ---    0.34257   0.34541   0.37378   0.44834   0.44871
     Eigenvalues ---    0.53763   0.54795   0.702341000.000001000.00000
     Eigenvalues --- 1000.000001000.000001000.000001000.000001000.00000
     Eigenvalues --- 1000.000001000.000001000.000001000.000001000.00000
     Eigenvalues --- 1000.000001000.000001000.000001000.000001000.00000
     Eigenvalues --- 1000.000001000.000001000.000001000.000001000.00000
     Eigenvalues --- 1000.000001000.000001000.00000
 Eigenvectors required to have negative eigenvalues:
                          D9        D10       D8        D6        D7
   1                    0.33492   0.33491   0.33490   0.33366   0.33365
                          D5        D22       D23       D21       D12
   1                    0.33364   0.33133   0.33132   0.33132   0.00654
 Eigenvalue     1 is   4.76D-03 should be less than     0.000000 Eigenvector:
                          D9        D10       D8        D6        D7
   1                    0.33492   0.33491   0.33490   0.33366   0.33365
                          D5        D22       D23       D21       D12
   1                    0.33364   0.33133   0.33132   0.33132   0.00654
 QST in optimization variable space.
 Eigenvectors 1 and   7 swapped, overlap=  1.0000
                        Tangent   TS vect  // Eig F  Eigenval
   1         R1        -0.00039  -0.00039   0.03593   0.04229
   2         R2         0.00620   0.00620  -0.00294   0.00943
   3         R3        -0.00024  -0.00024  -0.00306   0.01400
   4         R4         0.01202   0.01202   0.00190   0.01803
   5         R5         0.03584   0.03584  -0.01059   0.02330
   6         R6         0.45536   0.45536   0.01178   0.02355
   7         R7        -0.00136  -0.00136  -0.00106   0.00476
   8         R8         0.00050   0.00050   0.00164   0.04298
   9         R9        -0.00113  -0.00113  -0.00073   0.05543
  10         R10       -0.03784  -0.03784  -0.00018   0.05694
  11         R11       -0.00263  -0.00263  -0.00400   0.07053
  12         R12        0.00138   0.00138  -0.01756   0.07987
  13         R13       -0.35554  -0.35554  -0.02088   0.11254
  14         A1        -0.00644  -0.00644   0.00122   0.15999
  15         A2         0.00006   0.00006   0.00254   0.16000
  16         A3        -0.00319  -0.00319  -0.00041   0.16000
  17         A4        -0.02631  -0.02631   0.00224   0.16000
  18         A5        -0.02378  -0.02378   0.00067   0.16000
  19         A6        -0.01514  -0.01514  -0.00190   0.16000
  20         A7        -0.00530  -0.00530  -0.00090   0.20011
  21         A8        -0.00039  -0.00039   0.01339   0.21511
  22         A9        -0.00097  -0.00097  -0.00013   0.24963
  23         A10        0.00090   0.00090   0.00272   0.30177
  24         A11        0.00400   0.00400   0.01390   0.34089
  25         A12        0.00207   0.00207   0.00143   0.34219
  26         A13       -0.00803  -0.00803   0.00054   0.34257
  27         A14       -0.02390  -0.02390  -0.00173   0.34541
  28         A15        0.03180   0.03180  -0.00551   0.37378
  29         A16       -0.09531  -0.09531   0.00348   0.44834
  30         A17        0.00007   0.00007  -0.00195   0.44871
  31         A18        0.11898   0.11898  -0.00038   0.53763
  32         A19       -0.15221  -0.15221   0.00158   0.54795
  33         A20        0.13073   0.13073  -0.02272   0.70234
  34         D1        -0.00830  -0.00830   0.000001000.00000
  35         D2         0.13880   0.13880   0.000001000.00000
  36         D3        -0.01428  -0.01428   0.000001000.00000
  37         D4         0.13283   0.13283   0.000001000.00000
  38         D5        -0.00429  -0.00429   0.000001000.00000
  39         D6        -0.00694  -0.00694   0.000001000.00000
  40         D7        -0.00524  -0.00524   0.000001000.00000
  41         D8        -0.12895  -0.12895   0.000001000.00000
  42         D9        -0.13159  -0.13159   0.000001000.00000
  43         D10       -0.12989  -0.12989   0.000001000.00000
  44         D11       -0.36647  -0.36647   0.000001000.00000
  45         D12       -0.36073  -0.36073   0.000001000.00000
  46         D13       -0.24892  -0.24892   0.000001000.00000
  47         D14       -0.24318  -0.24318   0.000001000.00000
  48         D15        0.02404   0.02404   0.000001000.00000
  49         D16        0.01759   0.01759   0.000001000.00000
  50         D17       -0.01131  -0.01131   0.000001000.00000
  51         D18       -0.00577  -0.00577   0.000001000.00000
  52         D19       -0.15667  -0.15667   0.000001000.00000
  53         D20       -0.16265  -0.16265   0.000001000.00000
  54         D21        0.14958   0.14958   0.000001000.00000
  55         D22        0.14693   0.14693   0.000001000.00000
  56         D23        0.14863   0.14863   0.000001000.00000
  57         D24       -0.05217  -0.05217   0.000001000.00000
  58         D25       -0.04642  -0.04642   0.000001000.00000
 RFO step:  Lambda0=6.283114449D-02 Lambda=-1.62493427D-02.
 Linear search not attempted -- option 19 set.
 Maximum step size (   0.300) exceeded in Quadratic search.
    -- Step size scaled by   0.264
 Iteration  1 RMS(Cart)=  0.07726878 RMS(Int)=  0.00630357
 Iteration  2 RMS(Cart)=  0.00817329 RMS(Int)=  0.00089026
 Iteration  3 RMS(Cart)=  0.00003196 RMS(Int)=  0.00089001
 Iteration  4 RMS(Cart)=  0.00000002 RMS(Int)=  0.00089001
 Variable       Old X    -DE/DX   Delta X   Delta X   Delta X     New X
                                 (Linear)    (Quad)   (Total)
    R1        1.92126  -0.00392   0.00000  -0.00093  -0.00093   1.92033
    R2        2.75279  -0.01078   0.00000  -0.00657  -0.00657   2.74622
    R3        1.92169   0.00694   0.00000   0.00208   0.00208   1.92378
    R4        2.87605   0.00571   0.00000  -0.00334  -0.00334   2.87270
    R5        2.77905   0.02501   0.00000  -0.01212  -0.01293   2.76613
    R6        3.23533  -0.01754   0.00000  -0.24091  -0.24012   2.99521
    R7        2.06898   0.00079   0.00000   0.00093   0.00093   2.06992
    R8        2.06427  -0.00341   0.00000  -0.00148  -0.00148   2.06279
    R9        2.06961   0.00256   0.00000   0.00148   0.00148   2.07109
   R10        2.41725  -0.04554   0.00000   0.00897   0.00895   2.42619
   R11        2.55314   0.00308   0.00000   0.00195   0.00195   2.55509
   R12        1.82948  -0.00072   0.00000  -0.00082  -0.00082   1.82866
   R13        3.26940  -0.03560   0.00000   0.12870   0.12868   3.39808
    A1        1.92610  -0.00174   0.00000   0.00271   0.00269   1.92880
    A2        1.86183   0.00058   0.00000   0.00213   0.00211   1.86393
    A3        1.93657   0.00381   0.00000   0.00527   0.00526   1.94182
    A4        2.23563  -0.01412   0.00000  -0.00155  -0.00292   2.23271
    A5        2.14818  -0.02249   0.00000  -0.00882  -0.01041   2.13777
    A6        1.76585   0.02955   0.00000   0.03385   0.03604   1.80190
    A7        1.92332   0.00448   0.00000   0.00624   0.00624   1.92955
    A8        1.94536   0.00128   0.00000   0.00111   0.00110   1.94646
    A9        1.93684  -0.00293   0.00000  -0.00199  -0.00199   1.93485
   A10        1.88628  -0.00249   0.00000  -0.00178  -0.00179   1.88449
   A11        1.87961  -0.00073   0.00000  -0.00242  -0.00242   1.87719
   A12        1.89036   0.00026   0.00000  -0.00139  -0.00139   1.88897
   A13        2.23393  -0.00217   0.00000  -0.00640  -0.00754   2.22639
   A14        2.03070   0.00064   0.00000   0.01639   0.01697   2.04767
   A15        2.01826   0.00155   0.00000  -0.00978  -0.00925   2.00901
   A16        1.25355   0.00237   0.00000   0.04750   0.04809   1.30163
   A17        1.89542  -0.00391   0.00000  -0.00296  -0.00296   1.89246
   A18        1.42513   0.00949   0.00000  -0.04473  -0.04455   1.38058
   A19        2.53781  -0.00076   0.00000   0.06464   0.06485   2.60266
   A20        1.17649  -0.00593   0.00000  -0.05926  -0.05739   1.11910
    D1       -1.16725  -0.00286   0.00000  -0.00657  -0.00599  -1.17323
    D2        2.61021   0.00311   0.00000  -0.06859  -0.06896   2.54125
    D3        0.89268  -0.00087   0.00000   0.00107   0.00167   0.89434
    D4       -1.61305   0.00511   0.00000  -0.06095  -0.06131  -1.67436
    D5        1.01178  -0.00085   0.00000  -0.00764  -0.00759   1.00418
    D6        3.10602  -0.00016   0.00000  -0.00500  -0.00495   3.10107
    D7       -1.06863  -0.00097   0.00000  -0.00738  -0.00733  -1.07596
    D8       -2.66178  -0.01767   0.00000   0.03449   0.03538  -2.62640
    D9       -0.56754  -0.01698   0.00000   0.03713   0.03802  -0.52951
   D10        1.54100  -0.01780   0.00000   0.03475   0.03564   1.57664
   D11       -1.26165  -0.01410   0.00000   0.18470   0.18463  -1.07702
   D12        1.90742  -0.01499   0.00000   0.17515   0.17511   2.08253
   D13        2.37653  -0.00055   0.00000   0.14345   0.14282   2.51935
   D14       -0.73759  -0.00144   0.00000   0.13390   0.13331  -0.60428
   D15        0.16434  -0.01325   0.00000  -0.05772  -0.06030   0.10403
   D16       -3.00457  -0.01238   0.00000  -0.04788  -0.05061  -3.05518
   D17        3.13847  -0.00181   0.00000   0.00181   0.00179   3.14025
   D18        0.02089  -0.00254   0.00000  -0.00653  -0.00651   0.01438
   D19        1.63256  -0.01117   0.00000   0.04513   0.04490   1.67746
   D20       -2.59070  -0.00918   0.00000   0.05277   0.05255  -2.53815
   D21       -1.50606   0.01617   0.00000  -0.04950  -0.05045  -1.55651
   D22        0.58818   0.01686   0.00000  -0.04686  -0.04780   0.54038
   D23        2.69672   0.01605   0.00000  -0.04924  -0.05018   2.64653
   D24       -0.16738   0.01203   0.00000   0.07124   0.06915  -0.09823
   D25        3.00169   0.01114   0.00000   0.06169   0.05963   3.06132
         Item               Value     Threshold  Converged?
 Maximum Force            0.045540     0.000450     NO 
 RMS     Force            0.012671     0.000300     NO 
 Maximum Displacement     0.226785     0.001800     NO 
 RMS     Displacement     0.079718     0.001200     NO 
 Predicted change in Energy= 1.274146D-02
 GradGradGradGradGradGradGradGradGradGradGradGradGradGradGradGradGradGrad

 Leave Link  103 at Tue Apr 19 17:49:58 2016, MaxMem=   33554432 cpu:       0.0
 (Enter c:\G09w04\l202.exe)
                          Input orientation:                          
 ---------------------------------------------------------------------
 Center     Atomic      Atomic             Coordinates (Angstroms)
 Number     Number       Type             X           Y           Z
 ---------------------------------------------------------------------
      1          7           0       -1.447851   -1.342809   -0.471280
      2          1           0       -2.258990   -1.663317    0.050238
      3          6           0       -0.830058   -0.208396    0.194551
      4          1           0        0.177583   -1.559931    0.820237
      5          6           0       -1.398183    1.189456    0.379361
      6          6           0        0.616388    0.015990    0.186031
      7          1           0       -2.356989    1.148207    0.907365
      8          1           0       -0.722616    1.823210    0.956866
      9          1           0       -1.574813    1.670159   -0.589603
     10          8           0        1.529647   -0.746945    0.667958
     11          1           0       -1.776768   -1.090754   -1.401142
     12          8           0        1.063166    1.163300   -0.372750
     13          1           0        2.028556    1.179396   -0.308091
 ---------------------------------------------------------------------
                    Distance matrix (angstroms):
                    1          2          3          4          5
     1  N    0.000000
     2  H    1.016195   0.000000
     3  C    1.453235   2.044375   0.000000
     4  H    2.087389   2.557435   1.798185   0.000000
     5  C    2.671782   2.997937   1.520168   3.199459   0.000000
     6  C    2.557240   3.332614   1.463772   1.754507   2.339422
     7  H    2.988705   2.940908   2.163330   3.710209   1.095353
     8  H    3.548132   3.916413   2.172577   3.503522   1.091581
     9  H    3.017962   3.462594   2.167608   3.935990   1.095976
    10  O    3.243210   3.946528   2.466243   1.584996   3.522091
    11  H    1.018019   1.633056   2.054520   2.995687   2.917683
    12  O    3.549014   4.382397   2.405759   3.102171   2.573829
    13  H    4.298087   5.156789   3.217187   3.493299   3.495030
                    6          7          8          9         10
     6  C    0.000000
     7  H    3.262393   0.000000
     8  H    2.377638   1.768970   0.000000
     9  H    2.852936   1.767809   1.772352   0.000000
    10  O    1.283887   4.330687   3.429556   4.130559   0.000000
    11  H    3.077531   3.267845   3.893922   2.884791   3.915579
    12  O    1.352097   3.651901   2.322149   2.694970   2.224795
    13  H    1.895228   4.550968   3.095732   3.647515   2.216387
                   11         12         13
    11  H    0.000000
    12  O    3.768764   0.000000
    13  H    4.563862   0.967687   0.000000
 Stoichiometry    C3H7NO2
 Framework group  C1[X(C3H7NO2)]
 Deg. of freedom    33
 Full point group                 C1      NOp   1
 Largest Abelian subgroup         C1      NOp   1
 Largest concise Abelian subgroup C1      NOp   1
                         Standard orientation:                         
 ---------------------------------------------------------------------
 Center     Atomic      Atomic             Coordinates (Angstroms)
 Number     Number       Type             X           Y           Z
 ---------------------------------------------------------------------
      1          7           0        1.642579   -1.047219    0.415515
      2          1           0        2.449947   -1.193853   -0.183909
      3          6           0        0.735042   -0.080950   -0.179960
      4          1           0       -0.014239   -1.625618   -0.714794
      5          6           0        0.969701    1.403406   -0.409161
      6          6           0       -0.718268   -0.171497   -0.030564
      7          1           0        1.860069    1.561060   -1.027375
      8          1           0        0.121863    1.869556   -0.914556
      9          1           0        1.130865    1.924374    0.541514
     10          8           0       -1.488352   -1.119047   -0.427409
     11          1           0        1.997090   -0.717501    1.311043
     12          8           0       -1.345297    0.861234    0.576452
     13          1           0       -2.293313    0.669262    0.605238
 ---------------------------------------------------------------------
 Rotational constants (GHZ):      4.8623423      3.0841254      2.1779992
 Leave Link  202 at Tue Apr 19 17:49:58 2016, MaxMem=   33554432 cpu:       0.0
 (Enter c:\G09w04\l301.exe)
 Standard basis: 6-311++G(d,p) (5D, 7F)
 Ernie: Thresh=  0.10000D-02 Tol=  0.10000D-05 Strict=F.
 There are   181 symmetry adapted basis functions of A   symmetry.
 Integral buffers will be    262144 words long.
 Raffenetti 2 integral format.
 Two-electron integral symmetry is turned on.
   181 basis functions,   279 primitive gaussians,   187 cartesian basis functions
    24 alpha electrons       24 beta electrons
       nuclear repulsion energy       246.6682807762 Hartrees.
 IExCor=  402 DFT=T Ex+Corr=B3LYP ExCW=0 ScaHFX=  0.200000
 ScaDFX=  0.800000  0.720000  1.000000  0.810000 ScalE2=  1.000000  1.000000
 IRadAn=      0 IRanWt=     -1 IRanGd=            0 ICorTp=0
 NAtoms=   13 NActive=   13 NUniq=   13 SFac= 1.00D+00 NAtFMM=   50 NAOKFM=F Big=F
 Leave Link  301 at Tue Apr 19 17:49:58 2016, MaxMem=   33554432 cpu:       0.0
 (Enter c:\G09w04\l302.exe)
 NPDir=0 NMtPBC=     1 NCelOv=     1 NCel=       1 NClECP=     1 NCelD=      1
         NCelK=      1 NCelE2=     1 NClLst=     1 CellRange=     0.0.
 One-electron integrals computed using PRISM.
 NBasis=   181 RedAO= T  NBF=   181
 NBsUse=   181 1.00D-06 NBFU=   181
 Precomputing XC quadrature grid using
 IXCGrd= 2 IRadAn=           0 IRanWt=          -1 IRanGd=           0 AccXCQ= 0.00D+00.
 NRdTot=     842 NPtTot=      107350 NUsed=      111282 NTot=      111298
 NSgBfM=   187   187   187   187   187 NAtAll=    13    13.
 Leave Link  302 at Tue Apr 19 17:49:59 2016, MaxMem=   33554432 cpu:       1.0
 (Enter c:\G09w04\l303.exe)
 DipDrv:  MaxL=1.
 Leave Link  303 at Tue Apr 19 17:49:59 2016, MaxMem=   33554432 cpu:       0.0
 (Enter c:\G09w04\l401.exe)
 Initial guess read from the read-write file.
 B after Tr=     0.000000    0.000000    0.000000
         Rot=    1.000000    0.000000    0.000000    0.000000 Ang=   0.00 deg.
 Guess basis will be translated and rotated to current coordinates.
 Initial guess orbital symmetries:
       Occupied  (A) (A) (A) (A) (A) (A) (A) (A) (A) (A) (A) (A)
                 (A) (A) (A) (A) (A) (A) (A) (A) (A) (A) (A) (A)
       Virtual   (A) (A) (A) (A) (A) (A) (A) (A) (A) (A) (A) (A)
                 (A) (A) (A) (A) (A) (A) (A) (A) (A) (A) (A) (A)
                 (A) (A) (A) (A) (A) (A) (A) (A) (A) (A) (A) (A)
                 (A) (A) (A) (A) (A) (A) (A) (A) (A) (A) (A) (A)
                 (A) (A) (A) (A) (A) (A) (A) (A) (A) (A) (A) (A)
                 (A) (A) (A) (A) (A) (A) (A) (A) (A) (A) (A) (A)
                 (A) (A) (A) (A) (A) (A) (A) (A) (A) (A) (A) (A)
                 (A) (A) (A) (A) (A) (A) (A) (A) (A) (A) (A) (A)
                 (A) (A) (A) (A) (A) (A) (A) (A) (A) (A) (A) (A)
                 (A) (A) (A) (A) (A) (A) (A) (A) (A) (A) (A) (A)
                 (A) (A) (A) (A) (A) (A) (A) (A) (A) (A) (A) (A)
                 (A) (A) (A) (A) (A) (A) (A) (A) (A) (A) (A) (A)
                 (A) (A) (A) (A) (A) (A) (A) (A) (A) (A) (A) (A)
                 (A)
 The electronic state of the initial guess is 1-A.
 Generating alternative initial guess.
 Harris functional with IExCor=  402 diagonalized for initial guess.
 ExpMin= 3.60D-02 ExpMax= 8.59D+03 ExpMxC= 1.30D+03 IAcc=3 IRadAn=         0 AccDes= 0.00D+00
 HarFok:  IExCor=  402 AccDes= 0.00D+00 IRadAn=         0 IDoV= 1
 ScaDFX=  1.000000  1.000000  1.000000  1.000000
 FoFCou: FMM=F IPFlag=           0 FMFlag=      100000 FMFlg1=           0
         NFxFlg=           0 DoJE=T BraDBF=F KetDBF=T FulRan=T
         Omega=  0.000000  0.000000  1.000000  0.000000  0.000000 ICntrl=     500 IOpCl=  0
         NMat0=    1 NMatS0=    1 NMatT0=    0 NMatD0=    1 NMtDS0=    0 NMtDT0=    0
         I1Cent=           4 NGrid=           0.
 Petite list used in FoFCou.
 Harris En= -323.708483194956    
 Leave Link  401 at Tue Apr 19 17:50:03 2016, MaxMem=   33554432 cpu:       4.0
 (Enter c:\G09w04\l502.exe)
 Closed shell SCF:
 Requested convergence on RMS density matrix=1.00D-08 within 128 cycles.
 Requested convergence on MAX density matrix=1.00D-06.
 Requested convergence on             energy=1.00D-06.
 No special actions if energy rises.
 Using DIIS extrapolation, IDIIS=  1040.
 Integral symmetry usage will be decided dynamically.
       111165 words used for storage of precomputed grid.
 IEnd=      236498 IEndB=      236498 NGot=    33554432 MDV=    33369731
 LenX=    33369731 LenY=    33334321
 Fock matrices will be formed incrementally for  20 cycles.

 Cycle   1  Pass 1  IDiag  1:
 FoFCou: FMM=F IPFlag=           0 FMFlag=      100000 FMFlg1=           0
         NFxFlg=           0 DoJE=F BraDBF=F KetDBF=F FulRan=T
         Omega=  0.000000  0.000000  1.000000  0.000000  0.000000 ICntrl=       0 IOpCl=  0
         NMat0=    1 NMatS0=    1 NMatT0=    0 NMatD0=    1 NMtDS0=    0 NMtDT0=    0
         I1Cent=           0 NGrid=           0.
 Symmetry not used in FoFCou.
 E= -323.659136533660    
 DIIS: error= 6.54D-03 at cycle   1 NSaved=   1.
 NSaved= 1 IEnMin= 1 EnMin= -323.659136533660     IErMin= 1 ErrMin= 6.54D-03
 ErrMax= 6.54D-03 EMaxC= 1.00D-01 BMatC= 8.65D-03 BMatP= 8.65D-03
 IDIUse=3 WtCom= 9.35D-01 WtEn= 6.54D-02
 Coeff-Com:  0.100D+01
 Coeff-En:   0.100D+01
 Coeff:      0.100D+01
 Gap=     0.151 Goal=   None    Shift=    0.000
 GapD=    0.151 DampG=1.000 DampE=1.000 DampFc=1.0000 IDamp=-1.
 RMSDP=1.95D-03 MaxDP=5.64D-02              OVMax= 1.00D-01

 Cycle   2  Pass 1  IDiag  1:
 RMSU=  1.37D-03    CP:  9.88D-01
 E= -323.677496044508     Delta-E=       -0.018359510848 Rises=F Damp=F
 DIIS: error= 1.18D-03 at cycle   2 NSaved=   2.
 NSaved= 2 IEnMin= 2 EnMin= -323.677496044508     IErMin= 2 ErrMin= 1.18D-03
 ErrMax= 1.18D-03 EMaxC= 1.00D-01 BMatC= 5.59D-04 BMatP= 8.65D-03
 IDIUse=3 WtCom= 9.88D-01 WtEn= 1.18D-02
 Coeff-Com: -0.124D-01 0.101D+01
 Coeff-En:   0.000D+00 0.100D+01
 Coeff:     -0.123D-01 0.101D+01
 Gap=     0.133 Goal=   None    Shift=    0.000
 RMSDP=6.78D-04 MaxDP=3.12D-02 DE=-1.84D-02 OVMax= 2.02D-02

 Cycle   3  Pass 1  IDiag  1:
 RMSU=  4.74D-04    CP:  9.81D-01  9.94D-01
 E= -323.677376320087     Delta-E=        0.000119724421 Rises=F Damp=F
 DIIS: error= 1.77D-03 at cycle   3 NSaved=   3.
 NSaved= 3 IEnMin= 2 EnMin= -323.677496044508     IErMin= 2 ErrMin= 1.18D-03
 ErrMax= 1.77D-03 EMaxC= 1.00D-01 BMatC= 1.15D-03 BMatP= 5.59D-04
 IDIUse=3 WtCom= 1.92D-01 WtEn= 8.08D-01
 Coeff-Com: -0.506D-01 0.639D+00 0.412D+00
 Coeff-En:   0.000D+00 0.540D+00 0.460D+00
 Coeff:     -0.971D-02 0.559D+00 0.450D+00
 Gap=     0.133 Goal=   None    Shift=    0.000
 RMSDP=3.77D-04 MaxDP=8.84D-03 DE= 1.20D-04 OVMax= 1.62D-02

 Cycle   4  Pass 1  IDiag  1:
 RMSU=  1.39D-04    CP:  9.81D-01  1.03D+00  5.33D-01
 E= -323.678304655699     Delta-E=       -0.000928335612 Rises=F Damp=F
 DIIS: error= 8.20D-04 at cycle   4 NSaved=   4.
 NSaved= 4 IEnMin= 4 EnMin= -323.678304655699     IErMin= 4 ErrMin= 8.20D-04
 ErrMax= 8.20D-04 EMaxC= 1.00D-01 BMatC= 1.77D-04 BMatP= 5.59D-04
 IDIUse=3 WtCom= 9.92D-01 WtEn= 8.20D-03
 Coeff-Com: -0.186D-01 0.188D+00 0.298D+00 0.532D+00
 Coeff-En:   0.000D+00 0.000D+00 0.112D+00 0.888D+00
 Coeff:     -0.184D-01 0.186D+00 0.297D+00 0.535D+00
 Gap=     0.133 Goal=   None    Shift=    0.000
 RMSDP=1.10D-04 MaxDP=2.90D-03 DE=-9.28D-04 OVMax= 7.90D-03

 Cycle   5  Pass 1  IDiag  1:
 RMSU=  6.91D-05    CP:  9.81D-01  1.05D+00  5.39D-01  8.73D-01
 E= -323.678415162481     Delta-E=       -0.000110506782 Rises=F Damp=F
 DIIS: error= 4.00D-04 at cycle   5 NSaved=   5.
 NSaved= 5 IEnMin= 5 EnMin= -323.678415162481     IErMin= 5 ErrMin= 4.00D-04
 ErrMax= 4.00D-04 EMaxC= 1.00D-01 BMatC= 5.02D-05 BMatP= 1.77D-04
 IDIUse=3 WtCom= 9.96D-01 WtEn= 4.00D-03
 Coeff-Com: -0.706D-02 0.274D-01 0.171D+00 0.455D+00 0.354D+00
 Coeff-En:   0.000D+00 0.000D+00 0.000D+00 0.186D+00 0.814D+00
 Coeff:     -0.703D-02 0.273D-01 0.171D+00 0.454D+00 0.356D+00
 Gap=     0.133 Goal=   None    Shift=    0.000
 RMSDP=4.51D-05 MaxDP=2.19D-03 DE=-1.11D-04 OVMax= 2.44D-03

 Cycle   6  Pass 1  IDiag  1:
 RMSU=  1.66D-05    CP:  9.81D-01  1.05D+00  5.80D-01  9.39D-01  7.75D-01
 E= -323.678460118999     Delta-E=       -0.000044956518 Rises=F Damp=F
 DIIS: error= 6.33D-05 at cycle   6 NSaved=   6.
 NSaved= 6 IEnMin= 6 EnMin= -323.678460118999     IErMin= 6 ErrMin= 6.33D-05
 ErrMax= 6.33D-05 EMaxC= 1.00D-01 BMatC= 1.36D-06 BMatP= 5.02D-05
 IDIUse=1 WtCom= 1.00D+00 WtEn= 0.00D+00
 Coeff-Com:  0.161D-02-0.396D-01 0.216D-01 0.110D+00 0.320D-01 0.875D+00
 Coeff:      0.161D-02-0.396D-01 0.216D-01 0.110D+00 0.320D-01 0.875D+00
 Gap=     0.133 Goal=   None    Shift=    0.000
 RMSDP=3.19D-05 MaxDP=1.25D-03 DE=-4.50D-05 OVMax= 1.34D-03

 Cycle   7  Pass 1  IDiag  1:
 RMSU=  9.50D-06    CP:  9.80D-01  1.05D+00  6.19D-01  9.92D-01  7.68D-01
                    CP:  7.85D-01
 E= -323.678462430988     Delta-E=       -0.000002311988 Rises=F Damp=F
 DIIS: error= 4.84D-05 at cycle   7 NSaved=   7.
 NSaved= 7 IEnMin= 7 EnMin= -323.678462430988     IErMin= 7 ErrMin= 4.84D-05
 ErrMax= 4.84D-05 EMaxC= 1.00D-01 BMatC= 4.90D-07 BMatP= 1.36D-06
 IDIUse=1 WtCom= 1.00D+00 WtEn= 0.00D+00
 Coeff-Com:  0.173D-02-0.256D-01-0.128D-01-0.928D-02-0.687D-01 0.481D+00
 Coeff-Com:  0.633D+00
 Coeff:      0.173D-02-0.256D-01-0.128D-01-0.928D-02-0.687D-01 0.481D+00
 Coeff:      0.633D+00
 Gap=     0.133 Goal=   None    Shift=    0.000
 RMSDP=8.63D-06 MaxDP=3.92D-04 DE=-2.31D-06 OVMax= 6.76D-04

 Cycle   8  Pass 1  IDiag  1:
 RMSU=  2.28D-06    CP:  9.80D-01  1.05D+00  6.20D-01  1.02D+00  7.88D-01
                    CP:  9.60D-01  7.80D-01
 E= -323.678462968051     Delta-E=       -0.000000537064 Rises=F Damp=F
 DIIS: error= 8.64D-06 at cycle   8 NSaved=   8.
 NSaved= 8 IEnMin= 8 EnMin= -323.678462968051     IErMin= 8 ErrMin= 8.64D-06
 ErrMax= 8.64D-06 EMaxC= 1.00D-01 BMatC= 3.07D-08 BMatP= 4.90D-07
 IDIUse=1 WtCom= 1.00D+00 WtEn= 0.00D+00
 Coeff-Com:  0.787D-03-0.985D-02-0.632D-02-0.935D-02-0.368D-01 0.184D+00
 Coeff-Com:  0.323D+00 0.555D+00
 Coeff:      0.787D-03-0.985D-02-0.632D-02-0.935D-02-0.368D-01 0.184D+00
 Coeff:      0.323D+00 0.555D+00
 Gap=     0.133 Goal=   None    Shift=    0.000
 RMSDP=3.02D-06 MaxDP=1.43D-04 DE=-5.37D-07 OVMax= 1.43D-04

 Cycle   9  Pass 1  IDiag  1:
 RMSU=  9.86D-07    CP:  9.80D-01  1.05D+00  6.18D-01  1.02D+00  8.02D-01
                    CP:  9.79D-01  7.91D-01  7.86D-01
 E= -323.678462997815     Delta-E=       -0.000000029764 Rises=F Damp=F
 DIIS: error= 2.93D-06 at cycle   9 NSaved=   9.
 NSaved= 9 IEnMin= 9 EnMin= -323.678462997815     IErMin= 9 ErrMin= 2.93D-06
 ErrMax= 2.93D-06 EMaxC= 1.00D-01 BMatC= 3.93D-09 BMatP= 3.07D-08
 IDIUse=1 WtCom= 1.00D+00 WtEn= 0.00D+00
 Coeff-Com:  0.610D-04 0.461D-04-0.125D-02-0.487D-02-0.934D-02 0.444D-03
 Coeff-Com:  0.467D-01 0.268D+00 0.700D+00
 Coeff:      0.610D-04 0.461D-04-0.125D-02-0.487D-02-0.934D-02 0.444D-03
 Coeff:      0.467D-01 0.268D+00 0.700D+00
 Gap=     0.133 Goal=   None    Shift=    0.000
 RMSDP=7.48D-07 MaxDP=2.41D-05 DE=-2.98D-08 OVMax= 4.49D-05

 Cycle  10  Pass 1  IDiag  1:
 RMSU=  3.56D-07    CP:  9.80D-01  1.05D+00  6.18D-01  1.02D+00  8.02D-01
                    CP:  9.90D-01  7.94D-01  8.54D-01  9.13D-01
 E= -323.678463002070     Delta-E=       -0.000000004255 Rises=F Damp=F
 DIIS: error= 1.91D-06 at cycle  10 NSaved=  10.
 NSaved=10 IEnMin=10 EnMin= -323.678463002070     IErMin=10 ErrMin= 1.91D-06
 ErrMax= 1.91D-06 EMaxC= 1.00D-01 BMatC= 6.97D-10 BMatP= 3.93D-09
 IDIUse=1 WtCom= 1.00D+00 WtEn= 0.00D+00
 Coeff-Com: -0.411D-04 0.103D-02-0.546D-04-0.181D-02-0.183D-02-0.174D-01
 Coeff-Com: -0.325D-02 0.102D+00 0.419D+00 0.503D+00
 Coeff:     -0.411D-04 0.103D-02-0.546D-04-0.181D-02-0.183D-02-0.174D-01
 Coeff:     -0.325D-02 0.102D+00 0.419D+00 0.503D+00
 Gap=     0.133 Goal=   None    Shift=    0.000
 RMSDP=3.41D-07 MaxDP=1.01D-05 DE=-4.26D-09 OVMax= 9.56D-06

 Cycle  11  Pass 1  IDiag  1:
 RMSU=  7.17D-08    CP:  9.80D-01  1.05D+00  6.18D-01  1.02D+00  8.01D-01
                    CP:  9.87D-01  8.05D-01  8.71D-01  8.91D-01  6.56D-01
 E= -323.678463002722     Delta-E=       -0.000000000651 Rises=F Damp=F
 DIIS: error= 2.47D-07 at cycle  11 NSaved=  11.
 NSaved=11 IEnMin=11 EnMin= -323.678463002722     IErMin=11 ErrMin= 2.47D-07
 ErrMax= 2.47D-07 EMaxC= 1.00D-01 BMatC= 1.41D-11 BMatP= 6.97D-10
 IDIUse=1 WtCom= 1.00D+00 WtEn= 0.00D+00
 Coeff-Com: -0.160D-04 0.324D-03 0.584D-04-0.219D-03 0.420D-04-0.563D-02
 Coeff-Com: -0.312D-02 0.154D-01 0.941D-01 0.158D+00 0.741D+00
 Coeff:     -0.160D-04 0.324D-03 0.584D-04-0.219D-03 0.420D-04-0.563D-02
 Coeff:     -0.312D-02 0.154D-01 0.941D-01 0.158D+00 0.741D+00
 Gap=     0.133 Goal=   None    Shift=    0.000
 RMSDP=7.60D-08 MaxDP=2.27D-06 DE=-6.51D-10 OVMax= 2.15D-06

 Cycle  12  Pass 1  IDiag  1:
 RMSU=  2.23D-08    CP:  9.80D-01  1.05D+00  6.18D-01  1.02D+00  8.02D-01
                    CP:  9.88D-01  8.04D-01  8.73D-01  9.03D-01  6.56D-01
                    CP:  1.06D+00
 E= -323.678463002726     Delta-E=       -0.000000000004 Rises=F Damp=F
 DIIS: error= 1.67D-07 at cycle  12 NSaved=  12.
 NSaved=12 IEnMin=12 EnMin= -323.678463002726     IErMin=12 ErrMin= 1.67D-07
 ErrMax= 1.67D-07 EMaxC= 1.00D-01 BMatC= 6.97D-12 BMatP= 1.41D-11
 IDIUse=1 WtCom= 1.00D+00 WtEn= 0.00D+00
 Coeff-Com: -0.455D-05 0.597D-04 0.291D-04 0.778D-04 0.231D-03-0.111D-02
 Coeff-Com: -0.149D-02-0.453D-02 0.228D-02 0.313D-01 0.456D+00 0.517D+00
 Coeff:     -0.455D-05 0.597D-04 0.291D-04 0.778D-04 0.231D-03-0.111D-02
 Coeff:     -0.149D-02-0.453D-02 0.228D-02 0.313D-01 0.456D+00 0.517D+00
 Gap=     0.133 Goal=   None    Shift=    0.000
 RMSDP=2.22D-08 MaxDP=5.28D-07 DE=-4.43D-12 OVMax= 8.77D-07

 Cycle  13  Pass 1  IDiag  1:
 RMSU=  7.95D-09    CP:  9.80D-01  1.05D+00  6.18D-01  1.02D+00  8.02D-01
                    CP:  9.88D-01  8.04D-01  8.73D-01  9.02D-01  6.67D-01
                    CP:  1.05D+00  6.92D-01
 E= -323.678463002737     Delta-E=       -0.000000000011 Rises=F Damp=F
 DIIS: error= 2.76D-08 at cycle  13 NSaved=  13.
 NSaved=13 IEnMin=13 EnMin= -323.678463002737     IErMin=13 ErrMin= 2.76D-08
 ErrMax= 2.76D-08 EMaxC= 1.00D-01 BMatC= 1.33D-13 BMatP= 6.97D-12
 IDIUse=1 WtCom= 1.00D+00 WtEn= 0.00D+00
 Coeff-Com:  0.249D-06-0.167D-04 0.540D-05 0.552D-04 0.786D-04 0.243D-03
 Coeff-Com: -0.103D-03-0.313D-02-0.990D-02-0.706D-02 0.677D-01 0.161D+00
 Coeff-Com:  0.792D+00
 Coeff:      0.249D-06-0.167D-04 0.540D-05 0.552D-04 0.786D-04 0.243D-03
 Coeff:     -0.103D-03-0.313D-02-0.990D-02-0.706D-02 0.677D-01 0.161D+00
 Coeff:      0.792D+00
 Gap=     0.133 Goal=   None    Shift=    0.000
 RMSDP=4.35D-09 MaxDP=9.83D-08 DE=-1.06D-11 OVMax= 1.46D-07

 SCF Done:  E(RB3LYP) =  -323.678463003     A.U. after   13 cycles
             Convg  =    0.4348D-08             -V/T =  2.0044
 KE= 3.222603547114D+02 PE=-1.251476915229D+03 EE= 3.588698167390D+02
 Leave Link  502 at Tue Apr 19 17:52:20 2016, MaxMem=   33554432 cpu:     136.0
 (Enter c:\G09w04\l701.exe)
 Compute integral first derivatives.
 ... and contract with generalized density number  0.
 Leave Link  701 at Tue Apr 19 17:52:20 2016, MaxMem=   33554432 cpu:       0.0
 (Enter c:\G09w04\l702.exe)
 L702 exits ... SP integral derivatives will be done elsewhere.
 Leave Link  702 at Tue Apr 19 17:52:20 2016, MaxMem=   33554432 cpu:       0.0
 (Enter c:\G09w04\l703.exe)
 Compute integral first derivatives, UseDBF=F ICtDFT=           0.
 Integral derivatives from FoFDir, PRISM(SPDF).
 Calling FoFJK, ICntrl=      2127 FMM=F ISym2X=0 I1Cent= 0 IOpClX= 0 NMat=1 NMatS=1 NMatT=0.
 FoFCou: FMM=F IPFlag=           0 FMFlag=      100000 FMFlg1=         800
         NFxFlg=           0 DoJE=F BraDBF=F KetDBF=F FulRan=T
         Omega=  0.000000  0.000000  1.000000  0.000000  0.000000 ICntrl=    2127 IOpCl=  0
         NMat0=    1 NMatS0=    1 NMatT0=    0 NMatD0=    1 NMtDS0=    0 NMtDT0=    0
         I1Cent=           0 NGrid=           0.
 Symmetry not used in FoFCou.
 Leave Link  703 at Tue Apr 19 17:52:54 2016, MaxMem=   33554432 cpu:      34.0
 (Enter c:\G09w04\l716.exe)
 Dipole        = 4.19614662D-01 5.65988039D-01 2.56897625D-01
 ***** Axes restored to original set *****
 -------------------------------------------------------------------
 Center     Atomic                   Forces (Hartrees/Bohr)
 Number     Number              X              Y              Z
 -------------------------------------------------------------------
      1        7           0.004495092    0.018055125   -0.002191018
      2        1           0.006444555   -0.003343647    0.001216342
      3        6           0.051102909   -0.005118641    0.023118554
      4        1          -0.000245295    0.025815256    0.013072927
      5        6          -0.030190833   -0.010443866    0.002353753
      6        6           0.027269023   -0.019912138   -0.018324674
      7        1          -0.000956428    0.001885277   -0.000451794
      8        1          -0.003707829   -0.001789904   -0.000858200
      9        1          -0.000514890    0.002653662   -0.002502384
     10        8          -0.050895464   -0.011261432   -0.015004355
     11        1          -0.002990288    0.000622165   -0.004462300
     12        8           0.000875961    0.002439942    0.000275849
     13        1          -0.000686514    0.000398199    0.003757300
 -------------------------------------------------------------------
 Cartesian Forces:  Max     0.051102909 RMS     0.015969323
 Leave Link  716 at Tue Apr 19 17:52:54 2016, MaxMem=   33554432 cpu:       0.0
 (Enter c:\G09w04\l103.exe)

 GradGradGradGradGradGradGradGradGradGradGradGradGradGradGradGradGradGrad
 Berny optimization.
 Internal  Forces:  Max     0.036276354 RMS     0.010116998
 Search for a saddle point.
 Step number   2 out of a maximum of   68
 All quantities printed in internal units (Hartrees-Bohrs-Radians)
 Update second derivatives using D2CorX and points    1    2
 ITU=  0  0
 LST/QST climbing along tangent vector
     Eigenvalues ---   -0.06808   0.00480   0.00942   0.01240   0.01782
     Eigenvalues ---    0.02318   0.02869   0.04219   0.05524   0.05663
     Eigenvalues ---    0.05944   0.07918   0.09837   0.15967   0.16000
     Eigenvalues ---    0.16000   0.16000   0.16000   0.16001   0.20357
     Eigenvalues ---    0.21551   0.24908   0.30177   0.33684   0.34220
[...]
     36 -0.751008D-03  0.322089D-03  0.510888D-02  0.470794D-01 -0.632064D-02
     37 -0.157691D-03  0.916863D-05  0.529069D-02  0.543881D-02 -0.319226D-02
     38  0.315666D-04 -0.225829D-03  0.641830D-02  0.272010D-02 -0.614999D-02
     39  0.835699D-04 -0.244929D-03 -0.187869D-02 -0.286644D-03 -0.505188D-02
               31            32            33            34            35 
     31  0.976241D-01
     32 -0.276873D-01  0.928527D-01
     33  0.132846D+00 -0.117884D+00  0.323125D+00
     34 -0.146614D-02 -0.228034D-03 -0.105965D-02  0.641819D+00
     35 -0.166956D-02 -0.541036D-03 -0.964077D-03  0.591172D-01  0.347239D+00
     36  0.142001D-02  0.819187D-03  0.109908D-03  0.307392D-01 -0.163063D+00
     37  0.308153D-03  0.146640D-03  0.145592D-03 -0.462843D+00  0.358353D-01
     38  0.405316D-04 -0.173349D-04 -0.152814D-03  0.764456D-01 -0.451663D-01
     39 -0.179789D-03  0.157070D-04 -0.327457D-03 -0.974628D-01  0.217420D-01
               36            37            38            39 
     36  0.138049D+00
     37 -0.731121D-01  0.490398D+00
     38  0.271520D-01 -0.327437D-01  0.441526D-01
     39 -0.409806D-01  0.742626D-01 -0.231702D-01  0.352541D-01
 Leave Link  716 at Tue Apr 19 19:04:19 2016, MaxMem=   33554432 cpu:       0.0
 (Enter c:\G09w04\l103.exe)

 GradGradGradGradGradGradGradGradGradGradGradGradGradGradGradGradGradGrad
 Berny optimization.
 Red2BG is reusing G-inverse.
 Internal  Forces:  Max     0.000047871 RMS     0.000011908
 Search for a saddle point.
 Step number   1 out of a maximum of    2
 All quantities printed in internal units (Hartrees-Bohrs-Radians)
 Swaping is turned off.
 Second derivative matrix not updated -- analytic derivatives used.
 ITU=  0
     Eigenvalues ---   -0.13803   0.00159   0.00518   0.00797   0.01684
     Eigenvalues ---    0.01932   0.02300   0.02491   0.04156   0.04487
     Eigenvalues ---    0.04573   0.07227   0.09870   0.11895   0.12927
     Eigenvalues ---    0.13474   0.14549   0.15353   0.16605   0.17064
     Eigenvalues ---    0.20572   0.24322   0.27916   0.30579   0.31718
     Eigenvalues ---    0.33135   0.33826   0.35399   0.42799   0.43218
     Eigenvalues ---    0.45473   0.50942   0.54410
 Eigenvectors required to have negative eigenvalues:
                          R6        R13       R5        R10       A19
   1                    0.65362  -0.56200   0.18094  -0.16962  -0.15250
                          D12       A16       D11       A20       A18
   1                   -0.15105  -0.14296  -0.14185   0.10813   0.10798
 Angle between quadratic step and forces=  71.40 degrees.
 Linear search not attempted -- option 19 set.
 Iteration  1 RMS(Cart)=  0.00066707 RMS(Int)=  0.00000045
 Iteration  2 RMS(Cart)=  0.00000046 RMS(Int)=  0.00000003
 Variable       Old X    -DE/DX   Delta X   Delta X   Delta X     New X
                                 (Linear)    (Quad)   (Total)
    R1        1.91212  -0.00001   0.00000  -0.00001  -0.00001   1.91211
    R2        2.75448   0.00001   0.00000   0.00012   0.00012   2.75461
    R3        1.92513   0.00000   0.00000   0.00001   0.00001   1.92514
    R4        2.86267  -0.00001   0.00000  -0.00004  -0.00004   2.86263
    R5        2.72228   0.00000   0.00000  -0.00015  -0.00015   2.72212
    R6        2.36113   0.00004   0.00000   0.00000   0.00000   2.36113
    R7        2.06730   0.00000   0.00000   0.00000   0.00000   2.06730
    R8        2.06677   0.00000   0.00000   0.00001   0.00001   2.06678
    R9        2.08102   0.00000   0.00000  -0.00001  -0.00001   2.08101
   R10        2.42363  -0.00005   0.00000  -0.00005  -0.00005   2.42358
   R11        2.49715  -0.00001   0.00000   0.00001   0.00001   2.49716
   R12        1.83239   0.00000   0.00000   0.00000   0.00000   1.83239
   R13        2.96042  -0.00004   0.00000  -0.00003  -0.00003   2.96039
    A1        1.95339  -0.00001   0.00000  -0.00017  -0.00017   1.95321
    A2        1.88633   0.00001   0.00000   0.00006   0.00006   1.88640
    A3        1.95662   0.00000   0.00000   0.00001   0.00001   1.95663
    A4        2.04408   0.00000   0.00000  -0.00012  -0.00012   2.04395
    A5        1.95367  -0.00001   0.00000  -0.00020  -0.00020   1.95347
    A6        2.06995   0.00000   0.00000   0.00016   0.00016   2.07011
    A7        1.91707  -0.00001   0.00000  -0.00012  -0.00012   1.91695
    A8        1.95832   0.00001   0.00000   0.00009   0.00009   1.95841
    A9        1.95813   0.00000   0.00000  -0.00002  -0.00002   1.95811
   A10        1.87570   0.00000   0.00000  -0.00003  -0.00003   1.87566
   A11        1.87094   0.00000   0.00000   0.00001   0.00001   1.87095
   A12        1.87970   0.00000   0.00000   0.00007   0.00007   1.87977
   A13        1.96078   0.00001   0.00000   0.00005   0.00005   1.96084
   A14        2.20891  -0.00002   0.00000  -0.00012  -0.00012   2.20879
   A15        2.10645   0.00001   0.00000   0.00009   0.00009   2.10653
   A16        1.33442   0.00000   0.00000   0.00000   0.00000   1.33442
   A17        1.90731   0.00000   0.00000   0.00001   0.00001   1.90732
   A18        1.60571  -0.00001   0.00000  -0.00054  -0.00054   1.60517
   A19        2.50270   0.00001   0.00000   0.00072   0.00072   2.50342
   A20        1.09338   0.00000   0.00000   0.00002   0.00002   1.09340
    D1       -1.33467   0.00000   0.00000   0.00159   0.00159  -1.33307
    D2        2.47338   0.00001   0.00000   0.00174   0.00174   2.47512
    D3        0.78827   0.00001   0.00000   0.00155   0.00155   0.78982
    D4       -1.68687   0.00001   0.00000   0.00170   0.00170  -1.68516
    D5        1.11709   0.00000   0.00000  -0.00084  -0.00084   1.11625
    D6       -3.08095   0.00000   0.00000  -0.00091  -0.00091  -3.08185
    D7       -0.96196   0.00000   0.00000  -0.00076  -0.00076  -0.96272
    D8       -2.73622  -0.00001   0.00000  -0.00115  -0.00115  -2.73737
    D9       -0.65107  -0.00001   0.00000  -0.00121  -0.00121  -0.65228
   D10        1.46792  -0.00001   0.00000  -0.00107  -0.00107   1.46685
   D11       -1.21470   0.00000   0.00000   0.00047   0.00047  -1.21424
   D12        2.05457  -0.00001   0.00000   0.00023   0.00023   2.05480
   D13        2.60422   0.00001   0.00000   0.00074   0.00074   2.60496
   D14       -0.40969   0.00000   0.00000   0.00051   0.00051  -0.40919
   D15       -0.21729   0.00000   0.00000   0.00008   0.00008  -0.21721
   D16        2.80509   0.00001   0.00000   0.00028   0.00028   2.80537
   D17        2.88756   0.00001   0.00000   0.00026   0.00026   2.88781
   D18       -0.11665   0.00000   0.00000   0.00001   0.00001  -0.11664
   D19        1.40505   0.00001   0.00000   0.00192   0.00192   1.40697
   D20       -2.75519   0.00001   0.00000   0.00188   0.00188  -2.75332
   D21       -1.30961   0.00000   0.00000  -0.00064  -0.00064  -1.31025
   D22        0.77554   0.00000   0.00000  -0.00071  -0.00071   0.77484
   D23        2.89453   0.00001   0.00000  -0.00056  -0.00056   2.89397
   D24        0.18933   0.00000   0.00000  -0.00007  -0.00007   0.18926
   D25       -2.82458  -0.00001   0.00000  -0.00030  -0.00030  -2.82488
         Item               Value     Threshold  Converged?
 Maximum Force            0.000048     0.000450     YES
 RMS     Force            0.000012     0.000300     YES
 Maximum Displacement     0.002520     0.001800     NO 
 RMS     Displacement     0.000667     0.001200     YES
 Predicted change in Energy=-7.611990D-08
 GradGradGradGradGradGradGradGradGradGradGradGradGradGradGradGradGradGrad

 Leave Link  103 at Tue Apr 19 19:04:19 2016, MaxMem=   33554432 cpu:       0.0
 (Enter c:\G09w04\l9999.exe)
 1|1|UNPC-WIN-20150318OUM|Freq|RB3LYP|6-311++G(d,p)|C3H7N1O2|ADMINISTRA
 TOR|19-Apr-2016|0||#P Geom=AllCheck Guess=TCheck SCRF=Check GenChk RB3
 LYP/6-311++G(d,p) Freq||Ala-S-opt-freq-cpcm-w-pb2-6-311++gdp||0,1|N,-1
 .3402302903,-1.1915866695,-0.5147171362|H,-2.058022985,-1.6808228941,0
 .004187473|C,-0.7395488073,-0.118088642,0.2672102476|H,0.1887019736,-1
 .1210896236,1.0330601072|C,-1.5441179249,1.1559121303,0.4233754932|C,0
 .6788808017,-0.0141603796,0.0381059|H,-2.4627275477,0.9489989403,0.980
 2454682|H,-0.9948965187,1.9270865317,0.9709180029|H,-1.8410327434,1.58
 20332384,-0.5476891651|O,1.326019661,-1.0069578011,0.5284571548|H,-1.7
 53595116,-0.8499367435,-1.3808700777|O,1.3196459722,1.0216769095,-0.47
 43872494|H,2.2699965248,0.9245020031,-0.3081562185||Version=IA32W-G09R
 evB.01|State=1-A|HF=-323.7287109|RMSD=3.131e-009|RMSF=2.120e-005|ZeroP
 oint=0.1010416|Thermal=0.1077492|Dipole=0.0187686,0.6196967,-0.0357898
 |DipoleDeriv=-0.3148346,0.1104102,0.1044026,0.2109575,-0.5527858,-0.20
 62913,-0.0842943,-0.3418453,-0.1128578,0.0631474,-0.1059615,-0.0189422
 ,-0.0361212,0.2520123,-0.0075569,0.0356134,0.0184541,0.0828655,-0.2978
 187,0.0370486,0.1764492,-0.15021,0.0185472,0.340898,0.3089111,0.389752
 2,-0.3157875,0.7946993,-0.5005126,0.222521,-0.1897384,0.3158741,-0.037
 0547,-0.0473878,0.1126084,0.0686974,0.07586,0.0202379,0.04032,-0.04150
 75,-0.0146275,-0.1425983,-0.0306541,-0.0311733,0.2022662,1.6183525,0.3
 936832,-0.4281597,0.3216002,1.0956954,-0.4961605,-0.1752483,-0.5639004
 ,0.5152924,-0.0958343,0.0066499,0.0756559,-0.0358771,0.0360022,0.04492
 75,0.0895478,0.0145003,0.0196561,0.0101751,-0.0909801,-0.0703517,-0.02
 68485,-0.0866834,-0.0850321,-0.0498599,-0.0905237,0.0077858,-0.0101528
 ,0.0795179,-0.0379076,0.1072955,-0.0433736,0.0328169,-0.1302464,0.1253
 088,-0.155462,-1.4478349,0.6161571,-0.1978429,0.3573327,-0.6096383,0.0
 88224,0.117618,0.0370148,-0.2707334,0.0396484,-0.1062276,-0.157203,-0.
 0331256,0.1424136,0.1362619,-0.1816043,0.040108,0.0562549,-0.7557725,-
 0.498636,0.3229846,-0.5373856,-0.8274391,0.2747433,0.2426007,0.2606739
 ,-0.4358485,0.320365,0.0386132,-0.031926,0.0536281,0.2740028,0.0568223
 ,-0.094996,0.0290221,0.3378709|Polar=71.570078,-1.8722869,59.772847,0.
 9909205,-2.977357,48.703892|PG=C01 [X(C3H7N1O2)]|NImag=1||0.43684441,0
 .18792396,0.37527939,0.03567772,-0.15138520,0.56290154,-0.23020521,-0.
 16445379,0.14436212,0.23552414,-0.12658387,-0.10302190,0.08994968,0.15
 551297,0.12955590,0.13346492,0.11087260,-0.16534497,-0.13712840,-0.105
 24280,0.17459762,-0.08931163,-0.01484607,-0.02654868,-0.01146239,-0.02
 083571,-0.01928352,0.58862261,-0.07538733,-0.13418949,-0.08580394,0.00
 256344,-0.01417726,-0.01324001,-0.04036664,0.39410416,-0.04272690,-0.0
 4794749,-0.08790413,0.00132160,0.00626545,0.00739646,0.03223407,0.1043
 1517,0.20355723,-0.00792957,0.01355702,-0.03456010,0.00387889,0.002277
 42,0.00230772,-0.01472167,-0.07664960,0.04814104,-0.10787973,-0.000832
 50,-0.00152723,0.00277135,-0.00035322,-0.00016872,-0.00193152,-0.00248
 589,0.00643914,-0.00266675,0.08125745,0.04769046,-0.00257795,-0.001197
 75,-0.00258407,-0.00056881,-0.00033584,0.00042279,0.00530844,0.0125600
 9,-0.03624268,0.00415396,-0.05266915,0.08843810,0.00799723,-0.01881525
 ,-0.00670458,0.00135969,-0.00073624,-0.00081305,-0.11776444,0.05298605
 ,0.01214753,-0.00453603,0.00087426,0.00094438,0.53321454,0.00945390,-0
 .03021831,-0.00805764,0.00100533,-0.00047198,-0.00013810,0.05192053,-0
 .15441129,-0.01538467,-0.00007092,-0.00178537,-0.00066462,0.05149510,0
 .48661029,0.00394892,-0.02425565,-0.00507372,-0.00039707,0.00094950,-0
 .00006060,0.00101672,0.00746481,-0.07176204,0.01807085,-0.00591147,0.0
 0275670,0.00303264,0.01221928,0.52751839,-0.02217908,-0.03523484,0.029
 34372,-0.00538451,-0.00187197,-0.00272722,-0.25239622,0.06638572,-0.05
 219570,0.12837020,-0.04610024,-0.00512931,-0.01680295,0.00908811,0.002
 55240,0.63041652,-0.02427308,-0.01066192,-0.00040566,-0.00384833,-0.00
 139552,-0.00361296,-0.01541440,-0.10114985,0.00633926,-0.09511093,-0.0
 1063205,0.04810761,0.02833156,0.00374692,0.00061205,0.02769873,0.64123
 895,-0.02259869,-0.00316184,-0.00666597,-0.00082901,-0.00106466,-0.000
 33790,0.01853261,-0.00893328,-0.05554654,0.03960393,0.04025483,-0.0376
 5817,0.00207994,0.00293830,-0.00800102,-0.01575090,-0.20708798,0.31157
 404,0.00222328,-0.00025952,-0.00093452,-0.00001487,0.00055888,0.000572
 01,-0.01737378,-0.00152366,0.00614390,0.00029741,0.00002048,-0.0002272
 7,-0.22545203,-0.04552229,0.11134487,-0.00040544,0.00223472,0.00168989
 ,0.24697476,-0.00077298,0.00276131,0.00112342,-0.00041576,-0.00053697,
 0.00006984,0.02708215,0.00395525,-0.01494104,0.00099798,-0.00021316,0.
 00024729,-0.04553419,-0.05470725,0.02584579,-0.00022280,-0.00532328,-0
 .00270445,0.04556288,0.06101434,-0.00075824,0.00020111,0.00022716,0.00
 030178,-0.00043648,-0.00002119,0.00145873,-0.00038152,0.00014918,-0.00
 099897,-0.00008118,0.00057518,0.11147816,0.02661179,-0.11277855,0.0006
 0734,-0.00060974,-0.00020177,-0.12206796,-0.02989895,0.11987607,-0.000
 14422,0.00386274,0.00117000,-0.00013513,0.00039700,0.00006719,0.010259
 54,0.01071237,0.00930910,-0.00013302,0.00020962,-0.00026581,-0.1153751
 4,-0.09231733,-0.06763306,0.00014139,0.00012435,0.00069758,-0.01323400
 ,-0.01818422,-0.01464596,0.12329938,0.00343746,-0.00688236,-0.00210138
 ,0.00019395,0.00040103,-0.00011479,-0.01628363,-0.01384283,-0.01162355
 ,0.00004483,-0.00048088,0.00013149,-0.09050507,-0.17310456,-0.09059002
 ,-0.00156912,-0.00078222,-0.00008763,-0.00277901,-0.00453403,-0.002491
 93,0.09988408,0.18875747,0.00046681,-0.00173109,0.00119884,0.00018580,
 -0.00039772,-0.00014015,-0.00052306,0.00002902,-0.00277328,-0.00045253
 ,0.00002575,0.00005217,-0.06670241,-0.09105355,-0.11145355,-0.00120706
 ,-0.00202246,0.00087339,0.00784109,0.01261423,0.00897220,0.07411859,0.
 10065330,0.11730768,0.00047975,-0.00227990,0.00149635,-0.00008138,0.00
 002949,0.00016263,-0.00908879,0.01311536,-0.01756797,0.00489837,-0.002
 11692,0.00037537,-0.06038782,0.02091788,-0.05617317,0.00146849,0.00374
 881,-0.00308583,0.00745738,-0.00976199,0.02443787,-0.00451787,0.006567
 60,-0.01477980,0.06469170,0.00020179,0.00348268,0.00148448,-0.00016659
 ,-0.00005727,-0.00012041,0.01237429,-0.01701822,0.02362438,-0.00512365
 ,0.00190242,-0.00054198,0.02078383,-0.07912164,0.08076788,-0.00242596,
 -0.00281716,0.00249818,0.00146123,-0.00301477,0.00643542,-0.00487421,0
 .00911046,-0.02026517,-0.02880130,0.08630061,0.00168264,0.00055060,0.0
 0322390,0.00015245,0.00018840,-0.00023179,-0.00389246,-0.00063974,0.00
 688000,0.00000472,-0.00131367,0.00020967,-0.05292616,0.07536429,-0.236
 91204,0.00386681,0.00137032,-0.00003856,-0.00408390,0.00551466,-0.0160
 7506,-0.00301568,0.00566009,-0.01424841,0.06110732,-0.08865367,0.25810
 288,0.00235037,-0.00214441,0.00163972,-0.00138533,0.00047711,-0.001461
 14,-0.06878996,0.08681376,-0.00652104,0.01706150,-0.03264542,-0.009473
 76,-0.00493358,-0.00303992,-0.01855070,-0.25652028,0.19419828,-0.07121
 089,-0.00067944,0.00086551,0.00037794,0.00064506,0.00010484,0.00069528
 ,-0.00536814,0.00646381,-0.00127349,0.28578110,-0.00359802,-0.00839753
 ,0.02057196,-0.00313326,-0.00120974,-0.00102474,0.04420286,0.03984743,
 -0.03616934,0.07883189,-0.03600278,-0.01420878,0.00107029,0.00195383,-
 0.00239510,0.08343722,-0.27149260,0.09850826,-0.00028550,-0.00018223,0
 .00034333,0.00003525,-0.00013154,0.00020561,-0.00066828,-0.00021027,0.
 00141152,-0.22287386,0.32279038,0.00069234,0.00722988,-0.00981077,0.00
 204475,0.00083286,0.00105530,0.00218676,-0.01970574,0.03889465,-0.0632
 0115,0.02128286,-0.02159176,-0.00343358,-0.00295628,0.01273379,-0.0277
 8387,0.07577396,-0.10261304,-0.00050985,0.00203536,-0.00041627,-0.0000
 3404,0.00000370,-0.00046557,0.00271575,-0.00293942,-0.00037140,0.10419
 736,-0.11703599,0.09356526,-0.09732731,0.03413096,-0.14707760,0.009072
 54,-0.00851178,0.02685393,-0.01319416,0.00027185,-0.00958337,-0.003525
 50,-0.00119022,0.00049030,0.00120229,-0.00037117,0.00269784,0.00938884
 ,0.00069129,-0.00551153,0.00014630,-0.00000515,0.00020542,-0.00026691,
 0.00028499,-0.00003085,0.00081539,-0.00101002,-0.00035081,-0.00277760,
 0.00502555,-0.00177944,0.09762411,0.02979641,-0.09023522,0.13466139,0.
 01276613,-0.00872571,0.01467787,-0.01643504,0.00308261,-0.02864231,-0.
 00212344,-0.00011235,-0.00134203,-0.00125075,0.00349416,-0.00249507,0.
 00449590,-0.00170997,-0.00303379,0.00012899,-0.00027651,0.00021585,0.0
 0015845,0.00010476,0.00070337,0.00048028,-0.00021398,0.00184281,-0.000
 24826,0.00229792,0.00046116,-0.02768727,0.09285266,-0.10964911,0.11149
 850,-0.29024956,-0.01001526,0.00919950,-0.01788714,-0.01802674,-0.0020
 3683,-0.01490783,-0.00166027,-0.00218649,-0.00124554,0.00149058,0.0012
 0862,0.00260295,0.00644174,-0.00059328,-0.00116615,0.00032364,-0.00016
 086,-0.00056679,0.00014462,0.00069363,0.00073650,0.00066844,-0.0016222
 4,-0.00061634,-0.00164946,0.00300049,0.00039232,0.13284588,-0.11788416
 ,0.32312513,-0.00235722,-0.00020797,0.00070299,-0.00104763,-0.00059438
 ,-0.00168037,-0.01064577,-0.03782815,0.02100047,-0.01344841,0.00347944
 ,0.00670912,0.00118364,-0.00263625,0.00006378,-0.17967342,-0.11217828,
 0.05429484,-0.00006290,0.00030272,-0.00043145,-0.00037347,0.00053660,0
 .00030726,-0.00041009,0.00127446,-0.00128061,0.02932563,0.01251705,-0.
 01190276,-0.00146614,-0.00022803,-0.00105965,0.64181922,0.00030347,0.0
 0366961,-0.00266746,0.00030418,-0.00015579,-0.00004469,-0.00939760,-0.
 00744911,0.01137639,0.00900069,-0.00672857,0.00729686,0.00082877,-0.00
 178413,-0.00256085,-0.05913683,-0.24089151,0.08752070,0.00038345,0.000
 89146,0.00016344,0.00003505,0.00127413,0.00110293,-0.00121430,0.001625
 58,-0.00106980,-0.03438975,-0.05198298,0.04116765,-0.00166956,-0.00054
 104,-0.00096408,0.05911717,0.34723858,0.00069705,-0.00219345,0.0019538
 1,-0.00001348,-0.00005921,0.00019971,0.00817029,0.00448063,0.00523650,
 -0.00879374,0.00251248,0.00620156,-0.00063019,0.00027230,0.00009993,0.
 03587149,0.08373309,-0.10506687,-0.00004970,0.00012475,0.00027110,0.00
 004590,-0.00010707,-0.00007524,0.00054640,-0.00075101,0.00032209,0.005
 10888,0.04707942,-0.00632064,0.00142001,0.00081919,0.00010991,0.030739
 17,-0.16306308,0.13804875,-0.00044080,-0.00123293,0.00143286,-0.000118
 81,-0.00011892,-0.00033472,0.00586666,-0.00109316,-0.00170274,-0.00233
 244,-0.00011686,0.00026135,0.00029461,0.00007703,0.00002599,-0.0364235
 3,-0.00620273,0.00208805,0.00012334,0.00008585,0.00003535,-0.00016560,
 0.00008246,0.00008088,0.00004301,-0.00015769,0.00000917,0.00529069,0.0
 0543881,-0.00319226,0.00030815,0.00014664,0.00014559,-0.46284345,0.035
 83525,-0.07311208,0.49039816,0.00033079,-0.00005903,-0.00014100,0.0000
 2494,-0.00003608,-0.00015030,0.00048513,-0.00519053,0.00545449,-0.0068
 8875,0.00161908,0.00261682,0.00047167,-0.00020067,0.00034886,-0.044543
 93,0.00187019,-0.00564665,0.00001935,0.00016584,-0.00007114,-0.0000431
 7,0.00011056,0.00013578,-0.00001673,0.00003157,-0.00022583,0.00641830,
 0.00272010,-0.00614999,0.00004053,-0.00001733,-0.00015281,0.07644560,-
 0.04516625,0.02715196,-0.03274373,0.04415256,0.00168050,0.00151976,-0.
 00187204,0.00058355,0.00015131,0.00035184,-0.00063317,0.00189133,0.007
 02248,-0.00261546,-0.00008703,0.00066603,0.00003673,-0.00035972,0.0003
 2977,0.02611056,-0.00160422,0.00484857,-0.00004220,0.00012997,-0.00001
 126,0.00004157,-0.00002584,0.00001541,0.00009664,0.00008357,-0.0002449
 3,-0.00187869,-0.00028664,-0.00505188,-0.00017979,0.00001571,-0.000327
 46,-0.09746279,0.02174199,-0.04098061,0.07426255,-0.02317018,0.0352540
 7||0.00001510,0.00001341,0.00000662,-0.00000109,-0.00001238,0.00000089
 ,-0.00003224,-0.00000175,-0.00006443,0.00006080,-0.00000729,0.00001964
 ,-0.00000249,0.00000515,0.00001017,-0.00003428,0.00003270,-0.00001269,
 -0.00000319,0.00001115,-0.00000795,0.00000425,0.00000224,-0.00001346,0
 .00000194,0.00000203,-0.00000763,-0.00001481,-0.00003954,0.00004554,-0
 .00001373,-0.00000120,0.00000937,0.00001845,-0.00000305,0.00000563,0.0
 0000128,-0.00000146,0.00000831|||@


 CONTRAIWISE...CONTINUED TWEEDLEDEE, IF IT WAS SO, IT MIGHT BE,
 AND IF IT WERE SO, IT WOULD BE.....
 BUT AS IT ISN'T, IT AIN'T....
 THAT'S LOGIC.....
 ALICE THROUGH THE LOOKING GLASS
 Job cpu time:  0 days  0 hours 16 minutes 55.0 seconds.
 File lengths (MBytes):  RWF=     48 Int=      0 D2E=      0 Chk=      3 Scr=      1
 Normal termination of Gaussian 09 at Tue Apr 19 19:04:19 2016.
