 Entering Gaussian System, Link 0=g09
 Input=Ala-S-opt-freq-tsa3-6-31g.com
 Output=Ala-S-opt-freq-tsa3-6-31g.log
 Initial command:
 /usr/local/gau/g09/l1.exe "/tmp/Gau-3174.inp" -scrdir="/tmp/"
 Entering Link 1 = /usr/local/gau/g09/l1.exe PID=      3176.
  
 Copyright (c) 1988,1990,1992,1993,1995,1998,2003,2009,2013,
            Gaussian, Inc.  All Rights Reserved.
  
 This is part of the Gaussian(R) 09 program.  It is based on
 the Gaussian(R) 03 system (copyright 2003, Gaussian, Inc.),
 the Gaussian(R) 98 system (copyright 1998, Gaussian, Inc.),
 the Gaussian(R) 94 system (copyright 1995, Gaussian, Inc.),
 the Gaussian 92(TM) system (copyright 1992, Gaussian, Inc.),
 the Gaussian 90(TM) system (copyright 1990, Gaussian, Inc.),
 the Gaussian 88(TM) system (copyright 1988, Gaussian, Inc.),
 the Gaussian 86(TM) system (copyright 1986, Carnegie Mellon
 University), and the Gaussian 82(TM) system (copyright 1983,
 Carnegie Mellon University). Gaussian is a federally registered
 trademark of Gaussian, Inc.
  
 This software contains proprietary and confidential information,
 including trade secrets, belonging to Gaussian, Inc.
  
 This software is provided under written license and may be
 used, copied, transmitted, or stored only in accord with that
 written license.
  
 The following legend is applicable only to US Government
 contracts under FAR:
  
                    RESTRICTED RIGHTS LEGEND
  
 Use, reproduction and disclosure by the US Government is
 subject to restrictions as set forth in subparagraphs (a)
 and (c) of the Commercial Computer Software - Restricted
 Rights clause in FAR 52.227-19.
  
 Gaussian, Inc.
 340 Quinnipiac St., Bldg. 40, Wallingford CT 06492
  
  
 ---------------------------------------------------------------
 Warning -- This program may not be used in any manner that
 competes with the business of Gaussian, Inc. or will provide
 assistance to any competitor of Gaussian, Inc.  The licensee
 of this program is prohibited from giving any competitor of
 Gaussian, Inc. access to this program.  By using this program,
 the user acknowledges that Gaussian, Inc. is engaged in the
 business of creating and licensing software in the field of
 computational chemistry and represents and warrants to the
 licensee that it is not a competitor of Gaussian, Inc. and that
 it will not use this program in any manner prohibited above.
 ---------------------------------------------------------------
  

 Cite this work as:
 Gaussian 09, Revision D.01,
 M. J. Frisch, G. W. Trucks, H. B. Schlegel, G. E. Scuseria, 
 M. A. Robb, J. R. Cheeseman, G. Scalmani, V. Barone, B. Mennucci, 
 G. A. Petersson, H. Nakatsuji, M. Caricato, X. Li, H. P. Hratchian, 
 A. F. Izmaylov, J. Bloino, G. Zheng, J. L. Sonnenberg, M. Hada, 
 M. Ehara, K. Toyota, R. Fukuda, J. Hasegawa, M. Ishida, T. Nakajima, 
 Y. Honda, O. Kitao, H. Nakai, T. Vreven, J. A. Montgomery, Jr., 
 J. E. Peralta, F. Ogliaro, M. Bearpark, J. J. Heyd, E. Brothers, 
 K. N. Kudin, V. N. Staroverov, T. Keith, R. Kobayashi, J. Normand, 
 K. Raghavachari, A. Rendell, J. C. Burant, S. S. Iyengar, J. Tomasi, 
 M. Cossi, N. Rega, J. M. Millam, M. Klene, J. E. Knox, J. B. Cross, 
 V. Bakken, C. Adamo, J. Jaramillo, R. Gomperts, R. E. Stratmann, 
 O. Yazyev, A. J. Austin, R. Cammi, C. Pomelli, J. W. Ochterski, 
 R. L. Martin, K. Morokuma, V. G. Zakrzewski, G. A. Voth, 
 P. Salvador, J. J. Dannenberg, S. Dapprich, A. D. Daniels, 
 O. Farkas, J. B. Foresman, J. V. Ortiz, J. Cioslowski, 
 and D. J. Fox, Gaussian, Inc., Wallingford CT, 2013.
 
 ******************************************
 Gaussian 09:  ES64L-G09RevD.01 24-Apr-2013
                13-Apr-2016 
 ******************************************
 %chk=Ala-S-opt-freq-tsa3-6-31g.chk
 ------------------------------------------------
 #p opt=(calcfc,ts) freq rb3lyp/6-31g iop(1/11=1)
 ------------------------------------------------
 1/5=1,10=4,11=1,14=-1,18=20,26=3,38=1/1,3;
 2/9=110,12=2,17=6,18=5,40=1/2;
 3/5=1,6=6,11=2,16=1,25=1,30=1,71=2,74=-5,116=1,140=1/1,2,3;
 4//1;
 5/5=2,38=5/2;
 8/6=4,10=90,11=11/1;
 11/6=1,8=1,9=11,15=111,16=1/1,2,10;
 10/6=1,13=1/2;
 6/7=2,8=2,9=2,10=2,28=1/1;
 7/10=1,18=20,25=1/1,2,3,16;
 1/5=1,10=4,11=1,14=-1,18=20,26=3/3(2);
 2/9=110/2;
 99//99;
 2/9=110/2;
 3/5=1,6=6,11=2,16=1,25=1,30=1,71=1,74=-5,116=1/1,2,3;
 4/5=5,16=3,69=1/1;
 5/5=2,38=5/2;
 7//1,2,3,16;
 1/5=1,11=1,14=-1,18=20,26=3/3(-5);
 2/9=110/2;
 6/7=2,8=2,9=2,10=2,19=2,28=1/1;
 99/9=1/99;
 Leave Link    1 at Wed Apr 13 09:50:20 2016, MaxMem=           0 cpu:         0.0
 (Enter /usr/local/gau/g09/l101.exe)
 -------------------------
 Ala-S-opt-freq-tsa3-6-31g
 -------------------------
 Symbolic Z-matrix:
 Charge =  0 Multiplicity = 1
 N                     1.136     1.02151   0.10539 
 H                     2.13323   1.09744   0.02293 
 C                     0.51806  -0.22691   0.08016 
 H                    -2.05525  -1.70902  -0.62547 
 C                     1.42608  -1.42499   0.07248 
 C                    -0.82299  -0.33341   0.07368 
 H                     2.0716   -1.42791   0.96113 
 H                     0.84482  -2.3475    0.0695 
 H                     2.08131  -1.41794  -0.81005 
 O                    -1.59974   0.88161  -0.05243 
 H                     0.57365   1.84929   0.00867 
 O                    -1.51323  -1.54894   0.17779 
 H                    -0.24492   0.93664   1.25685 
 
 Add virtual bond connecting atoms H13        and N1         Dist= 3.40D+00.
 Add virtual bond connecting atoms H13        and C3         Dist= 3.44D+00.
 Add virtual bond connecting atoms H13        and C6         Dist= 3.46D+00.
 Add virtual bond connecting atoms H13        and O10        Dist= 3.56D+00.
 Add virtual bond connecting atoms H13        and H11        Dist= 3.31D+00.
 NAtoms=     13 NQM=       13 NQMF=       0 NMMI=      0 NMMIF=      0
                NMic=       0 NMicF=      0.
                    Isotopes and Nuclear Properties:
 (Nuclear quadrupole moments (NQMom) in fm**2, nuclear magnetic moments (NMagM)
  in nuclear magnetons)

  Atom         1           2           3           4           5           6           7           8           9          10
 IAtWgt=          14           1          12           1          12          12           1           1           1          16
 AtmWgt=  14.0030740   1.0078250  12.0000000   1.0078250  12.0000000  12.0000000   1.0078250   1.0078250   1.0078250  15.9949146
 NucSpn=           2           1           0           1           0           0           1           1           1           0
 AtZEff=   0.0000000   0.0000000   0.0000000   0.0000000   0.0000000   0.0000000   0.0000000   0.0000000   0.0000000   0.0000000
 NQMom=    2.0440000   0.0000000   0.0000000   0.0000000   0.0000000   0.0000000   0.0000000   0.0000000   0.0000000   0.0000000
 NMagM=    0.4037610   2.7928460   0.0000000   2.7928460   0.0000000   0.0000000   2.7928460   2.7928460   2.7928460   0.0000000
 AtZNuc=   7.0000000   1.0000000   6.0000000   1.0000000   6.0000000   6.0000000   1.0000000   1.0000000   1.0000000   8.0000000

  Atom        11          12          13
 IAtWgt=           1          16           1
 AtmWgt=   1.0078250  15.9949146   1.0078250
 NucSpn=           1           0           1
 AtZEff=   0.0000000   0.0000000   0.0000000
 NQMom=    0.0000000   0.0000000   0.0000000
 NMagM=    2.7928460   0.0000000   2.7928460
 AtZNuc=   1.0000000   8.0000000   1.0000000
 Leave Link  101 at Wed Apr 13 09:50:20 2016, MaxMem=    33554432 cpu:         0.1
 (Enter /usr/local/gau/g09/l103.exe)

 GradGradGradGradGradGradGradGradGradGradGradGradGradGradGradGradGradGrad
 Berny optimization.
 Initialization pass.
                           ----------------------------
                           !    Initial Parameters    !
                           ! (Angstroms and Degrees)  !
 --------------------------                            --------------------------
 ! Name  Definition              Value          Derivative Info.                !
 --------------------------------------------------------------------------------
 ! R1    R(1,2)                  1.0035         calculate D2E/DX2 analytically  !
 ! R2    R(1,3)                  1.3932         calculate D2E/DX2 analytically  !
 ! R3    R(1,11)                 1.0054         calculate D2E/DX2 analytically  !
 ! R4    R(1,13)                 1.8            calculate D2E/DX2 analytically  !
 ! R5    R(3,5)                  1.5033         calculate D2E/DX2 analytically  !
 ! R6    R(3,6)                  1.3453         calculate D2E/DX2 analytically  !
 ! R7    R(3,13)                 1.8222         calculate D2E/DX2 analytically  !
 ! R8    R(4,12)                 0.9822         calculate D2E/DX2 analytically  !
 ! R9    R(5,7)                  1.0984         calculate D2E/DX2 analytically  !
 ! R10   R(5,8)                  1.0904         calculate D2E/DX2 analytically  !
 ! R11   R(5,9)                  1.0992         calculate D2E/DX2 analytically  !
 ! R12   R(6,10)                 1.4476         calculate D2E/DX2 analytically  !
 ! R13   R(6,12)                 1.4017         calculate D2E/DX2 analytically  !
 ! R14   R(6,13)                 1.8295         calculate D2E/DX2 analytically  !
 ! R15   R(10,13)                1.8849         calculate D2E/DX2 analytically  !
 ! R16   R(11,13)                1.7496         calculate D2E/DX2 analytically  !
 ! A1    A(2,1,3)              120.4689         calculate D2E/DX2 analytically  !
 ! A2    A(2,1,11)             119.0538         calculate D2E/DX2 analytically  !
 ! A3    A(2,1,13)             144.936          calculate D2E/DX2 analytically  !
 ! A4    A(3,1,11)             119.2059         calculate D2E/DX2 analytically  !
 ! A5    A(1,3,5)              116.508          calculate D2E/DX2 analytically  !
 ! A6    A(1,3,6)              120.8748         calculate D2E/DX2 analytically  !
 ! A7    A(5,3,6)              122.6153         calculate D2E/DX2 analytically  !
 ! A8    A(5,3,13)             139.9137         calculate D2E/DX2 analytically  !
 ! A9    A(3,5,7)              110.6686         calculate D2E/DX2 analytically  !
 ! A10   A(3,5,8)              110.6273         calculate D2E/DX2 analytically  !
 ! A11   A(3,5,9)              111.0413         calculate D2E/DX2 analytically  !
 ! A12   A(7,5,8)              108.2564         calculate D2E/DX2 analytically  !
 ! A13   A(7,5,9)              107.4144         calculate D2E/DX2 analytically  !
 ! A14   A(8,5,9)              108.7238         calculate D2E/DX2 analytically  !
 ! A15   A(3,6,10)             117.9609         calculate D2E/DX2 analytically  !
 ! A16   A(3,6,12)             123.9986         calculate D2E/DX2 analytically  !
 ! A17   A(10,6,12)            118.0403         calculate D2E/DX2 analytically  !
 ! A18   A(12,6,13)            135.1989         calculate D2E/DX2 analytically  !
 ! A19   A(4,12,6)             110.6311         calculate D2E/DX2 analytically  !
 ! A20   A(1,13,6)              82.035          calculate D2E/DX2 analytically  !
 ! A21   A(1,13,10)             96.2266         calculate D2E/DX2 analytically  !
 ! A22   A(3,13,10)             80.4314         calculate D2E/DX2 analytically  !
 ! A23   A(3,13,11)             71.1253         calculate D2E/DX2 analytically  !
 ! A24   A(6,13,11)             92.7844         calculate D2E/DX2 analytically  !
 ! A25   A(10,13,11)            81.7186         calculate D2E/DX2 analytically  !
 ! D1    D(2,1,3,5)              6.2762         calculate D2E/DX2 analytically  !
 ! D2    D(2,1,3,6)           -174.2135         calculate D2E/DX2 analytically  !
 ! D3    D(11,1,3,5)           173.2777         calculate D2E/DX2 analytically  !
 ! D4    D(11,1,3,6)            -7.2119         calculate D2E/DX2 analytically  !
 ! D5    D(2,1,13,6)          -138.6025         calculate D2E/DX2 analytically  !
 ! D6    D(2,1,13,10)          177.6861         calculate D2E/DX2 analytically  !
 ! D7    D(1,3,5,7)             59.0596         calculate D2E/DX2 analytically  !
 ! D8    D(1,3,5,8)            179.0434         calculate D2E/DX2 analytically  !
 ! D9    D(1,3,5,9)            -60.1392         calculate D2E/DX2 analytically  !
 ! D10   D(6,3,5,7)           -120.4415         calculate D2E/DX2 analytically  !
 ! D11   D(6,3,5,8)             -0.4577         calculate D2E/DX2 analytically  !
 ! D12   D(6,3,5,9)            120.3597         calculate D2E/DX2 analytically  !
 ! D13   D(13,3,5,7)           -25.2958         calculate D2E/DX2 analytically  !
 ! D14   D(13,3,5,8)            94.688          calculate D2E/DX2 analytically  !
 ! D15   D(13,3,5,9)          -144.4946         calculate D2E/DX2 analytically  !
 ! D16   D(1,3,6,10)             6.5574         calculate D2E/DX2 analytically  !
 ! D17   D(1,3,6,12)          -173.6291         calculate D2E/DX2 analytically  !
 ! D18   D(5,3,6,10)          -173.9628         calculate D2E/DX2 analytically  !
 ! D19   D(5,3,6,12)             5.8507         calculate D2E/DX2 analytically  !
 ! D20   D(5,3,13,10)         -147.3291         calculate D2E/DX2 analytically  !
 ! D21   D(5,3,13,11)          128.2221         calculate D2E/DX2 analytically  !
 ! D22   D(3,6,12,4)          -118.4765         calculate D2E/DX2 analytically  !
 ! D23   D(10,6,12,4)           61.3369         calculate D2E/DX2 analytically  !
 ! D24   D(13,6,12,4)          149.1963         calculate D2E/DX2 analytically  !
 ! D25   D(12,6,13,1)          143.9907         calculate D2E/DX2 analytically  !
 ! D26   D(12,6,13,11)         175.1307         calculate D2E/DX2 analytically  !
 --------------------------------------------------------------------------------
 Trust Radius=3.00D-01 FncErr=1.00D-07 GrdErr=1.00D-06
 Number of steps in this run=     77 maximum allowed number of steps=    100.
 Search for a saddle point of order  1.
 GradGradGradGradGradGradGradGradGradGradGradGradGradGradGradGradGradGrad

 Leave Link  103 at Wed Apr 13 09:50:20 2016, MaxMem=    33554432 cpu:         0.0
 (Enter /usr/local/gau/g09/l202.exe)
                          Input orientation:                          
 ---------------------------------------------------------------------
 Center     Atomic      Atomic             Coordinates (Angstroms)
 Number     Number       Type             X           Y           Z
 ---------------------------------------------------------------------
      1          7           0        1.135998    1.021511    0.105392
      2          1           0        2.133228    1.097437    0.022928
      3          6           0        0.518057   -0.226909    0.080158
      4          1           0       -2.055245   -1.709015   -0.625468
      5          6           0        1.426083   -1.424993    0.072478
      6          6           0       -0.822985   -0.333407    0.073681
      7          1           0        2.071600   -1.427905    0.961134
      8          1           0        0.844816   -2.347501    0.069498
      9          1           0        2.081308   -1.417943   -0.810051
     10          8           0       -1.599741    0.881612   -0.052427
     11          1           0        0.573650    1.849295    0.008670
     12          8           0       -1.513233   -1.548938    0.177787
     13          1           0       -0.244921    0.936636    1.256852
 ---------------------------------------------------------------------
                    Distance matrix (angstroms):
                    1          2          3          4          5
     1  N    0.000000
     2  H    1.003510   0.000000
     3  C    1.393212   2.089484   0.000000
     4  H    4.263093   5.083296   3.052283   0.000000
     5  C    2.463862   2.620145   1.503321   3.561944   0.000000
     6  C    2.382105   3.284674   1.345280   1.974733   2.499974
     7  H    2.758131   2.694695   2.152210   4.430257   1.098367
     8  H    3.381762   3.678284   2.145646   3.049753   1.090367
     9  H    2.771747   2.650224   2.157496   4.150887   1.099194
    10  O    2.743856   3.739962   2.394048   2.692064   3.806789
    11  H    1.005394   1.731409   2.078178   4.469317   3.384032
    12  O    3.692001   4.508210   2.425579   0.982151   2.943812
    13  H    1.800000   2.684030   1.822246   3.717509   3.126066
                    6          7          8          9         10
     6  C    0.000000
     7  H    3.219335   0.000000
     8  H    2.614986   1.773604   0.000000
     9  H    3.223681   1.771240   1.779493   0.000000
    10  O    1.447593   4.454203   4.051901   4.405914   0.000000
    11  H    2.592104   3.727074   4.205987   3.690282   2.379868
    12  O    1.401712   3.671418   2.491952   3.730108   2.442961
    13  H    1.829498   3.323368   3.658264   3.902239   1.884882
                   11         12         13
    11  H    0.000000
    12  O    3.991449   0.000000
    13  H    1.749561   2.991835   0.000000
 Stoichiometry    C3H7NO2
 Framework group  C1[X(C3H7NO2)]
 Deg. of freedom    33
 Full point group                 C1      NOp   1
 Largest Abelian subgroup         C1      NOp   1
 Largest concise Abelian subgroup C1      NOp   1
                         Standard orientation:                         
 ---------------------------------------------------------------------
 Center     Atomic      Atomic             Coordinates (Angstroms)
 Number     Number       Type             X           Y           Z
 ---------------------------------------------------------------------
      1          7           0       -1.332457   -1.195947   -0.008887
      2          1           0       -2.330632   -1.194706   -0.112211
      3          6           0       -0.620026    0.001315   -0.015748
      4          1           0        2.073719    1.283163   -0.661527
      5          6           0       -1.432952    1.265707   -0.036711
      6          6           0        0.725076    0.004371    0.005874
      7          1           0       -2.094750    1.315663    0.838467
      8          1           0       -0.782585    2.140780   -0.023551
      9          1           0       -2.068211    1.311653   -0.932569
     10          8           0        1.408641   -1.266419   -0.109700
     11          1           0       -0.833479   -2.064245   -0.097747
     12          8           0        1.504357    1.162902    0.129665
     13          1           0        0.026557   -1.220901    1.171139
 ---------------------------------------------------------------------
 Rotational constants (GHZ):      4.7051949      3.3316036      2.0104806
 Leave Link  202 at Wed Apr 13 09:50:20 2016, MaxMem=    33554432 cpu:         0.0
 (Enter /usr/local/gau/g09/l301.exe)
 Standard basis: 6-31G (6D, 7F)
 Ernie: Thresh=  0.10000D-02 Tol=  0.10000D-05 Strict=F.
 There are    68 symmetry adapted cartesian basis functions of A   symmetry.
 There are    68 symmetry adapted basis functions of A   symmetry.
    68 basis functions,   160 primitive gaussians,    68 cartesian basis functions
    24 alpha electrons       24 beta electrons
       nuclear repulsion energy       244.5723278644 Hartrees.
 IExCor=  402 DFT=T Ex+Corr=B3LYP ExCW=0 ScaHFX=  0.200000
 ScaDFX=  0.800000  0.720000  1.000000  0.810000 ScalE2=  1.000000  1.000000
 IRadAn=      0 IRanWt=     -1 IRanGd=            0 ICorTp=0 IEmpDi=  4
 NAtoms=   13 NActive=   13 NUniq=   13 SFac= 1.00D+00 NAtFMM=   60 NAOKFM=F Big=F
 Integral buffers will be    131072 words long.
 Raffenetti 2 integral format.
 Two-electron integral symmetry is turned on.
 Leave Link  301 at Wed Apr 13 09:50:20 2016, MaxMem=    33554432 cpu:         0.0
 (Enter /usr/local/gau/g09/l302.exe)
 NPDir=0 NMtPBC=     1 NCelOv=     1 NCel=       1 NClECP=     1 NCelD=      1
         NCelK=      1 NCelE2=     1 NClLst=     1 CellRange=     0.0.
 One-electron integrals computed using PRISM.
 NBasis=    68 RedAO= T EigKep=  2.85D-03  NBF=    68
 NBsUse=    68 1.00D-06 EigRej= -1.00D+00 NBFU=    68
 Precomputing XC quadrature grid using
 IXCGrd= 4 IRadAn=           0 IRanWt=          -1 IRanGd=           0 AccXCQ= 0.00D+00.
 Generated NRdTot=       0 NPtTot=           0 NUsed=           0 NTot=          32
 NSgBfM=    68    68    68    68    68 MxSgAt=    13 MxSgA2=    13.
 Leave Link  302 at Wed Apr 13 09:50:21 2016, MaxMem=    33554432 cpu:         0.2
 (Enter /usr/local/gau/g09/l303.exe)
 DipDrv:  MaxL=1.
 Leave Link  303 at Wed Apr 13 09:50:21 2016, MaxMem=    33554432 cpu:         0.0
 (Enter /usr/local/gau/g09/l401.exe)
 ExpMin= 1.61D-01 ExpMax= 5.48D+03 ExpMxC= 8.25D+02 IAcc=1 IRadAn=         1 AccDes= 0.00D+00
 Harris functional with IExCor=  402 and IRadAn=       1 diagonalized for initial guess.
 HarFok:  IExCor=  402 AccDes= 0.00D+00 IRadAn=         1 IDoV= 1 UseB2=F ITyADJ=14
 ICtDFT=  3500011 ScaDFX=  1.000000  1.000000  1.000000  1.000000
 FoFCou: FMM=F IPFlag=           0 FMFlag=      100000 FMFlg1=           0
         NFxFlg=           0 DoJE=T BraDBF=F KetDBF=T FulRan=T
         wScrn=  0.000000 ICntrl=     500 IOpCl=  0 I1Cent=   200000004 NGrid=           0
         NMat0=    1 NMatS0=      1 NMatT0=    0 NMatD0=    1 NMtDS0=    0 NMtDT0=    0
 Petite list used in FoFCou.
 Harris En= -323.513586660417    
 JPrj=0 DoOrth=F DoCkMO=F.
 Leave Link  401 at Wed Apr 13 09:50:21 2016, MaxMem=    33554432 cpu:         0.4
 (Enter /usr/local/gau/g09/l502.exe)
 Closed shell SCF:
 Using DIIS extrapolation, IDIIS=  1040.
 Integral symmetry usage will be decided dynamically.
 Keep R1 ints in memory in canonical form, NReq=3676491.
 IVT=       33364 IEndB=       33364 NGot=    33554432 MDV=    30768038
 LenX=    30768038 LenY=    30762973
 Requested convergence on RMS density matrix=1.00D-08 within 128 cycles.
 Requested convergence on MAX density matrix=1.00D-06.
 Requested convergence on             energy=1.00D-06.
 No special actions if energy rises.
 FoFCou: FMM=F IPFlag=           0 FMFlag=           0 FMFlg1=           0
         NFxFlg=           0 DoJE=F BraDBF=F KetDBF=F FulRan=T
         wScrn=  0.000000 ICntrl=     600 IOpCl=  0 I1Cent=           0 NGrid=           0
         NMat0=    1 NMatS0=   2346 NMatT0=    0 NMatD0=    1 NMtDS0=    0 NMtDT0=    0
 Symmetry not used in FoFCou.
 Integral accuracy reduced to 1.0D-05 until final iterations.

 Cycle   1  Pass 0  IDiag  1:
 E= -323.161904660694    
 DIIS: error= 4.02D-02 at cycle   1 NSaved=   1.
 NSaved= 1 IEnMin= 1 EnMin= -323.161904660694     IErMin= 1 ErrMin= 4.02D-02
 ErrMax= 4.02D-02  0.00D+00 EMaxC= 1.00D-01 BMatC= 2.57D-01 BMatP= 2.57D-01
 IDIUse=3 WtCom= 5.98D-01 WtEn= 4.02D-01
 Coeff-Com:  0.100D+01
 Coeff-En:   0.100D+01
 Coeff:      0.100D+01
 Gap=    -0.058 Goal=   None    Shift=    0.000
 GapD=   -0.058 DampG=0.250 DampE=0.500 DampFc=0.2500 IDamp=-1.
 Damping current iteration by 2.50D-01
 RMSDP=2.73D-02 MaxDP=5.72D-01              OVMax= 5.53D-01

 Cycle   2  Pass 0  IDiag  1:
 E= -323.235852316025     Delta-E=       -0.073947655331 Rises=F Damp=T
 DIIS: error= 1.77D-02 at cycle   2 NSaved=   2.
 NSaved= 2 IEnMin= 2 EnMin= -323.235852316025     IErMin= 2 ErrMin= 1.77D-02
 ErrMax= 1.77D-02  0.00D+00 EMaxC= 1.00D-01 BMatC= 4.14D-02 BMatP= 2.57D-01
 IDIUse=3 WtCom= 8.23D-01 WtEn= 1.77D-01
 Coeff-Com: -0.156D+00 0.116D+01
 Coeff-En:   0.219D+00 0.781D+00
 Coeff:     -0.893D-01 0.109D+01
 Gap=     0.023 Goal=   None    Shift=    0.000
 RMSDP=9.50D-03 MaxDP=1.15D-01 DE=-7.39D-02 OVMax= 5.27D-01

 Cycle   3  Pass 0  IDiag  1:
 E= -323.220219688916     Delta-E=        0.015632627109 Rises=F Damp=F
 DIIS: error= 4.78D-02 at cycle   3 NSaved=   3.
 NSaved= 3 IEnMin= 2 EnMin= -323.235852316025     IErMin= 2 ErrMin= 1.77D-02
 ErrMax= 4.78D-02  0.00D+00 EMaxC= 1.00D-01 BMatC= 1.97D-01 BMatP= 4.14D-02
 IDIUse=2 WtCom= 0.00D+00 WtEn= 1.00D+00
 Coeff-En:   0.000D+00 0.529D+00 0.471D+00
 Coeff:      0.000D+00 0.529D+00 0.471D+00
 Gap=     0.052 Goal=   None    Shift=    0.000
 RMSDP=1.72D-02 MaxDP=2.28D-01 DE= 1.56D-02 OVMax= 5.87D-01

 Cycle   4  Pass 0  IDiag  1:
 E= -322.980201611175     Delta-E=        0.240018077741 Rises=F Damp=F
 DIIS: error= 9.29D-02 at cycle   4 NSaved=   4.
 NSaved= 4 IEnMin= 2 EnMin= -323.235852316025     IErMin= 2 ErrMin= 1.77D-02
 ErrMax= 9.29D-02  0.00D+00 EMaxC= 1.00D-01 BMatC= 4.46D-01 BMatP= 4.14D-02
 IDIUse=2 WtCom= 0.00D+00 WtEn= 1.00D+00
 EnCoef did     3 forward-backward iterations
 Coeff-En:   0.118D+00 0.000D+00 0.535D+00 0.347D+00
 Coeff:      0.118D+00 0.000D+00 0.535D+00 0.347D+00
 Gap=     0.080 Goal=   None    Shift=    0.000
 RMSDP=1.07D-02 MaxDP=2.38D-01 DE= 2.40D-01 OVMax= 2.94D-01

 Problem detected with inexpensive integrals.
 Switching to full accuracy and repeating last cycle.
 Cycle   5  Pass 1  IDiag  1:
 E= -322.980221339969     Delta-E=       -0.000019728794 Rises=F Damp=F
 DIIS: error= 9.29D-02 at cycle   1 NSaved=   1.
 NSaved= 1 IEnMin= 1 EnMin= -322.980221339969     IErMin= 1 ErrMin= 9.29D-02
 ErrMax= 9.29D-02  0.00D+00 EMaxC= 1.00D-01 BMatC= 4.46D-01 BMatP= 4.46D-01
 IDIUse=3 WtCom= 7.13D-02 WtEn= 9.29D-01
 Coeff-Com:  0.100D+01
 Coeff-En:   0.100D+01
 Coeff:      0.100D+01
 Gap=     0.179 Goal=   None    Shift=    0.000
 GapD=    0.179 DampG=1.000 DampE=0.500 DampFc=0.5000 IDamp=-1.
 Damping current iteration by 5.00D-01
 RMSDP=2.68D-02 MaxDP=4.41D-01 DE=-1.97D-05 OVMax= 6.23D-01

 Cycle   6  Pass 1  IDiag  1:
 E= -323.062554459054     Delta-E=       -0.082333119085 Rises=F Damp=T
 DIIS: error= 4.06D-02 at cycle   2 NSaved=   2.
 NSaved= 2 IEnMin= 2 EnMin= -323.062554459054     IErMin= 2 ErrMin= 4.06D-02
 ErrMax= 4.06D-02  0.00D+00 EMaxC= 1.00D-01 BMatC= 1.41D-01 BMatP= 4.46D-01
 IDIUse=3 WtCom= 5.94D-01 WtEn= 4.06D-01
 Coeff-Com:  0.345D+00 0.655D+00
 Coeff-En:   0.441D+00 0.559D+00
 Coeff:      0.384D+00 0.616D+00
 Gap=     0.131 Goal=   None    Shift=    0.000
 RMSDP=8.10D-03 MaxDP=1.50D-01 DE=-8.23D-02 OVMax= 3.35D-01

 Cycle   7  Pass 1  IDiag  1:
 E= -323.323962014392     Delta-E=       -0.261407555339 Rises=F Damp=F
 DIIS: error= 3.34D-02 at cycle   3 NSaved=   3.
 NSaved= 3 IEnMin= 3 EnMin= -323.323962014392     IErMin= 3 ErrMin= 3.34D-02
 ErrMax= 3.34D-02  0.00D+00 EMaxC= 1.00D-01 BMatC= 9.11D-02 BMatP= 1.41D-01
 IDIUse=3 WtCom= 6.66D-01 WtEn= 3.34D-01
 Coeff-Com:  0.304D+00 0.102D+00 0.594D+00
 Coeff-En:   0.272D+00 0.000D+00 0.728D+00
 Coeff:      0.293D+00 0.678D-01 0.639D+00
 Gap=     0.050 Goal=   None    Shift=    0.000
 RMSDP=6.90D-03 MaxDP=9.67D-02 DE=-2.61D-01 OVMax= 1.68D-01

 Cycle   8  Pass 1  IDiag  1:
 E= -323.412939818988     Delta-E=       -0.088977804596 Rises=F Damp=F
 DIIS: error= 1.16D-02 at cycle   4 NSaved=   4.
 NSaved= 4 IEnMin= 4 EnMin= -323.412939818988     IErMin= 4 ErrMin= 1.16D-02
 ErrMax= 1.16D-02  0.00D+00 EMaxC= 1.00D-01 BMatC= 1.12D-02 BMatP= 9.11D-02
 IDIUse=3 WtCom= 8.84D-01 WtEn= 1.16D-01
 Coeff-Com:  0.101D+00-0.126D+00 0.454D+00 0.571D+00
 Coeff-En:   0.000D+00 0.000D+00 0.623D-01 0.938D+00
 Coeff:      0.894D-01-0.112D+00 0.408D+00 0.614D+00
 Gap=     0.050 Goal=   None    Shift=    0.000
 RMSDP=2.71D-03 MaxDP=4.08D-02 DE=-8.90D-02 OVMax= 8.23D-02

 Cycle   9  Pass 1  IDiag  1:
 E= -323.416635138503     Delta-E=       -0.003695319515 Rises=F Damp=F
 DIIS: error= 1.36D-02 at cycle   5 NSaved=   5.
 NSaved= 5 IEnMin= 5 EnMin= -323.416635138503     IErMin= 4 ErrMin= 1.16D-02
 ErrMax= 1.36D-02  0.00D+00 EMaxC= 1.00D-01 BMatC= 5.76D-03 BMatP= 1.12D-02
 IDIUse=3 WtCom= 8.64D-01 WtEn= 1.36D-01
 EnCoef did     1 forward-backward iterations
 Coeff-Com: -0.589D-03-0.483D-01 0.191D+00 0.400D+00 0.458D+00
 Coeff-En:   0.000D+00 0.000D+00 0.182D-01 0.374D+00 0.608D+00
 Coeff:     -0.509D-03-0.418D-01 0.168D+00 0.396D+00 0.479D+00
 Gap=     0.060 Goal=   None    Shift=    0.000
 RMSDP=1.54D-03 MaxDP=1.93D-02 DE=-3.70D-03 OVMax= 4.25D-02

 Cycle  10  Pass 1  IDiag  1:
 E= -323.423289997405     Delta-E=       -0.006654858901 Rises=F Damp=F
 DIIS: error= 1.60D-03 at cycle   6 NSaved=   6.
 NSaved= 6 IEnMin= 6 EnMin= -323.423289997405     IErMin= 6 ErrMin= 1.60D-03
 ErrMax= 1.60D-03  0.00D+00 EMaxC= 1.00D-01 BMatC= 1.55D-04 BMatP= 5.76D-03
 IDIUse=3 WtCom= 9.84D-01 WtEn= 1.60D-02
 Coeff-Com: -0.984D-02-0.133D-01 0.559D-01 0.179D+00 0.253D+00 0.535D+00
 Coeff-En:   0.000D+00 0.000D+00 0.000D+00 0.000D+00 0.000D+00 0.100D+01
 Coeff:     -0.968D-02-0.131D-01 0.551D-01 0.176D+00 0.249D+00 0.543D+00
 Gap=     0.060 Goal=   None    Shift=    0.000
 RMSDP=2.02D-04 MaxDP=3.02D-03 DE=-6.65D-03 OVMax= 4.03D-03

 Cycle  11  Pass 1  IDiag  1:
 E= -323.423387974495     Delta-E=       -0.000097977091 Rises=F Damp=F
 DIIS: error= 7.10D-04 at cycle   7 NSaved=   7.
 NSaved= 7 IEnMin= 7 EnMin= -323.423387974495     IErMin= 7 ErrMin= 7.10D-04
 ErrMax= 7.10D-04  0.00D+00 EMaxC= 1.00D-01 BMatC= 2.66D-05 BMatP= 1.55D-04
 IDIUse=3 WtCom= 9.93D-01 WtEn= 7.10D-03
 Coeff-Com: -0.464D-02-0.256D-02 0.158D-01 0.520D-01 0.624D-01 0.259D+00
 Coeff-Com:  0.618D+00
 Coeff-En:   0.000D+00 0.000D+00 0.000D+00 0.000D+00 0.000D+00 0.138D+00
 Coeff-En:   0.862D+00
 Coeff:     -0.461D-02-0.254D-02 0.157D-01 0.517D-01 0.619D-01 0.258D+00
 Coeff:      0.620D+00
 Gap=     0.060 Goal=   None    Shift=    0.000
 RMSDP=1.13D-04 MaxDP=1.32D-03 DE=-9.80D-05 OVMax= 3.80D-03

 Cycle  12  Pass 1  IDiag  1:
 E= -323.423413880194     Delta-E=       -0.000025905699 Rises=F Damp=F
 DIIS: error= 1.40D-04 at cycle   8 NSaved=   8.
 NSaved= 8 IEnMin= 8 EnMin= -323.423413880194     IErMin= 8 ErrMin= 1.40D-04
 ErrMax= 1.40D-04  0.00D+00 EMaxC= 1.00D-01 BMatC= 1.77D-06 BMatP= 2.66D-05
 IDIUse=3 WtCom= 9.99D-01 WtEn= 1.40D-03
 Coeff-Com: -0.287D-03 0.816D-04 0.775D-03 0.193D-02-0.117D-01 0.664D-01
 Coeff-Com:  0.328D+00 0.615D+00
 Coeff-En:   0.000D+00 0.000D+00 0.000D+00 0.000D+00 0.000D+00 0.000D+00
 Coeff-En:   0.000D+00 0.100D+01
 Coeff:     -0.286D-03 0.815D-04 0.774D-03 0.193D-02-0.117D-01 0.663D-01
 Coeff:      0.327D+00 0.616D+00
 Gap=     0.060 Goal=   None    Shift=    0.000
 RMSDP=4.10D-05 MaxDP=5.42D-04 DE=-2.59D-05 OVMax= 1.44D-03

 Cycle  13  Pass 1  IDiag  1:
 E= -323.423415960504     Delta-E=       -0.000002080310 Rises=F Damp=F
 DIIS: error= 1.12D-04 at cycle   9 NSaved=   9.
 NSaved= 9 IEnMin= 9 EnMin= -323.423415960504     IErMin= 9 ErrMin= 1.12D-04
 ErrMax= 1.12D-04  0.00D+00 EMaxC= 1.00D-01 BMatC= 8.35D-07 BMatP= 1.77D-06
 IDIUse=3 WtCom= 9.99D-01 WtEn= 1.12D-03
 Coeff-Com:  0.713D-03 0.535D-04-0.222D-02-0.338D-02-0.134D-01 0.157D-01
 Coeff-Com:  0.960D-01 0.202D+00 0.705D+00
 Coeff-En:   0.000D+00 0.000D+00 0.000D+00 0.000D+00 0.000D+00 0.000D+00
 Coeff-En:   0.000D+00 0.000D+00 0.100D+01
 Coeff:      0.712D-03 0.534D-04-0.222D-02-0.338D-02-0.134D-01 0.157D-01
 Coeff:      0.959D-01 0.202D+00 0.705D+00
 Gap=     0.060 Goal=   None    Shift=    0.000
 RMSDP=2.65D-05 MaxDP=3.21D-04 DE=-2.08D-06 OVMax= 1.11D-03

 Cycle  14  Pass 1  IDiag  1:
 E= -323.423416512547     Delta-E=       -0.000000552043 Rises=F Damp=F
 DIIS: error= 9.56D-05 at cycle  10 NSaved=  10.
 NSaved=10 IEnMin=10 EnMin= -323.423416512547     IErMin=10 ErrMin= 9.56D-05
 ErrMax= 9.56D-05  0.00D+00 EMaxC= 1.00D-01 BMatC= 6.12D-07 BMatP= 8.35D-07
 IDIUse=1 WtCom= 1.00D+00 WtEn= 0.00D+00
 Coeff-Com:  0.648D-03-0.256D-04-0.196D-02-0.138D-02-0.750D-02 0.112D-01
 Coeff-Com:  0.441D-01 0.528D-01 0.423D+00 0.479D+00
 Coeff:      0.648D-03-0.256D-04-0.196D-02-0.138D-02-0.750D-02 0.112D-01
 Coeff:      0.441D-01 0.528D-01 0.423D+00 0.479D+00
 Gap=     0.060 Goal=   None    Shift=    0.000
 RMSDP=1.12D-05 MaxDP=1.23D-04 DE=-5.52D-07 OVMax= 4.40D-04

 Cycle  15  Pass 1  IDiag  1:
 E= -323.423416874533     Delta-E=       -0.000000361986 Rises=F Damp=F
 DIIS: error= 7.24D-05 at cycle  11 NSaved=  11.
 NSaved=11 IEnMin=11 EnMin= -323.423416874533     IErMin=11 ErrMin= 7.24D-05
 ErrMax= 7.24D-05  0.00D+00 EMaxC= 1.00D-01 BMatC= 3.41D-07 BMatP= 6.12D-07
 IDIUse=1 WtCom= 1.00D+00 WtEn= 0.00D+00
 Coeff-Com:  0.637D-04-0.585D-04-0.249D-03 0.321D-02 0.593D-02 0.485D-02
 Coeff-Com: -0.299D-01-0.162D+00-0.347D+00-0.567D+00 0.209D+01
 Coeff:      0.637D-04-0.585D-04-0.249D-03 0.321D-02 0.593D-02 0.485D-02
 Coeff:     -0.299D-01-0.162D+00-0.347D+00-0.567D+00 0.209D+01
 Gap=     0.060 Goal=   None    Shift=    0.000
 RMSDP=3.44D-05 MaxDP=3.90D-04 DE=-3.62D-07 OVMax= 1.38D-03

 Cycle  16  Pass 1  IDiag  1:
 E= -323.423417362871     Delta-E=       -0.000000488338 Rises=F Damp=F
 DIIS: error= 5.16D-06 at cycle  12 NSaved=  12.
 NSaved=12 IEnMin=12 EnMin= -323.423417362871     IErMin=12 ErrMin= 5.16D-06
 ErrMax= 5.16D-06  0.00D+00 EMaxC= 1.00D-01 BMatC= 2.86D-09 BMatP= 3.41D-07
 IDIUse=1 WtCom= 1.00D+00 WtEn= 0.00D+00
 Coeff-Com: -0.341D-04-0.258D-04 0.182D-03 0.384D-03 0.760D-03 0.558D-03
 Coeff-Com: -0.142D-02-0.195D-01-0.507D-01-0.313D+00 0.398D+00 0.985D+00
 Coeff:     -0.341D-04-0.258D-04 0.182D-03 0.384D-03 0.760D-03 0.558D-03
 Coeff:     -0.142D-02-0.195D-01-0.507D-01-0.313D+00 0.398D+00 0.985D+00
 Gap=     0.060 Goal=   None    Shift=    0.000
 RMSDP=6.03D-06 MaxDP=7.08D-05 DE=-4.88D-07 OVMax= 2.47D-04

 Cycle  17  Pass 1  IDiag  1:
 E= -323.423417369683     Delta-E=       -0.000000006812 Rises=F Damp=F
 DIIS: error= 4.06D-06 at cycle  13 NSaved=  13.
 NSaved=13 IEnMin=13 EnMin= -323.423417369683     IErMin=13 ErrMin= 4.06D-06
 ErrMax= 4.06D-06  0.00D+00 EMaxC= 1.00D-01 BMatC= 9.47D-10 BMatP= 2.86D-09
 IDIUse=1 WtCom= 1.00D+00 WtEn= 0.00D+00
 Coeff-Com: -0.109D-04-0.486D-05 0.717D-04-0.103D-03-0.284D-03-0.197D-03
 Coeff-Com:  0.488D-03 0.283D-02 0.144D-01-0.192D-01-0.232D-01 0.462D-01
 Coeff-Com:  0.979D+00
 Coeff:     -0.109D-04-0.486D-05 0.717D-04-0.103D-03-0.284D-03-0.197D-03
 Coeff:      0.488D-03 0.283D-02 0.144D-01-0.192D-01-0.232D-01 0.462D-01
 Coeff:      0.979D+00
 Gap=     0.060 Goal=   None    Shift=    0.000
 RMSDP=5.25D-07 MaxDP=7.50D-06 DE=-6.81D-09 OVMax= 1.82D-05

 Cycle  18  Pass 1  IDiag  1:
 E= -323.423417370585     Delta-E=       -0.000000000902 Rises=F Damp=F
 DIIS: error= 1.27D-06 at cycle  14 NSaved=  14.
 NSaved=14 IEnMin=14 EnMin= -323.423417370585     IErMin=14 ErrMin= 1.27D-06
 ErrMax= 1.27D-06  0.00D+00 EMaxC= 1.00D-01 BMatC= 8.84D-11 BMatP= 9.47D-10
 IDIUse=1 WtCom= 1.00D+00 WtEn= 0.00D+00
 Coeff-Com: -0.219D-06 0.673D-06 0.140D-05-0.192D-04-0.461D-04-0.758D-04
 Coeff-Com: -0.242D-03-0.790D-04 0.290D-02 0.152D-01-0.114D-01-0.660D-01
 Coeff-Com: -0.210D-01 0.108D+01
 Coeff:     -0.219D-06 0.673D-06 0.140D-05-0.192D-04-0.461D-04-0.758D-04
 Coeff:     -0.242D-03-0.790D-04 0.290D-02 0.152D-01-0.114D-01-0.660D-01
 Coeff:     -0.210D-01 0.108D+01
 Gap=     0.060 Goal=   None    Shift=    0.000
 RMSDP=1.66D-07 MaxDP=2.29D-06 DE=-9.02D-10 OVMax= 3.72D-06

 Cycle  19  Pass 1  IDiag  1:
 E= -323.423417370671     Delta-E=       -0.000000000087 Rises=F Damp=F
 DIIS: error= 2.71D-08 at cycle  15 NSaved=  15.
 NSaved=15 IEnMin=15 EnMin= -323.423417370671     IErMin=15 ErrMin= 2.71D-08
 ErrMax= 2.71D-08  0.00D+00 EMaxC= 1.00D-01 BMatC= 8.06D-14 BMatP= 8.84D-11
 IDIUse=1 WtCom= 1.00D+00 WtEn= 0.00D+00
 Coeff-Com:  0.390D-07 0.698D-07-0.629D-06 0.139D-05 0.432D-05-0.266D-05
 Coeff-Com: -0.624D-04-0.172D-03-0.155D-03 0.140D-02 0.617D-04-0.855D-02
 Coeff-Com: -0.274D-01 0.147D+00 0.888D+00
 Coeff:      0.390D-07 0.698D-07-0.629D-06 0.139D-05 0.432D-05-0.266D-05
 Coeff:     -0.624D-04-0.172D-03-0.155D-03 0.140D-02 0.617D-04-0.855D-02
 Coeff:     -0.274D-01 0.147D+00 0.888D+00
 Gap=     0.060 Goal=   None    Shift=    0.000
 RMSDP=3.21D-08 MaxDP=4.52D-07 DE=-8.65D-11 OVMax= 1.31D-06

 Cycle  20  Pass 1  IDiag  1:
 E= -323.423417370671     Delta-E=        0.000000000000 Rises=F Damp=F
 DIIS: error= 1.27D-08 at cycle  16 NSaved=  16.
 NSaved=16 IEnMin=16 EnMin= -323.423417370671     IErMin=16 ErrMin= 1.27D-08
 ErrMax= 1.27D-08  0.00D+00 EMaxC= 1.00D-01 BMatC= 1.24D-14 BMatP= 8.06D-14
 IDIUse=1 WtCom= 1.00D+00 WtEn= 0.00D+00
 Coeff-Com:  0.530D-07 0.333D-07-0.525D-06 0.102D-05 0.380D-05 0.221D-06
 Coeff-Com: -0.221D-04-0.728D-04-0.184D-03 0.287D-03 0.203D-03-0.207D-02
 Coeff-Com: -0.123D-01 0.274D-01 0.370D+00 0.617D+00
 Coeff:      0.530D-07 0.333D-07-0.525D-06 0.102D-05 0.380D-05 0.221D-06
 Coeff:     -0.221D-04-0.728D-04-0.184D-03 0.287D-03 0.203D-03-0.207D-02
 Coeff:     -0.123D-01 0.274D-01 0.370D+00 0.617D+00
 Gap=     0.060 Goal=   None    Shift=    0.000
 RMSDP=5.72D-09 MaxDP=8.58D-08 DE=-2.27D-13 OVMax= 2.28D-07

 SCF Done:  E(RB3LYP) =  -323.423417371     A.U. after   20 cycles
            NFock= 20  Conv=0.57D-08     -V/T= 2.0060
 KE= 3.215069550119D+02 PE=-1.246888256453D+03 EE= 3.573855562063D+02
 Leave Link  502 at Wed Apr 13 09:50:41 2016, MaxMem=    33554432 cpu:        16.5
 (Enter /usr/local/gau/g09/l801.exe)
 DoSCS=F DFT=T ScalE2(SS,OS)=  1.000000  1.000000
 Range of M.O.s used for correlation:     1    68
 NBasis=    68 NAE=    24 NBE=    24 NFC=     0 NFV=     0
 NROrb=     68 NOA=    24 NOB=    24 NVA=    44 NVB=    44

 **** Warning!!: The smallest alpha delta epsilon is  0.59980942D-01

 Leave Link  801 at Wed Apr 13 09:50:41 2016, MaxMem=    33554432 cpu:         0.0
 (Enter /usr/local/gau/g09/l1101.exe)
 Using compressed storage, NAtomX=    13.
 Will process     14 centers per pass.
 Leave Link 1101 at Wed Apr 13 09:50:41 2016, MaxMem=    33554432 cpu:         0.1
 (Enter /usr/local/gau/g09/l1102.exe)
 Symmetrizing basis deriv contribution to polar:
 IMax=3 JMax=2 DiffMx= 0.00D+00
 Leave Link 1102 at Wed Apr 13 09:50:41 2016, MaxMem=    33554432 cpu:         0.0
 (Enter /usr/local/gau/g09/l1110.exe)
 Forming Gx(P) for the SCF density, NAtomX=    13.
 Integral derivatives from FoFJK, PRISM(SPDF).
 Do as many integral derivatives as possible in FoFJK.
 G2DrvN: MDV=      33554224.
 G2DrvN: will do    14 centers at a time, making    1 passes.
 Calling FoFCou, ICntrl=  3107 FMM=F I1Cent=   0 AccDes= 0.00D+00.
 FoFJK:  IHMeth= 1 ICntrl=    3107 DoSepK=F KAlg= 0 I1Cent=   0 FoldK=F
 IRaf=         0 NMat=   1 IRICut=       1 DoRegI=T DoRafI=F ISym2E= 0.
 FoFCou: FMM=F IPFlag=           0 FMFlag=      100000 FMFlg1=           0
         NFxFlg=           0 DoJE=F BraDBF=F KetDBF=F FulRan=T
         wScrn=  0.000000 ICntrl=    3107 IOpCl=  0 I1Cent=           0 NGrid=           0
         NMat0=    1 NMatS0=      1 NMatT0=    0 NMatD0=    1 NMtDS0=    0 NMtDT0=    0
 Symmetry not used in FoFCou.
 End of G2Drv F.D. properties file   721 does not exist.
 End of G2Drv F.D. properties file   722 does not exist.
 End of G2Drv F.D. properties file   788 does not exist.
 Leave Link 1110 at Wed Apr 13 09:51:08 2016, MaxMem=    33554432 cpu:        21.1
 (Enter /usr/local/gau/g09/l1002.exe)
 Minotr:  Closed shell wavefunction.
          IDoAtm=1111111111111
          Direct CPHF calculation.
          Differentiating once with respect to nuclear coordinates.
          Requested convergence is 1.0D-08 RMS, and 1.0D-07 maximum.
          Secondary convergence is 1.0D-12 RMS, and 1.0D-12 maximum.
          NewPWx=T KeepS1=F KeepF1=F KeepIn=T MapXYZ=F SortEE=F KeepMc=T.
          MDV=      33554230 using IRadAn=       2.
 Generate precomputed XC quadrature information.
 Keep R1 ints in memory in canonical form, NReq=3645290.
 FoFCou: FMM=F IPFlag=           0 FMFlag=           0 FMFlg1=           0
         NFxFlg=           0 DoJE=F BraDBF=F KetDBF=F FulRan=T
         wScrn=  0.000000 ICntrl=     600 IOpCl=  0 I1Cent=           0 NGrid=           0
         NMat0=    1 NMatS0=   2346 NMatT0=    0 NMatD0=    1 NMtDS0=    0 NMtDT0=    0
 Symmetry not used in FoFCou.
          Solving linear equations simultaneously, MaxMat=       0.
          There are    42 degrees of freedom in the 1st order CPHF.  IDoFFX=6 NUNeed=     0.
     36 vectors produced by pass  0 Test12= 2.51D-15 2.38D-09 XBig12= 2.22D-01 3.56D-01.
 AX will form    36 AO Fock derivatives at one time.
     36 vectors produced by pass  1 Test12= 2.51D-15 2.38D-09 XBig12= 3.32D-02 3.98D-02.
     36 vectors produced by pass  2 Test12= 2.51D-15 2.38D-09 XBig12= 1.99D-04 2.10D-03.
     36 vectors produced by pass  3 Test12= 2.51D-15 2.38D-09 XBig12= 4.67D-07 1.14D-04.
     36 vectors produced by pass  4 Test12= 2.51D-15 2.38D-09 XBig12= 5.57D-10 4.38D-06.
     18 vectors produced by pass  5 Test12= 2.51D-15 2.38D-09 XBig12= 3.39D-13 8.18D-08.
 InvSVY:  IOpt=1 It=  1 EMax= 2.00D-15
 Solved reduced A of dimension   198 with    36 vectors.
 End of Minotr F.D. properties file   721 does not exist.
 End of Minotr F.D. properties file   722 does not exist.
 End of Minotr F.D. properties file   788 does not exist.
 Leave Link 1002 at Wed Apr 13 09:51:30 2016, MaxMem=    33554432 cpu:        14.8
 (Enter /usr/local/gau/g09/l601.exe)
 Copying SCF densities to generalized density rwf, IOpCl= 0 IROHF=0.

 **********************************************************************

            Population analysis using the SCF density.

 **********************************************************************

 Orbital symmetries:
       Occupied  (A) (A) (A) (A) (A) (A) (A) (A) (A) (A) (A) (A)
                 (A) (A) (A) (A) (A) (A) (A) (A) (A) (A) (A) (A)
       Virtual   (A) (A) (A) (A) (A) (A) (A) (A) (A) (A) (A) (A)
                 (A) (A) (A) (A) (A) (A) (A) (A) (A) (A) (A) (A)
                 (A) (A) (A) (A) (A) (A) (A) (A) (A) (A) (A) (A)
                 (A) (A) (A) (A) (A) (A) (A) (A)
 The electronic state is 1-A.
 Alpha  occ. eigenvalues --  -19.16371 -19.12316 -14.36558 -10.27228 -10.22549
 Alpha  occ. eigenvalues --  -10.18583  -1.05061  -0.95853  -0.91353  -0.76683
 Alpha  occ. eigenvalues --   -0.68783  -0.59017  -0.56398  -0.50671  -0.45396
 Alpha  occ. eigenvalues --   -0.44835  -0.41191  -0.39776  -0.38183  -0.36006
 Alpha  occ. eigenvalues --   -0.30703  -0.28533  -0.25288  -0.17516
 Alpha virt. eigenvalues --   -0.11518   0.05183   0.07400   0.07769   0.12056
 Alpha virt. eigenvalues --    0.13343   0.17241   0.17547   0.20591   0.21883
 Alpha virt. eigenvalues --    0.24540   0.37526   0.43199   0.53682   0.55445
 Alpha virt. eigenvalues --    0.57417   0.59614   0.64033   0.65629   0.68200
 Alpha virt. eigenvalues --    0.70373   0.74581   0.75590   0.78669   0.83162
 Alpha virt. eigenvalues --    0.86297   0.87133   0.91683   0.91980   0.94410
 Alpha virt. eigenvalues --    0.95599   0.97105   1.01601   1.04142   1.07933
 Alpha virt. eigenvalues --    1.13260   1.14966   1.21166   1.22100   1.32583
 Alpha virt. eigenvalues --    1.44220   1.55050   1.74400   1.97662
          Condensed to atoms (all electrons):
               1          2          3          4          5          6
     1  N    7.182026   0.318619   0.156432  -0.000098  -0.075861  -0.111494
     2  H    0.318619   0.383526  -0.027368   0.000002  -0.004171   0.007486
     3  C    0.156432  -0.027368   5.475093   0.001770   0.309474   0.319301
     4  H   -0.000098   0.000002   0.001770   0.417412   0.000241  -0.035646
     5  C   -0.075861  -0.004171   0.309474   0.000241   5.135262  -0.005742
     6  C   -0.111494   0.007486   0.319301  -0.035646  -0.005742   5.010938
     7  H    0.004938   0.001339  -0.044325  -0.000081   0.360205  -0.001267
     8  H    0.003851  -0.000047  -0.032692  -0.000414   0.374182  -0.002851
     9  H   -0.000577   0.001741  -0.046139   0.000147   0.367133  -0.000014
    10  O   -0.012384   0.000650  -0.146987   0.002424   0.003285   0.265804
    11  H    0.294305  -0.016618  -0.037193  -0.000016   0.005107   0.000668
    12  O    0.002365  -0.000004  -0.108328   0.234746  -0.005963   0.214725
    13  H    0.040118   0.004061  -0.116059  -0.000113   0.002433   0.063116
               7          8          9         10         11         12
     1  N    0.004938   0.003851  -0.000577  -0.012384   0.294305   0.002365
     2  H    0.001339  -0.000047   0.001741   0.000650  -0.016618  -0.000004
     3  C   -0.044325  -0.032692  -0.046139  -0.146987  -0.037193  -0.108328
     4  H   -0.000081  -0.000414   0.000147   0.002424  -0.000016   0.234746
     5  C    0.360205   0.374182   0.367133   0.003285   0.005107  -0.005963
     6  C   -0.001267  -0.002851  -0.000014   0.265804   0.000668   0.214725
     7  H    0.604828  -0.024233  -0.044266  -0.000014  -0.000097   0.000264
     8  H   -0.024233   0.512897  -0.024201   0.000164  -0.000169   0.010857
     9  H   -0.044266  -0.024201   0.602630  -0.000015  -0.000094   0.000442
    10  O   -0.000014   0.000164  -0.000015   8.355309   0.022475  -0.071923
    11  H   -0.000097  -0.000169  -0.000094   0.022475   0.376959   0.000378
    12  O    0.000264   0.010857   0.000442  -0.071923   0.000378   8.311285
    13  H    0.000039  -0.000098  -0.000157   0.105633   0.007329   0.005389
              13
     1  N    0.040118
     2  H    0.004061
     3  C   -0.116059
     4  H   -0.000113
     5  C    0.002433
     6  C    0.063116
     7  H    0.000039
     8  H   -0.000098
     9  H   -0.000157
    10  O    0.105633
    11  H    0.007329
    12  O    0.005389
    13  H    0.599998
 Mulliken charges:
               1
     1  N   -0.802240
     2  H    0.330784
     3  C    0.297021
     4  H    0.379627
     5  C   -0.465585
     6  C    0.274976
     7  H    0.142669
     8  H    0.182754
     9  H    0.143371
    10  O   -0.524420
    11  H    0.346965
    12  O   -0.594232
    13  H    0.288310
 Sum of Mulliken charges =   0.00000
 Mulliken charges with hydrogens summed into heavy atoms:
               1
     1  N    0.163819
     3  C    0.297021
     5  C    0.003209
     6  C    0.274976
    10  O   -0.524420
    12  O   -0.214605
 APT charges:
               1
     1  N   -1.302832
     2  H    0.727498
     3  C    0.359454
     4  H    0.658315
     5  C   -1.221830
     6  C   -0.050497
     7  H    0.414874
     8  H    0.372181
     9  H    0.430043
    10  O   -0.476541
    11  H    0.539029
    12  O   -0.728862
    13  H    0.279169
 Sum of APT charges =   0.00000
 APT charges with hydrogens summed into heavy atoms:
               1
     1  N    0.242864
     3  C    0.359454
     5  C   -0.004732
     6  C   -0.050497
    10  O   -0.476541
    12  O   -0.070547
 Electronic spatial extent (au):  <R**2>=            606.1758
 Charge=              0.0000 electrons
 Dipole moment (field-independent basis, Debye):
    X=             -3.7934    Y=              0.2645    Z=             -0.6820  Tot=              3.8633
 Quadrupole moment (field-independent basis, Debye-Ang):
   XX=            -34.0198   YY=            -36.0024   ZZ=            -36.0032
   XY=              6.7349   XZ=             -2.7891   YZ=             -3.6896
 Traceless Quadrupole moment (field-independent basis, Debye-Ang):
   XX=              1.3220   YY=             -0.6606   ZZ=             -0.6614
   XY=              6.7349   XZ=             -2.7891   YZ=             -3.6896
 Octapole moment (field-independent basis, Debye-Ang**2):
  XXX=             -4.9895  YYY=             -5.8662  ZZZ=              0.1273  XYY=             -7.6609
  XXY=              5.2643  XXZ=             -9.7988  XZZ=              4.5723  YZZ=             -0.1360
  YYZ=             -2.2325  XYZ=             -5.9776
 Hexadecapole moment (field-independent basis, Debye-Ang**3):
 XXXX=           -352.1483 YYYY=           -277.5021 ZZZZ=            -47.8899 XXXY=             45.0389
 XXXZ=            -13.3444 YYYX=             27.1140 YYYZ=             -4.1778 ZZZX=             -2.4079
 ZZZY=             -2.8589 XXYY=           -113.2191 XXZZ=            -72.5985 YYZZ=            -56.8813
 XXYZ=             -6.9176 YYXZ=             -4.5130 ZZXY=              2.6516
 N-N= 2.445723278644D+02 E-N=-1.246888256569D+03  KE= 3.215069550119D+02
  Exact polarizability:   0.000   0.000   0.000   0.000   0.000   0.000
 Approx polarizability: 142.442  -5.820  85.220 -20.124  -1.163  57.136
 No NMR shielding tensors so no spin-rotation constants.
 Leave Link  601 at Wed Apr 13 09:51:30 2016, MaxMem=    33554432 cpu:         0.1
 (Enter /usr/local/gau/g09/l701.exe)
 Compute integral second derivatives.
 ... and contract with generalized density number  0.
 Leave Link  701 at Wed Apr 13 09:51:30 2016, MaxMem=    33554432 cpu:         0.1
 (Enter /usr/local/gau/g09/l702.exe)
 L702 exits ... SP integral derivatives will be done elsewhere.
 Leave Link  702 at Wed Apr 13 09:51:30 2016, MaxMem=    33554432 cpu:         0.0
 (Enter /usr/local/gau/g09/l703.exe)
 Compute integral second derivatives, UseDBF=F ICtDFT=           0.
 Integral derivatives from FoFJK, PRISM(SPDF).
 Calling FoFJK, ICntrl=    100147 FMM=F ISym2X=0 I1Cent= 0 IOpClX= 0 NMat=1 NMatS=1 NMatT=0.
 FoFJK:  IHMeth= 1 ICntrl=  100147 DoSepK=F KAlg= 0 I1Cent=   0 FoldK=F
 IRaf=         0 NMat=   1 IRICut=       1 DoRegI=T DoRafI=F ISym2E= 0.
 FoFCou: FMM=F IPFlag=           0 FMFlag=      100000 FMFlg1=         800
         NFxFlg=           0 DoJE=F BraDBF=F KetDBF=F FulRan=T
         wScrn=  0.000000 ICntrl=  100147 IOpCl=  0 I1Cent=           0 NGrid=           0
         NMat0=    1 NMatS0=      1 NMatT0=    0 NMatD0=    1 NMtDS0=    0 NMtDT0=    0
 Symmetry not used in FoFCou.
 Leave Link  703 at Wed Apr 13 09:51:56 2016, MaxMem=    33554432 cpu:        21.5
 (Enter /usr/local/gau/g09/l716.exe)
 Dipole        =-1.49244878D+00 1.04047563D-01-2.68327620D-01
 Polarizability= 0.00000000D+00 0.00000000D+00 0.00000000D+00
                 0.00000000D+00 0.00000000D+00 0.00000000D+00
 ***** Axes restored to original set *****
 -------------------------------------------------------------------
 Center     Atomic                   Forces (Hartrees/Bohr)
 Number     Number              X              Y              Z
 -------------------------------------------------------------------
      1        7           0.000487909    0.034042891    0.019430739
      2        1           0.002840639    0.000348215    0.004168852
      3        6           0.005193425   -0.061641354   -0.011270945
      4        1          -0.002773070    0.002196893    0.002420201
      5        6           0.000624459    0.004550031    0.004204655
      6        6          -0.030646110    0.026649991   -0.006259343
      7        1           0.002330277   -0.001760217    0.000568482
      8        1          -0.000579815    0.000825345    0.000009619
      9        1           0.000706644    0.000192658   -0.000857259
     10        8           0.040656836   -0.017833068    0.045492106
     11        1           0.000575409    0.004490400   -0.018639033
     12        8           0.010191765    0.005680814   -0.005828045
     13        1          -0.029608367    0.002257401   -0.033440030
 -------------------------------------------------------------------
 Cartesian Forces:  Max     0.061641354 RMS     0.018845762
 Force constants in Cartesian coordinates: 
                1             2             3             4             5 
      1  0.808917D+00
      2 -0.125762D-01  0.755514D+00
      3  0.597355D-01 -0.466086D-01 -0.354127D-01
      4 -0.469328D+00 -0.292901D-01  0.248253D-01  0.490751D+00
      5 -0.225491D-01 -0.729767D-01  0.291765D-02  0.319420D-01  0.687187D-01
      6  0.550566D-01  0.396011D-02 -0.178288D-01 -0.352327D-01 -0.448025D-02
      7 -0.222751D+00 -0.104279D+00  0.419368D-01 -0.358761D-02 -0.373525D-01
      8 -0.167180D+00 -0.300004D+00  0.615762D-01  0.994708D-02  0.202976D-02
      9 -0.760008D-01 -0.267829D-01  0.523806D-01  0.560336D-02  0.389801D-02
     10  0.562760D-02  0.305559D-02 -0.333783D-02 -0.615703D-03 -0.470684D-03
     11 -0.702047D-03 -0.210370D-02  0.257644D-03  0.174669D-03 -0.256312D-03
     12  0.343129D-03 -0.269725D-02 -0.305581D-03  0.347759D-03  0.158555D-03
     13  0.152850D-01 -0.204696D-01 -0.283484D-02  0.162766D-02 -0.394780D-03
     14  0.273830D-01 -0.386216D-01 -0.477968D-02  0.819717D-03  0.206479D-02
     15 -0.335670D-02 -0.201183D-02  0.647274D-03 -0.424601D-04  0.332139D-03
     16  0.337242D-01  0.299163D-01 -0.450465D-01 -0.416560D-02  0.126375D-03
     17 -0.821688D-01 -0.470604D-01  0.175520D-01  0.430967D-02 -0.631913D-02
     18 -0.459248D-01  0.303505D-02  0.454436D-01  0.506215D-02  0.150739D-02
     19  0.305744D-02 -0.118635D-02 -0.413151D-03  0.200534D-03  0.195306D-03
     20 -0.283104D-02  0.338855D-02  0.108862D-02 -0.294891D-03 -0.562271D-03
     21  0.296361D-02  0.663922D-03 -0.207439D-02 -0.348604D-03  0.714304D-03
     22 -0.389519D-02  0.399989D-02  0.220346D-03 -0.209010D-03  0.207947D-03
     23  0.576543D-02 -0.315351D-02 -0.820203D-03  0.334962D-03  0.406494D-03
     24 -0.106099D-03 -0.429060D-03  0.173931D-02  0.712661D-05 -0.506304D-05
     25  0.282972D-02 -0.846878D-03 -0.261383D-02  0.175880D-03  0.332724D-03
     26 -0.428236D-02  0.233214D-02  0.404482D-02 -0.398085D-03 -0.503632D-03
     27 -0.921872D-03 -0.372095D-03  0.928300D-03  0.352930D-03 -0.913322D-03
     28  0.292360D-01 -0.134139D-02 -0.302208D-01 -0.307740D-02  0.130275D-02
     29 -0.168991D-02  0.317734D-01  0.367473D-02 -0.112896D-02  0.186165D-02
     30  0.394782D-01  0.138574D-01 -0.329120D-01 -0.225345D-02 -0.393663D-03
     31 -0.193638D+00  0.180698D+00 -0.206329D-01 -0.902326D-02  0.286532D-01
     32  0.181905D+00 -0.338582D+00  0.351158D-01 -0.913140D-02  0.871480D-02
     33 -0.483419D-01  0.503143D-01  0.669366D-02  0.348086D-02 -0.316805D-02
     34 -0.206152D-01 -0.101982D-01  0.826322D-02  0.184864D-02 -0.119846D-02
     35 -0.877815D-02 -0.193993D-02  0.323340D-02  0.615548D-03 -0.828635D-04
     36  0.980204D-02  0.480693D-02 -0.182236D-02 -0.121088D-02 -0.104979D-02
     37  0.115498D-01 -0.374818D-01 -0.298813D-01 -0.459723D-02 -0.794852D-03
     38  0.877043D-01  0.114340D-01 -0.772524D-01 -0.790020D-02 -0.309535D-02
     39  0.727309D-02  0.226406D-02 -0.174769D-01 -0.591402D-03  0.482095D-03
                6             7             8             9            10 
      6  0.364905D-02
      7  0.575619D-02  0.856776D+00
      8  0.127709D-01  0.103119D-01  0.594980D+00
      9  0.703573D-02 -0.358468D-01 -0.417015D-01  0.265335D-01
     10 -0.461157D-03  0.389412D-02  0.116351D-03  0.486444D-02  0.154041D+00
     11  0.347706D-03  0.204436D-02 -0.694059D-03 -0.272135D-02  0.642269D-01
     12  0.909390D-04  0.284386D-02  0.416987D-02 -0.185959D-02  0.201879D+00
     13 -0.610554D-03 -0.133926D+00  0.646709D-01  0.275570D-02 -0.102772D-02
     14 -0.102525D-02  0.555245D-01 -0.159675D+00  0.536967D-02 -0.517176D-03
     15  0.374099D-02 -0.323709D-02 -0.219459D-02 -0.728792D-01 -0.585397D-03
     16 -0.844996D-02 -0.486362D+00 -0.209472D-01  0.802188D-01 -0.254938D-01
     17  0.455672D-02 -0.584862D-01 -0.903532D-01 -0.524146D-01 -0.453641D-02
     18  0.623931D-02 -0.595544D-01 -0.421232D-01 -0.756201D-01 -0.121812D-01
     19 -0.667051D-03 -0.200199D-01  0.516212D-02 -0.150879D-01 -0.737213D-04
     20  0.104706D-02  0.210671D-01 -0.450583D-02  0.214973D-01  0.206909D-03
     21 -0.120012D-02  0.846873D-03  0.202711D-02  0.804561D-02 -0.480933D-04
     22 -0.199622D-05  0.126804D-01  0.192125D-01 -0.157993D-03 -0.199683D-03
     23 -0.189075D-03 -0.160713D-01 -0.217648D-01  0.784573D-03  0.190935D-05
     24 -0.633132D-03 -0.688514D-04 -0.857267D-04 -0.221061D-02 -0.496545D-03
     25  0.100705D-03 -0.190856D-01  0.436286D-02  0.172700D-01  0.280399D-04
     26  0.446946D-03  0.184487D-01 -0.547120D-02 -0.271130D-01  0.453435D-03
     27 -0.447907D-03  0.657400D-03 -0.570393D-03  0.501093D-02 -0.723669D-04
     28 -0.551607D-02 -0.246530D-02  0.745005D-01  0.246177D-01 -0.224636D-02
     29  0.121680D-02  0.634647D-02 -0.443918D-01  0.209657D-01 -0.106600D-02
     30 -0.585683D-02  0.342413D-01  0.232711D-01  0.552113D-01 -0.482911D-02
     31 -0.595692D-02  0.119214D-01 -0.157718D-01  0.241279D-02  0.291176D-03
     32 -0.249316D-02  0.208936D-01 -0.219423D-01  0.737418D-02 -0.135594D-03
     33  0.196417D-02 -0.506977D-02 -0.185257D-01 -0.113926D-01  0.454763D-03
     34  0.153239D-02 -0.212062D-01 -0.399219D-01 -0.157227D-01 -0.134280D+00
     35  0.813177D-03 -0.658093D-02 -0.124582D-01 -0.555494D-03 -0.532789D-01
     36  0.561037D-03  0.460894D-02  0.424291D-02  0.118828D-01 -0.185382D+00
     37 -0.554952D-02  0.241313D-01  0.555369D-01  0.507324D-02  0.554551D-04
     38 -0.169717D-01  0.881333D-01  0.642505D-01  0.913995D-01 -0.805642D-02
     39  0.268553D-02  0.128856D-01 -0.285699D-02 -0.213837D-02  0.195865D-03
               11            12            13            14            15 
     11  0.503578D-01
     12  0.523416D-01  0.301795D+00
     13  0.530784D-03  0.443444D-03  0.543036D+00
     14  0.538496D-05 -0.921723D-04  0.620090D-01  0.541781D+00
     15 -0.992043D-03 -0.487788D-03  0.433413D-03 -0.150102D-02  0.531389D+00
     16 -0.336247D-01  0.623561D-02 -0.279841D-01  0.101403D-01  0.500188D-02
     17 -0.172406D-01  0.661039D-02  0.341925D-01  0.366544D-02 -0.205598D-02
     18 -0.307276D-01  0.569512D-02  0.462416D-02  0.318189D-02  0.379956D-02
     19 -0.968807D-04 -0.177416D-03 -0.129322D+00 -0.447659D-02 -0.118871D+00
     20  0.374341D-04 -0.119075D-03 -0.250627D-02 -0.488136D-01 -0.792178D-03
     21  0.698530D-04 -0.891899D-04 -0.118475D+00 -0.288371D-02 -0.214866D+00
     22 -0.127593D-03 -0.751624D-04 -0.129681D+00 -0.130066D+00 -0.567918D-03
     23  0.284344D-03 -0.653742D-04 -0.123134D+00 -0.245877D+00 -0.111115D-02
     24  0.355916D-03  0.941807D-04 -0.111208D-03 -0.532903D-03 -0.495497D-01
     25  0.775510D-04  0.101909D-03 -0.131375D+00 -0.631570D-02  0.120056D+00
     26 -0.125104D-03  0.838805D-04 -0.359019D-02 -0.489474D-01  0.211143D-02
     27  0.586463D-04  0.846368D-04  0.118584D+00  0.511496D-02 -0.211349D+00
     28  0.484749D-02  0.167667D-02 -0.490063D-02 -0.683977D-02  0.146375D-03
     29  0.110084D-03  0.514851D-04 -0.241374D-02  0.611185D-02  0.159520D-02
     30  0.399886D-02  0.192036D-03 -0.418804D-02 -0.143843D-02  0.897453D-02
     31 -0.611708D-04 -0.303061D-03 -0.207026D-02 -0.239276D-02  0.658367D-04
     32 -0.330915D-03 -0.142408D-03 -0.481034D-02 -0.258048D-02  0.478623D-03
     33  0.399167D-03  0.315109D-03  0.226327D-03  0.274540D-03 -0.441418D-03
     34 -0.349635D-01 -0.211406D+00  0.150512D-02 -0.323584D-03  0.792100D-03
     35 -0.340733D-01 -0.618963D-01  0.220334D-02 -0.295681D-02  0.716363D-03
     36 -0.251504D-01 -0.305696D+00 -0.165894D-02 -0.854368D-03 -0.297662D-02
     37 -0.232583D-02 -0.190970D-02 -0.116646D-02 -0.494512D-02  0.165441D-03
     38  0.402890D-02  0.159679D-02 -0.628718D-02 -0.615639D-02  0.542505D-02
     39  0.176202D-02  0.171003D-03  0.811414D-03 -0.833518D-03  0.399837D-02
               16            17            18            19            20 
     16  0.747276D+00
     17  0.171156D+00  0.390305D+00
     18  0.822330D-01 -0.425757D-01  0.745595D-01
     19  0.328506D-02  0.199784D-02 -0.220985D-03  0.146874D+00
     20 -0.107870D-02 -0.411816D-02 -0.147992D-02 -0.291553D-02  0.508725D-01
     21 -0.246829D-03  0.120549D-02  0.139486D-02  0.133104D+00  0.149511D-02
     22  0.448622D-03  0.184516D-02  0.241739D-03 -0.101157D-01 -0.160915D-01
     23 -0.186880D-02 -0.229419D-02  0.566278D-03  0.997083D-03  0.925156D-03
     24  0.236777D-03  0.145015D-03  0.304276D-05 -0.155555D-01 -0.245207D-01
     25  0.254062D-02  0.159945D-02  0.200570D-02  0.110443D-01  0.307535D-03
     26  0.234551D-02 -0.577315D-02 -0.414158D-02 -0.223297D-03  0.849905D-04
     27 -0.217489D-02  0.939505D-03 -0.112718D-02  0.173348D-01  0.158056D-02
     28 -0.162901D+00  0.819890D-01  0.213876D-01 -0.275589D-02  0.300373D-02
     29  0.384166D-01 -0.102257D+00  0.112398D-01  0.238645D-02 -0.156079D-02
     30 -0.670901D-01  0.618301D-01  0.107926D-02  0.877611D-03  0.194609D-03
     31  0.278411D-02 -0.508526D-02 -0.106330D-02 -0.939385D-04  0.182776D-03
     32  0.204699D-02 -0.363577D-02  0.204327D-02 -0.762187D-04  0.266506D-03
     33  0.381344D-02  0.612447D-03 -0.545962D-02  0.448163D-03 -0.772862D-03
     34 -0.116414D+00 -0.989592D-01 -0.984308D-02 -0.437702D-03 -0.402992D-03
     35 -0.768564D-01 -0.189841D+00  0.275183D-01 -0.260191D-03  0.109358D-02
     36 -0.345975D-01  0.230778D-02 -0.513632D-01 -0.325182D-03  0.103165D-02
     37  0.332624D-01 -0.478536D-01  0.132336D-01 -0.164289D-02  0.135290D-02
     38 -0.119772D+00  0.749222D-01  0.719561D-01 -0.150374D-02  0.289196D-02
     39 -0.201338D-01  0.128686D-02 -0.464409D-02 -0.446103D-03 -0.250171D-03
               21            22            23            24            25 
     21  0.235134D+00
     22  0.122383D-02  0.140885D+00
     23  0.656502D-03  0.136064D+00  0.269580D+00
     24  0.176554D-03  0.840484D-03  0.103467D-02  0.498403D-01
     25 -0.168965D-01 -0.975613D-02  0.106646D-02  0.152806D-01  0.148004D+00
     26 -0.858339D-03 -0.153667D-01  0.919687D-03  0.242071D-01 -0.349524D-03
     27 -0.245825D-01 -0.145151D-02 -0.678886D-03  0.491519D-03 -0.133696D+00
     28 -0.160457D-02  0.259625D-03 -0.247121D-03  0.207992D-03 -0.175186D-02
     29  0.624985D-03 -0.450316D-03  0.402793D-03 -0.863567D-05  0.215893D-02
     30 -0.160843D-02 -0.493176D-05 -0.328321D-03  0.697503D-04 -0.106852D-02
     31  0.114926D-03  0.588937D-03 -0.661137D-03 -0.180871D-03 -0.633981D-04
     32  0.843534D-04  0.122672D-02 -0.903580D-03  0.835548D-05 -0.982937D-04
     33  0.468315D-03  0.459419D-04 -0.975929D-04  0.508694D-03  0.321561D-03
     34  0.186153D-03 -0.164557D-02 -0.127980D-02  0.966693D-04 -0.108864D-02
     35 -0.266228D-03 -0.849148D-03  0.266748D-02 -0.403740D-03 -0.285371D-03
     36 -0.248929D-03 -0.111528D-03  0.647121D-05 -0.628643D-03  0.181792D-03
     37 -0.819888D-03  0.639957D-03 -0.967348D-03 -0.150503D-03 -0.150201D-02
     38 -0.353335D-02  0.394701D-03 -0.119342D-02  0.234684D-03 -0.200974D-02
     39 -0.549061D-03 -0.201306D-03  0.242112D-03  0.987635D-04 -0.104307D-02
               26            27            28            29            30 
     26  0.503570D-01
     27 -0.404619D-02  0.231661D+00
     28  0.345454D-02  0.369537D-03  0.132569D+00
     29 -0.508968D-03 -0.125780D-02 -0.986807D-01  0.171426D+00
     30  0.408375D-02 -0.308367D-03 -0.378614D-01 -0.301944D-01 -0.218274D-01
     31  0.726635D-04 -0.148082D-03 -0.107060D-02  0.485773D-02 -0.256779D-03
     32  0.377500D-03 -0.106165D-03  0.159792D-02  0.362877D-02 -0.176394D-02
     33 -0.499106D-03 -0.180269D-03  0.718717D-02 -0.430052D-02  0.206813D-02
     34 -0.156974D-02  0.230920D-03  0.268360D-01  0.126152D-01  0.145017D-01
     35  0.109836D-02 -0.125366D-04 -0.113088D-01 -0.393900D-01  0.175641D-02
     36  0.275441D-03  0.374169D-04  0.376905D-03 -0.335711D-02 -0.119928D-02
     37  0.100513D-02  0.935255D-03 -0.773130D-02  0.386482D-01  0.284535D-01
     38  0.615987D-02  0.263728D-03 -0.522782D-01 -0.272052D-01 -0.748734D-01
     39  0.140482D-02 -0.219192D-03  0.192329D-01 -0.250146D-03 -0.388274D-02
               31            32            33            34            35 
     31  0.187555D+00
     32 -0.189193D+00  0.357778D+00
     33  0.205844D-01 -0.463984D-01  0.141821D-01
     34 -0.601169D-03  0.390090D-03 -0.745147D-03  0.270843D+00
     35  0.642496D-03  0.183239D-02 -0.148907D-02  0.149859D+00  0.275488D+00
     36  0.821421D-03 -0.619389D-03  0.696644D-03  0.207905D+00  0.306876D-01
     37  0.341973D-02 -0.461502D-02  0.175941D-01 -0.474382D-02  0.487780D-02
     38 -0.194085D-02 -0.462280D-02  0.236509D-01  0.259534D-01 -0.143744D-02
     39  0.454252D-02  0.641888D-02 -0.942288D-02  0.420800D-02 -0.101887D-03
               36            37            38            39 
     36  0.348399D+00
     37 -0.410622D-03 -0.516750D-01
     38 -0.123277D-01 -0.243732D-02 -0.119977D+00
     39  0.235810D-02 -0.267336D-01 -0.956813D-02  0.290214D-01
 FormGI is forming the generalized inverse of G from B-inverse, IUseBI=4.
 Leave Link  716 at Wed Apr 13 09:51:56 2016, MaxMem=    33554432 cpu:         0.0
 (Enter /usr/local/gau/g09/l103.exe)

 GradGradGradGradGradGradGradGradGradGradGradGradGradGradGradGradGradGrad
 Berny optimization.
 Red2BG is reusing G-inverse.
 Internal  Forces:  Max     0.040566731 RMS     0.008971907
 Search for a saddle point.
 Step number   1 out of a maximum of   77
 All quantities printed in internal units (Hartrees-Bohrs-Radians)
 Swapping is turned off.
 Second derivative matrix not updated -- analytic derivatives used.
 ITU=  0
     Eigenvalues ---   -0.20719  -0.04691  -0.00127   0.00155   0.00219
     Eigenvalues ---    0.00312   0.00923   0.00991   0.01683   0.02130
     Eigenvalues ---    0.02323   0.03857   0.04310   0.04896   0.04943
     Eigenvalues ---    0.07510   0.11834   0.12756   0.13047   0.15181
     Eigenvalues ---    0.15517   0.16335   0.21383   0.31434   0.32828
     Eigenvalues ---    0.33560   0.35049   0.35676   0.36673   0.43981
     Eigenvalues ---    0.46176   0.48740   0.49666
 Eigenvectors required to have negative eigenvalues:
                          R14       R7        R15       D4        D23
   1                   -0.43584  -0.42109   0.40627   0.23454  -0.20839
                          R4        R16       D18       R6        D3
   1                    0.20428   0.19891   0.16528   0.16502   0.15594
 Eigenvalue     2 is  -4.69D-02 should be greater than     0.000000 Eigenvector:
                          R15       R4        R14       D4        R7
   1                    0.53438  -0.49386   0.23003  -0.20466  -0.20237
                          D3        A3        D24       D13       D14
   1                   -0.17297  -0.16844   0.15279   0.15130   0.14653
 Eigenvalue     3 is  -1.27D-03 should be greater than     0.000000 Eigenvector:
                          D24       D22       D23       R15       D4
   1                    0.57659   0.54890   0.54555   0.11553   0.10330
                          D3        R14       D2        D11       D1
   1                    0.09134   0.09018   0.05568  -0.04571   0.04372
 RFO step:  Lambda0=3.524578564D-03 Lambda=-5.08357877D-02.
 Linear search not attempted -- option 19 set.
 Maximum step size (   0.300) exceeded in Quadratic search.
    -- Step size scaled by   0.292
 Iteration  1 RMS(Cart)=  0.02946712 RMS(Int)=  0.00214771
 Iteration  2 RMS(Cart)=  0.00143732 RMS(Int)=  0.00039249
 Iteration  3 RMS(Cart)=  0.00000186 RMS(Int)=  0.00039249
 Iteration  4 RMS(Cart)=  0.00000000 RMS(Int)=  0.00039249
 ITry= 1 IFail=0 DXMaxC= 1.16D-01 DCOld= 1.00D+10 DXMaxT= 3.00D-01 DXLimC= 3.00D+00 Rises=F
 Variable       Old X    -DE/DX   Delta X   Delta X   Delta X     New X
                                 (Linear)    (Quad)   (Total)
    R1        1.89636   0.00251   0.00000  -0.00113  -0.00113   1.89523
    R2        2.63279   0.03194   0.00000   0.01431   0.01460   2.64739
    R3        1.89992   0.00077   0.00000   0.00036   0.00031   1.90023
    R4        3.40151  -0.00547   0.00000   0.06515   0.06510   3.46660
    R5        2.84087  -0.00119   0.00000  -0.00570  -0.00570   2.83516
    R6        2.54221   0.00974   0.00000   0.01715   0.01687   2.55908
    R7        3.44355   0.00993   0.00000  -0.03584  -0.03520   3.40835
    R8        1.85600  -0.00081   0.00000  -0.00002  -0.00002   1.85597
    R9        2.07561   0.00183   0.00000  -0.00016  -0.00016   2.07545
   R10        2.06050  -0.00039   0.00000   0.00056   0.00056   2.06106
   R11        2.07718   0.00111   0.00000   0.00006   0.00006   2.07724
   R12        2.73555  -0.02522   0.00000  -0.01412  -0.01503   2.72052
   R13        2.64885  -0.01073   0.00000  -0.01190  -0.01190   2.63695
   R14        3.45725  -0.00374   0.00000  -0.15160  -0.15170   3.30555
   R15        3.56191  -0.04057   0.00000  -0.21618  -0.21551   3.34640
   R16        3.30619   0.00627   0.00000   0.05883   0.05842   3.36461
    A1        2.10258  -0.00213   0.00000   0.00440   0.00469   2.10727
    A2        2.07788   0.00200   0.00000   0.00652   0.00593   2.08381
    A3        2.52961  -0.00139   0.00000   0.03773   0.03733   2.56694
    A4        2.08053  -0.00174   0.00000  -0.01221  -0.01197   2.06856
    A5        2.03345   0.00732   0.00000  -0.00790  -0.00867   2.02477
    A6        2.10966  -0.01711   0.00000  -0.01569  -0.01505   2.09461
    A7        2.14004   0.00977   0.00000   0.02366   0.02376   2.16380
    A8        2.44196   0.00341   0.00000   0.02556   0.02579   2.46775
    A9        1.93153   0.00376   0.00000   0.00312   0.00312   1.93465
   A10        1.93081  -0.00188   0.00000   0.00216   0.00215   1.93296
   A11        1.93804  -0.00060   0.00000  -0.00656  -0.00655   1.93148
   A12        1.88943  -0.00064   0.00000   0.00006   0.00005   1.88948
   A13        1.87473  -0.00134   0.00000   0.00011   0.00011   1.87484
   A14        1.89759   0.00069   0.00000   0.00118   0.00118   1.89877
   A15        2.05881   0.00408   0.00000  -0.00199  -0.00226   2.05655
   A16        2.16418  -0.00918   0.00000  -0.01247  -0.01251   2.15168
   A17        2.06019   0.00513   0.00000   0.01450   0.01472   2.07492
   A18        2.35967   0.00386   0.00000   0.00234   0.00286   2.36253
   A19        1.93088  -0.00014   0.00000   0.00158   0.00158   1.93246
   A20        1.43178   0.00794   0.00000   0.02535   0.02493   1.45671
   A21        1.67947   0.00709   0.00000   0.03803   0.03788   1.71735
   A22        1.40379   0.00465   0.00000   0.06171   0.06317   1.46696
   A23        1.24137   0.00661   0.00000  -0.00419  -0.00435   1.23702
   A24        1.61939  -0.00010   0.00000   0.01828   0.01850   1.63789
   A25        1.42626   0.00031   0.00000   0.01902   0.01893   1.44519
    D1        0.10954  -0.00199   0.00000  -0.01063  -0.01041   0.09913
    D2       -3.04060  -0.00392   0.00000  -0.00181  -0.00176  -3.04236
    D3        3.02427  -0.01115   0.00000  -0.01630  -0.01633   3.00794
    D4       -0.12587  -0.01308   0.00000  -0.00749  -0.00767  -0.13355
    D5       -2.41907  -0.00240   0.00000   0.02396   0.02535  -2.39372
    D6        3.10121  -0.00036   0.00000  -0.01453  -0.01543   3.08578
    D7        1.03078  -0.00285   0.00000   0.02131   0.02139   1.05217
    D8        3.12490  -0.00243   0.00000   0.02483   0.02491  -3.13337
    D9       -1.04963  -0.00322   0.00000   0.02339   0.02347  -1.02616
   D10       -2.10210  -0.00074   0.00000   0.01254   0.01257  -2.08953
   D11       -0.00799  -0.00032   0.00000   0.01606   0.01610   0.00811
   D12        2.10067  -0.00112   0.00000   0.01462   0.01465   2.11532
   D13       -0.44150   0.00337   0.00000  -0.03512  -0.03524  -0.47673
   D14        1.65262   0.00379   0.00000  -0.03160  -0.03171   1.62091
   D15       -2.52191   0.00299   0.00000  -0.03305  -0.03316  -2.55506
   D16        0.11445  -0.01252   0.00000  -0.03635  -0.03653   0.07792
   D17       -3.03040  -0.00232   0.00000  -0.02306  -0.02294  -3.05334
   D18       -3.03622  -0.01460   0.00000  -0.02716  -0.02733  -3.06356
   D19        0.10211  -0.00439   0.00000  -0.01388  -0.01375   0.08837
   D20       -2.57138   0.00041   0.00000   0.01073   0.01032  -2.56106
   D21        2.23790   0.00250   0.00000   0.01008   0.01077   2.24867
   D22       -2.06781  -0.00605   0.00000  -0.05209  -0.05222  -2.12002
   D23        1.07053   0.00416   0.00000  -0.03882  -0.03852   1.03201
   D24        2.60397  -0.00543   0.00000  -0.08674  -0.08690   2.51706
   D25        2.51311   0.00031   0.00000   0.00792   0.00789   2.52100
   D26        3.05661   0.00329   0.00000  -0.00179  -0.00167   3.05494
         Item               Value     Threshold  Converged?
 Maximum Force            0.040567     0.000450     NO 
 RMS     Force            0.008972     0.000300     NO 
 Maximum Displacement     0.116117     0.001800     NO 
 RMS     Displacement     0.029865     0.001200     NO 
 Predicted change in Energy=-1.362034D-02
 Lowest energy point so far.  Saving SCF results.
 GradGradGradGradGradGradGradGradGradGradGradGradGradGradGradGradGradGrad

 Leave Link  103 at Wed Apr 13 09:51:56 2016, MaxMem=    33554432 cpu:         0.0
 (Enter /usr/local/gau/g09/l202.exe)
                          Input orientation:                          
 ---------------------------------------------------------------------
 Center     Atomic      Atomic             Coordinates (Angstroms)
 Number     Number       Type             X           Y           Z
 ---------------------------------------------------------------------
      1          7           0        1.142619    1.016978    0.097883
      2          1           0        2.138920    1.098501    0.016838
      3          6           0        0.523647   -0.239742    0.085297
      4          1           0       -2.096224   -1.668945   -0.611374
      5          6           0        1.442532   -1.425711    0.078846
      6          6           0       -0.827584   -0.329247    0.079556
      7          1           0        2.080869   -1.430442    0.972563
      8          1           0        0.873028   -2.355704    0.060747
      9          1           0        2.104535   -1.398776   -0.798265
     10          8           0       -1.581797    0.893567   -0.012330
     11          1           0        0.569629    1.835542   -0.015184
     12          8           0       -1.515194   -1.540119    0.169909
     13          1           0       -0.306367    0.893974    1.216145
 ---------------------------------------------------------------------
                    Distance matrix (angstroms):
                    1          2          3          4          5
     1  N    0.000000
     2  H    1.002911   0.000000
     3  C    1.400938   2.098735   0.000000
     4  H    4.267004   5.098025   3.064587   0.000000
     5  C    2.461105   2.619246   1.500305   3.613635   0.000000
     6  C    2.386285   3.292802   1.354204   1.970183   2.521043
     7  H    2.763194   2.704133   2.151731   4.473683   1.098283
     8  H    3.383643   3.679123   2.144753   3.120872   1.090665
     9  H    2.750314   2.627159   2.150174   4.213585   1.099226
    10  O    2.729436   3.726471   2.393076   2.681408   3.812339
    11  H    1.005559   1.734050   2.078223   4.443381   3.377361
    12  O    3.688889   4.509801   2.419714   0.982138   2.961338
    13  H    1.834448   2.731227   1.803622   3.621045   3.119781
                    6          7          8          9         10
     6  C    0.000000
     7  H    3.235612   0.000000
     8  H    2.645555   1.773808   0.000000
     9  H    3.242188   1.771269   1.780512   0.000000
    10  O    1.439637   4.448163   4.072993   4.411527   0.000000
    11  H    2.578273   3.731774   4.202899   3.664691   2.348608
    12  O    1.395415   3.686184   2.526005   3.749637   2.441408
    13  H    1.749221   3.340829   3.645041   3.889344   1.770840
                   11         12         13
    11  H    0.000000
    12  O    3.971881   0.000000
    13  H    1.780475   2.912161   0.000000
 Stoichiometry    C3H7NO2
 Framework group  C1[X(C3H7NO2)]
 Deg. of freedom    33
 Full point group                 C1      NOp   1
 RotChk:  IX=0 Diff= 2.70D-02
 Largest Abelian subgroup         C1      NOp   1
 Largest concise Abelian subgroup C1      NOp   1
                         Standard orientation:                         
 ---------------------------------------------------------------------
 Center     Atomic      Atomic             Coordinates (Angstroms)
 Number     Number       Type             X           Y           Z
 ---------------------------------------------------------------------
      1          7           0       -1.311934   -1.213448   -0.017061
      2          1           0       -2.310002   -1.235505   -0.112994
      3          6           0       -0.619797    0.004563   -0.012368
      4          1           0        2.089819    1.280515   -0.661694
      5          6           0       -1.466935    1.242760   -0.024170
      6          6           0        0.734298    0.014123    0.001958
      7          1           0       -2.117018    1.280018    0.860267
      8          1           0       -0.843365    2.137576   -0.027876
      9          1           0       -2.116341    1.260057   -0.910889
     10          8           0        1.416349   -1.250557   -0.087182
     11          1           0       -0.786614   -2.063763   -0.127302
     12          8           0        1.490721    1.181718    0.110261
     13          1           0        0.125102   -1.182731    1.122757
 ---------------------------------------------------------------------
 Rotational constants (GHZ):      4.7285694      3.3241676      2.0080082
 Leave Link  202 at Wed Apr 13 09:51:56 2016, MaxMem=    33554432 cpu:         0.0
 (Enter /usr/local/gau/g09/l301.exe)
 Standard basis: 6-31G (6D, 7F)
 Ernie: Thresh=  0.10000D-02 Tol=  0.10000D-05 Strict=F.
 There are    68 symmetry adapted cartesian basis functions of A   symmetry.
 There are    68 symmetry adapted basis functions of A   symmetry.
    68 basis functions,   160 primitive gaussians,    68 cartesian basis functions
    24 alpha electrons       24 beta electrons
       nuclear repulsion energy       244.7767473521 Hartrees.
 IExCor=  402 DFT=T Ex+Corr=B3LYP ExCW=0 ScaHFX=  0.200000
 ScaDFX=  0.800000  0.720000  1.000000  0.810000 ScalE2=  1.000000  1.000000
 IRadAn=      0 IRanWt=     -1 IRanGd=            0 ICorTp=0 IEmpDi=  4
 NAtoms=   13 NActive=   13 NUniq=   13 SFac= 1.00D+00 NAtFMM=   60 NAOKFM=F Big=F
 Integral buffers will be    131072 words long.
 Raffenetti 2 integral format.
 Two-electron integral symmetry is turned on.
 Leave Link  301 at Wed Apr 13 09:51:56 2016, MaxMem=    33554432 cpu:         0.0
 (Enter /usr/local/gau/g09/l302.exe)
 NPDir=0 NMtPBC=     1 NCelOv=     1 NCel=       1 NClECP=     1 NCelD=      1
         NCelK=      1 NCelE2=     1 NClLst=     1 CellRange=     0.0.
 One-electron integrals computed using PRISM.
 NBasis=    68 RedAO= T EigKep=  2.86D-03  NBF=    68
 NBsUse=    68 1.00D-06 EigRej= -1.00D+00 NBFU=    68
 Precomputing XC quadrature grid using
 IXCGrd= 4 IRadAn=           0 IRanWt=          -1 IRanGd=           0 AccXCQ= 0.00D+00.
 Generated NRdTot=       0 NPtTot=           0 NUsed=           0 NTot=          32
 NSgBfM=    68    68    68    68    68 MxSgAt=    13 MxSgA2=    13.
 Leave Link  302 at Wed Apr 13 09:51:56 2016, MaxMem=    33554432 cpu:         0.2
 (Enter /usr/local/gau/g09/l303.exe)
 DipDrv:  MaxL=1.
 Leave Link  303 at Wed Apr 13 09:51:56 2016, MaxMem=    33554432 cpu:         0.0
 (Enter /usr/local/gau/g09/l401.exe)
 Initial guess from the checkpoint file:  "Ala-S-opt-freq-tsa3-6-31g.chk"
 B after Tr=     0.000000    0.000000    0.000000
         Rot=    0.999971    0.001239   -0.001223   -0.007454 Ang=   0.88 deg.
 Guess basis will be translated and rotated to current coordinates.
 JPrj=2 DoOrth=T DoCkMO=T.
 Generating alternative initial guess.
 ExpMin= 1.61D-01 ExpMax= 5.48D+03 ExpMxC= 8.25D+02 IAcc=1 IRadAn=         1 AccDes= 0.00D+00
 Harris functional with IExCor=  402 and IRadAn=       1 diagonalized for initial guess.
 HarFok:  IExCor=  402 AccDes= 0.00D+00 IRadAn=         1 IDoV= 1 UseB2=F ITyADJ=14
 ICtDFT=  3500011 ScaDFX=  1.000000  1.000000  1.000000  1.000000
 FoFCou: FMM=F IPFlag=           0 FMFlag=      100000 FMFlg1=           0
         NFxFlg=           0 DoJE=T BraDBF=F KetDBF=T FulRan=T
         wScrn=  0.000000 ICntrl=     500 IOpCl=  0 I1Cent=   200000004 NGrid=           0
         NMat0=    1 NMatS0=      1 NMatT0=    0 NMatD0=    1 NMtDS0=    0 NMtDT0=    0
 Petite list used in FoFCou.
 Harris En= -323.519341504392    
 Leave Link  401 at Wed Apr 13 09:51:57 2016, MaxMem=    33554432 cpu:         0.4
 (Enter /usr/local/gau/g09/l502.exe)
 Closed shell SCF:
 Using DIIS extrapolation, IDIIS=  1040.
 Integral symmetry usage will be decided dynamically.
 Keep R1 ints in memory in canonical form, NReq=3676491.
 IVT=       33364 IEndB=       33364 NGot=    33554432 MDV=    30768038
 LenX=    30768038 LenY=    30762973
 Requested convergence on RMS density matrix=1.00D-08 within 128 cycles.
 Requested convergence on MAX density matrix=1.00D-06.
 Requested convergence on             energy=1.00D-06.
 No special actions if energy rises.
 FoFCou: FMM=F IPFlag=           0 FMFlag=           0 FMFlg1=           0
         NFxFlg=           0 DoJE=F BraDBF=F KetDBF=F FulRan=T
         wScrn=  0.000000 ICntrl=     600 IOpCl=  0 I1Cent=           0 NGrid=           0
         NMat0=    1 NMatS0=   2346 NMatT0=    0 NMatD0=    1 NMtDS0=    0 NMtDT0=    0
 Symmetry not used in FoFCou.
[...]
     37  0.380542D-02 -0.430127D-03  0.187929D-02 -0.766311D-02 -0.572315D-02
     38 -0.804810D-02  0.590307D-03  0.243665D-02  0.807788D-02 -0.177887D-01
     39  0.267697D-02  0.446488D-03 -0.111956D-02 -0.842372D-02 -0.588629D-02
               36            37            38            39 
     36  0.433638D-01
     37 -0.107235D-01  0.134328D-01
     38 -0.129778D-01  0.341640D-01 -0.218964D-01
     39  0.573636D-03 -0.450361D-01  0.570228D-01  0.177994D+00
 FormGI is forming the generalized inverse of G from B-inverse, IUseBI=4.
 Leave Link  716 at Wed Apr 13 10:04:06 2016, MaxMem=    33554432 cpu:         0.0
 (Enter /usr/local/gau/g09/l103.exe)

 GradGradGradGradGradGradGradGradGradGradGradGradGradGradGradGradGradGrad
 Berny optimization.
 Red2BG is reusing G-inverse.
 Internal  Forces:  Max     0.000014372 RMS     0.000003264
 Search for a saddle point.
 Step number   1 out of a maximum of    2
 All quantities printed in internal units (Hartrees-Bohrs-Radians)
 Swapping is turned off.
 Second derivative matrix not updated -- analytic derivatives used.
 ITU=  0
     Eigenvalues ---   -0.07887   0.00032   0.00206   0.00502   0.00727
     Eigenvalues ---    0.01006   0.01280   0.01830   0.02558   0.03118
     Eigenvalues ---    0.04779   0.04842   0.05702   0.07189   0.08955
     Eigenvalues ---    0.11283   0.11888   0.13103   0.15253   0.15295
     Eigenvalues ---    0.16423   0.16887   0.19858   0.31542   0.33099
     Eigenvalues ---    0.33379   0.34417   0.35789   0.39300   0.41209
     Eigenvalues ---    0.43799   0.48887   0.48911
 Eigenvectors required to have negative eigenvalues:
                          R15       R14       D24       R7        D23
   1                   -0.69665   0.37848  -0.23919   0.22073   0.21583
                          D16       D18       A25       D25       R6
   1                   -0.16657  -0.16492   0.13271   0.12680  -0.12568
 Angle between quadratic step and forces=  81.46 degrees.
 Linear search not attempted -- option 19 set.
 Iteration  1 RMS(Cart)=  0.00092367 RMS(Int)=  0.00000087
 Iteration  2 RMS(Cart)=  0.00000090 RMS(Int)=  0.00000002
 ITry= 1 IFail=0 DXMaxC= 3.85D-03 DCOld= 1.00D+10 DXMaxT= 3.00D-01 DXLimC= 3.00D+00 Rises=F
 Variable       Old X    -DE/DX   Delta X   Delta X   Delta X     New X
                                 (Linear)    (Quad)   (Total)
    R1        1.90055   0.00000   0.00000  -0.00001  -0.00001   1.90054
    R2        2.56974   0.00001   0.00000   0.00004   0.00004   2.56977
    R3        1.91354   0.00000   0.00000  -0.00001  -0.00001   1.91353
    R4        5.07923   0.00001   0.00000   0.00011   0.00011   5.07933
    R5        2.82747   0.00000   0.00000   0.00000   0.00000   2.82746
    R6        2.63999   0.00000   0.00000  -0.00004  -0.00004   2.63995
    R7        4.06798  -0.00001   0.00000  -0.00005  -0.00005   4.06793
    R8        1.84666   0.00000   0.00000   0.00000   0.00000   1.84666
    R9        2.07691   0.00000   0.00000  -0.00002  -0.00002   2.07689
   R10        2.06007   0.00000   0.00000   0.00000   0.00000   2.06007
   R11        2.07578   0.00000   0.00000   0.00002   0.00002   2.07580
   R12        2.78035   0.00000   0.00000   0.00001   0.00001   2.78035
   R13        2.66661   0.00000   0.00000  -0.00001  -0.00001   2.66661
   R14        2.30327   0.00000   0.00000  -0.00003  -0.00003   2.30324
   R15        2.53554   0.00000   0.00000  -0.00006  -0.00006   2.53548
   R16        4.88254   0.00000   0.00000   0.00004   0.00004   4.88258
    A1        2.13839   0.00000   0.00000  -0.00005  -0.00005   2.13834
    A2        2.10312   0.00000   0.00000   0.00003   0.00003   2.10315
    A3        2.58169   0.00000   0.00000   0.00038   0.00038   2.58208
    A4        2.04123   0.00000   0.00000   0.00002   0.00002   2.04126
    A5        2.09474   0.00000   0.00000  -0.00002  -0.00002   2.09472
    A6        2.03662   0.00000   0.00000   0.00009   0.00009   2.03672
    A7        2.15095   0.00000   0.00000  -0.00006  -0.00006   2.15089
    A8        2.32651   0.00000   0.00000   0.00011   0.00011   2.32662
    A9        1.95093   0.00000   0.00000  -0.00002  -0.00002   1.95090
   A10        1.92532   0.00000   0.00000   0.00005   0.00005   1.92536
   A11        1.92419   0.00000   0.00000  -0.00001  -0.00001   1.92418
   A12        1.90038   0.00000   0.00000   0.00006   0.00006   1.90044
   A13        1.87442   0.00000   0.00000   0.00002   0.00002   1.87445
   A14        1.88675   0.00000   0.00000  -0.00010  -0.00010   1.88665
   A15        2.08740   0.00000   0.00000   0.00001   0.00001   2.08741
   A16        2.05683   0.00000   0.00000  -0.00005  -0.00005   2.05679
   A17        2.04437   0.00000   0.00000   0.00002   0.00002   2.04439
   A18        2.07632   0.00000   0.00000   0.00007   0.00007   2.07639
   A19        1.87726   0.00000   0.00000   0.00000   0.00000   1.87727
   A20        1.06011   0.00000   0.00000   0.00001   0.00001   1.06012
   A21        1.35912   0.00000   0.00000   0.00005   0.00005   1.35917
   A22        1.52101   0.00000   0.00000   0.00002   0.00002   1.52104
   A23        0.86837   0.00000   0.00000   0.00001   0.00001   0.86838
   A24        1.24420   0.00000   0.00000   0.00008   0.00008   1.24428
   A25        1.07584   0.00000   0.00000   0.00012   0.00012   1.07597
    D1       -0.16909   0.00000   0.00000   0.00024   0.00024  -0.16886
    D2        2.92911   0.00000   0.00000   0.00049   0.00049   2.92959
    D3        3.00428   0.00000   0.00000  -0.00004  -0.00004   3.00424
    D4       -0.18070   0.00000   0.00000   0.00021   0.00021  -0.18049
    D5       -2.18303   0.00000   0.00000   0.00049   0.00049  -2.18254
    D6        2.81470   0.00000   0.00000   0.00049   0.00049   2.81518
    D7        0.92262   0.00000   0.00000  -0.00233  -0.00233   0.92029
    D8        3.03973   0.00000   0.00000  -0.00224  -0.00224   3.03749
    D9       -1.16092   0.00000   0.00000  -0.00234  -0.00234  -1.16325
   D10       -2.17262   0.00000   0.00000  -0.00260  -0.00260  -2.17522
   D11       -0.05551   0.00000   0.00000  -0.00251  -0.00251  -0.05802
   D12        2.02703   0.00000   0.00000  -0.00261  -0.00261   2.02442
   D13       -1.48926   0.00000   0.00000  -0.00266  -0.00266  -1.49192
   D14        0.62785   0.00000   0.00000  -0.00257  -0.00257   0.62528
   D15        2.71039   0.00000   0.00000  -0.00266  -0.00266   2.70772
   D16        0.13288   0.00000   0.00000   0.00002   0.00002   0.13290
   D17        2.80836   0.00000   0.00000  -0.00001  -0.00001   2.80835
   D18       -3.05364   0.00000   0.00000   0.00028   0.00028  -3.05335
   D19       -0.37815   0.00000   0.00000   0.00025   0.00025  -0.37790
   D20       -2.53167   0.00000   0.00000   0.00032   0.00032  -2.53135
   D21        2.80056   0.00000   0.00000   0.00016   0.00016   2.80072
   D22       -3.03354   0.00000   0.00000  -0.00064  -0.00064  -3.03417
   D23       -0.34652   0.00000   0.00000  -0.00067  -0.00067  -0.34720
   D24        0.83576   0.00000   0.00000  -0.00067  -0.00067   0.83509
   D25        2.91475   0.00000   0.00000  -0.00003  -0.00003   2.91472
   D26       -2.99767   0.00000   0.00000  -0.00010  -0.00010  -2.99776
         Item               Value     Threshold  Converged?
 Maximum Force            0.000014     0.000450     YES
 RMS     Force            0.000003     0.000300     YES
 Maximum Displacement     0.003851     0.001800     NO 
 RMS     Displacement     0.000924     0.001200     YES
 Predicted change in Energy=-1.525795D-08
 GradGradGradGradGradGradGradGradGradGradGradGradGradGradGradGradGradGrad

 Leave Link  103 at Wed Apr 13 10:04:06 2016, MaxMem=    33554432 cpu:         0.0
 (Enter /usr/local/gau/g09/l9999.exe)

 Test job not archived.
 1\1\GINC-KALI\Freq\RB3LYP\6-31G\C3H7N1O2\ROOT\13-Apr-2016\0\\#P Geom=A
 llCheck Guess=TCheck SCRF=Check Test GenChk RB3LYP/6-31G Freq\\Ala-S-o
 pt-freq-tsa3-6-31g\\0,1\N,1.2344778578,1.019530919,0.0042557219\H,2.22
 18439481,1.1700227469,0.1223609918\C,0.6708256146,-0.2164561331,0.0659
 997682\H,-2.3238418513,-1.3189403829,-0.1813142728\C,1.5392823967,-1.4
 343745596,0.1001258943\C,-0.7228403184,-0.2671486318,0.1484457793\H,2.
 2928500464,-1.3756561975,0.8980047685\H,0.9329087023,-2.327399557,0.25
 2539243\H,2.0765574455,-1.5449638815,-0.8515632477\O,-1.50534096,0.969
 3663795,-0.0046412811\H,0.6089013376,1.8025886603,-0.1400975463\O,-1.3
 598494158,-1.4785445709,-0.1950259579\H,-1.1171606334,0.3518515686,1.1
 215399987\\Version=ES64L-G09RevD.01\State=1-A\HF=-323.5135361\RMSD=8.8
 77e-09\RMSF=6.556e-06\ZeroPoint=0.101322\Thermal=0.1085857\Dipole=1.30
 43195,-0.0703142,0.4501351\DipoleDeriv=-0.6566728,-0.1617196,0.1438226
 ,-0.8834032,-0.7204848,0.0750864,0.1129468,-0.0134737,-0.7404733,0.198
 2965,0.0150322,-0.0371075,0.0015501,0.2200013,0.0272829,-0.0948005,0.0
 208648,0.3845898,0.9841866,0.0556047,-0.225359,0.7684909,0.5686868,-0.
 0956139,-0.3080287,-0.1111651,0.1745396,0.2286704,0.063894,0.0100467,0
 .1978194,0.3022913,-0.0334628,0.048126,-0.0352166,0.383551,0.0588877,0
 .0735499,0.0354138,-0.0699692,-0.0699828,0.0076393,0.1160876,-0.031404
 1,0.1091307,-0.1368516,0.2880915,0.2087668,0.7165231,0.6905853,0.21388
 99,1.3147223,0.1406044,-0.0149302,-0.0784546,0.0337741,-0.1083613,0.00
 28461,0.0411691,-0.0452079,-0.1502289,0.0073038,-0.0262058,0.069981,-0
 .0780191,0.0139498,-0.0205378,0.0028994,0.0159271,0.0086824,0.0293579,
 0.1028127,-0.0194938,0.0561892,0.0847383,0.0564864,0.0495388,0.0118357
 ,0.1029395,-0.0146802,-0.0574677,-0.8399783,0.1292589,0.0656497,0.5904
 734,-0.7491602,-0.1663836,-0.8301999,0.1892248,-0.3078116,0.1016669,0.
 057773,-0.0067962,0.0220918,0.2276305,-0.0003867,0.0272662,0.0025736,0
 .3747227,-0.4682437,-0.3371124,-0.1297396,-0.6315284,-0.8418036,-0.082
 5489,-0.3801018,-0.0826458,-0.5041993,0.5580057,-0.1963163,-0.055024,-
 0.7508426,0.278629,0.0719426,0.0325891,-0.1013438,0.1217414\Polar=73.1
 269713,-2.5288412,49.8895932,-1.4987695,0.8383201,27.9697974\PG=C01 [X
 (C3H7N1O2)]\NImag=1\\0.88289340,0.00710097,0.76531783,0.08807614,-0.07
 009398,0.06632178,-0.45521776,-0.05235811,-0.05211517,0.47207989,-0.05
 110877,-0.08283422,0.00235002,0.06258590,0.07598221,-0.05484317,0.0017
 6390,-0.01389913,0.05448597,0.00010878,0.01506970,-0.18105576,-0.08740
 799,-0.00428786,-0.01082533,-0.03923880,-0.00015183,0.74877594,-0.1010
 1757,-0.34415442,0.01566384,0.00121491,-0.00082491,-0.00032318,0.02900
 654,0.70520280,0.00051200,0.00894493,-0.04514023,0.00030774,-0.0039864
 7,-0.00266813,0.00781844,-0.01013957,0.16773949,0.00078465,0.00276253,
 -0.00065500,-0.00005992,-0.00016435,0.00028666,-0.00163622,-0.00376192
 ,-0.00030218,0.47851979,-0.00102639,0.00175668,-0.00006727,-0.00027148
 ,-0.00048940,0.00021378,-0.00223106,-0.00856713,-0.00117939,-0.0521232
 8,0.05404681,0.00011417,0.00034590,0.00107850,-0.00000371,0.00011450,0
 .00075618,0.00125610,-0.00010211,-0.00043649,0.00035331,0.01407683,0.0
 0724783,0.01448990,-0.01365299,-0.00013836,0.00119955,0.00024935,0.001
 23373,-0.14059118,0.06233045,-0.00059467,0.00040994,0.00053213,-0.0003
 4505,0.54967086,0.02331101,-0.03707715,0.00200163,0.00089606,0.0024523
 2,0.00026276,0.05602430,-0.17767696,0.00449511,0.00014433,-0.00038942,
 -0.00007295,0.05354295,0.54501005,-0.00170529,0.00106083,0.00308630,0.
 00069684,-0.00073105,-0.00104010,-0.01061281,0.00566024,-0.07303335,-0
 .00004805,0.00007473,-0.00058106,-0.00209632,-0.00708500,0.53439429,-0
 .03996256,-0.03868411,0.00661728,0.00301416,0.00113898,0.00195987,-0.3
 3964785,-0.00124782,0.00012782,-0.02579250,-0.05032957,-0.01302371,-0.
 01632008,0.00941863,0.01189504,0.63502098,-0.04080408,0.00105740,0.002
 54002,-0.00132091,-0.00586661,0.00198735,-0.03594464,-0.09619155,0.008
 25095,0.00582102,-0.00693277,0.00044813,0.02670258,0.00352203,-0.00578
 642,0.10353219,0.41779376,0.02278488,0.04817183,0.00489778,-0.00614773
 ,-0.00033147,0.00613421,-0.05381377,-0.03085829,-0.05174154,-0.0015633
 4,-0.00668487,-0.00234127,-0.00126525,0.00029561,0.00470421,0.06442683
 ,0.03304085,0.17533086,0.00162665,-0.00154761,0.00155609,0.00041251,0.
 00055073,-0.00087542,-0.02104116,0.00176057,-0.01329427,0.00009623,0.0
 0029895,-0.00018405,-0.16203866,-0.01376427,-0.12570598,0.00365205,0.0
 0137340,-0.00117986,0.18105517,-0.00022693,0.00224193,-0.00119614,-0.0
 0080327,-0.00063098,0.00046461,0.02592154,-0.00033831,0.02195693,-0.00
 017839,0.00017150,-0.00009600,-0.01207256,-0.05147377,-0.01056240,-0.0
 0297806,-0.00304664,-0.00023595,0.00897642,0.05347400,0.00046158,0.000
 48290,0.00056126,-0.00028408,0.00091912,-0.00032576,0.00088683,-0.0009
 2886,0.00254401,0.00012131,0.00002753,0.00004520,-0.12601785,-0.011878
 94,-0.18185609,0.00095339,0.00012613,0.00020315,0.14067751,0.01358506,
 0.19858309,-0.00354486,0.00356694,-0.00021206,-0.00015232,0.00013486,-
 0.00010782,0.01395562,0.02002995,-0.00383567,0.00008029,-0.00033052,-0
 .00002315,-0.13797651,-0.13153339,0.02257751,0.00002397,0.00186716,0.0
 0141916,-0.01185925,-0.01761156,0.00453719,0.14871408,0.00520196,-0.00
 263251,0.00038956,0.00029805,0.00041503,0.00021306,-0.01898382,-0.0247
 8026,0.00466252,-0.00022435,0.00057956,0.00000292,-0.12360202,-0.23397
 839,0.03189535,-0.00043362,-0.00175598,-0.00191071,0.00025223,-0.00030
 855,0.00065495,0.13648302,0.25793227,-0.00018231,0.00007030,0.00153319
 ,0.00003890,0.00008134,-0.00063395,0.00097518,-0.00085850,-0.00147713,
 0.00015674,-0.00025700,-0.00001721,0.02096483,0.03242146,-0.05523684,-
 0.00008635,0.00080914,0.00062122,-0.01470021,-0.02184139,0.00384305,-0
 .02457474,-0.03512550,0.05569933,0.00098906,-0.00157528,-0.00098099,0.
 00025169,0.00001038,0.00043426,-0.01438456,0.00497259,0.01794479,0.000
 08217,0.00012811,0.00012941,-0.10439856,0.00955508,0.10888711,-0.00033
 170,0.00315771,0.00070148,0.01075664,-0.00232698,-0.02153165,-0.008472
 95,0.00276606,0.01715958,0.11639390,-0.00055477,0.00117484,0.00188235,
 -0.00009171,-0.00062771,-0.00110967,0.01707930,-0.00572905,-0.02556887
 ,-0.00012790,-0.00001897,0.00013818,0.01039237,-0.04984916,-0.02089365
 ,0.00057867,-0.00300211,-0.00089866,0.00088549,0.00005650,-0.00305256,
 -0.01272387,0.00359468,0.02527129,-0.01606556,0.05315965,-0.00039653,0
 .00025591,0.00080943,0.00010421,-0.00040935,-0.00051719,0.00056153,0.0
 0031453,0.00413803,-0.00005856,-0.00006563,-0.00005177,0.10740710,-0.0
 1932321,-0.24035260,-0.00146049,0.00001764,-0.00092634,0.01272862,-0.0
 0154284,-0.02298327,0.00096147,-0.00134955,-0.00396380,-0.12043060,0.0
 2246016,0.26380921,-0.00287703,-0.00199876,0.00020852,-0.00027886,0.00
 216030,0.00172448,-0.01712101,0.03853829,-0.01247119,0.00298655,0.0046
 9362,0.00113956,-0.00227366,-0.00354646,-0.00025889,-0.11282494,0.0623
 7931,-0.00250705,-0.00126680,0.00166079,-0.00023727,0.00000212,0.00009
 805,-0.00022860,-0.00104282,0.00079497,0.00005451,0.12527522,0.0034849
 2,0.02189045,-0.00225942,-0.00321313,0.00195641,0.00126852,-0.01467009
 ,-0.02939237,0.00350961,0.00170827,0.00312904,-0.00006066,-0.00157461,
 0.00333730,0.00331115,0.09314962,-0.15801949,-0.02935818,0.00161348,-0
 .00136207,0.00068593,-0.00005780,0.00001025,-0.00001892,0.00019136,0.0
 0028637,-0.00036893,-0.09619467,0.18158932,-0.01353083,-0.02662000,-0.
 00084497,0.00300631,-0.00126490,-0.00134878,0.05632730,0.01094361,0.00
 165173,0.00263840,0.00525009,-0.00184828,0.00120597,0.00085767,0.00637
 326,-0.11732787,0.09557989,0.04461995,0.00088969,-0.00082332,-0.000528
 64,-0.00058529,0.00053008,-0.00040342,-0.00088071,0.00087751,-0.000277
 10,0.02256084,-0.01159541,-0.00597260,-0.21540085,0.17146117,-0.038336
 32,-0.00926778,0.02482359,-0.00377234,0.02304692,-0.00674657,0.0004732
 3,0.00021941,-0.00034935,0.00006899,-0.00133998,-0.00349644,-0.0004126
 4,-0.00654452,-0.00350139,0.01241138,-0.00050796,0.00022975,-0.0000810
 1,0.00051481,-0.00077503,0.00000529,-0.00030966,0.00007382,0.00005523,
 0.00204350,0.01138483,-0.00992271,0.20370095,0.17431166,-0.29483573,0.
 04488465,-0.01059205,0.01116136,-0.00220889,0.02063784,-0.03073658,0.0
 0506948,-0.00019214,-0.00013040,-0.00000322,-0.00464730,-0.00198389,0.
 00142052,0.00225881,-0.00449183,-0.00150437,0.00009904,0.00022237,0.00
 013196,0.00107231,-0.00090222,-0.00002659,-0.00006880,0.00032469,-0.00
 017708,0.00261481,0.00114285,-0.00007101,-0.18558569,0.31874032,-0.039
 15110,0.04425641,-0.02500390,-0.00073628,0.00236806,-0.00183112,0.0025
 6933,0.00250073,0.00427638,-0.00010205,-0.00010286,-0.00023939,-0.0005
 7291,-0.00097004,0.00363966,-0.00224115,0.00053078,-0.00293028,0.00033
 380,-0.00050433,0.00006236,0.00018770,-0.00037055,0.00062667,-0.000275
 74,0.00067763,-0.00001018,-0.00061331,-0.00281744,-0.00202721,0.039292
 74,-0.04840875,0.02490366,-0.00713410,0.00045592,0.00091499,-0.0002043
 0,-0.00165686,0.00056916,-0.02176819,-0.04152295,-0.01569560,-0.454959
 45,0.10396853,0.01152892,-0.00035492,-0.00054310,-0.00066257,-0.133967
 87,-0.09637269,-0.03742067,-0.00064535,-0.00067108,0.00016677,-0.00147
 397,-0.00098102,0.00019901,-0.00015780,0.00021136,0.00034353,0.0157500
 1,0.01069464,0.01849649,0.00003971,0.00052163,-0.00057032,0.61253933,-
 0.00397759,-0.00796615,0.00062101,0.00102780,-0.00004718,-0.00173259,0
 .00151272,0.00280846,-0.00827637,0.04475405,-0.04675922,-0.01330265,0.
 00116115,-0.00227650,0.00123395,-0.05073700,-0.17960363,-0.03196946,-0
 .00068258,0.00089718,-0.00039447,-0.00045370,0.00138490,-0.00018778,-0
 .00077182,0.00089676,0.00024630,-0.00445702,-0.03707154,-0.01214408,0.
 00052941,0.00089875,0.00040371,0.01781772,0.28462687,-0.00402533,-0.01
 054479,0.00465079,0.00109635,0.00033517,-0.00008281,0.01298149,0.00586
 122,-0.00069476,-0.00091546,-0.00923197,-0.00420540,0.00038866,-0.0004
 4631,-0.00081822,-0.03559453,-0.04806158,-0.04815009,-0.00000134,0.000
 55907,-0.00009009,-0.00028990,0.00028068,-0.00060017,-0.00065001,-0.00
 016038,0.00017250,0.00963836,0.00255119,0.00622789,-0.00245881,0.00044
 684,-0.00034709,0.03055400,0.07138871,0.04336380,0.00440926,0.01187731
 ,-0.00064727,-0.00095153,0.00051469,-0.00094356,-0.03770722,-0.0035564
 7,0.01900955,-0.00073096,-0.00295969,-0.00101078,-0.00047671,-0.000008
 71,-0.00255395,0.03368085,-0.02688967,0.00215393,-0.00024005,0.0000803
 2,0.00034728,0.00018896,-0.00009951,0.00027269,0.00062457,-0.00045217,
 0.00012997,-0.00837227,-0.00651682,0.03712240,0.00380542,-0.00043013,0
 .00187929,-0.00766311,-0.00572315,-0.01072346,0.01343277,-0.01469440,-
 0.02393895,0.00328372,0.00262791,-0.00064632,-0.00090842,0.04829414,0.
 01038029,-0.00773887,0.00158212,0.00360372,-0.00148888,0.00063850,0.00
 038357,0.00040177,-0.06566672,0.03653742,0.02224367,0.00018415,0.00009
 684,-0.00035874,-0.00044342,0.00044123,-0.00033785,0.00002717,-0.00026
 648,-0.00005794,-0.00674324,0.01250347,-0.06152012,-0.00804810,0.00059
 031,0.00243665,0.00807788,-0.01778870,-0.01297784,0.03416399,-0.021896
 40,0.00188579,0.00190588,0.00194920,-0.00044936,0.00044626,0.00038689,
 -0.01450992,0.00226633,-0.00515801,0.00008822,-0.00205396,0.00059319,-
 0.00016988,-0.00055777,0.00072053,0.08375386,-0.08948289,-0.13042186,-
 0.00024456,0.00023671,-0.00005827,-0.00005442,0.00012716,0.00000906,-0
 .00050693,0.00037667,0.00015309,-0.01900996,0.03515258,-0.04562182,0.0
 0267697,0.00044649,-0.00111956,-0.00842372,-0.00588629,0.00057364,-0.0
 4503610,0.05702284,0.17799392\\-0.00002028,-0.00002077,-0.00000171,0.0
 0000216,0.00000555,0.00000450,0.00001414,0.00000154,-0.00000916,-0.000
 00051,-0.00000422,-0.00000094,0.00000795,0.00000457,0.00000365,0.00000
 279,0.00000472,-0.00000694,0.00000070,0.00000109,0.00000345,0.00000106
 ,0.00000093,0.00000129,0.00000190,-0.00000054,0.00000308,-0.00000094,0
 .00000123,0.00000478,-0.00000152,0.00000053,-0.00000968,0.00000088,-0.
 00000105,0.00000348,-0.00000834,0.00000641,0.00000418\\\@


 A MATHEMATICIAN IS A MACHINE FOR TURNING COFFEE INTO THEOREMS.
     -- QUOTED BY PAUL ERDOS
 Job cpu time:       0 days  0 hours  1 minutes  4.6 seconds.
 File lengths (MBytes):  RWF=     12 Int=      0 D2E=      0 Chk=      2 Scr=      1
 Normal termination of Gaussian 09 at Wed Apr 13 10:04:06 2016.
