 Entering Gaussian System, Link 0=g09
 Input=Ala-S-opt-freq-qst2-tsb1-6-31g.com
 Output=Ala-S-opt-freq-qst2-tsb1-6-31g.log
 Initial command:
 /usr/local/gau/g09/l1.exe "/tmp/Gau-7628.inp" -scrdir="/tmp/"
 Entering Link 1 = /usr/local/gau/g09/l1.exe PID=      7630.
  
 Copyright (c) 1988,1990,1992,1993,1995,1998,2003,2009,2013,
            Gaussian, Inc.  All Rights Reserved.
  
 This is part of the Gaussian(R) 09 program.  It is based on
 the Gaussian(R) 03 system (copyright 2003, Gaussian, Inc.),
 the Gaussian(R) 98 system (copyright 1998, Gaussian, Inc.),
 the Gaussian(R) 94 system (copyright 1995, Gaussian, Inc.),
 the Gaussian 92(TM) system (copyright 1992, Gaussian, Inc.),
 the Gaussian 90(TM) system (copyright 1990, Gaussian, Inc.),
 the Gaussian 88(TM) system (copyright 1988, Gaussian, Inc.),
 the Gaussian 86(TM) system (copyright 1986, Carnegie Mellon
 University), and the Gaussian 82(TM) system (copyright 1983,
 Carnegie Mellon University). Gaussian is a federally registered
 trademark of Gaussian, Inc.
  
 This software contains proprietary and confidential information,
 including trade secrets, belonging to Gaussian, Inc.
  
 This software is provided under written license and may be
 used, copied, transmitted, or stored only in accord with that
 written license.
  
 The following legend is applicable only to US Government
 contracts under FAR:
  
                    RESTRICTED RIGHTS LEGEND
  
 Use, reproduction and disclosure by the US Government is
 subject to restrictions as set forth in subparagraphs (a)
 and (c) of the Commercial Computer Software - Restricted
 Rights clause in FAR 52.227-19.
  
 Gaussian, Inc.
 340 Quinnipiac St., Bldg. 40, Wallingford CT 06492
  
  
 ---------------------------------------------------------------
 Warning -- This program may not be used in any manner that
 competes with the business of Gaussian, Inc. or will provide
 assistance to any competitor of Gaussian, Inc.  The licensee
 of this program is prohibited from giving any competitor of
 Gaussian, Inc. access to this program.  By using this program,
 the user acknowledges that Gaussian, Inc. is engaged in the
 business of creating and licensing software in the field of
 computational chemistry and represents and warrants to the
 licensee that it is not a competitor of Gaussian, Inc. and that
 it will not use this program in any manner prohibited above.
 ---------------------------------------------------------------
  

 Cite this work as:
 Gaussian 09, Revision D.01,
 M. J. Frisch, G. W. Trucks, H. B. Schlegel, G. E. Scuseria, 
 M. A. Robb, J. R. Cheeseman, G. Scalmani, V. Barone, B. Mennucci, 
 G. A. Petersson, H. Nakatsuji, M. Caricato, X. Li, H. P. Hratchian, 
 A. F. Izmaylov, J. Bloino, G. Zheng, J. L. Sonnenberg, M. Hada, 
 M. Ehara, K. Toyota, R. Fukuda, J. Hasegawa, M. Ishida, T. Nakajima, 
 Y. Honda, O. Kitao, H. Nakai, T. Vreven, J. A. Montgomery, Jr., 
 J. E. Peralta, F. Ogliaro, M. Bearpark, J. J. Heyd, E. Brothers, 
 K. N. Kudin, V. N. Staroverov, T. Keith, R. Kobayashi, J. Normand, 
 K. Raghavachari, A. Rendell, J. C. Burant, S. S. Iyengar, J. Tomasi, 
 M. Cossi, N. Rega, J. M. Millam, M. Klene, J. E. Knox, J. B. Cross, 
 V. Bakken, C. Adamo, J. Jaramillo, R. Gomperts, R. E. Stratmann, 
 O. Yazyev, A. J. Austin, R. Cammi, C. Pomelli, J. W. Ochterski, 
 R. L. Martin, K. Morokuma, V. G. Zakrzewski, G. A. Voth, 
 P. Salvador, J. J. Dannenberg, S. Dapprich, A. D. Daniels, 
 O. Farkas, J. B. Foresman, J. V. Ortiz, J. Cioslowski, 
 and D. J. Fox, Gaussian, Inc., Wallingford CT, 2013.
 
 ******************************************
 Gaussian 09:  ES64L-G09RevD.01 24-Apr-2013
                14-Apr-2016 
 ******************************************
 %chk=Ala-S-opt-freq-qst2-tsb1-6-31g.chk
 -----------------------------
 #p freq rb3lyp/6-31g opt=QST2
 -----------------------------
 1/5=1,14=-1,18=20,26=3,27=202,38=1/1,3;
 2/9=110,12=2,17=6,18=5,40=1/2;
 3/5=1,6=6,11=2,16=1,25=1,30=1,71=1,74=-5,116=1/1,2,3;
 4//1;
 5/5=2,38=5/2;
 6/7=2,8=2,9=2,10=2,28=1/1;
 7//1,2,3,16;
 1/5=1,14=-1,18=20,26=3,27=202/3(2);
 2/9=110/2;
 99//99;
 2/9=110/2;
 3/5=1,6=6,11=2,16=1,25=1,30=1,71=1,74=-5,116=1/1,2,3;
 4/5=5,16=3,69=1/1;
 5/5=2,38=5/2;
 7//1,2,3,16;
 1/5=1,14=-1,18=20,26=3,27=202/3(-5);
 2/9=110/2;
 6/7=2,8=2,9=2,10=2,19=2,28=1/1;
 99/9=1/99;
 Leave Link    1 at Thu Apr 14 16:28:23 2016, MaxMem=           0 cpu:         0.0
 (Enter /usr/local/gau/g09/l101.exe)
 ----------------------------
 Ala-S-opt-freq-6-311++g(d,p)
 ----------------------------
 Symbolic Z-matrix:
 Charge =  0 Multiplicity = 1
 N                    -1.41515  -1.08616  -0.44237 
 H                    -1.19241  -1.6585    0.3664 
 C                    -0.65403   0.15792  -0.40998 
 H                    -0.62201   0.57997  -1.41901 
 C                    -1.19795   1.24002   0.55106 
 C                     0.77509  -0.16871  -0.01055 
 H                    -1.20783   0.87043   1.58011 
 H                    -0.59729   2.15221   0.50792 
 H                    -2.22253   1.49551   0.26808 
 O                     1.10761  -1.09841   0.68073 
 H                    -2.41213  -0.90308  -0.44562 
 O                     1.65384   0.74679  -0.48074 
 H                     2.52999   0.5041   -0.1444 
 
 ------------------------
 Ala-S-opt-freq-pb1-6-31g
 ------------------------
 Symbolic Z-matrix:
 Charge =  0 Multiplicity = 1
 N                    -1.36237  -1.10314   0.48248 
 H                    -1.12512  -1.69368   1.2709 
 C                    -0.66837   0.18023   0.43833 
 H                    -0.72545   0.63842   1.43037 
 C                    -1.34244   1.11188  -0.58783 
 C                     0.82225   0.06999   0.1254 
 H                    -2.39539   1.22847  -0.31874 
 H                    -0.86224   2.09596  -0.60544 
 H                    -1.28271   0.67931  -1.5927 
 O                     1.73899   0.6423    0.71992 
 H                    -1.34974  -1.60991  -0.39557 
 O                     1.0594   -0.76492  -0.95442 
 H                     2.02154  -0.80827  -1.14556 
 
 Iteration  1 RMS(Cart)=  0.09543721 RMS(Int)=  0.68669104
 Iteration  2 RMS(Cart)=  0.06403782 RMS(Int)=  0.65850255
 Iteration  3 RMS(Cart)=  0.06245018 RMS(Int)=  0.63500177
 Iteration  4 RMS(Cart)=  0.06513522 RMS(Int)=  0.61473844
 Iteration  5 RMS(Cart)=  0.06850183 RMS(Int)=  0.59752357
 Iteration  6 RMS(Cart)=  0.07059730 RMS(Int)=  0.58606006
 Iteration  7 RMS(Cart)=  0.07352314 RMS(Int)=  0.57898653
 Iteration  8 RMS(Cart)=  0.07068347 RMS(Int)=  0.57800072
 Iteration  9 RMS(Cart)=  0.06747659 RMS(Int)=  0.58277703
 Iteration 10 RMS(Cart)=  0.05114270 RMS(Int)=  0.59137394
 Iteration 11 RMS(Cart)=  0.03375448 RMS(Int)=  0.60083870
 Iteration 12 RMS(Cart)=  0.02032780 RMS(Int)=  0.60770566
 Iteration 13 RMS(Cart)=  0.01704602 RMS(Int)=  0.61306924
 Iteration 14 RMS(Cart)=  0.01343514 RMS(Int)=  0.61712681
 Iteration 15 RMS(Cart)=  0.00916740 RMS(Int)=  0.61903418
 Iteration 16 RMS(Cart)=  0.00725142 RMS(Int)=  0.62007661
 Iteration 17 RMS(Cart)=  0.00601125 RMS(Int)=  0.62074674
 Iteration 18 RMS(Cart)=  0.00507250 RMS(Int)=  0.62123750
 Iteration 19 RMS(Cart)=  0.00431585 RMS(Int)=  0.62162770
 Iteration 20 RMS(Cart)=  0.00368865 RMS(Int)=  0.62195197
 Iteration 21 RMS(Cart)=  0.00316126 RMS(Int)=  0.62222739
 Iteration 22 RMS(Cart)=  0.00271408 RMS(Int)=  0.62246372
 Iteration 23 RMS(Cart)=  0.00233289 RMS(Int)=  0.62266744
 Iteration 24 RMS(Cart)=  0.00200681 RMS(Int)=  0.62284339
 Iteration 25 RMS(Cart)=  0.00172724 RMS(Int)=  0.62299545
 Iteration 26 RMS(Cart)=  0.00148714 RMS(Int)=  0.62312686
 Iteration 27 RMS(Cart)=  0.00128073 RMS(Int)=  0.62324042
 Iteration 28 RMS(Cart)=  0.00110315 RMS(Int)=  0.62333853
 Iteration 29 RMS(Cart)=  0.00095031 RMS(Int)=  0.62342326
 Iteration 30 RMS(Cart)=  0.00081871 RMS(Int)=  0.62349641
 Iteration 31 RMS(Cart)=  0.00070538 RMS(Int)=  0.62355956
 Iteration 32 RMS(Cart)=  0.00060777 RMS(Int)=  0.62361406
 Iteration 33 RMS(Cart)=  0.00052368 RMS(Int)=  0.62366108
 Iteration 34 RMS(Cart)=  0.00045124 RMS(Int)=  0.62370165
 Iteration 35 RMS(Cart)=  0.00038883 RMS(Int)=  0.62373664
 Iteration 36 RMS(Cart)=  0.00033506 RMS(Int)=  0.62376681
 Iteration 37 RMS(Cart)=  0.00028872 RMS(Int)=  0.62379284
 Iteration 38 RMS(Cart)=  0.00024880 RMS(Int)=  0.62381528
 Iteration 39 RMS(Cart)=  0.00021440 RMS(Int)=  0.62383462
 Iteration 40 RMS(Cart)=  0.00018476 RMS(Int)=  0.62385131
 Iteration 41 RMS(Cart)=  0.00015922 RMS(Int)=  0.62386569
 Iteration 42 RMS(Cart)=  0.00013721 RMS(Int)=  0.62387808
 Iteration 43 RMS(Cart)=  0.00011824 RMS(Int)=  0.62388877
 Iteration 44 RMS(Cart)=  0.00010190 RMS(Int)=  0.62389798
 Iteration 45 RMS(Cart)=  0.00008781 RMS(Int)=  0.62390592
 Iteration 46 RMS(Cart)=  0.00007567 RMS(Int)=  0.62391277
 Iteration 47 RMS(Cart)=  0.00006521 RMS(Int)=  0.62391867
 Iteration 48 RMS(Cart)=  0.00005620 RMS(Int)=  0.62392375
 Iteration 49 RMS(Cart)=  0.00004843 RMS(Int)=  0.62392813
 Iteration 50 RMS(Cart)=  0.00004174 RMS(Int)=  0.62393191
 Iteration 51 RMS(Cart)=  0.00003597 RMS(Int)=  0.62393516
 Iteration 52 RMS(Cart)=  0.00003100 RMS(Int)=  0.62393797
 Iteration 53 RMS(Cart)=  0.00002671 RMS(Int)=  0.62394039
 Iteration 54 RMS(Cart)=  0.00002302 RMS(Int)=  0.62394247
 Iteration 55 RMS(Cart)=  0.00001984 RMS(Int)=  0.62394427
 Iteration 56 RMS(Cart)=  0.00001710 RMS(Int)=  0.62394581
 Iteration 57 RMS(Cart)=  0.00001473 RMS(Int)=  0.62394715
 Iteration 58 RMS(Cart)=  0.00001270 RMS(Int)=  0.62394830
 Iteration 59 RMS(Cart)=  0.00001094 RMS(Int)=  0.62394929
 Iteration 60 RMS(Cart)=  0.00000943 RMS(Int)=  0.62395014
 Iteration 61 RMS(Cart)=  0.00000813 RMS(Int)=  0.62395088
 Iteration 62 RMS(Cart)=  0.00000700 RMS(Int)=  0.62395151
 Iteration 63 RMS(Cart)=  0.00000604 RMS(Int)=  0.62395206
 Iteration 64 RMS(Cart)=  0.00000520 RMS(Int)=  0.62395253
 Iteration 65 RMS(Cart)=  0.00000448 RMS(Int)=  0.62395294
 Iteration 66 RMS(Cart)=  0.00000386 RMS(Int)=  0.62395329
 Iteration 67 RMS(Cart)=  0.00000333 RMS(Int)=  0.62395359
 Iteration 68 RMS(Cart)=  0.00000287 RMS(Int)=  0.62395385
 Iteration 69 RMS(Cart)=  0.00000247 RMS(Int)=  0.62395407
 Iteration 70 RMS(Cart)=  0.00000213 RMS(Int)=  0.62395426
 Iteration 71 RMS(Cart)=  0.00000184 RMS(Int)=  0.62395443
 Iteration 72 RMS(Cart)=  0.00000158 RMS(Int)=  0.62395457
 Iteration 73 RMS(Cart)=  0.00000136 RMS(Int)=  0.62395470
 Iteration 74 RMS(Cart)=  0.00000118 RMS(Int)=  0.62395480
 Iteration 75 RMS(Cart)=  0.00000101 RMS(Int)=  0.62395490
 Iteration 76 RMS(Cart)=  0.00000087 RMS(Int)=  0.62395497
 Iteration  1 RMS(Cart)=  0.00000075 RMS(Int)=  0.62395504
 Iteration  1 RMS(Cart)=  0.00000065 RMS(Int)=  0.62395510
 Iteration  1 RMS(Cart)=  0.00000056 RMS(Int)=  0.62395515
 Iteration  1 RMS(Cart)=  0.00000048 RMS(Int)=  0.62395520
 Iteration  1 RMS(Cart)=  0.00000041 RMS(Int)=  0.62395523
 Iteration  1 RMS(Cart)=  0.00000036 RMS(Int)=  0.62395527
 Iteration  1 RMS(Cart)=  0.00000031 RMS(Int)=  0.62395529
 Iteration  1 RMS(Cart)=  0.00000027 RMS(Int)=  0.62395532
 Iteration  1 RMS(Cart)=  0.00000023 RMS(Int)=  0.62395534
   Var     Old X     New X   DQ Goal   DQ Act.  Rel. Err.   Overall
     1    1.9191    1.9169   -0.0022   -0.0022
     2    2.7567    2.7575    0.0008    0.0008
     3    1.9155    1.9157    0.0002    0.0002
     4    2.0678    2.0678    0.0000    0.0000
     5    2.9217    2.9171   -0.0046   -0.0046
     6    2.8713    2.8785    0.0073    0.0073
     7    2.0663    2.0659   -0.0004   -0.0004
     8    2.0655    2.0675    0.0020    0.0020
     9    2.0659    2.0682    0.0023    0.0023
    10    2.2777    2.3043    0.0266    0.0266    1.0000
    11    2.5574    2.5877    0.0303    0.0303    1.0000
    12    1.8318    1.8437    0.0119    0.0119    1.0000
    13    1.9268    2.1008    0.0413    0.1740    4.2149
    14    1.8966    2.0644    0.0318    0.1678    5.2761
    15    1.9382    2.0970    0.0261    0.1588    6.0944
    16    1.9005    1.8906   -0.0041   -0.0099
    17    2.0121    2.1603   -0.0452    0.1481   -3.2745
    18    1.8894    2.2264    0.0502    0.3370    6.7143
    19    1.8897    2.2323    0.0075    0.3426
    20    1.8732    0.3360   -0.0161   -1.5372   95.4905
    21    1.8944    1.8965    0.0086    0.0022
    22    1.9301    1.9366   -0.0158    0.0065   -0.4118
    23    1.9458    1.9457   -0.0022   -0.0001
    24    1.9096    1.8958    0.0084   -0.0138
    25    1.9009    1.9441    0.0033    0.0431
    26    1.8903    1.8927    0.0033    0.0024
    27    1.8858    1.8454    0.0033   -0.0404
    28    2.1847    2.1953    0.0106    0.0106    1.0034
    29    1.9541    1.9522   -0.0020   -0.0019
    30    2.1435    2.1354   -0.0082   -0.0082
    31    1.8723    1.8982    0.0259    0.0259    1.0000
    32    2.7899    1.0076   -1.8071   -1.7823    0.9863
    33   -1.3661   -2.1402   -0.7703   -0.7741    1.0049
    34    0.7587    0.9939    0.2308    0.2352    1.0189
    35   -1.3884   -2.3562   -0.8693   -0.9677    1.1132
    36    0.7388    0.7793    0.1675    0.0405    0.2419
    37    2.8636   -2.3699   -1.9730   -5.2334    2.6525
    38    1.0485    1.0566   -0.0256    0.0081   -0.3164
    39   -3.1170   -3.0488    3.1082    0.0682    0.0220
    40   -1.0322   -1.0223   -0.0251    0.0099   -0.3945
    41   -3.1017   -2.0924    1.0121    1.0093    0.9972
    42   -0.9841    0.0854    1.0043    1.0694    1.0648
    43    1.1008    2.1118    1.0126    1.0111    0.9985
    44   -1.0736   -2.0787   -1.0056   -1.0051    0.9995
    45    1.0440    0.0991   -1.0133   -0.9449    0.9325
    46    3.1288    2.1256   -1.0051   -1.0033    0.9982
    47   -0.4991   -1.3886   -0.9147   -0.8895    0.9725
    48    2.6858    1.7809   -0.9302   -0.9050    0.9729
    49   -2.5478   -1.4280    1.1467    1.1198    0.9766
    50    0.6370    1.7414    1.1312    1.1044    0.9763
    51    1.6966    1.7464    0.0482    0.0498    1.0323
    52   -1.4017   -1.3673    0.0327    0.0344    1.0491
    53    3.0835    3.1045    0.0209    0.0210    1.0035
    54   -0.0160   -0.0104    0.0057    0.0056
 NAtoms=     13 NQM=       13 NQMF=       0 NMMI=      0 NMMIF=      0
                NMic=       0 NMicF=      0.
                    Isotopes and Nuclear Properties:
 (Nuclear quadrupole moments (NQMom) in fm**2, nuclear magnetic moments (NMagM)
  in nuclear magnetons)

  Atom         1           2           3           4           5           6           7           8           9          10
 IAtWgt=          14           1          12           1          12          12           1           1           1          16
 AtmWgt=  14.0030740   1.0078250  12.0000000   1.0078250  12.0000000  12.0000000   1.0078250   1.0078250   1.0078250  15.9949146
 NucSpn=           2           1           0           1           0           0           1           1           1           0
 AtZEff=   0.0000000   0.0000000   0.0000000   0.0000000   0.0000000   0.0000000   0.0000000   0.0000000   0.0000000   0.0000000
 NQMom=    2.0440000   0.0000000   0.0000000   0.0000000   0.0000000   0.0000000   0.0000000   0.0000000   0.0000000   0.0000000
 NMagM=    0.4037610   2.7928460   0.0000000   2.7928460   0.0000000   0.0000000   2.7928460   2.7928460   2.7928460   0.0000000
 AtZNuc=   7.0000000   1.0000000   6.0000000   1.0000000   6.0000000   6.0000000   1.0000000   1.0000000   1.0000000   8.0000000

  Atom        11          12          13
 IAtWgt=           1          16           1
 AtmWgt=   1.0078250  15.9949146   1.0078250
 NucSpn=           1           0           1
 AtZEff=   0.0000000   0.0000000   0.0000000
 NQMom=    0.0000000   0.0000000   0.0000000
 NMagM=    2.7928460   0.0000000   2.7928460
 AtZNuc=   1.0000000   8.0000000   1.0000000
 Leave Link  101 at Thu Apr 14 16:28:23 2016, MaxMem=    33554432 cpu:         0.1
