 Entering Gaussian System, Link 0=g09
 Input=Ala-S-opt-freq-p1a-6-31g.com
 Output=Ala-S-opt-freq-p1a-6-31g.log
 Initial command:
 /usr/local/gau/g09/l1.exe "/tmp/Gau-3652.inp" -scrdir="/tmp/"
 Entering Link 1 = /usr/local/gau/g09/l1.exe PID=      3654.
  
 Copyright (c) 1988,1990,1992,1993,1995,1998,2003,2009,2013,
            Gaussian, Inc.  All Rights Reserved.
  
 This is part of the Gaussian(R) 09 program.  It is based on
 the Gaussian(R) 03 system (copyright 2003, Gaussian, Inc.),
 the Gaussian(R) 98 system (copyright 1998, Gaussian, Inc.),
 the Gaussian(R) 94 system (copyright 1995, Gaussian, Inc.),
 the Gaussian 92(TM) system (copyright 1992, Gaussian, Inc.),
 the Gaussian 90(TM) system (copyright 1990, Gaussian, Inc.),
 the Gaussian 88(TM) system (copyright 1988, Gaussian, Inc.),
 the Gaussian 86(TM) system (copyright 1986, Carnegie Mellon
 University), and the Gaussian 82(TM) system (copyright 1983,
 Carnegie Mellon University). Gaussian is a federally registered
 trademark of Gaussian, Inc.
  
 This software contains proprietary and confidential information,
 including trade secrets, belonging to Gaussian, Inc.
  
 This software is provided under written license and may be
 used, copied, transmitted, or stored only in accord with that
 written license.
  
 The following legend is applicable only to US Government
 contracts under FAR:
  
                    RESTRICTED RIGHTS LEGEND
  
 Use, reproduction and disclosure by the US Government is
 subject to restrictions as set forth in subparagraphs (a)
 and (c) of the Commercial Computer Software - Restricted
 Rights clause in FAR 52.227-19.
  
 Gaussian, Inc.
 340 Quinnipiac St., Bldg. 40, Wallingford CT 06492
  
  
 ---------------------------------------------------------------
 Warning -- This program may not be used in any manner that
 competes with the business of Gaussian, Inc. or will provide
 assistance to any competitor of Gaussian, Inc.  The licensee
 of this program is prohibited from giving any competitor of
 Gaussian, Inc. access to this program.  By using this program,
 the user acknowledges that Gaussian, Inc. is engaged in the
 business of creating and licensing software in the field of
 computational chemistry and represents and warrants to the
 licensee that it is not a competitor of Gaussian, Inc. and that
 it will not use this program in any manner prohibited above.
 ---------------------------------------------------------------
  

 Cite this work as:
 Gaussian 09, Revision D.01,
 M. J. Frisch, G. W. Trucks, H. B. Schlegel, G. E. Scuseria, 
 M. A. Robb, J. R. Cheeseman, G. Scalmani, V. Barone, B. Mennucci, 
 G. A. Petersson, H. Nakatsuji, M. Caricato, X. Li, H. P. Hratchian, 
 A. F. Izmaylov, J. Bloino, G. Zheng, J. L. Sonnenberg, M. Hada, 
 M. Ehara, K. Toyota, R. Fukuda, J. Hasegawa, M. Ishida, T. Nakajima, 
 Y. Honda, O. Kitao, H. Nakai, T. Vreven, J. A. Montgomery, Jr., 
 J. E. Peralta, F. Ogliaro, M. Bearpark, J. J. Heyd, E. Brothers, 
 K. N. Kudin, V. N. Staroverov, T. Keith, R. Kobayashi, J. Normand, 
 K. Raghavachari, A. Rendell, J. C. Burant, S. S. Iyengar, J. Tomasi, 
 M. Cossi, N. Rega, J. M. Millam, M. Klene, J. E. Knox, J. B. Cross, 
 V. Bakken, C. Adamo, J. Jaramillo, R. Gomperts, R. E. Stratmann, 
 O. Yazyev, A. J. Austin, R. Cammi, C. Pomelli, J. W. Ochterski, 
 R. L. Martin, K. Morokuma, V. G. Zakrzewski, G. A. Voth, 
 P. Salvador, J. J. Dannenberg, S. Dapprich, A. D. Daniels, 
 O. Farkas, J. B. Foresman, J. V. Ortiz, J. Cioslowski, 
 and D. J. Fox, Gaussian, Inc., Wallingford CT, 2013.
 
 ******************************************
 Gaussian 09:  ES64L-G09RevD.01 24-Apr-2013
                 1-Apr-2016 
 ******************************************
 %chk=Ala-S-opt-freq-p1a-6-31g.chk
 -----------------------
 # opt freq rb3lyp/6-31g
 -----------------------
 1/14=-1,18=20,19=15,26=3,38=1/1,3;
 2/9=110,12=2,17=6,18=5,40=1/2;
 3/5=1,6=6,11=2,16=1,25=1,30=1,71=1,74=-5,116=1/1,2,3;
 4//1;
 5/5=2,38=5/2;
 6/7=2,8=2,9=2,10=2,28=1/1;
 7//1,2,3,16;
 1/14=-1,18=20,19=15,26=3/3(2);
 2/9=110/2;
 99//99;
 2/9=110/2;
 3/5=1,6=6,11=2,16=1,25=1,30=1,71=1,74=-5,116=1/1,2,3;
 4/5=5,16=3,69=1/1;
 5/5=2,38=5/2;
 7//1,2,3,16;
 1/14=-1,18=20,19=15,26=3/3(-5);
 2/9=110/2;
 6/7=2,8=2,9=2,10=2,19=2,28=1/1;
 99/9=1/99;
 ------------------------
 Ala-S-opt-freq-p1a-6-31g
 ------------------------
 Symbolic Z-matrix:
 Charge =  0 Multiplicity = 1
 N                    -1.21871  -1.09368  -0.42714 
 H                    -1.04317  -1.55448   0.46057 
 C                    -0.57954   0.21804  -0.47258 
 H                    -0.63251   0.59279  -1.49851 
 C                    -1.17284   1.2917    0.4703 
 C                     0.87908   0.06455  -0.14978 
 H                    -1.10543   0.96955   1.51259 
 H                    -0.65447   2.2477    0.36161 
 H                    -2.22633   1.4428    0.22262 
 O                     1.36116  -0.79827   0.65566 
 H                    -2.22153  -1.00895  -0.5523 
 O                     1.80775   0.81853  -0.58685 
 H                     2.09088  -0.24385   0.33978 
 

 GradGradGradGradGradGradGradGradGradGradGradGradGradGradGradGradGradGrad
 Berny optimization.
 Initialization pass.
                           ----------------------------
                           !    Initial Parameters    !
                           ! (Angstroms and Degrees)  !
 --------------------------                            --------------------------
 ! Name  Definition              Value          Derivative Info.                !
 --------------------------------------------------------------------------------
 ! R1    R(1,2)                  1.0155         estimate D2E/DX2                !
 ! R2    R(1,3)                  1.4599         estimate D2E/DX2                !
 ! R3    R(1,11)                 1.0141         estimate D2E/DX2                !
 ! R4    R(3,4)                  1.0935         estimate D2E/DX2                !
 ! R5    R(3,5)                  1.5472         estimate D2E/DX2                !
 ! R6    R(3,6)                  1.5018         estimate D2E/DX2                !
 ! R7    R(5,7)                  1.093          estimate D2E/DX2                !
 ! R8    R(5,8)                  1.0929         estimate D2E/DX2                !
 ! R9    R(5,9)                  1.0927         estimate D2E/DX2                !
 ! R10   R(6,10)                 1.275          estimate D2E/DX2                !
 ! R11   R(6,12)                 1.2736         estimate D2E/DX2                !
 ! R12   R(10,13)                0.9694         estimate D2E/DX2                !
 ! A1    A(2,1,3)              111.0544         estimate D2E/DX2                !
 ! A2    A(2,1,11)             108.4654         estimate D2E/DX2                !
 ! A3    A(3,1,11)             110.7341         estimate D2E/DX2                !
 ! A4    A(1,3,4)              108.4162         estimate D2E/DX2                !
 ! A5    A(1,3,5)              115.8906         estimate D2E/DX2                !
 ! A6    A(1,3,6)              109.07           estimate D2E/DX2                !
 ! A7    A(4,3,5)              108.3828         estimate D2E/DX2                !
 ! A8    A(4,3,6)              106.4833         estimate D2E/DX2                !
 ! A9    A(5,3,6)              108.2031         estimate D2E/DX2                !
 ! A10   A(3,5,7)              110.6679         estimate D2E/DX2                !
 ! A11   A(3,5,8)              111.378          estimate D2E/DX2                !
 ! A12   A(3,5,9)              109.1189         estimate D2E/DX2                !
 ! A13   A(7,5,8)              108.8684         estimate D2E/DX2                !
 ! A14   A(7,5,9)              108.4437         estimate D2E/DX2                !
 ! A15   A(8,5,9)              108.2871         estimate D2E/DX2                !
 ! A16   A(3,6,10)             124.903          estimate D2E/DX2                !
 ! A17   A(3,6,12)             125.0273         estimate D2E/DX2                !
 ! A18   A(10,6,12)            109.9822         estimate D2E/DX2                !
 ! A19   A(6,10,13)             72.0442         estimate D2E/DX2                !
 ! D1    D(2,1,3,4)            169.4748         estimate D2E/DX2                !
 ! D2    D(2,1,3,5)            -68.4465         estimate D2E/DX2                !
 ! D3    D(2,1,3,6)             53.9105         estimate D2E/DX2                !
 ! D4    D(11,1,3,4)           -69.9535         estimate D2E/DX2                !
 ! D5    D(11,1,3,5)            52.1252         estimate D2E/DX2                !
 ! D6    D(11,1,3,6)           174.4822         estimate D2E/DX2                !
 ! D7    D(1,3,5,7)             59.9404         estimate D2E/DX2                !
 ! D8    D(1,3,5,8)           -178.8048         estimate D2E/DX2                !
 ! D9    D(1,3,5,9)            -59.3108         estimate D2E/DX2                !
 ! D10   D(4,3,5,7)           -177.9631         estimate D2E/DX2                !
 ! D11   D(4,3,5,8)            -56.7083         estimate D2E/DX2                !
 ! D12   D(4,3,5,9)             62.7856         estimate D2E/DX2                !
 ! D13   D(6,3,5,7)            -62.874          estimate D2E/DX2                !
 ! D14   D(6,3,5,8)             58.3808         estimate D2E/DX2                !
 ! D15   D(6,3,5,9)            177.8747         estimate D2E/DX2                !
 ! D16   D(1,3,6,10)           -33.128          estimate D2E/DX2                !
 ! D17   D(1,3,6,12)           150.615          estimate D2E/DX2                !
 ! D18   D(4,3,6,10)          -149.9281         estimate D2E/DX2                !
 ! D19   D(4,3,6,12)            33.815          estimate D2E/DX2                !
 ! D20   D(5,3,6,10)            93.7439         estimate D2E/DX2                !
 ! D21   D(5,3,6,12)           -82.5131         estimate D2E/DX2                !
 ! D22   D(3,6,10,13)         -176.9169         estimate D2E/DX2                !
 ! D23   D(12,6,10,13)          -0.1778         estimate D2E/DX2                !
 --------------------------------------------------------------------------------
 Trust Radius=3.00D-01 FncErr=1.00D-07 GrdErr=1.00D-06
 Number of steps in this run=     64 maximum allowed number of steps=    100.
 GradGradGradGradGradGradGradGradGradGradGradGradGradGradGradGradGradGrad

                          Input orientation:                          
 ---------------------------------------------------------------------
 Center     Atomic      Atomic             Coordinates (Angstroms)
 Number     Number       Type             X           Y           Z
 ---------------------------------------------------------------------
      1          7           0       -1.218713   -1.093678   -0.427141
      2          1           0       -1.043174   -1.554477    0.460574
      3          6           0       -0.579539    0.218041   -0.472584
      4          1           0       -0.632512    0.592789   -1.498513
      5          6           0       -1.172844    1.291700    0.470303
      6          6           0        0.879083    0.064551   -0.149785
      7          1           0       -1.105428    0.969548    1.512585
      8          1           0       -0.654472    2.247696    0.361612
      9          1           0       -2.226326    1.442801    0.222618
     10          8           0        1.361164   -0.798275    0.655664
     11          1           0       -2.221528   -1.008952   -0.552300
     12          8           0        1.807755    0.818530   -0.586852
     13          1           0        2.090882   -0.243849    0.339781
 ---------------------------------------------------------------------
                    Distance matrix (angstroms):
                    1          2          3          4          5
     1  N    0.000000
     2  H    1.015474   0.000000
     3  C    1.459868   2.056103   0.000000
     4  H    2.082220   2.935544   1.093514   0.000000
     5  C    2.549027   2.849146   1.547188   2.157932   0.000000
     6  C    2.412295   2.586283   1.501778   2.093567   2.469981
     7  H    2.834126   2.735197   2.186828   3.071206   1.093014
     8  H    3.479264   3.823271   2.195677   2.489832   1.092910
     9  H    2.805565   3.231122   2.166853   2.495006   1.092705
    10  O    2.813449   2.527992   2.464177   3.248120   3.289917
    11  H    1.014141   1.646824   2.051340   2.446603   2.727353
    12  O    3.583512   3.854356   2.464309   2.614763   3.197724
    13  H    3.501971   3.399212   2.829210   3.390599   3.609274
                    6          7          8          9         10
     6  C    0.000000
     7  H    2.742404   0.000000
     8  H    2.716512   1.778135   0.000000
     9  H    3.417868   1.773244   1.771412   0.000000
    10  O    1.274998   3.153346   3.664314   4.252062   0.000000
    11  H    3.305785   3.069836   3.727822   2.571306   3.786719
    12  O    1.273555   3.594034   3.000777   4.161582   2.087426
    13  H    1.342849   3.614443   3.707458   4.636464   0.969360
                   11         12         13
    11  H    0.000000
    12  O    4.424478   0.000000
    13  H    4.469684   1.437866   0.000000
 Stoichiometry    C3H7NO2
 Framework group  C1[X(C3H7NO2)]
 Deg. of freedom    33
 Full point group                 C1      NOp   1
 Largest Abelian subgroup         C1      NOp   1
 Largest concise Abelian subgroup C1      NOp   1
                         Standard orientation:                         
 ---------------------------------------------------------------------
 Center     Atomic      Atomic             Coordinates (Angstroms)
 Number     Number       Type             X           Y           Z
 ---------------------------------------------------------------------
      1          7           0       -1.330533   -1.194670   -0.376384
      2          1           0       -1.149413   -1.657212    0.509301
      3          6           0       -0.702007    0.122296   -0.418459
      4          1           0       -0.760169    0.500269   -1.442923
      5          6           0       -1.301904    1.187778    0.529519
      6          6           0        0.758483   -0.020622   -0.099274
      7          1           0       -1.229688    0.862456    1.570494
      8          1           0       -0.791455    2.148290    0.423173
      9          1           0       -2.357090    1.331294    0.284589
     10          8           0        1.249187   -0.882419    0.702059
     11          1           0       -2.334260   -1.117557   -0.499133
     12          8           0        1.680141    0.742351   -0.535580
     13          1           0        1.973757   -0.321023    0.386637
 ---------------------------------------------------------------------
 Rotational constants (GHZ):      5.3000909      2.9345052      2.3330339
 Standard basis: 6-31G (6D, 7F)
 There are    68 symmetry adapted cartesian basis functions of A   symmetry.
 There are    68 symmetry adapted basis functions of A   symmetry.
    68 basis functions,   160 primitive gaussians,    68 cartesian basis functions
    24 alpha electrons       24 beta electrons
       nuclear repulsion energy       251.2603927093 Hartrees.
 NAtoms=   13 NActive=   13 NUniq=   13 SFac= 1.00D+00 NAtFMM=   60 NAOKFM=F Big=F
 Integral buffers will be    131072 words long.
 Raffenetti 2 integral format.
 Two-electron integral symmetry is turned on.
 One-electron integrals computed using PRISM.
 NBasis=    68 RedAO= T EigKep=  4.08D-03  NBF=    68
 NBsUse=    68 1.00D-06 EigRej= -1.00D+00 NBFU=    68
 ExpMin= 1.61D-01 ExpMax= 5.48D+03 ExpMxC= 8.25D+02 IAcc=1 IRadAn=         1 AccDes= 0.00D+00
 Harris functional with IExCor=  402 and IRadAn=       1 diagonalized for initial guess.
 HarFok:  IExCor=  402 AccDes= 0.00D+00 IRadAn=         1 IDoV= 1 UseB2=F ITyADJ=14
 ICtDFT=  3500011 ScaDFX=  1.000000  1.000000  1.000000  1.000000
 FoFCou: FMM=F IPFlag=           0 FMFlag=      100000 FMFlg1=           0
         NFxFlg=           0 DoJE=T BraDBF=F KetDBF=T FulRan=T
         wScrn=  0.000000 ICntrl=     500 IOpCl=  0 I1Cent=   200000004 NGrid=           0
         NMat0=    1 NMatS0=      1 NMatT0=    0 NMatD0=    1 NMtDS0=    0 NMtDT0=    0
 Petite list used in FoFCou.
 Keep R1 ints in memory in canonical form, NReq=3676491.
 Requested convergence on RMS density matrix=1.00D-08 within 128 cycles.
 Requested convergence on MAX density matrix=1.00D-06.
 Requested convergence on             energy=1.00D-06.
 No special actions if energy rises.
 Integral accuracy reduced to 1.0D-05 until final iterations.
 Initial convergence to 1.0D-05 achieved.  Increase integral accuracy.
 SCF Done:  E(RB3LYP) =  -323.547622759     A.U. after   15 cycles
            NFock= 15  Conv=0.36D-08     -V/T= 2.0035

 **********************************************************************

            Population analysis using the SCF density.

 **********************************************************************

 Orbital symmetries:
       Occupied  (A) (A) (A) (A) (A) (A) (A) (A) (A) (A) (A) (A)
                 (A) (A) (A) (A) (A) (A) (A) (A) (A) (A) (A) (A)
       Virtual   (A) (A) (A) (A) (A) (A) (A) (A) (A) (A) (A) (A)
                 (A) (A) (A) (A) (A) (A) (A) (A) (A) (A) (A) (A)
                 (A) (A) (A) (A) (A) (A) (A) (A) (A) (A) (A) (A)
                 (A) (A) (A) (A) (A) (A) (A) (A)
 The electronic state is 1-A.
 Alpha  occ. eigenvalues --  -19.20493 -19.15485 -14.32654 -10.34736 -10.25007
 Alpha  occ. eigenvalues --  -10.19612  -1.23012  -1.02585  -0.92026  -0.77459
 Alpha  occ. eigenvalues --   -0.68965  -0.59076  -0.53330  -0.50537  -0.49923
 Alpha  occ. eigenvalues --   -0.48983  -0.44624  -0.42787  -0.42483  -0.38586
 Alpha  occ. eigenvalues --   -0.37867  -0.31959  -0.30179  -0.24328
 Alpha virt. eigenvalues --   -0.02527   0.06365   0.11964   0.12259   0.13657
 Alpha virt. eigenvalues --    0.15162   0.16219   0.17341   0.19475   0.19695
 Alpha virt. eigenvalues --    0.25450   0.32785   0.34664   0.51204   0.54917
 Alpha virt. eigenvalues --    0.55674   0.57496   0.59597   0.61438   0.65891
 Alpha virt. eigenvalues --    0.69773   0.74121   0.74326   0.77626   0.78941
 Alpha virt. eigenvalues --    0.85221   0.88683   0.90204   0.91769   0.92737
 Alpha virt. eigenvalues --    0.94830   0.96283   0.97502   1.01924   1.04674
 Alpha virt. eigenvalues --    1.07841   1.07983   1.10711   1.16776   1.37281
 Alpha virt. eigenvalues --    1.47804   1.69917   1.91158   1.92538
          Condensed to atoms (all electrons):
               1          2          3          4          5          6
     1  N    6.919842   0.318954   0.256819  -0.047724  -0.082477  -0.036514
     2  H    0.318954   0.462791  -0.040853   0.005967  -0.000251  -0.013051
     3  C    0.256819  -0.040853   5.311237   0.381034   0.300245   0.131074
     4  H   -0.047724   0.005967   0.381034   0.557578  -0.052109  -0.034944
     5  C   -0.082477  -0.000251   0.300245  -0.052109   5.231629  -0.055547
     6  C   -0.036514  -0.013051   0.131074  -0.034944  -0.055547   5.019619
     7  H    0.000602   0.003778  -0.035141   0.005293   0.365114  -0.008392
     8  H    0.005732  -0.000047  -0.025046   0.000960   0.338292   0.001710
     9  H   -0.001902  -0.000404  -0.035158  -0.005011   0.374678   0.005980
    10  O    0.002644   0.007104  -0.109290   0.003080  -0.001585   0.164667
    11  H    0.320364  -0.035800  -0.041752  -0.003465  -0.001764   0.007372
    12  O    0.001692   0.000130  -0.071381   0.000742  -0.000006   0.407033
    13  H   -0.001638  -0.000160   0.029525  -0.000736  -0.001534  -0.068843
               7          8          9         10         11         12
     1  N    0.000602   0.005732  -0.001902   0.002644   0.320364   0.001692
     2  H    0.003778  -0.000047  -0.000404   0.007104  -0.035800   0.000130
     3  C   -0.035141  -0.025046  -0.035158  -0.109290  -0.041752  -0.071381
     4  H    0.005293   0.000960  -0.005011   0.003080  -0.003465   0.000742
     5  C    0.365114   0.338292   0.374678  -0.001585  -0.001764  -0.000006
     6  C   -0.008392   0.001710   0.005980   0.164667   0.007372   0.407033
     7  H    0.575714  -0.025086  -0.030898   0.002187  -0.000359  -0.000255
     8  H   -0.025086   0.559959  -0.025810   0.000038  -0.000014   0.002533
     9  H   -0.030898  -0.025810   0.566486  -0.000067   0.004077  -0.000015
    10  O    0.002187   0.000038  -0.000067   8.406301  -0.000002  -0.225619
    11  H   -0.000359  -0.000014   0.004077  -0.000002   0.469328  -0.000085
    12  O   -0.000255   0.002533  -0.000015  -0.225619  -0.000085   8.320768
    13  H   -0.000200  -0.000075   0.000052   0.190472   0.000071   0.069301
              13
     1  N   -0.001638
     2  H   -0.000160
     3  C    0.029525
     4  H   -0.000736
     5  C   -0.001534
     6  C   -0.068843
     7  H   -0.000200
     8  H   -0.000075
     9  H    0.000052
    10  O    0.190472
    11  H    0.000071
    12  O    0.069301
    13  H    0.422139
 Mulliken charges:
               1
     1  N   -0.656396
     2  H    0.291841
     3  C   -0.051312
     4  H    0.189336
     5  C   -0.414684
     6  C    0.479838
     7  H    0.147643
     8  H    0.166853
     9  H    0.147993
    10  O   -0.439929
    11  H    0.282030
    12  O   -0.504838
    13  H    0.361625
 Sum of Mulliken charges =   0.00000
 Mulliken charges with hydrogens summed into heavy atoms:
               1
     1  N   -0.082525
     3  C    0.138023
     5  C    0.047806
     6  C    0.479838
    10  O   -0.078304
    12  O   -0.504838
 Electronic spatial extent (au):  <R**2>=            579.8065
 Charge=              0.0000 electrons
 Dipole moment (field-independent basis, Debye):
    X=             -3.0189    Y=              0.4789    Z=              1.3535  Tot=              3.3430
 Quadrupole moment (field-independent basis, Debye-Ang):
   XX=            -33.8663   YY=            -39.9947   ZZ=            -37.7325
   XY=             -1.9538   XZ=              0.9390   YZ=             -0.2803
 Traceless Quadrupole moment (field-independent basis, Debye-Ang):
   XX=              3.3315   YY=             -2.7969   ZZ=             -0.5346
   XY=             -1.9538   XZ=              0.9390   YZ=             -0.2803
 Octapole moment (field-independent basis, Debye-Ang**2):
  XXX=             -6.4599  YYY=              1.1434  ZZZ=              0.7510  XYY=             -2.9340
  XXY=             -9.2854  XXZ=              3.3658  XZZ=              0.1674  YZZ=              1.1253
  YYZ=              5.0093  XYZ=              6.6174
 Hexadecapole moment (field-independent basis, Debye-Ang**3):
 XXXX=           -357.5046 YYYY=           -219.4109 ZZZZ=            -99.2828 XXXY=              1.7667
 XXXZ=             16.9914 YYYX=              3.0155 YYYZ=            -10.6843 ZZZX=              1.0080
 ZZZY=             -5.5768 XXYY=           -103.7323 XXZZ=            -84.9732 YYZZ=            -57.5647
 XXYZ=              2.0401 YYXZ=             -4.5260 ZZXY=             -0.4097
 N-N= 2.512603927093D+02 E-N=-1.259671155298D+03  KE= 3.224255650908D+02
 Calling FoFJK, ICntrl=      2127 FMM=F ISym2X=0 I1Cent= 0 IOpClX= 0 NMat=1 NMatS=1 NMatT=0.
 ***** Axes restored to original set *****
 -------------------------------------------------------------------
 Center     Atomic                   Forces (Hartrees/Bohr)
 Number     Number              X              Y              Z
 -------------------------------------------------------------------
      1        7          -0.005459957    0.002222520    0.008364419
      2        1           0.002797738   -0.005672403    0.001400819
      3        6           0.009198130    0.001315558   -0.001545551
      4        1           0.000704312    0.000357178   -0.000486646
      5        6          -0.001771211    0.000517642    0.000325072
      6        6          -0.088109053    0.070130189   -0.078045705
      7        1           0.000100082   -0.000376019    0.002149738
      8        1           0.000817167    0.000966748   -0.000153293
      9        1          -0.002071447    0.000581300   -0.000084725
     10        8          -0.028216919   -0.076816415    0.058674220
     11        1          -0.003689663   -0.002741005   -0.005528362
     12        8          -0.017250085    0.029782183   -0.026733655
     13        1           0.132950906   -0.020267477    0.041663670
 -------------------------------------------------------------------
 Cartesian Forces:  Max     0.132950906 RMS     0.036139512

 GradGradGradGradGradGradGradGradGradGradGradGradGradGradGradGradGradGrad
 Berny optimization.
 FormGI is forming the generalized inverse of G from B-inverse, IUseBI=4.
 Internal  Forces:  Max     0.218364881 RMS     0.040728738
 Search for a local minimum.
 Step number   1 out of a maximum of   64
 All quantities printed in internal units (Hartrees-Bohrs-Radians)
 Mixed Optimization -- RFO/linear search
 Second derivative matrix not updated -- first step.
 ITU=  0
     Eigenvalues ---    0.00230   0.00742   0.00900   0.01277   0.03345
     Eigenvalues ---    0.04091   0.04214   0.05084   0.05417   0.05668
     Eigenvalues ---    0.06891   0.16000   0.16000   0.16000   0.16000
     Eigenvalues ---    0.16000   0.16000   0.17519   0.18756   0.24983
     Eigenvalues ---    0.25000   0.27892   0.32192   0.34410   0.34467
     Eigenvalues ---    0.34479   0.34502   0.36981   0.45068   0.45286
     Eigenvalues ---    0.53508   0.74644   0.75107
 RFO step:  Lambda=-1.91363040D-01 EMin= 2.30000000D-03
 Linear search not attempted -- first point.
 Maximum step size (   0.300) exceeded in Quadratic search.
    -- Step size scaled by   0.438
 Iteration  1 RMS(Cart)=  0.06032273 RMS(Int)=  0.01317227
 Iteration  2 RMS(Cart)=  0.02156356 RMS(Int)=  0.00096889
 Iteration  3 RMS(Cart)=  0.00098164 RMS(Int)=  0.00001666
 Iteration  4 RMS(Cart)=  0.00000139 RMS(Int)=  0.00001664
 Iteration  5 RMS(Cart)=  0.00000000 RMS(Int)=  0.00001664
 Variable       Old X    -DE/DX   Delta X   Delta X   Delta X     New X
                                 (Linear)    (Quad)   (Total)
    R1        1.91897   0.00428   0.00000   0.00292   0.00292   1.92189
    R2        2.75875   0.00848   0.00000   0.00662   0.00662   2.76537
    R3        1.91645   0.00410   0.00000   0.00279   0.00279   1.91924
    R4        2.06644   0.00054   0.00000   0.00045   0.00045   2.06689
    R5        2.92376   0.00366   0.00000   0.00341   0.00341   2.92717
    R6        2.83795  -0.00185   0.00000  -0.00158  -0.00158   2.83637
    R7        2.06550   0.00217   0.00000   0.00177   0.00177   2.06727
    R8        2.06530   0.00125   0.00000   0.00102   0.00102   2.06632
    R9        2.06491   0.00210   0.00000   0.00171   0.00171   2.06663
   R10        2.40940   0.16869   0.00000   0.07885   0.07885   2.48825
   R11        2.40667   0.01423   0.00000   0.00662   0.00662   2.41329
   R12        1.83182   0.07491   0.00000   0.04521   0.04521   1.87703
    A1        1.93826   0.00467   0.00000   0.00683   0.00680   1.94506
    A2        1.89308  -0.00040   0.00000   0.00139   0.00133   1.89441
    A3        1.93268   0.00482   0.00000   0.00702   0.00698   1.93966
    A4        1.89222   0.00086   0.00000   0.00100   0.00100   1.89322
    A5        2.02267  -0.00190   0.00000  -0.00217  -0.00217   2.02051
    A6        1.90363   0.00014   0.00000   0.00024   0.00024   1.90387
    A7        1.89164   0.00022   0.00000   0.00029   0.00029   1.89192
    A8        1.85848  -0.00114   0.00000  -0.00153  -0.00153   1.85695
    A9        1.88850   0.00184   0.00000   0.00215   0.00216   1.89066
   A10        1.93152   0.00031   0.00000   0.00037   0.00037   1.93189
   A11        1.94391  -0.00052   0.00000  -0.00068  -0.00068   1.94323
   A12        1.90448   0.00076   0.00000   0.00099   0.00099   1.90547
   A13        1.90011  -0.00008   0.00000  -0.00018  -0.00018   1.89993
   A14        1.89270  -0.00039   0.00000  -0.00042  -0.00042   1.89228
   A15        1.88997  -0.00009   0.00000  -0.00009  -0.00009   1.88988
   A16        2.17997  -0.04056   0.00000  -0.04027  -0.04027   2.13970
   A17        2.18214  -0.02930   0.00000  -0.02912  -0.02911   2.15302
   A18        1.91955   0.06979   0.00000   0.06934   0.06934   1.98889
   A19        1.25741   0.21836   0.00000   0.27244   0.27244   1.52984
    D1        2.95789  -0.00273   0.00000  -0.00502  -0.00504   2.95286
    D2       -1.19462  -0.00309   0.00000  -0.00537  -0.00539  -1.20001
    D3        0.94092  -0.00191   0.00000  -0.00388  -0.00390   0.93702
    D4       -1.22092   0.00311   0.00000   0.00600   0.00602  -1.21490
    D5        0.90976   0.00275   0.00000   0.00565   0.00567   0.91543
    D6        3.04529   0.00393   0.00000   0.00714   0.00716   3.05245
    D7        1.04616   0.00025   0.00000   0.00041   0.00041   1.04656
    D8       -3.12073   0.00000   0.00000  -0.00003  -0.00003  -3.12076
    D9       -1.03517   0.00006   0.00000   0.00008   0.00008  -1.03509
   D10       -3.10604   0.00023   0.00000   0.00044   0.00044  -3.10560
   D11       -0.98975  -0.00002   0.00000   0.00000   0.00000  -0.98975
   D12        1.09582   0.00004   0.00000   0.00011   0.00011   1.09592
   D13       -1.09736  -0.00005   0.00000  -0.00009  -0.00009  -1.09745
   D14        1.01894  -0.00029   0.00000  -0.00053  -0.00052   1.01841
   D15        3.10450  -0.00023   0.00000  -0.00042  -0.00042   3.10408
   D16       -0.57819   0.00119   0.00000   0.00169   0.00170  -0.57649
   D17        2.62873   0.00022   0.00000   0.00024   0.00023   2.62896
   D18       -2.61674   0.00072   0.00000   0.00121   0.00122  -2.61552
   D19        0.59018  -0.00025   0.00000  -0.00024  -0.00025   0.58993
   D20        1.63614   0.00015   0.00000   0.00060   0.00061   1.63675
   D21       -1.44012  -0.00082   0.00000  -0.00084  -0.00086  -1.44098
   D22       -3.08778   0.00032   0.00000  -0.00043  -0.00038  -3.08817
   D23       -0.00310  -0.00145   0.00000  -0.00178  -0.00183  -0.00493
         Item               Value     Threshold  Converged?
 Maximum Force            0.218365     0.000450     NO 
 RMS     Force            0.040729     0.000300     NO 
 Maximum Displacement     0.316584     0.001800     NO 
 RMS     Displacement     0.079897     0.001200     NO 
 Predicted change in Energy=-7.413060D-02
 GradGradGradGradGradGradGradGradGradGradGradGradGradGradGradGradGradGrad

                          Input orientation:                          
 ---------------------------------------------------------------------
 Center     Atomic      Atomic             Coordinates (Angstroms)
 Number     Number       Type             X           Y           Z
 ---------------------------------------------------------------------
      1          7           0       -1.216635   -1.086875   -0.428877
      2          1           0       -1.020695   -1.552653    0.453728
      3          6           0       -0.593087    0.235777   -0.485771
      4          1           0       -0.666565    0.609768   -1.510963
      5          6           0       -1.187752    1.302121    0.467464
      6          6           0        0.871818    0.100925   -0.187957
      7          1           0       -1.099908    0.981007    1.509528
      8          1           0       -0.683753    2.265454    0.350807
      9          1           0       -2.247820    1.439350    0.236356
     10          8           0        1.346300   -0.802831    0.643820
     11          1           0       -2.223710   -1.022165   -0.543298
     12          8           0        1.759785    0.887926   -0.660208
     13          1           0        2.246368   -0.411378    0.491334
 ---------------------------------------------------------------------
                    Distance matrix (angstroms):
                    1          2          3          4          5
     1  N    0.000000
     2  H    1.017022   0.000000
     3  C    1.463372   2.064943   0.000000
     4  H    2.086165   2.943040   1.093750   0.000000
     5  C    2.551777   2.859691   1.548991   2.159899   0.000000
     6  C    2.414653   2.593779   1.500941   2.091863   2.472707
     7  H    2.836754   2.745983   2.189395   3.073918   1.093951
     8  H    3.482812   3.834327   2.197196   2.491542   1.093450
     9  H    2.808503   3.241168   2.169838   2.498339   1.093611
    10  O    2.792847   2.490188   2.473035   3.269580   3.298991
    11  H    1.015618   1.650068   2.060257   2.454441   2.738093
    12  O    3.579445   3.863722   2.447802   2.586181   3.182951
    13  H    3.646296   3.460870   3.071815   3.679281   3.837946
                    6          7          8          9         10
     6  C    0.000000
     7  H    2.746581   0.000000
     8  H    2.719422   1.779220   0.000000
     9  H    3.421047   1.774471   1.772527   0.000000
    10  O    1.316724   3.148883   3.690711   4.255713   0.000000
    11  H    3.312083   3.080539   3.738894   2.582149   3.768597
    12  O    1.277057   3.590858   2.981713   4.143524   2.174883
    13  H    1.616564   3.764707   3.971245   4.867025   0.993282
                   11         12         13
    11  H    0.000000
    12  O    4.419315   0.000000
    13  H    4.628727   1.803054   0.000000
 Stoichiometry    C3H7NO2
 Framework group  C1[X(C3H7NO2)]
 Deg. of freedom    33
 Full point group                 C1      NOp   1
 Largest Abelian subgroup         C1      NOp   1
 Largest concise Abelian subgroup C1      NOp   1
                         Standard orientation:                         
 ---------------------------------------------------------------------
 Center     Atomic      Atomic             Coordinates (Angstroms)
 Number     Number       Type             X           Y           Z
 ---------------------------------------------------------------------
      1          7           0       -1.310835   -1.192314   -0.415162
      2          1           0       -1.117233   -1.690497    0.450093
      3          6           0       -0.699057    0.137041   -0.415485
      4          1           0       -0.768296    0.550175   -1.425838
      5          6           0       -1.310611    1.159958    0.573968
      6          6           0        0.764756    0.003671   -0.111694
      7          1           0       -1.227619    0.799126    1.603356
      8          1           0       -0.814626    2.131559    0.498963
      9          1           0       -2.370136    1.296693    0.340094
     10          8           0        1.241284   -0.927673    0.687856
     11          1           0       -2.317577   -1.132133   -0.534856
     12          8           0        1.648962    0.816402   -0.545886
     13          1           0        2.138833   -0.522571    0.557827
 ---------------------------------------------------------------------
 Rotational constants (GHZ):      5.1076386      2.9428714      2.3250566
 Standard basis: 6-31G (6D, 7F)
 There are    68 symmetry adapted cartesian basis functions of A   symmetry.
 There are    68 symmetry adapted basis functions of A   symmetry.
    68 basis functions,   160 primitive gaussians,    68 cartesian basis functions
    24 alpha electrons       24 beta electrons
       nuclear repulsion energy       248.6405512055 Hartrees.
 NAtoms=   13 NActive=   13 NUniq=   13 SFac= 1.00D+00 NAtFMM=   60 NAOKFM=F Big=F
 Integral buffers will be    131072 words long.
 Raffenetti 2 integral format.
 Two-electron integral symmetry is turned on.
 One-electron integrals computed using PRISM.
 NBasis=    68 RedAO= T EigKep=  4.42D-03  NBF=    68
 NBsUse=    68 1.00D-06 EigRej= -1.00D+00 NBFU=    68
 Initial guess from the checkpoint file:  "Ala-S-opt-freq-p1a-6-31g.chk"
 B after Tr=     0.000000    0.000000    0.000000
         Rot=    0.999830   -0.017813   -0.000829   -0.004618 Ang=  -2.11 deg.
 ExpMin= 1.61D-01 ExpMax= 5.48D+03 ExpMxC= 8.25D+02 IAcc=1 IRadAn=         1 AccDes= 0.00D+00
 Harris functional with IExCor=  402 and IRadAn=       1 diagonalized for initial guess.
 HarFok:  IExCor=  402 AccDes= 0.00D+00 IRadAn=         1 IDoV= 1 UseB2=F ITyADJ=14
 ICtDFT=  3500011 ScaDFX=  1.000000  1.000000  1.000000  1.000000
 FoFCou: FMM=F IPFlag=           0 FMFlag=      100000 FMFlg1=           0
         NFxFlg=           0 DoJE=T BraDBF=F KetDBF=T FulRan=T
         wScrn=  0.000000 ICntrl=     500 IOpCl=  0 I1Cent=   200000004 NGrid=           0
         NMat0=    1 NMatS0=      1 NMatT0=    0 NMatD0=    1 NMtDS0=    0 NMtDT0=    0
 Petite list used in FoFCou.
 Keep R1 ints in memory in canonical form, NReq=3676491.
 Requested convergence on RMS density matrix=1.00D-08 within 128 cycles.
 Requested convergence on MAX density matrix=1.00D-06.
 Requested convergence on             energy=1.00D-06.
 No special actions if energy rises.
 Integral accuracy reduced to 1.0D-05 until final iterations.
 Initial convergence to 1.0D-05 achieved.  Increase integral accuracy.
 SCF Done:  E(RB3LYP) =  -323.604041106     A.U. after   15 cycles
            NFock= 15  Conv=0.19D-08     -V/T= 2.0049
 Calling FoFJK, ICntrl=      2127 FMM=F ISym2X=0 I1Cent= 0 IOpClX= 0 NMat=1 NMatS=1 NMatT=0.
 ***** Axes restored to original set *****
 -------------------------------------------------------------------
 Center     Atomic                   Forces (Hartrees/Bohr)
 Number     Number              X              Y              Z
 -------------------------------------------------------------------
      1        7          -0.006811135    0.002112014    0.008355452
      2        1           0.002835367   -0.004106631   -0.000013442
      3        6           0.005138790   -0.003306992    0.001935401
      4        1           0.001101997   -0.000041997   -0.000037674
      5        6          -0.001901490    0.000154682    0.000309451
      6        6          -0.006180146    0.059167809   -0.052589071
      7        1           0.000131451   -0.000277414    0.001484223
      8        1           0.000735602    0.000539464   -0.000229848
      9        1          -0.001611227    0.000403452   -0.000022768
     10        8           0.005050881   -0.019499700    0.018200156
     11        1          -0.002246987   -0.002235562   -0.005094340
     12        8          -0.027762475   -0.006417999    0.000865256
     13        1           0.031519372   -0.026491127    0.026837204
 -------------------------------------------------------------------
 Cartesian Forces:  Max     0.059167809 RMS     0.016410880

 GradGradGradGradGradGradGradGradGradGradGradGradGradGradGradGradGradGrad
 Berny optimization.
 Using GEDIIS/GDIIS optimizer.
 FormGI is forming the generalized inverse of G from B-inverse, IUseBI=4.
 Internal  Forces:  Max     0.088421726 RMS     0.017203163
 Search for a local minimum.
 Step number   2 out of a maximum of   64
 All quantities printed in internal units (Hartrees-Bohrs-Radians)
 Mixed Optimization -- RFO/linear search
 Update second derivatives using D2CorX and points    1    2
 DE= -5.64D-02 DEPred=-7.41D-02 R= 7.61D-01
 TightC=F SS=  1.41D+00  RLast= 3.00D-01 DXNew= 5.0454D-01 9.0098D-01
 Trust test= 7.61D-01 RLast= 3.00D-01 DXMaxT set to 5.05D-01
 ITU=  1  0
 Use linear search instead of GDIIS.
 Linear search step of   0.600 exceeds DXMaxT=   0.505 but not scaled.
 Quartic linear search produced a step of  2.00000.
 Iteration  1 RMS(Cart)=  0.08308478 RMS(Int)=  0.05039218
 Iteration  2 RMS(Cart)=  0.04962113 RMS(Int)=  0.02304327
 Iteration  3 RMS(Cart)=  0.03810988 RMS(Int)=  0.00319708
 Iteration  4 RMS(Cart)=  0.00312446 RMS(Int)=  0.00010501
 Iteration  5 RMS(Cart)=  0.00000476 RMS(Int)=  0.00010497
 Iteration  6 RMS(Cart)=  0.00000000 RMS(Int)=  0.00010497
 Variable       Old X    -DE/DX   Delta X   Delta X   Delta X     New X
                                 (Linear)    (Quad)   (Total)
    R1        1.92189   0.00242   0.00585   0.00000   0.00585   1.92774
    R2        2.76537   0.00660   0.01324   0.00000   0.01324   2.77861
    R3        1.91924   0.00266   0.00558   0.00000   0.00558   1.92482
    R4        2.06689  -0.00005   0.00089   0.00000   0.00089   2.06778
    R5        2.92717   0.00253   0.00682   0.00000   0.00682   2.93398
    R6        2.83637   0.00063  -0.00316   0.00000  -0.00316   2.83321
    R7        2.06727   0.00150   0.00354   0.00000   0.00354   2.07081
    R8        2.06632   0.00084   0.00204   0.00000   0.00204   2.06837
    R9        2.06663   0.00162   0.00343   0.00000   0.00343   2.07005
   R10        2.48825   0.07320   0.15770   0.00000   0.15770   2.64595
   R11        2.41329  -0.02358   0.01324   0.00000   0.01324   2.42652
   R12        1.87703   0.01400   0.09041   0.00000   0.09041   1.96744
    A1        1.94506   0.00344   0.01359   0.00000   0.01338   1.95844
    A2        1.89441   0.00018   0.00266   0.00000   0.00227   1.89668
    A3        1.93966   0.00385   0.01396   0.00000   0.01374   1.95339
    A4        1.89322   0.00057   0.00201   0.00000   0.00201   1.89523
    A5        2.02051  -0.00252  -0.00433   0.00000  -0.00433   2.01617
    A6        1.90387   0.00159   0.00049   0.00000   0.00049   1.90437
    A7        1.89192   0.00066   0.00057   0.00000   0.00058   1.89250
    A8        1.85695  -0.00166  -0.00306   0.00000  -0.00306   1.85389
    A9        1.89066   0.00135   0.00431   0.00000   0.00431   1.89497
   A10        1.93189   0.00022   0.00075   0.00000   0.00075   1.93264
   A11        1.94323  -0.00074  -0.00136   0.00000  -0.00136   1.94188
   A12        1.90547   0.00067   0.00198   0.00000   0.00198   1.90745
   A13        1.89993   0.00007  -0.00037   0.00000  -0.00037   1.89956
   A14        1.89228  -0.00028  -0.00084   0.00000  -0.00084   1.89143
   A15        1.88988   0.00007  -0.00018   0.00000  -0.00018   1.88969
   A16        2.13970  -0.02765  -0.08055   0.00000  -0.08054   2.05915
   A17        2.15302  -0.00552  -0.05823   0.00000  -0.05822   2.09481
   A18        1.98889   0.03313   0.13868   0.00000   0.13867   2.12757
   A19        1.52984   0.08842   0.54487   0.00000   0.54487   2.07471
    D1        2.95286  -0.00246  -0.01008   0.00000  -0.01018   2.94268
    D2       -1.20001  -0.00290  -0.01078   0.00000  -0.01088  -1.21088
    D3        0.93702  -0.00165  -0.00780   0.00000  -0.00790   0.92912
    D4       -1.21490   0.00281   0.01204   0.00000   0.01214  -1.20276
    D5        0.91543   0.00238   0.01134   0.00000   0.01144   0.92686
    D6        3.05245   0.00362   0.01432   0.00000   0.01442   3.06687
    D7        1.04656   0.00078   0.00081   0.00000   0.00081   1.04737
    D8       -3.12076   0.00051  -0.00006   0.00000  -0.00006  -3.12083
    D9       -1.03509   0.00057   0.00015   0.00000   0.00015  -1.03495
   D10       -3.10560   0.00029   0.00088   0.00000   0.00087  -3.10473
   D11       -0.98975   0.00003   0.00000   0.00000   0.00000  -0.98974
   D12        1.09592   0.00009   0.00021   0.00000   0.00021   1.09614
   D13       -1.09745  -0.00061  -0.00018   0.00000  -0.00017  -1.09762
   D14        1.01841  -0.00088  -0.00105   0.00000  -0.00104   1.01737
   D15        3.10408  -0.00081  -0.00084   0.00000  -0.00083   3.10325
   D16       -0.57649   0.00084   0.00340   0.00000   0.00351  -0.57298
   D17        2.62896   0.00067   0.00046   0.00000   0.00034   2.62930
   D18       -2.61552   0.00026   0.00244   0.00000   0.00255  -2.61296
   D19        0.58993   0.00009  -0.00050   0.00000  -0.00061   0.58932
   D20        1.63675  -0.00032   0.00123   0.00000   0.00135   1.63810
   D21       -1.44098  -0.00049  -0.00172   0.00000  -0.00182  -1.44280
   D22       -3.08817  -0.00016  -0.00077   0.00000  -0.00044  -3.08861
   D23       -0.00493  -0.00107  -0.00365   0.00000  -0.00398  -0.00891
         Item               Value     Threshold  Converged?
 Maximum Force            0.088422     0.000450     NO 
 RMS     Force            0.017203     0.000300     NO 
 Maximum Displacement     0.771893     0.001800     NO 
 RMS     Displacement     0.163227     0.001200     NO 
 Predicted change in Energy=-3.120830D-02
 GradGradGradGradGradGradGradGradGradGradGradGradGradGradGradGradGradGrad

                          Input orientation:                          
 ---------------------------------------------------------------------
 Center     Atomic      Atomic             Coordinates (Angstroms)
 Number     Number       Type             X           Y           Z
 ---------------------------------------------------------------------
      1          7           0       -1.181520   -1.073989   -0.427368
      2          1           0       -0.932352   -1.544170    0.442969
      3          6           0       -0.606493    0.276521   -0.513872
      4          1           0       -0.733191    0.644733   -1.536461
      5          6           0       -1.207492    1.323199    0.462768
      6          6           0        0.871897    0.196636   -0.277682
      7          1           0       -1.067016    1.008632    1.503031
      8          1           0       -0.745241    2.305745    0.325189
      9          1           0       -2.282097    1.419657    0.273363
     10          8           0        1.344236   -0.782672    0.604557
     11          1           0       -2.196479   -1.061282   -0.512138
     12          8           0        1.657043    1.053264   -0.824076
     13          1           0        2.363053   -0.819847    0.815682
 ---------------------------------------------------------------------
                    Distance matrix (angstroms):
                    1          2          3          4          5
     1  N    0.000000
     2  H    1.020117   0.000000
     3  C    1.470379   2.082460   0.000000
     4  H    2.094062   2.957888   1.094222   0.000000
     5  C    2.557250   2.880607   1.552598   2.163838   0.000000
     6  C    2.419383   2.608650   1.499268   2.088450   2.478158
     7  H    2.841982   2.767429   2.194531   3.079346   1.095825
     8  H    3.489883   3.856257   2.200233   2.494964   1.094532
     9  H    2.814350   3.261111   2.175810   2.505011   1.095425
    10  O    2.743935   2.406001   2.485582   3.307136   3.311511
    11  H    1.018572   1.656329   2.077925   2.470008   2.759400
    12  O    3.569317   3.880339   2.413121   2.527371   3.151887
    13  H    3.764805   3.394591   3.433357   4.155032   4.179232
                    6          7          8          9         10
     6  C    0.000000
     7  H    2.754933   0.000000
     8  H    2.725239   1.781390   0.000000
     9  H    3.427406   1.776921   1.774758   0.000000
    10  O    1.400176   3.135308   3.739288   4.255612   0.000000
    11  H    3.324494   3.101796   3.760861   2.603728   3.723076
    12  O    1.284061   3.583003   2.942870   4.105538   2.347233
    13  H    2.110029   3.947297   4.435244   5.185258   1.041126
                   11         12         13
    11  H    0.000000
    12  O    4.406613   0.000000
    13  H    4.755074   2.587624   0.000000
 Stoichiometry    C3H7NO2
 Framework group  C1[X(C3H7NO2)]
 Deg. of freedom    33
 Full point group                 C1      NOp   1
 Largest Abelian subgroup         C1      NOp   1
 Largest concise Abelian subgroup C1      NOp   1
                         Standard orientation:                         
 ---------------------------------------------------------------------
 Center     Atomic      Atomic             Coordinates (Angstroms)
 Number     Number       Type             X           Y           Z
 ---------------------------------------------------------------------
      1          7           0       -1.250611   -1.188616   -0.505405
      2          1           0       -1.024271   -1.760679    0.308324
      3          6           0       -0.688205    0.166319   -0.406083
      4          1           0       -0.786122    0.656829   -1.379291
      5          6           0       -1.331871    1.080362    0.671312
      6          6           0        0.782644    0.068464   -0.132525
      7          1           0       -1.221349    0.641008    1.669102
      8          1           0       -0.876432    2.075639    0.670994
      9          1           0       -2.400854    1.191773    0.459609
     10          8           0        1.237324   -1.008711    0.637834
     11          1           0       -2.262405   -1.172786   -0.621638
     12          8           0        1.575315    0.991464   -0.543084
     13          1           0        2.249192   -1.064365    0.876513
 ---------------------------------------------------------------------
 Rotational constants (GHZ):      4.7142440      2.9867363      2.3132536
 Standard basis: 6-31G (6D, 7F)
 There are    68 symmetry adapted cartesian basis functions of A   symmetry.
 There are    68 symmetry adapted basis functions of A   symmetry.
    68 basis functions,   160 primitive gaussians,    68 cartesian basis functions
    24 alpha electrons       24 beta electrons
       nuclear repulsion energy       244.8220964277 Hartrees.
 NAtoms=   13 NActive=   13 NUniq=   13 SFac= 1.00D+00 NAtFMM=   60 NAOKFM=F Big=F
 Integral buffers will be    131072 words long.
 Raffenetti 2 integral format.
 Two-electron integral symmetry is turned on.
 One-electron integrals computed using PRISM.
 NBasis=    68 RedAO= T EigKep=  4.96D-03  NBF=    68
 NBsUse=    68 1.00D-06 EigRej= -1.00D+00 NBFU=    68
 Initial guess from the checkpoint file:  "Ala-S-opt-freq-p1a-6-31g.chk"
 B after Tr=     0.000000    0.000000    0.000000
         Rot=    0.999058   -0.041409   -0.000612   -0.012993 Ang=  -4.98 deg.
 ExpMin= 1.61D-01 ExpMax= 5.48D+03 ExpMxC= 8.25D+02 IAcc=1 IRadAn=         1 AccDes= 0.00D+00
 Harris functional with IExCor=  402 and IRadAn=       1 diagonalized for initial guess.
 HarFok:  IExCor=  402 AccDes= 0.00D+00 IRadAn=         1 IDoV= 1 UseB2=F ITyADJ=14
 ICtDFT=  3500011 ScaDFX=  1.000000  1.000000  1.000000  1.000000
 FoFCou: FMM=F IPFlag=           0 FMFlag=      100000 FMFlg1=           0
         NFxFlg=           0 DoJE=T BraDBF=F KetDBF=T FulRan=T
         wScrn=  0.000000 ICntrl=     500 IOpCl=  0 I1Cent=   200000004 NGrid=           0
         NMat0=    1 NMatS0=      1 NMatT0=    0 NMatD0=    1 NMtDS0=    0 NMtDT0=    0
 Petite list used in FoFCou.
 Keep R1 ints in memory in canonical form, NReq=3676491.
 Requested convergence on RMS density matrix=1.00D-08 within 128 cycles.
 Requested convergence on MAX density matrix=1.00D-06.
 Requested convergence on             energy=1.00D-06.
 No special actions if energy rises.
 Integral accuracy reduced to 1.0D-05 until final iterations.
 Initial convergence to 1.0D-05 achieved.  Increase integral accuracy.
 SCF Done:  E(RB3LYP) =  -323.618693212     A.U. after   14 cycles
            NFock= 14  Conv=0.97D-08     -V/T= 2.0065
 Calling FoFJK, ICntrl=      2127 FMM=F ISym2X=0 I1Cent= 0 IOpClX= 0 NMat=1 NMatS=1 NMatT=0.
 ***** Axes restored to original set *****
 -------------------------------------------------------------------
 Center     Atomic                   Forces (Hartrees/Bohr)
 Number     Number              X              Y              Z
 -------------------------------------------------------------------
      1        7          -0.009575092    0.001850122    0.008431328
      2        1           0.003754834   -0.000345730   -0.003155017
      3        6          -0.003905239   -0.013492425    0.008807556
      4        1           0.001769912   -0.000656791    0.000501647
      5        6          -0.001666963   -0.000204918    0.000517195
      6        6           0.069376721    0.040865086   -0.023205053
      7        1           0.000211023   -0.000204125   -0.000009541
      8        1           0.000466415   -0.000058415   -0.000252812
      9        1          -0.000493730    0.000004709   -0.000081156
     10        8           0.015165464    0.002425383    0.003436507
     11        1           0.000451594   -0.000701421   -0.004569050
     12        8          -0.031076885   -0.042382540    0.028935336
     13        1          -0.044478054    0.012901065   -0.019356939
 -------------------------------------------------------------------
 Cartesian Forces:  Max     0.069376721 RMS     0.018866812

 GradGradGradGradGradGradGradGradGradGradGradGradGradGradGradGradGradGrad
 Berny optimization.
 Using GEDIIS/GDIIS optimizer.
 FormGI is forming the generalized inverse of G from B-inverse, IUseBI=4.
 Internal  Forces:  Max     0.059589181 RMS     0.012644002
 Search for a local minimum.
 Step number   3 out of a maximum of   64
 All quantities printed in internal units (Hartrees-Bohrs-Radians)
 Mixed Optimization -- RFO/linear search
 Update second derivatives using D2CorX and points    2    3
 ITU=  0  1  0
 Use linear search instead of GDIIS.
     Eigenvalues ---    0.00230   0.00742   0.00900   0.01424   0.03345
     Eigenvalues ---    0.03803   0.04225   0.05075   0.05423   0.05649
     Eigenvalues ---    0.06885   0.15988   0.16000   0.16000   0.16000
     Eigenvalues ---    0.16000   0.17507   0.18707   0.20048   0.23800
     Eigenvalues ---    0.26094   0.27893   0.32254   0.34411   0.34467
     Eigenvalues ---    0.34478   0.34502   0.36980   0.45077   0.45286
     Eigenvalues ---    0.54658   0.68022   0.77478
 RFO step:  Lambda=-8.06095272D-03 EMin= 2.29999995D-03
 Quartic linear search produced a step of -0.37091.
 Iteration  1 RMS(Cart)=  0.05165978 RMS(Int)=  0.00278123
 Iteration  2 RMS(Cart)=  0.00252415 RMS(Int)=  0.00029062
 Iteration  3 RMS(Cart)=  0.00001307 RMS(Int)=  0.00029045
 Iteration  4 RMS(Cart)=  0.00000000 RMS(Int)=  0.00029045
 Variable       Old X    -DE/DX   Delta X   Delta X   Delta X     New X
                                 (Linear)    (Quad)   (Total)
    R1        1.92774  -0.00162  -0.00217  -0.00032  -0.00249   1.92525
    R2        2.77861   0.00140  -0.00491   0.00849   0.00358   2.78219
    R3        1.92482  -0.00008  -0.00207   0.00197  -0.00010   1.92472
    R4        2.06778  -0.00089  -0.00033  -0.00168  -0.00201   2.06577
    R5        2.93398   0.00037  -0.00253   0.00376   0.00124   2.93522
    R6        2.83321   0.00652   0.00117   0.01322   0.01439   2.84759
    R7        2.07081   0.00008  -0.00131   0.00161   0.00030   2.07111
    R8        2.06837   0.00018  -0.00076   0.00114   0.00038   2.06875
    R9        2.07005   0.00050  -0.00127   0.00248   0.00121   2.07126
   R10        2.64595  -0.03064  -0.05849   0.01219  -0.04630   2.59965
   R11        2.42652  -0.05959  -0.00491  -0.06068  -0.06559   2.36094
   R12        1.96744  -0.04791  -0.03353  -0.04613  -0.07966   1.88778
    A1        1.95844  -0.00018  -0.00496   0.02208   0.01629   1.97472
    A2        1.89668   0.00236  -0.00084   0.03856   0.03638   1.93306
    A3        1.95339   0.00180  -0.00510   0.03044   0.02451   1.97791
    A4        1.89523  -0.00021  -0.00074  -0.00376  -0.00443   1.89080
    A5        2.01617  -0.00301   0.00161  -0.00954  -0.00809   2.00809
    A6        1.90437   0.00415  -0.00018   0.02352   0.02336   1.92773
    A7        1.89250   0.00146  -0.00021   0.00120   0.00095   1.89345
    A8        1.85389  -0.00221   0.00114  -0.01911  -0.01792   1.83597
    A9        1.89497  -0.00020  -0.00160   0.00633   0.00468   1.89965
   A10        1.93264  -0.00030  -0.00028  -0.00102  -0.00130   1.93134
   A11        1.94188  -0.00065   0.00050  -0.00435  -0.00385   1.93803
   A12        1.90745   0.00019  -0.00073   0.00268   0.00195   1.90940
   A13        1.89956   0.00034   0.00014   0.00013   0.00026   1.89982
   A14        1.89143   0.00015   0.00031   0.00090   0.00122   1.89265
   A15        1.88969   0.00030   0.00007   0.00183   0.00190   1.89160
   A16        2.05915  -0.02167   0.02987  -0.08812  -0.05832   2.00083
   A17        2.09481   0.01923   0.02159   0.04191   0.06340   2.15821
   A18        2.12757   0.00239  -0.05143   0.04494  -0.00654   2.12102
   A19        2.07471  -0.02941  -0.20210   0.02284  -0.17926   1.89545
    D1        2.94268  -0.00217   0.00377  -0.04109  -0.03764   2.90504
    D2       -1.21088  -0.00252   0.00404  -0.04905  -0.04533  -1.25621
    D3        0.92912  -0.00167   0.00293  -0.02899  -0.02639   0.90273
    D4       -1.20276   0.00211  -0.00450   0.04813   0.04394  -1.15882
    D5        0.92686   0.00176  -0.00424   0.04017   0.03626   0.96312
    D6        3.06687   0.00261  -0.00535   0.06022   0.05519   3.12206
    D7        1.04737   0.00157  -0.00030   0.01444   0.01411   1.06149
    D8       -3.12083   0.00135   0.00002   0.01097   0.01097  -3.10986
    D9       -1.03495   0.00145  -0.00005   0.01226   0.01218  -1.02277
   D10       -3.10473   0.00034  -0.00032   0.00385   0.00353  -3.10120
   D11       -0.98974   0.00012   0.00000   0.00037   0.00038  -0.98936
   D12        1.09614   0.00022  -0.00008   0.00167   0.00160   1.09773
   D13       -1.09762  -0.00159   0.00006  -0.01471  -0.01463  -1.11225
   D14        1.01737  -0.00182   0.00039  -0.01819  -0.01778   0.99959
   D15        3.10325  -0.00172   0.00031  -0.01689  -0.01656   3.08669
   D16       -0.57298   0.00012  -0.00130  -0.01455  -0.01613  -0.58912
   D17        2.62930   0.00092  -0.00013   0.00711   0.00703   2.63633
   D18       -2.61296  -0.00053  -0.00095  -0.01171  -0.01277  -2.62574
   D19        0.58932   0.00027   0.00023   0.00995   0.01039   0.59971
   D20        1.63810  -0.00099  -0.00050  -0.00628  -0.00688   1.63122
   D21       -1.44280  -0.00019   0.00068   0.01537   0.01629  -1.42652
   D22       -3.08861  -0.00052   0.00016  -0.00251  -0.00286  -3.09147
   D23       -0.00891  -0.00074   0.00148  -0.02483  -0.02284  -0.03176
         Item               Value     Threshold  Converged?
 Maximum Force            0.059589     0.000450     NO 
 RMS     Force            0.012644     0.000300     NO 
 Maximum Displacement     0.210993     0.001800     NO 
 RMS     Displacement     0.051742     0.001200     NO 
 Predicted change in Energy=-7.656816D-03
 GradGradGradGradGradGradGradGradGradGradGradGradGradGradGradGradGradGrad

                          Input orientation:                          
 ---------------------------------------------------------------------
 Center     Atomic      Atomic             Coordinates (Angstroms)
 Number     Number       Type             X           Y           Z
 ---------------------------------------------------------------------
      1          7           0       -1.192948   -1.075061   -0.410598
      2          1           0       -0.934366   -1.572790    0.439904
      3          6           0       -0.595269    0.267479   -0.499791
      4          1           0       -0.715658    0.630136   -1.523989
      5          6           0       -1.197167    1.321195    0.469740
      6          6           0        0.893572    0.196773   -0.278323
      7          1           0       -1.058455    1.011502    1.511867
      8          1           0       -0.728680    2.300168    0.326293
      9          1           0       -2.271677    1.420779    0.277722
     10          8           0        1.295571   -0.771506    0.612358
     11          1           0       -2.203715   -1.075677   -0.536030
     12          8           0        1.707143    1.001621   -0.779528
     13          1           0        2.285997   -0.708194    0.726337
 ---------------------------------------------------------------------
                    Distance matrix (angstroms):
                    1          2          3          4          5
     1  N    0.000000
     2  H    1.018799   0.000000
     3  C    1.472274   2.093945   0.000000
     4  H    2.091684   2.959323   1.093158   0.000000
     5  C    2.552853   2.906046   1.553252   2.164341   0.000000
     6  C    2.447166   2.643588   1.506882   2.080651   2.488998
     7  H    2.840371   2.800548   2.194284   3.078859   1.095984
     8  H    3.485789   3.880080   2.198190   2.492533   1.094735
     9  H    2.804757   3.282706   2.178296   2.508480   1.096065
    10  O    2.707639   2.375798   2.427270   3.251710   3.257833
    11  H    1.018520   1.676548   2.095825   2.469853   2.787420
    12  O    3.585978   3.884865   2.432758   2.561677   3.177705
    13  H    3.678352   3.346686   3.279789   3.983093   4.039393
                    6          7          8          9         10
     6  C    0.000000
     7  H    2.771096   0.000000
     8  H    2.724249   1.781853   0.000000
     9  H    3.438921   1.778350   1.776660   0.000000
    10  O    1.375674   3.087016   3.689797   4.200398   0.000000
    11  H    3.358382   3.140353   3.783604   2.626615   3.695445
    12  O    1.249353   3.591534   2.973600   4.138173   2.291444
    13  H    1.940916   3.841845   4.277681   5.050363   0.998971
                   11         12         13
    11  H    0.000000
    12  O    4.435005   0.000000
    13  H    4.678261   2.350780   0.000000
 Stoichiometry    C3H7NO2
 Framework group  C1[X(C3H7NO2)]
 Deg. of freedom    33
 Full point group                 C1      NOp   1
 Largest Abelian subgroup         C1      NOp   1
 Largest concise Abelian subgroup C1      NOp   1
                         Standard orientation:                         
 ---------------------------------------------------------------------
 Center     Atomic      Atomic             Coordinates (Angstroms)
 Number     Number       Type             X           Y           Z
 ---------------------------------------------------------------------
      1          7           0       -1.292826   -1.164782   -0.473155
      2          1           0       -1.074610   -1.744914    0.335412
      3          6           0       -0.674243    0.169821   -0.411650
      4          1           0       -0.749346    0.629553   -1.400590
      5          6           0       -1.299758    1.137376    0.630059
      6          6           0        0.803642    0.053204   -0.141558
      7          1           0       -1.206349    0.728358    1.642560
      8          1           0       -0.812969    2.117408    0.598151
      9          1           0       -2.364446    1.272908    0.407730
     10          8           0        1.157292   -1.001541    0.667715
     11          1           0       -2.297786   -1.136359   -0.636347
     12          8           0        1.646987    0.887822   -0.532793
     13          1           0        2.143216   -0.966131    0.824699
 ---------------------------------------------------------------------
 Rotational constants (GHZ):      4.8608800      2.9885673      2.3323818
 Standard basis: 6-31G (6D, 7F)
 There are    68 symmetry adapted cartesian basis functions of A   symmetry.
 There are    68 symmetry adapted basis functions of A   symmetry.
    68 basis functions,   160 primitive gaussians,    68 cartesian basis functions
    24 alpha electrons       24 beta electrons
       nuclear repulsion energy       246.7165700437 Hartrees.
 NAtoms=   13 NActive=   13 NUniq=   13 SFac= 1.00D+00 NAtFMM=   60 NAOKFM=F Big=F
 Integral buffers will be    131072 words long.
 Raffenetti 2 integral format.
 Two-electron integral symmetry is turned on.
 One-electron integrals computed using PRISM.
 NBasis=    68 RedAO= T EigKep=  5.00D-03  NBF=    68
 NBsUse=    68 1.00D-06 EigRej= -1.00D+00 NBFU=    68
 Initial guess from the checkpoint file:  "Ala-S-opt-freq-p1a-6-31g.chk"
 B after Tr=     0.000000    0.000000    0.000000
         Rot=    0.999712    0.015091    0.005765    0.017751 Ang=   2.75 deg.
 ExpMin= 1.61D-01 ExpMax= 5.48D+03 ExpMxC= 8.25D+02 IAcc=1 IRadAn=         1 AccDes= 0.00D+00
 Harris functional with IExCor=  402 and IRadAn=       1 diagonalized for initial guess.
 HarFok:  IExCor=  402 AccDes= 0.00D+00 IRadAn=         1 IDoV= 1 UseB2=F ITyADJ=14
 ICtDFT=  3500011 ScaDFX=  1.000000  1.000000  1.000000  1.000000
 FoFCou: FMM=F IPFlag=           0 FMFlag=      100000 FMFlg1=           0
         NFxFlg=           0 DoJE=T BraDBF=F KetDBF=T FulRan=T
         wScrn=  0.000000 ICntrl=     500 IOpCl=  0 I1Cent=   200000004 NGrid=           0
         NMat0=    1 NMatS0=      1 NMatT0=    0 NMatD0=    1 NMtDS0=    0 NMtDT0=    0
 Petite list used in FoFCou.
 Keep R1 ints in memory in canonical form, NReq=3676491.
 Requested convergence on RMS density matrix=1.00D-08 within 128 cycles.
 Requested convergence on MAX density matrix=1.00D-06.
 Requested convergence on             energy=1.00D-06.
 No special actions if energy rises.
 Integral accuracy reduced to 1.0D-05 until final iterations.
 Initial convergence to 1.0D-05 achieved.  Increase integral accuracy.
 SCF Done:  E(RB3LYP) =  -323.629416171     A.U. after   13 cycles
            NFock= 13  Conv=0.47D-08     -V/T= 2.0059
 Calling FoFJK, ICntrl=      2127 FMM=F ISym2X=0 I1Cent= 0 IOpClX= 0 NMat=1 NMatS=1 NMatT=0.
 ***** Axes restored to original set *****
 -------------------------------------------------------------------
 Center     Atomic                   Forces (Hartrees/Bohr)
 Number     Number              X              Y              Z
 -------------------------------------------------------------------
      1        7          -0.002816930    0.002728004    0.005924120
      2        1           0.001521480    0.000730285   -0.003192431
      3        6          -0.004191968   -0.007713814    0.001474111
      4        1          -0.000888252    0.000424437   -0.000829002
      5        6          -0.000179439   -0.000178416    0.000010162
      6        6           0.016007746    0.017985217   -0.009519418
      7        1           0.000078157   -0.000181357   -0.000147980
      8        1           0.000063075    0.000471033    0.000139444
      9        1           0.000251206   -0.000075002   -0.000022716
     10        8           0.011892311    0.001468558    0.001248958
     11        1           0.002967695    0.000534049   -0.002291290
     12        8          -0.011281700   -0.013832637    0.007987581
     13        1          -0.013423382   -0.002360356   -0.000781540
 -------------------------------------------------------------------
 Cartesian Forces:  Max     0.017985217 RMS     0.006290952

 GradGradGradGradGradGradGradGradGradGradGradGradGradGradGradGradGradGrad
 Berny optimization.
 Using GEDIIS/GDIIS optimizer.
 FormGI is forming the generalized inverse of G from B-inverse, IUseBI=4.
 Internal  Forces:  Max     0.019463240 RMS     0.003596681
 Search for a local minimum.
 Step number   4 out of a maximum of   64
 All quantities printed in internal units (Hartrees-Bohrs-Radians)
 Mixed Optimization -- RFO/linear search
 Update second derivatives using D2CorX and points    2    3    4
 DE= -1.07D-02 DEPred=-7.66D-03 R= 1.40D+00
 TightC=F SS=  1.41D+00  RLast= 2.63D-01 DXNew= 8.4853D-01 7.8794D-01
 Trust test= 1.40D+00 RLast= 2.63D-01 DXMaxT set to 7.88D-01
 ITU=  1  0  1  0
 Use linear search instead of GDIIS.
     Eigenvalues ---    0.00230   0.00742   0.00900   0.01401   0.03335
     Eigenvalues ---    0.03352   0.04177   0.05129   0.05453   0.05644
     Eigenvalues ---    0.06858   0.15976   0.15997   0.16000   0.16000
     Eigenvalues ---    0.16016   0.17452   0.18309   0.18915   0.23556
     Eigenvalues ---    0.24349   0.27894   0.32072   0.34430   0.34467
     Eigenvalues ---    0.34477   0.34507   0.37215   0.44892   0.45228
     Eigenvalues ---    0.49715   0.66320   0.71104
 RFO step:  Lambda=-1.58501942D-03 EMin= 2.29998191D-03
 Quartic linear search produced a step of  0.15703.
 Iteration  1 RMS(Cart)=  0.02749093 RMS(Int)=  0.00077339
 Iteration  2 RMS(Cart)=  0.00090852 RMS(Int)=  0.00018817
 Iteration  3 RMS(Cart)=  0.00000054 RMS(Int)=  0.00018817
 Variable       Old X    -DE/DX   Delta X   Delta X   Delta X     New X
                                 (Linear)    (Quad)   (Total)
    R1        1.92525  -0.00264  -0.00039  -0.00689  -0.00728   1.91797
    R2        2.78219  -0.00429   0.00056  -0.01489  -0.01433   2.76787
    R3        1.92472  -0.00266  -0.00002  -0.00727  -0.00729   1.91743
    R4        2.06577   0.00102  -0.00032   0.00402   0.00371   2.06948
    R5        2.93522  -0.00007   0.00019  -0.00041  -0.00021   2.93501
    R6        2.84759   0.00284   0.00226   0.00889   0.01115   2.85874
    R7        2.07111  -0.00008   0.00005  -0.00027  -0.00022   2.07089
    R8        2.06875   0.00043   0.00006   0.00156   0.00162   2.07037
    R9        2.07126  -0.00025   0.00019  -0.00104  -0.00085   2.07042
   R10        2.59965   0.00048  -0.00727   0.01063   0.00336   2.60301
   R11        2.36094  -0.01946  -0.01030  -0.02368  -0.03398   2.32696
   R12        1.88778  -0.01355  -0.01251  -0.01925  -0.03175   1.85603
    A1        1.97472   0.00016   0.00256   0.00838   0.01049   1.98521
    A2        1.93306   0.00175   0.00571   0.02400   0.02903   1.96209
    A3        1.97791  -0.00055   0.00385   0.00134   0.00474   1.98265
    A4        1.89080  -0.00016  -0.00070  -0.00029  -0.00097   1.88983
    A5        2.00809   0.00023  -0.00127  -0.00073  -0.00205   2.00604
    A6        1.92773  -0.00021   0.00367  -0.00792  -0.00426   1.92347
    A7        1.89345  -0.00011   0.00015   0.00027   0.00041   1.89386
    A8        1.83597   0.00052  -0.00281   0.01429   0.01149   1.84746
    A9        1.89965  -0.00024   0.00074  -0.00396  -0.00326   1.89640
   A10        1.93134  -0.00040  -0.00020  -0.00335  -0.00355   1.92779
   A11        1.93803   0.00045  -0.00060   0.00482   0.00421   1.94224
   A12        1.90940  -0.00012   0.00031  -0.00148  -0.00118   1.90822
   A13        1.89982  -0.00001   0.00004   0.00024   0.00028   1.90011
   A14        1.89265   0.00017   0.00019  -0.00013   0.00005   1.89270
   A15        1.89160  -0.00008   0.00030  -0.00013   0.00017   1.89176
   A16        2.00083  -0.00649  -0.00916  -0.02251  -0.03217   1.96866
   A17        2.15821   0.00533   0.00996   0.01801   0.02747   2.18568
   A18        2.12102   0.00119  -0.00103   0.00905   0.00752   2.12854
   A19        1.89545   0.00310  -0.02815   0.04939   0.02125   1.91670
    D1        2.90504  -0.00083  -0.00591  -0.01624  -0.02231   2.88272
    D2       -1.25621  -0.00094  -0.00712  -0.01661  -0.02389  -1.28010
    D3        0.90273  -0.00125  -0.00414  -0.02890  -0.03320   0.86953
    D4       -1.15882   0.00126   0.00690   0.02552   0.03257  -1.12624
    D5        0.96312   0.00115   0.00569   0.02515   0.03100   0.99412
    D6        3.12206   0.00084   0.00867   0.01286   0.02169  -3.13944
    D7        1.06149  -0.00011   0.00222  -0.00872  -0.00651   1.05498
    D8       -3.10986  -0.00009   0.00172  -0.00745  -0.00573  -3.11559
    D9       -1.02277   0.00001   0.00191  -0.00556  -0.00365  -1.02642
   D10       -3.10120  -0.00025   0.00055  -0.00939  -0.00884  -3.11004
   D11       -0.98936  -0.00023   0.00006  -0.00812  -0.00806  -0.99742
   D12        1.09773  -0.00013   0.00025  -0.00623  -0.00598   1.09175
   D13       -1.11225   0.00018  -0.00230   0.00551   0.00321  -1.10904
   D14        0.99959   0.00020  -0.00279   0.00678   0.00399   1.00358
   D15        3.08669   0.00030  -0.00260   0.00867   0.00607   3.09275
   D16       -0.58912   0.00009  -0.00253   0.00853   0.00604  -0.58307
   D17        2.63633  -0.00045   0.00110  -0.05277  -0.05177   2.58456
   D18       -2.62574   0.00009  -0.00201   0.00485   0.00293  -2.62281
   D19        0.59971  -0.00045   0.00163  -0.05645  -0.05488   0.54482
   D20        1.63122   0.00006  -0.00108  -0.00093  -0.00192   1.62930
   D21       -1.42652  -0.00047   0.00256  -0.06223  -0.05973  -1.48625
   D22       -3.09147  -0.00073  -0.00045  -0.03825  -0.03849  -3.12996
   D23       -0.03176   0.00002  -0.00359   0.02212   0.01832  -0.01344
         Item               Value     Threshold  Converged?
 Maximum Force            0.019463     0.000450     NO 
 RMS     Force            0.003597     0.000300     NO 
 Maximum Displacement     0.083523     0.001800     NO 
 RMS     Displacement     0.027767     0.001200     NO 
 Predicted change in Energy=-1.050528D-03
 GradGradGradGradGradGradGradGradGradGradGradGradGradGradGradGradGradGrad

                          Input orientation:                          
 ---------------------------------------------------------------------
 Center     Atomic      Atomic             Coordinates (Angstroms)
 Number     Number       Type             X           Y           Z
 ---------------------------------------------------------------------
      1          7           0       -1.174194   -1.063896   -0.400243
      2          1           0       -0.890168   -1.570211    0.432280
      3          6           0       -0.596226    0.278226   -0.500185
      4          1           0       -0.733810    0.635940   -1.526051
      5          6           0       -1.202074    1.326241    0.472880
      6          6           0        0.899294    0.220867   -0.279650
      7          1           0       -1.052877    1.014467    1.512814
      8          1           0       -0.746135    2.312106    0.329673
      9          1           0       -2.278494    1.413097    0.288079
     10          8           0        1.269290   -0.756089    0.618144
     11          1           0       -2.178640   -1.085194   -0.542286
     12          8           0        1.724086    0.968675   -0.805748
     13          1           0        2.244295   -0.747802    0.736255
 ---------------------------------------------------------------------
                    Distance matrix (angstroms):
                    1          2          3          4          5
     1  N    0.000000
     2  H    1.014948   0.000000
     3  C    1.464693   2.091078   0.000000
     4  H    2.085863   2.954083   1.095121   0.000000
     5  C    2.544774   2.913480   1.553140   2.165990   0.000000
     6  C    2.442235   2.630014   1.512780   2.095907   2.490763
     7  H    2.827384   2.806169   2.191516   3.078926   1.095867
     8  H    3.480431   3.886342   2.201772   2.500678   1.095590
     9  H    2.797992   3.293686   2.176997   2.506210   1.095617
    10  O    2.665047   2.315297   2.408447   3.247726   3.234941
    11  H    1.014662   1.686765   2.089191   2.453086   2.792715
    12  O    3.563118   3.848763   2.440069   2.582789   3.213278
    13  H    3.616299   3.254784   3.263445   3.987716   4.030940
                    6          7          8          9         10
     6  C    0.000000
     7  H    2.766532   0.000000
     8  H    2.729833   1.782633   0.000000
     9  H    3.441230   1.777925   1.777096   0.000000
    10  O    1.377452   3.054139   3.682251   4.171461   0.000000
    11  H    3.353870   3.146323   3.788670   2.634565   3.652825
    12  O    1.231373   3.617921   3.032487   4.173082   2.282349
    13  H    1.944071   3.818374   4.297792   5.032491   0.982168
                   11         12         13
    11  H    0.000000
    12  O    4.418038   0.000000
    13  H    4.616368   2.365308   0.000000
 Stoichiometry    C3H7NO2
 Framework group  C1[X(C3H7NO2)]
 Deg. of freedom    33
 Full point group                 C1      NOp   1
 Largest Abelian subgroup         C1      NOp   1
 Largest concise Abelian subgroup C1      NOp   1
                         Standard orientation:                         
 ---------------------------------------------------------------------
 Center     Atomic      Atomic             Coordinates (Angstroms)
 Number     Number       Type             X           Y           Z
 ---------------------------------------------------------------------
      1          7           0       -1.258416   -1.167212   -0.483019
      2          1           0       -1.018263   -1.757413    0.306987
      3          6           0       -0.672701    0.173649   -0.417027
      4          1           0       -0.757175    0.634475   -1.406872
      5          6           0       -1.324434    1.122342    0.625790
      6          6           0        0.809561    0.082758   -0.128681
      7          1           0       -1.228958    0.705705    1.634860
      8          1           0       -0.859306    2.114109    0.606495
      9          1           0       -2.389874    1.235738    0.396976
     10          8           0        1.131063   -0.982921    0.682700
     11          1           0       -2.254418   -1.166295   -0.676719
     12          8           0        1.661875    0.873646   -0.534064
     13          1           0        2.098843   -0.994131    0.849824
 ---------------------------------------------------------------------
 Rotational constants (GHZ):      4.8953304      2.9933989      2.3540853
 Standard basis: 6-31G (6D, 7F)
 There are    68 symmetry adapted cartesian basis functions of A   symmetry.
 There are    68 symmetry adapted basis functions of A   symmetry.
    68 basis functions,   160 primitive gaussians,    68 cartesian basis functions
    24 alpha electrons       24 beta electrons
       nuclear repulsion energy       247.5249542161 Hartrees.
 NAtoms=   13 NActive=   13 NUniq=   13 SFac= 1.00D+00 NAtFMM=   60 NAOKFM=F Big=F
 Integral buffers will be    131072 words long.
 Raffenetti 2 integral format.
 Two-electron integral symmetry is turned on.
 One-electron integrals computed using PRISM.
 NBasis=    68 RedAO= T EigKep=  4.96D-03  NBF=    68
 NBsUse=    68 1.00D-06 EigRej= -1.00D+00 NBFU=    68
 Initial guess from the checkpoint file:  "Ala-S-opt-freq-p1a-6-31g.chk"
 B after Tr=     0.000000    0.000000    0.000000
         Rot=    0.999980    0.000168    0.005483   -0.003132 Ang=   0.72 deg.
 ExpMin= 1.61D-01 ExpMax= 5.48D+03 ExpMxC= 8.25D+02 IAcc=1 IRadAn=         1 AccDes= 0.00D+00
 Harris functional with IExCor=  402 and IRadAn=       1 diagonalized for initial guess.
 HarFok:  IExCor=  402 AccDes= 0.00D+00 IRadAn=         1 IDoV= 1 UseB2=F ITyADJ=14
 ICtDFT=  3500011 ScaDFX=  1.000000  1.000000  1.000000  1.000000
 FoFCou: FMM=F IPFlag=           0 FMFlag=      100000 FMFlg1=           0
         NFxFlg=           0 DoJE=T BraDBF=F KetDBF=T FulRan=T
         wScrn=  0.000000 ICntrl=     500 IOpCl=  0 I1Cent=   200000004 NGrid=           0
         NMat0=    1 NMatS0=      1 NMatT0=    0 NMatD0=    1 NMtDS0=    0 NMtDT0=    0
 Petite list used in FoFCou.
 Keep R1 ints in memory in canonical form, NReq=3676491.
 Requested convergence on RMS density matrix=1.00D-08 within 128 cycles.
 Requested convergence on MAX density matrix=1.00D-06.
 Requested convergence on             energy=1.00D-06.
 No special actions if energy rises.
 Integral accuracy reduced to 1.0D-05 until final iterations.
 Initial convergence to 1.0D-05 achieved.  Increase integral accuracy.
 SCF Done:  E(RB3LYP) =  -323.630436144     A.U. after   13 cycles
            NFock= 13  Conv=0.45D-08     -V/T= 2.0056
 Calling FoFJK, ICntrl=      2127 FMM=F ISym2X=0 I1Cent= 0 IOpClX= 0 NMat=1 NMatS=1 NMatT=0.
 ***** Axes restored to original set *****
 -------------------------------------------------------------------
 Center     Atomic                   Forces (Hartrees/Bohr)
 Number     Number              X              Y              Z
 -------------------------------------------------------------------
      1        7          -0.001813351    0.001548405    0.002835718
      2        1           0.000640566   -0.000091470   -0.001501428
      3        6          -0.001557608   -0.002122852    0.001579946
      4        1           0.000505430    0.000598422    0.000218433
      5        6          -0.000239071    0.000226663   -0.000011420
      6        6          -0.000459800   -0.001994483   -0.006005058
      7        1           0.000003852   -0.000030873   -0.000028602
      8        1          -0.000124185    0.000161238    0.000108615
      9        1          -0.000087510    0.000183968    0.000096114
     10        8           0.000824011    0.000103720    0.003132275
     11        1           0.000831854   -0.000426235   -0.001216450
     12        8           0.001729919    0.002530410    0.000381690
     13        1          -0.000254107   -0.000686915    0.000410169
 -------------------------------------------------------------------
 Cartesian Forces:  Max     0.006005058 RMS     0.001519573

 GradGradGradGradGradGradGradGradGradGradGradGradGradGradGradGradGradGrad
 Berny optimization.
[...]
   A11        1.94810   0.00000   0.00000   0.00004   0.00004   1.94814
   A12        1.90909  -0.00001   0.00000  -0.00005  -0.00005   1.90904
   A13        1.89709   0.00000   0.00000  -0.00002  -0.00002   1.89708
   A14        1.89506   0.00000   0.00000   0.00001   0.00001   1.89507
   A15        1.88891   0.00000   0.00000   0.00001   0.00001   1.88892
   A16        1.94219   0.00000   0.00000  -0.00003  -0.00003   1.94216
   A17        2.20979   0.00000   0.00000   0.00009   0.00009   2.20988
   A18        2.13047  -0.00001   0.00000  -0.00006  -0.00006   2.13041
   A19        1.92686  -0.00001   0.00000  -0.00013  -0.00013   1.92672
    D1        3.00260   0.00000   0.00000   0.00005   0.00005   3.00265
    D2       -1.14836   0.00000   0.00000   0.00008   0.00008  -1.14827
    D3        1.00819   0.00000   0.00000   0.00017   0.00017   1.00836
    D4       -0.91124   0.00000   0.00000  -0.00002  -0.00002  -0.91126
    D5        1.22099   0.00000   0.00000   0.00001   0.00001   1.22100
    D6       -2.90565   0.00000   0.00000   0.00010   0.00010  -2.90556
    D7        1.04259   0.00000   0.00000  -0.00006  -0.00006   1.04253
    D8       -3.13011   0.00000   0.00000  -0.00004  -0.00004  -3.13015
    D9       -1.04024   0.00000   0.00000  -0.00004  -0.00004  -1.04028
   D10       -3.11559   0.00000   0.00000  -0.00005  -0.00005  -3.11565
   D11       -1.00511   0.00000   0.00000  -0.00004  -0.00004  -1.00515
   D12        1.08476   0.00000   0.00000  -0.00004  -0.00004   1.08472
   D13       -1.10536   0.00000   0.00000   0.00003   0.00003  -1.10533
   D14        1.00513   0.00000   0.00000   0.00004   0.00004   1.00516
   D15        3.09500   0.00000   0.00000   0.00004   0.00004   3.09504
   D16       -0.87736   0.00000   0.00000  -0.00060  -0.00060  -0.87796
   D17        2.30502   0.00000   0.00000  -0.00076  -0.00076   2.30426
   D18       -2.90190   0.00000   0.00000  -0.00050  -0.00050  -2.90240
   D19        0.28047   0.00000   0.00000  -0.00065  -0.00065   0.27982
   D20        1.33325   0.00000   0.00000  -0.00061  -0.00061   1.33265
   D21       -1.76756   0.00000   0.00000  -0.00076  -0.00076  -1.76832
   D22        3.13486   0.00000   0.00000  -0.00006  -0.00006   3.13480
   D23       -0.04536   0.00000   0.00000   0.00008   0.00008  -0.04528
         Item               Value     Threshold  Converged?
 Maximum Force            0.000048     0.000450     YES
 RMS     Force            0.000008     0.000300     YES
 Maximum Displacement     0.001327     0.001800     YES
 RMS     Displacement     0.000281     0.001200     YES
 Predicted change in Energy=-9.853821D-09
 Optimization completed.
    -- Stationary point found.
                           ----------------------------
                           !   Optimized Parameters   !
                           ! (Angstroms and Degrees)  !
 --------------------------                            --------------------------
 ! Name  Definition              Value          Derivative Info.                !
 --------------------------------------------------------------------------------
 ! R1    R(1,2)                  1.0121         -DE/DX =    0.0                 !
 ! R2    R(1,3)                  1.4613         -DE/DX =    0.0                 !
 ! R3    R(1,11)                 1.0113         -DE/DX =    0.0                 !
 ! R4    R(3,4)                  1.0941         -DE/DX =    0.0                 !
 ! R5    R(3,5)                  1.551          -DE/DX =    0.0                 !
 ! R6    R(3,6)                  1.5164         -DE/DX =    0.0                 !
 ! R7    R(5,7)                  1.0951         -DE/DX =    0.0                 !
 ! R8    R(5,8)                  1.0966         -DE/DX =    0.0                 !
 ! R9    R(5,9)                  1.0958         -DE/DX =    0.0                 !
 ! R10   R(6,10)                 1.3839         -DE/DX =    0.0                 !
 ! R11   R(6,12)                 1.2313         -DE/DX =    0.0                 !
 ! R12   R(10,13)                0.9816         -DE/DX =    0.0                 !
 ! A1    A(2,1,3)              114.7883         -DE/DX =    0.0                 !
 ! A2    A(2,1,11)             114.1243         -DE/DX =    0.0                 !
 ! A3    A(3,1,11)             115.3058         -DE/DX =    0.0                 !
 ! A4    A(1,3,4)              108.2438         -DE/DX =    0.0                 !
 ! A5    A(1,3,5)              115.0253         -DE/DX =    0.0                 !
 ! A6    A(1,3,6)              108.8138         -DE/DX =    0.0                 !
 ! A7    A(4,3,5)              109.0103         -DE/DX =    0.0                 !
 ! A8    A(4,3,6)              105.5795         -DE/DX =    0.0                 !
 ! A9    A(5,3,6)              109.7394         -DE/DX =    0.0                 !
 ! A10   A(3,5,7)              110.2663         -DE/DX =    0.0                 !
 ! A11   A(3,5,8)              111.6179         -DE/DX =    0.0                 !
 ! A12   A(3,5,9)              109.3828         -DE/DX =    0.0                 !
 ! A13   A(7,5,8)              108.6953         -DE/DX =    0.0                 !
 ! A14   A(7,5,9)              108.5789         -DE/DX =    0.0                 !
 ! A15   A(8,5,9)              108.2267         -DE/DX =    0.0                 !
 ! A16   A(3,6,10)             111.2793         -DE/DX =    0.0                 !
 ! A17   A(3,6,12)             126.6118         -DE/DX =    0.0                 !
 ! A18   A(10,6,12)            122.0668         -DE/DX =    0.0                 !
 ! A19   A(6,10,13)            110.4007         -DE/DX =    0.0                 !
 ! D1    D(2,1,3,4)            172.0363         -DE/DX =    0.0                 !
 ! D2    D(2,1,3,5)            -65.796          -DE/DX =    0.0                 !
 ! D3    D(2,1,3,6)             57.7651         -DE/DX =    0.0                 !
 ! D4    D(11,1,3,4)           -52.2104         -DE/DX =    0.0                 !
 ! D5    D(11,1,3,5)            69.9573         -DE/DX =    0.0                 !
 ! D6    D(11,1,3,6)          -166.4816         -DE/DX =    0.0                 !
 ! D7    D(1,3,5,7)             59.736          -DE/DX =    0.0                 !
 ! D8    D(1,3,5,8)           -179.3421         -DE/DX =    0.0                 !
 ! D9    D(1,3,5,9)            -59.6012         -DE/DX =    0.0                 !
 ! D10   D(4,3,5,7)           -178.5103         -DE/DX =    0.0                 !
 ! D11   D(4,3,5,8)            -57.5885         -DE/DX =    0.0                 !
 ! D12   D(4,3,5,9)             62.1524         -DE/DX =    0.0                 !
 ! D13   D(6,3,5,7)            -63.3324         -DE/DX =    0.0                 !
 ! D14   D(6,3,5,8)             57.5894         -DE/DX =    0.0                 !
 ! D15   D(6,3,5,9)            177.3303         -DE/DX =    0.0                 !
 ! D16   D(1,3,6,10)           -50.2688         -DE/DX =    0.0                 !
 ! D17   D(1,3,6,12)           132.0679         -DE/DX =    0.0                 !
 ! D18   D(4,3,6,10)          -166.2667         -DE/DX =    0.0                 !
 ! D19   D(4,3,6,12)            16.07           -DE/DX =    0.0                 !
 ! D20   D(5,3,6,10)            76.3898         -DE/DX =    0.0                 !
 ! D21   D(5,3,6,12)          -101.2735         -DE/DX =    0.0                 !
 ! D22   D(3,6,10,13)          179.6143         -DE/DX =    0.0                 !
 ! D23   D(12,6,10,13)          -2.599          -DE/DX =    0.0                 !
 --------------------------------------------------------------------------------
 GradGradGradGradGradGradGradGradGradGradGradGradGradGradGradGradGradGrad

 1\1\GINC-KALI\Freq\RB3LYP\6-31G\C3H7N1O2\ROOT\01-Apr-2016\0\\#N Geom=A
 llCheck Guess=TCheck SCRF=Check GenChk RB3LYP/6-31G Freq\\Ala-S-opt-fr
 eq-p1a-6-31g\\0,1\N,-1.1744484322,-1.0512037304,-0.4297738738\H,-0.967
 0646307,-1.5543435098,0.4235364368\C,-0.6064589269,0.293311693,-0.5017
 312053\H,-0.771192273,0.6811531631,-1.5114595429\C,-1.1786707573,1.303
 1826003,0.5269505479\C,0.8985886728,0.1975521565,-0.3427317279\H,-1.00
 09240448,0.9471922613,1.5472264217\H,-0.7231913624,2.2945054974,0.4162
 171112\H,-2.2592604597,1.4036491021,0.375526864\O,1.2394912984,-0.5591
 649168,0.7646565312\H,-2.1357284263,-1.1312180212,-0.7335762037\O,1.74
 7736078,0.7396011821,-1.0506341242\H,2.2154700543,-0.6177915976,0.8517
 550951\\Version=ES64L-G09RevD.01\State=1-A\HF=-323.6309775\RMSD=3.376e
 -09\RMSF=1.421e-05\ZeroPoint=0.1075854\Thermal=0.114605\Dipole=-0.6718
 059,-0.1274284,0.7580036\DipoleDeriv=-0.4123703,0.0289704,0.1864463,0.
 0319354,-0.8185663,-0.292608,0.1388517,-0.2809473,-0.4970218,0.2480833
 ,-0.1089916,-0.0611429,-0.0594833,0.2530837,0.0433601,-0.0672707,0.136
 8376,0.1079144,0.1560047,0.1536822,-0.0375023,0.0946922,0.5836865,0.14
 97796,-0.0538786,0.0904023,0.2690029,0.0336741,0.0075394,-0.0019496,-0
 .0084107,-0.0139,0.0388917,-0.0175844,0.0352421,-0.0902147,-0.0045183,
 0.0527157,0.048335,-0.0483248,-0.0481185,-0.0574207,-0.0180616,-0.0930
 557,0.0105479,1.1890627,-0.0399061,-0.0729744,-0.0195467,0.6694812,-0.
 6119372,0.1157329,-0.6445336,1.1148202,0.0748806,0.0187027,-0.0353584,
 0.0165661,0.0365911,0.0766993,-0.0110057,0.0260791,-0.1015012,0.043021
 5,-0.0923441,0.0163438,-0.0687068,-0.139257,-0.0164637,0.0161161,0.007
 2779,0.0537907,-0.1656994,0.0394895,-0.0112651,0.021018,0.0642883,-0.0
 211156,-0.0170115,-0.018664,0.0513295,-0.4457607,0.1833879,-0.2412167,
 0.1349103,-0.6952621,0.3100373,-0.1973623,0.3432657,-0.9199662,0.00494
 34,-0.0664607,-0.0895213,0.0157215,0.2168879,0.0992345,0.0132367,0.138
 9009,0.3086027,-0.8347727,-0.1663875,0.2865888,-0.0503608,-0.4867375,0
 .244211,0.0280728,0.2254293,-0.6592619,0.1134511,-0.0103977,0.0132169,
 -0.0600104,0.3778227,0.0373315,0.0701646,0.0337657,0.3519576\Polar=47.
 949956,1.4119148,40.5573019,0.2216375,-5.1693493,39.1205977\PG=C01 [X(
 C3H7N1O2)]\NImag=0\\0.58906845,0.10453293,0.44642433,0.24113670,-0.222
 27485,0.45843394,-0.06635960,0.01628760,-0.07599067,0.06893149,0.02153
 053,-0.13478698,0.16169124,-0.02492775,0.15418690,-0.10110774,0.194584
 33,-0.31693900,0.09129378,-0.18838116,0.32703592,-0.10858226,-0.034620
 47,-0.01580622,0.00379804,0.00555107,0.00128951,0.49732964,-0.07267969
 ,-0.19186072,0.04233997,-0.00725440,-0.01989440,-0.00848034,0.01311878
 ,0.46610174,-0.03192262,0.01200647,-0.08457232,0.01581623,0.03281600,-
 0.00374902,0.04591879,-0.09915346,0.58976793,0.00357494,-0.01078604,0.
 01428842,-0.00147325,-0.00253638,0.00078388,-0.05921026,0.01291628,-0.
 03820734,0.06710725,0.00589028,-0.02334663,0.03053830,-0.00461076,-0.0
 0373310,0.00108449,0.01272209,-0.07748797,0.08041043,-0.01427868,0.099
 22470,-0.00030881,0.00167330,0.00217934,0.00067747,-0.00127676,0.00143
 626,-0.04331483,0.08627451,-0.27597234,0.04193166,-0.09019734,0.298611
 67,0.00793714,-0.01599388,-0.00890993,-0.00036790,0.00060324,-0.000462
 71,-0.09540292,0.02619272,0.02564819,0.00302946,-0.00188294,-0.0032704
 2,0.56357995,0.00509482,-0.04081359,-0.02398360,0.00007390,0.00165177,
 -0.00112143,0.01232796,-0.09498749,-0.02464725,-0.00235279,0.00624646,
 0.00473882,0.03509573,0.51964423,-0.00029308,-0.00191533,0.00512616,-0
 .00060245,0.00124788,0.00216479,0.01779883,-0.02621519,-0.12168982,0.0
 1506833,-0.02286219,-0.02270546,0.03282531,-0.06389192,0.52081731,-0.0
 2166225,-0.01113519,-0.00102900,0.00235759,-0.00003207,-0.00020977,-0.
 18409521,0.00683755,-0.01834094,-0.00877320,0.00131292,0.00213024,-0.0
 1817775,0.01481332,0.00878919,0.78933500,-0.03985516,-0.00895714,-0.00
 839430,-0.00431406,-0.00071307,0.00243562,0.02241610,-0.07360757,0.000
 43193,0.01441205,-0.00229206,0.00325003,0.02472101,-0.00245221,0.00034
 656,0.11589730,0.39223668,0.00121044,0.00138178,-0.00178507,0.00559834
 ,0.00235401,-0.00120119,-0.02193594,-0.00416719,-0.08126352,-0.0360537
 5,0.00349468,-0.00720435,0.02738046,-0.00389786,0.00315129,-0.14217266
 ,-0.22940005,0.53148923,-0.00073223,-0.00064592,-0.00092766,0.00044467
 ,-0.00002026,-0.00039341,0.00117842,-0.00380854,0.01458552,-0.00041177
 ,0.00198950,0.00187328,-0.05739017,0.01444757,-0.04298064,0.00133473,-
 0.00145063,0.00251494,0.05882154,-0.00050229,0.00316532,0.00138297,0.0
 0028393,-0.00064388,0.00024726,-0.00204956,0.00516580,-0.02405800,0.00
 193150,-0.00250316,-0.00326401,0.01336797,-0.07945459,0.08410380,-0.00
 103372,0.00085674,-0.00003787,-0.01768657,0.08424226,-0.00051177,0.000
 56684,0.00357181,-0.00007957,-0.00128743,-0.00014708,-0.00217990,0.008
 80489,-0.02407532,0.00211706,-0.00330868,-0.00122374,-0.04198850,0.082
 23025,-0.27577412,-0.00202174,0.00145024,-0.00263908,0.04457896,-0.089
 10687,0.30373496,0.00098435,0.00227416,0.00163574,-0.00006614,-0.00011
 632,0.00005610,0.00490537,0.01228857,-0.00236495,0.00030104,-0.0006029
 6,-0.00043244,-0.09664332,-0.09901673,0.01228408,-0.00000918,0.0007836
 3,-0.00040726,0.00231950,0.00632108,-0.00117654,0.10156739,0.00189132,
 -0.00476690,-0.00475859,-0.00032216,0.00068496,-0.00017157,-0.01048889
 ,-0.01622833,0.00647071,-0.00010856,0.00075301,-0.00036210,-0.09779845
 ,-0.25994464,0.02534215,-0.00144851,-0.00167501,0.00112600,-0.00506479
 ,-0.00924393,-0.00030101,0.10887995,0.28575438,0.00172487,-0.00517045,
 -0.00214814,0.00018974,-0.00047293,-0.00051446,-0.01125622,-0.01907001
 ,0.00386408,-0.00057868,0.00081390,0.00034973,0.01279651,0.02666155,-0
 .05447878,-0.00023659,-0.00050375,0.00125292,0.01421968,0.02887972,-0.
 00220625,-0.01421471,-0.02698947,0.05404594,0.00302605,-0.00042103,-0.
 00068902,-0.00013663,0.00011638,0.00005345,-0.01469706,-0.00013040,-0.
 00239596,0.00053008,-0.00013805,0.00042380,-0.30417749,0.02182484,-0.0
 3935226,0.00189219,0.00067180,0.00217465,-0.00505879,-0.00050299,0.000
 74455,-0.01320646,0.00264156,-0.00262426,0.33257362,-0.00124746,0.0026
 5350,0.00199073,0.00038533,-0.00034628,-0.00007208,0.02497597,-0.00500
 279,0.00069316,-0.00083569,0.00070736,0.00054784,0.02066530,-0.0496528
 6,0.00519076,-0.00094312,-0.00294127,-0.00337186,0.01161287,-0.0011412
 4,0.00161828,-0.03123270,0.00314691,-0.00494575,-0.02497232,0.05218945
 ,-0.00090311,0.00261702,0.00067521,-0.00007436,-0.00011332,0.00004036,
 0.02719858,-0.00593040,0.00071056,-0.00019065,0.00085173,0.00098493,-0
 .03958728,0.00448155,-0.05385510,-0.00116364,-0.00306323,-0.00460084,-
 0.03198688,0.00195358,-0.00385732,0.00393970,0.00011126,0.00020448,0.0
 4168314,-0.00155045,0.05752976,-0.00248520,-0.00095012,-0.00237774,-0.
 00111884,0.00088976,-0.00079268,-0.01442981,0.02218357,-0.03444719,-0.
 00710795,0.00050279,-0.00084069,-0.00080575,-0.00073111,-0.00139880,-0
 .13888332,0.03827360,-0.05610757,-0.00035069,0.00003548,0.00003846,0.0
 0000622,0.00043636,-0.00007575,-0.00018610,0.00058552,0.00033364,0.584
 56314,-0.00174436,0.00172275,0.00055867,0.00241548,-0.00058877,-0.0018
 0150,0.00181463,-0.00285377,0.01064914,0.00034711,0.00112392,-0.000545
 58,0.00008535,0.00134287,0.00046631,0.01708831,-0.10812862,0.07243020,
 0.00012238,-0.00034979,-0.00007632,-0.00020416,0.00048465,0.00020475,0
 .00028508,-0.00012140,0.00000162,-0.04422076,0.14589351,-0.00126190,0.
 00069426,-0.00013177,-0.00125650,-0.00057200,-0.00025001,-0.00471618,0
 .01094949,-0.00842803,-0.00050390,-0.00006752,0.00125506,-0.00128753,-
 0.00090641,-0.00268940,-0.02469707,0.07154029,-0.16103986,-0.00076724,
 -0.00029127,0.00172851,0.00013663,-0.00012551,-0.00028753,-0.00006375,
 0.00047977,0.00145462,0.07036550,-0.15130961,0.25702584,-0.40006007,-0
 .04757901,-0.14839990,-0.00603237,-0.00170433,0.00900915,-0.01210629,0
 .00827944,-0.00017231,0.00031500,-0.00018515,0.00047594,0.00170261,0.0
 0115069,-0.00014159,0.00146143,-0.00285539,0.00040452,0.00007686,-0.00
 006597,0.00004012,-0.00015620,0.00035658,0.00023496,0.00015638,-0.0003
 0092,-0.00053436,-0.00033438,-0.00008901,-0.00022525,0.41649132,-0.026
 24446,-0.04932053,0.02162886,0.02043570,0.00285162,0.00188390,-0.03854
 463,-0.00602003,-0.01267182,0.00036511,0.00101664,0.00027993,-0.000965
 52,0.00100339,0.00015989,0.00075080,-0.00685051,0.00182573,0.00001893,
 -0.00014946,-0.00010036,0.00062994,0.00015091,0.00024776,0.00097887,-0
 .00065137,-0.00027166,0.00065999,0.00125569,-0.00018423,0.04312500,0.0
 5579838,-0.11077991,0.01738161,-0.06740031,-0.03311708,-0.00482810,-0.
 00830102,0.00363058,-0.00117118,0.00190619,0.00036404,-0.00003041,0.00
 001081,-0.00074587,0.00023160,-0.00050213,-0.00026495,0.00330751,0.000
 17730,-0.00020354,-0.00021945,-0.00018956,0.00055163,0.00020280,0.0000
 7234,0.00018612,-0.00069956,0.00010933,-0.00009294,-0.00070695,0.00046
 708,0.13865143,-0.01266995,0.07438159,-0.00551600,-0.00095083,-0.00312
 817,-0.00016917,0.00026720,0.00035936,-0.02215490,-0.01867993,0.027978
 10,0.00255533,-0.00082145,0.00058000,-0.00356150,-0.00269586,-0.002155
 16,-0.40337023,-0.17040514,0.22004389,-0.00021378,-0.00001340,0.000381
 37,0.00007458,0.00087939,-0.00015433,-0.00078625,0.00135171,0.00122997
 ,0.02708573,-0.01097921,0.01610482,-0.00167155,-0.00127863,0.00184051,
 0.40600151,0.00336484,0.00040577,-0.00004741,0.00112966,0.00045992,-0.
 00021112,-0.00632011,0.01562743,0.01052478,-0.00010852,0.00011525,-0.0
 0121728,-0.00316734,-0.00278919,-0.00197604,-0.17699510,-0.18498025,0.
 15250571,0.00035344,0.00002216,-0.00033076,-0.00009808,0.00109230,0.00
 035450,-0.00018596,0.00109914,0.00082565,-0.02271069,-0.01343536,0.055
 34639,-0.00000153,0.00072028,-0.00060190,0.20756196,0.18380611,0.00133
 621,-0.00165205,0.00291854,-0.00180051,-0.00073647,0.00023824,0.002631
 03,0.01005429,0.00662712,0.00210226,-0.00095877,0.00227097,-0.00205595
 ,0.00003334,0.00052066,0.23049592,0.15251428,-0.27038053,-0.00041798,0
 .00017763,0.00078325,-0.00003039,-0.00042807,-0.00021976,-0.00014799,0
 .00013987,0.00043305,0.03252168,0.05619076,-0.05161561,0.00050859,-0.0
 0009338,-0.00076394,-0.26917096,-0.21024738,0.30761047,0.00080667,-0.0
 0001218,0.00019744,0.00019211,0.00037892,0.00012108,0.00346724,0.00073
 607,-0.00209552,-0.00043668,0.00010240,0.00007481,0.00027764,-0.000032
 36,0.00015824,-0.02140980,0.00170489,-0.00265007,-0.00001828,-0.000085
 45,0.00005750,-0.00007714,0.00014619,-0.00002520,0.00007047,-0.0000444
 9,0.00005525,-0.44595305,0.03507916,-0.05182762,0.00015726,0.00006890,
 -0.00002005,0.00172623,-0.00282259,0.00402809,0.46119733,-0.00003132,-
 0.00051920,-0.00067201,0.00041752,0.00087130,0.00000359,-0.00090295,0.
 00104808,0.00652790,0.00103461,0.00017557,0.00009865,-0.00092320,0.000
 20583,0.00000332,0.03488752,-0.00049573,0.00575672,0.00013202,0.000033
 76,-0.00015907,0.00009362,-0.00020833,-0.00000984,-0.00016777,0.000060
 84,0.00008665,0.00504561,-0.02634570,0.01444635,-0.00013040,0.00019497
 ,-0.00019603,-0.00423582,-0.00214358,-0.00499404,-0.03521946,0.0271221
 8,0.00168072,0.00010706,0.00007161,-0.00065441,-0.00044096,0.00018622,
 0.00074196,0.00576462,-0.00312551,-0.00112134,0.00023137,0.00000713,-0
 .00034227,0.00007135,-0.00008540,-0.05127899,0.00608486,-0.00595631,-0
 .00009504,0.00023251,0.00029396,0.00002240,-0.00011660,0.00006543,0.00
 000754,-0.00002069,0.00017097,-0.00712591,0.01393850,-0.03748891,0.000
 14871,-0.00003470,0.00003231,0.00609059,-0.00492514,0.00157754,0.05192
 605,-0.02089217,0.04425096\\-0.00000012,0.00001537,-0.00000613,-0.0000
 0386,-0.00000217,-0.00000136,-0.00000475,-0.00001454,-0.00000881,-0.00
 000056,0.00000491,0.00000182,0.00000497,0.00000043,0.00000391,0.000019
 11,-0.00003190,0.00005031,0.00000077,-0.00000381,0.00000264,0.00000250
 ,-0.00000234,0.00000353,-0.00000172,0.00000637,0.00000384,-0.00001145,
 0.00002758,-0.00004355,-0.00000587,0.00000415,-0.00000686,0.00000491,0
 .00000816,-0.00000403,-0.00000393,-0.00001220,0.00000469\\\@


 IN THE UNIVERSE THE DIFFICULT THINGS ARE DONE AS IF THEY WERE EASY.

                                                          -- LAO-TSU
 Job cpu time:       0 days  0 hours  0 minutes 59.5 seconds.
 File lengths (MBytes):  RWF=     13 Int=      0 D2E=      0 Chk=      2 Scr=      1
 Normal termination of Gaussian 09 at Fri Apr  1 23:26:31 2016.
