 Entering Link 1 = c:\G09w03\l1.exe PID=      6464.
  
 Copyright (c) 1988,1990,1992,1993,1995,1998,2003,2009,2010,
            Gaussian, Inc.  All Rights Reserved.
  
 This is part of the Gaussian(R) 09 program.  It is based on
 the Gaussian(R) 03 system (copyright 2003, Gaussian, Inc.),
 the Gaussian(R) 98 system (copyright 1998, Gaussian, Inc.),
 the Gaussian(R) 94 system (copyright 1995, Gaussian, Inc.),
 the Gaussian 92(TM) system (copyright 1992, Gaussian, Inc.),
 the Gaussian 90(TM) system (copyright 1990, Gaussian, Inc.),
 the Gaussian 88(TM) system (copyright 1988, Gaussian, Inc.),
 the Gaussian 86(TM) system (copyright 1986, Carnegie Mellon
 University), and the Gaussian 82(TM) system (copyright 1983,
 Carnegie Mellon University). Gaussian is a federally registered
 trademark of Gaussian, Inc.
  
 This software contains proprietary and confidential information,
 including trade secrets, belonging to Gaussian, Inc.
  
 This software is provided under written license and may be
 used, copied, transmitted, or stored only in accord with that
 written license.
  
 The following legend is applicable only to US Government
 contracts under FAR:
  
                    RESTRICTED RIGHTS LEGEND
  
 Use, reproduction and disclosure by the US Government is
 subject to restrictions as set forth in subparagraphs (a)
 and (c) of the Commercial Computer Software - Restricted
 Rights clause in FAR 52.227-19.
  
 Gaussian, Inc.
 340 Quinnipiac St., Bldg. 40, Wallingford CT 06492
  
  
 ---------------------------------------------------------------
 Warning -- This program may not be used in any manner that
 competes with the business of Gaussian, Inc. or will provide
 assistance to any competitor of Gaussian, Inc.  The licensee
 of this program is prohibited from giving any competitor of
 Gaussian, Inc. access to this program.  By using this program,
 the user acknowledges that Gaussian, Inc. is engaged in the
 business of creating and licensing software in the field of
 computational chemistry and represents and warrants to the
 licensee that it is not a competitor of Gaussian, Inc. and that
 it will not use this program in any manner prohibited above.
 ---------------------------------------------------------------
  

 Cite this work as:
 Gaussian 09, Revision B.01,
 M. J. Frisch, G. W. Trucks, H. B. Schlegel, G. E. Scuseria, 
 M. A. Robb, J. R. Cheeseman, G. Scalmani, V. Barone, B. Mennucci, 
 G. A. Petersson, H. Nakatsuji, M. Caricato, X. Li, H. P. Hratchian, 
 A. F. Izmaylov, J. Bloino, G. Zheng, J. L. Sonnenberg, M. Hada, 
 M. Ehara, K. Toyota, R. Fukuda, J. Hasegawa, M. Ishida, T. Nakajima, 
 Y. Honda, O. Kitao, H. Nakai, T. Vreven, J. A. Montgomery, Jr., 
 J. E. Peralta, F. Ogliaro, M. Bearpark, J. J. Heyd, E. Brothers, 
 K. N. Kudin, V. N. Staroverov, T. Keith, R. Kobayashi, J. Normand, 
 K. Raghavachari, A. Rendell, J. C. Burant, S. S. Iyengar, J. Tomasi, 
 M. Cossi, N. Rega, J. M. Millam, M. Klene, J. E. Knox, J. B. Cross, 
 V. Bakken, C. Adamo, J. Jaramillo, R. Gomperts, R. E. Stratmann, 
 O. Yazyev, A. J. Austin, R. Cammi, C. Pomelli, J. W. Ochterski, 
 R. L. Martin, K. Morokuma, V. G. Zakrzewski, G. A. Voth, 
 P. Salvador, J. J. Dannenberg, S. Dapprich, A. D. Daniels, 
 O. Farkas, J. B. Foresman, J. V. Ortiz, J. Cioslowski, 
 and D. J. Fox, Gaussian, Inc., Wallingford CT, 2010.
 
 ******************************************
 Gaussian 09:  IA32W-G09RevB.01 12-Aug-2010
                16-Apr-2016 
 ******************************************
 %chk=Val-S-opt-freq-cpcm-w-pa2-6-311++gdp.chk
 -----------------------------------------------------------------
 #p opt freq rb3lyp/6-311++g(d,p) scrf=(cpcm,solvent=water) nosymm
 -----------------------------------------------------------------
 1/14=-1,18=20,19=15,26=3,38=1/1,3;
 2/9=110,12=2,15=1,17=6,18=5,40=1/2;
 3/5=4,6=6,7=1111,11=2,16=1,25=1,30=1,70=2101,71=1,72=1,74=-5,116=1/1,2,3;
 4//1;
 5/5=2,38=5,53=1/2;
 6/7=2,8=2,9=2,10=2,28=1/1;
 7/30=1/1,2,3,16;
 1/14=-1,18=20,19=15/3(2);
 2/9=110,15=1/2;
 99//99;
 2/9=110,15=1/2;
 3/5=4,6=6,7=1111,11=2,16=1,25=1,30=1,70=2105,71=1,72=1,74=-5,116=1/1,2,3;
 4/5=5,16=3/1;
 5/5=2,38=5,53=1/2;
 7/30=1/1,2,3,16;
 1/14=-1,18=20,19=15/3(-5);
 2/9=110,15=1/2;
 6/7=2,8=2,9=2,10=2,19=2,28=1/1;
 99/9=1/99;
 Leave Link    1 at Sat Apr 16 16:38:24 2016, MaxMem=          0 cpu:       0.0
 (Enter c:\G09w03\l101.exe)
 ------------------------------------
 Val-S-opt-freq-cpcm-w-pa2-6-311++gdp
 ------------------------------------
 Symbolic Z-matrix:
 Charge =  0 Multiplicity = 1
 N                    -0.0637    1.92824   0.41541 
 H                     0.0127    2.00484   1.42944 
 C                    -0.10239   0.56112  -0.04824 
 H                    -0.60152  -0.53705  -1.60793 
 C                     1.16093  -0.21247   0.39059 
 C                    -1.36354  -0.12447  -0.05042 
 C                     1.06555  -1.74184   0.32708 
 O                    -2.38987   0.08805   0.74641 
 H                     0.9515   -2.10048  -0.69975 
 H                     1.98363  -2.17811   0.72952 
 H                     0.22923  -2.12924   0.91518 
 H                    -0.87113   2.46246   0.11706 
 O                    -1.46587  -0.9092   -1.07801 
 H                    -3.20032  -0.2905    0.369 
 H                     1.30516   0.04652   1.45363 
 C                     2.40165   0.28042  -0.3694 
 H                     2.4701    1.3695   -0.35024 
 H                     3.3144   -0.12695   0.07698 
 H                     2.3607   -0.04132  -1.41545 
 
 NAtoms=     19 NQM=     19 NQMF=      0 NMic=      0 NMicF=      0 NTot=     19.
                    Isotopes and Nuclear Properties:
 (Nuclear quadrupole moments (NQMom) in fm**2, nuclear magnetic moments (NMagM)
  in nuclear magnetons)

  Atom         1           2           3           4           5           6           7           8           9          10
 IAtWgt=          14           1          12           1          12          12          12          16           1           1
 AtmWgt=  14.0030740   1.0078250  12.0000000   1.0078250  12.0000000  12.0000000  12.0000000  15.9949146   1.0078250   1.0078250
 NucSpn=           2           1           0           1           0           0           0           0           1           1
 AtZEff=   0.0000000   0.0000000   0.0000000   0.0000000   0.0000000   0.0000000   0.0000000   0.0000000   0.0000000   0.0000000
 NQMom=    2.0440000   0.0000000   0.0000000   0.0000000   0.0000000   0.0000000   0.0000000   0.0000000   0.0000000   0.0000000
 NMagM=    0.4037610   2.7928460   0.0000000   2.7928460   0.0000000   0.0000000   0.0000000   0.0000000   2.7928460   2.7928460

  Atom        11          12          13          14          15          16          17          18          19
 IAtWgt=           1           1          16           1           1          12           1           1           1
 AtmWgt=   1.0078250   1.0078250  15.9949146   1.0078250   1.0078250  12.0000000   1.0078250   1.0078250   1.0078250
 NucSpn=           1           1           0           1           1           0           1           1           1
 AtZEff=   0.0000000   0.0000000   0.0000000   0.0000000   0.0000000   0.0000000   0.0000000   0.0000000   0.0000000
 NQMom=    0.0000000   0.0000000   0.0000000   0.0000000   0.0000000   0.0000000   0.0000000   0.0000000   0.0000000
 NMagM=    2.7928460   2.7928460   0.0000000   2.7928460   2.7928460   0.0000000   2.7928460   2.7928460   2.7928460
 Leave Link  101 at Sat Apr 16 16:38:24 2016, MaxMem=   33554432 cpu:       0.0
 (Enter c:\G09w03\l103.exe)

 GradGradGradGradGradGradGradGradGradGradGradGradGradGradGradGradGradGrad
 Berny optimization.
 Initialization pass.
                           ----------------------------
                           !    Initial Parameters    !
                           ! (Angstroms and Degrees)  !
 --------------------------                            --------------------------
 ! Name  Definition              Value          Derivative Info.                !
 --------------------------------------------------------------------------------
 ! R1    R(1,2)                  1.0198         estimate D2E/DX2                !
 ! R2    R(1,3)                  1.4441         estimate D2E/DX2                !
 ! R3    R(1,12)                 1.0131         estimate D2E/DX2                !
 ! R4    R(3,5)                  1.545          estimate D2E/DX2                !
 ! R5    R(3,6)                  1.4355         estimate D2E/DX2                !
 ! R6    R(4,13)                 1.08           estimate D2E/DX2                !
 ! R7    R(5,7)                  1.5337         estimate D2E/DX2                !
 ! R8    R(5,15)                 1.1036         estimate D2E/DX2                !
 ! R9    R(5,16)                 1.5362         estimate D2E/DX2                !
 ! R10   R(6,8)                  1.3166         estimate D2E/DX2                !
 ! R11   R(6,13)                 1.297          estimate D2E/DX2                !
 ! R12   R(7,9)                  1.0936         estimate D2E/DX2                !
 ! R13   R(7,10)                 1.0932         estimate D2E/DX2                !
 ! R14   R(7,11)                 1.0933         estimate D2E/DX2                !
 ! R15   R(8,14)                 0.9709         estimate D2E/DX2                !
 ! R16   R(16,17)                1.0914         estimate D2E/DX2                !
 ! R17   R(16,18)                1.0947         estimate D2E/DX2                !
 ! R18   R(16,19)                1.0952         estimate D2E/DX2                !
 ! A1    A(2,1,3)              113.1015         estimate D2E/DX2                !
 ! A2    A(2,1,12)             108.2363         estimate D2E/DX2                !
 ! A3    A(3,1,12)             112.5378         estimate D2E/DX2                !
 ! A4    A(1,3,5)              111.1562         estimate D2E/DX2                !
 ! A5    A(1,3,6)              118.4356         estimate D2E/DX2                !
 ! A6    A(5,3,6)              118.6651         estimate D2E/DX2                !
 ! A7    A(3,5,7)              115.8932         estimate D2E/DX2                !
 ! A8    A(3,5,15)             105.2452         estimate D2E/DX2                !
 ! A9    A(3,5,16)             111.0536         estimate D2E/DX2                !
 ! A10   A(7,5,15)             106.3818         estimate D2E/DX2                !
 ! A11   A(7,5,16)             110.4689         estimate D2E/DX2                !
 ! A12   A(15,5,16)            107.1989         estimate D2E/DX2                !
 ! A13   A(3,6,8)              127.3625         estimate D2E/DX2                !
 ! A14   A(3,6,13)             111.069          estimate D2E/DX2                !
 ! A15   A(8,6,13)             121.0415         estimate D2E/DX2                !
 ! A16   A(5,7,9)              111.8632         estimate D2E/DX2                !
 ! A17   A(5,7,10)             109.2979         estimate D2E/DX2                !
 ! A18   A(5,7,11)             112.2493         estimate D2E/DX2                !
 ! A19   A(9,7,10)             107.5981         estimate D2E/DX2                !
 ! A20   A(9,7,11)             108.0036         estimate D2E/DX2                !
 ! A21   A(10,7,11)            107.6358         estimate D2E/DX2                !
 ! A22   A(6,8,14)             110.6422         estimate D2E/DX2                !
 ! A23   A(4,13,6)              96.7256         estimate D2E/DX2                !
 ! A24   A(5,16,17)            111.232          estimate D2E/DX2                !
 ! A25   A(5,16,18)            110.628          estimate D2E/DX2                !
 ! A26   A(5,16,19)            110.3692         estimate D2E/DX2                !
 ! A27   A(17,16,18)           108.1737         estimate D2E/DX2                !
 ! A28   A(17,16,19)           108.1956         estimate D2E/DX2                !
 ! A29   A(18,16,19)           108.1391         estimate D2E/DX2                !
 ! D1    D(2,1,3,5)            -58.5408         estimate D2E/DX2                !
 ! D2    D(2,1,3,6)             84.0658         estimate D2E/DX2                !
 ! D3    D(12,1,3,5)           178.4091         estimate D2E/DX2                !
 ! D4    D(12,1,3,6)           -38.9842         estimate D2E/DX2                !
 ! D5    D(1,3,5,7)            162.7842         estimate D2E/DX2                !
 ! D6    D(1,3,5,15)            45.5748         estimate D2E/DX2                !
 ! D7    D(1,3,5,16)           -70.1029         estimate D2E/DX2                !
 ! D8    D(6,3,5,7)             20.2731         estimate D2E/DX2                !
 ! D9    D(6,3,5,15)           -96.9363         estimate D2E/DX2                !
 ! D10   D(6,3,5,16)           147.386          estimate D2E/DX2                !
 ! D11   D(1,3,6,8)            -28.3325         estimate D2E/DX2                !
 ! D12   D(1,3,6,13)           143.3197         estimate D2E/DX2                !
 ! D13   D(5,3,6,8)            111.4673         estimate D2E/DX2                !
 ! D14   D(5,3,6,13)           -76.8805         estimate D2E/DX2                !
 ! D15   D(3,5,7,9)             65.1871         estimate D2E/DX2                !
 ! D16   D(3,5,7,10)          -175.757          estimate D2E/DX2                !
 ! D17   D(3,5,7,11)           -56.4118         estimate D2E/DX2                !
 ! D18   D(15,5,7,9)          -178.2383         estimate D2E/DX2                !
 ! D19   D(15,5,7,10)          -59.1824         estimate D2E/DX2                !
 ! D20   D(15,5,7,11)           60.1629         estimate D2E/DX2                !
 ! D21   D(16,5,7,9)           -62.2172         estimate D2E/DX2                !
 ! D22   D(16,5,7,10)           56.8386         estimate D2E/DX2                !
 ! D23   D(16,5,7,11)          176.1839         estimate D2E/DX2                !
 ! D24   D(3,5,16,17)           48.7578         estimate D2E/DX2                !
 ! D25   D(3,5,16,18)          169.0084         estimate D2E/DX2                !
 ! D26   D(3,5,16,19)          -71.3479         estimate D2E/DX2                !
 ! D27   D(7,5,16,17)          178.785          estimate D2E/DX2                !
 ! D28   D(7,5,16,18)          -60.9644         estimate D2E/DX2                !
 ! D29   D(7,5,16,19)           58.6793         estimate D2E/DX2                !
 ! D30   D(15,5,16,17)         -65.7047         estimate D2E/DX2                !
 ! D31   D(15,5,16,18)          54.5459         estimate D2E/DX2                !
 ! D32   D(15,5,16,19)         174.1896         estimate D2E/DX2                !
 ! D33   D(3,6,8,14)           161.7311         estimate D2E/DX2                !
 ! D34   D(13,6,8,14)           -9.1712         estimate D2E/DX2                !
 ! D35   D(3,6,13,4)           -11.2029         estimate D2E/DX2                !
 ! D36   D(8,6,13,4)           161.057          estimate D2E/DX2                !
 --------------------------------------------------------------------------------
 Trust Radius=3.00D-01 FncErr=1.00D-07 GrdErr=1.00D-06
 Number of steps in this run=     93 maximum allowed number of steps=    114.
 GradGradGradGradGradGradGradGradGradGradGradGradGradGradGradGradGradGrad

 Leave Link  103 at Sat Apr 16 16:38:24 2016, MaxMem=   33554432 cpu:       0.0
 (Enter c:\G09w03\l202.exe)
                          Input orientation:                          
 ---------------------------------------------------------------------
 Center     Atomic      Atomic             Coordinates (Angstroms)
 Number     Number       Type             X           Y           Z
 ---------------------------------------------------------------------
      1          7           0       -0.063697    1.928242    0.415411
      2          1           0        0.012702    2.004841    1.429444
      3          6           0       -0.102390    0.561119   -0.048236
      4          1           0       -0.601523   -0.537045   -1.607925
      5          6           0        1.160930   -0.212470    0.390590
      6          6           0       -1.363540   -0.124466   -0.050423
      7          6           0        1.065550   -1.741836    0.327082
      8          8           0       -2.389870    0.088048    0.746409
      9          1           0        0.951503   -2.100483   -0.699754
     10          1           0        1.983631   -2.178110    0.729520
     11          1           0        0.229225   -2.129237    0.915184
     12          1           0       -0.871134    2.462462    0.117056
     13          8           0       -1.465866   -0.909199   -1.078007
     14          1           0       -3.200325   -0.290499    0.369004
     15          1           0        1.305157    0.046521    1.453633
     16          6           0        2.401651    0.280424   -0.369397
     17          1           0        2.470102    1.369501   -0.350244
     18          1           0        3.314403   -0.126949    0.076976
     19          1           0        2.360701   -0.041317   -1.415449
 ---------------------------------------------------------------------
                    Distance matrix (angstroms):
                    1          2          3          4          5
     1  N    0.000000
     2  H    1.019788   0.000000
     3  C    1.444123   2.069086   0.000000
     4  H    3.234314   4.008001   1.971733   0.000000
     5  C    2.466369   2.704462   1.544987   2.684335   0.000000
     6  C    2.473904   2.935642   1.435455   1.782331   2.564213
     7  C    3.840895   4.044908   2.609320   2.823988   1.533653
     8  O    2.984452   3.148489   2.467351   3.021889   3.581215
     9  H    4.301726   4.718953   2.935863   2.383485   2.190275
    10  H    4.599168   4.676701   3.529839   3.852242   2.157649
    11  H    4.098623   4.171564   2.876832   3.096982   2.194828
    12  H    1.013095   1.647102   2.057521   3.470633   3.370366
    13  O    3.499635   4.118872   2.254181   1.080000   3.089056
    14  H    3.842317   4.088601   3.239837   3.274569   4.362006
    15  H    2.548046   2.346496   2.121700   3.653645   1.103602
    16  C    3.067437   3.452031   2.540109   3.349816   1.536201
    17  H    2.705283   3.099961   2.713375   3.827736   2.182979
    18  H    3.968615   4.156312   3.487634   4.282704   2.177869
    19  H    3.620624   4.218208   2.880802   3.009579   2.174976
                    6          7          8          9         10
     6  C    0.000000
     7  C    2.942596   0.000000
     8  O    1.316608   3.932460   0.000000
     9  H    3.112185   1.093630   4.248038   0.000000
    10  H    4.003663   1.093236   4.925776   1.764692   0.000000
    11  H    2.736495   1.093336   3.435767   1.769332   1.764880
    12  H    2.638695   4.633679   2.887990   4.980929   5.482673
    13  O    1.296999   3.012578   2.275254   2.721379   4.095890
    14  H    1.891366   4.506199   0.970860   4.653597   5.528693
    15  H    3.068121   2.127146   3.762328   3.061335   2.435908
    16  C    3.800308   2.521861   4.923485   2.807273   2.725206
    17  H    4.125366   3.480223   5.144327   3.803826   3.740065
    18  H    4.679678   2.779884   5.747442   3.175129   2.530618
    19  H    3.967390   2.757824   5.220947   2.595809   3.051059
                   11         12         13         14         15
    11  H    0.000000
    12  H    4.788684   0.000000
    13  O    2.886977   3.626290   0.000000
    14  H    3.929514   3.614886   2.342003   0.000000
    15  H    2.486258   3.515601   3.873134   4.646436   0.000000
    16  C    3.489420   3.963464   4.107921   5.679201   2.140198
    17  H    4.343271   3.546377   4.605861   5.952030   2.522171
    18  H    3.772277   4.921928   4.979646   6.523320   2.441792
    19  H    3.786086   4.366032   3.938236   5.845629   3.058353
                   16         17         18         19
    16  C    0.000000
    17  H    1.091394   0.000000
    18  H    1.094677   1.770515   0.000000
    19  H    1.095180   1.771168   1.773193   0.000000
 Symmetry turned off by external request.
 Stoichiometry    C5H11NO2
 Framework group  C1[X(C5H11NO2)]
 Deg. of freedom    51
 Full point group                 C1      NOp   1
 Rotational constants (GHZ):      2.8277300      1.5449388      1.1926608
 Leave Link  202 at Sat Apr 16 16:38:24 2016, MaxMem=   33554432 cpu:       0.0
 (Enter c:\G09w03\l301.exe)
 Standard basis: 6-311++G(d,p) (5D, 7F)
 Ernie: Thresh=  0.10000D-02 Tol=  0.10000D-05 Strict=F.
 Integral buffers will be    262144 words long.
 Raffenetti 2 integral format.
 Two-electron integral symmetry is turned off.
   253 basis functions,   387 primitive gaussians,   261 cartesian basis functions
    32 alpha electrons       32 beta electrons
       nuclear repulsion energy       404.7645160010 Hartrees.
 IExCor=  402 DFT=T Ex+Corr=B3LYP ExCW=0 ScaHFX=  0.200000
 ScaDFX=  0.800000  0.720000  1.000000  0.810000 ScalE2=  1.000000  1.000000
 IRadAn=      0 IRanWt=     -1 IRanGd=            0 ICorTp=0
 NAtoms=   19 NActive=   19 NUniq=   19 SFac= 1.00D+00 NAtFMM=   50 NAOKFM=F Big=F
 ------------------------------------------------------------------------------
 Polarizable Continuum Model (PCM)
 =================================
 Model                : C-PCM.
 Atomic radii         : UFF (Universal Force Field).
 Polarization charges : Total charges.
 Charge compensation  : None.
 Solution method      : Matrix inversion.
 Cavity type          : Scaled VdW (van der Waals Surface) (Alpha=1.100).
 Cavity algorithm     : GePol (No added spheres)
                        Default sphere list used, NSphG=   19.
                        Lebedev-Laikov grids with approx.  5.0 points / Ang**2.
                        Smoothing algorithm: Karplus/York (Gamma=1.0000).
                        Polarization charges: spherical gaussians, with
                                              point-specific exponents (IZeta= 3).
                        Self-potential: point-specific (ISelfS= 7).
                        Self-field    : sphere-specific E.n sum rule (ISelfD= 2).
 1st derivatives      : Analytical E(r).r(x)/FMM algorithm (CHGder, D1EAlg=3).
                        Cavity 1st derivative terms included.
 Solvent              : Water, Eps=  78.355300 Eps(inf)=   1.777849
 ------------------------------------------------------------------------------
 Spheres list:
 ISph  on   Nord    Re0     Alpha      Xe            Ye            Ze
    1   N      1    1.830   1.100     -0.063697      1.928242      0.415411
    2   H      2    1.443   1.100      0.012702      2.004841      1.429444
    3   C      3    1.926   1.100     -0.102390      0.561119     -0.048236
    4   H      4    1.443   1.100     -0.601523     -0.537045     -1.607925
    5   C      5    1.926   1.100      1.160930     -0.212470      0.390590
    6   C      6    1.926   1.100     -1.363540     -0.124466     -0.050423
    7   C      7    1.926   1.100      1.065550     -1.741836      0.327082
    8   O      8    1.750   1.100     -2.389870      0.088048      0.746409
    9   H      9    1.443   1.100      0.951503     -2.100483     -0.699754
   10   H     10    1.443   1.100      1.983631     -2.178110      0.729520
   11   H     11    1.443   1.100      0.229225     -2.129237      0.915184
   12   H     12    1.443   1.100     -0.871134      2.462462      0.117056
   13   O     13    1.750   1.100     -1.465866     -0.909199     -1.078007
   14   H     14    1.443   1.100     -3.200325     -0.290499      0.369004
   15   H     15    1.443   1.100      1.305157      0.046521      1.453633
   16   C     16    1.926   1.100      2.401651      0.280424     -0.369397
   17   H     17    1.443   1.100      2.470102      1.369501     -0.350244
   18   H     18    1.443   1.100      3.314403     -0.126949      0.076976
   19   H     19    1.443   1.100      2.360701     -0.041317     -1.415449
 ------------------------------------------------------------------------------
 GePol: Number of generator spheres                  =      19
 GePol: Total number of spheres                      =      19
 GePol: Number of exposed spheres                    =      19 (100.00%)
 GePol: Number of points                             =    1417
 GePol: Average weight of points                     =       0.14
 GePol: Minimum weight of points                     =   0.17D-07
 GePol: Maximum weight of points                     =    0.20577
 GePol: Number of points with low weight             =      82
 GePol: Fraction of low-weight points (<1% of avg)   =       5.79%
 GePol: Cavity surface area                          =    191.610 Ang**2
 GePol: Cavity volume                                =    187.630 Ang**3
 Leave Link  301 at Sat Apr 16 16:38:25 2016, MaxMem=   33554432 cpu:       1.0
 (Enter c:\G09w03\l302.exe)
 NPDir=0 NMtPBC=     1 NCelOv=     1 NCel=       1 NClECP=     1 NCelD=      1
         NCelK=      1 NCelE2=     1 NClLst=     1 CellRange=     0.0.
 One-electron integrals computed using PRISM.
 NBasis=   253 RedAO= T  NBF=   253
 NBsUse=   253 1.00D-06 NBFU=   253
 Precomputing XC quadrature grid using
 IXCGrd= 2 IRadAn=           0 IRanWt=          -1 IRanGd=           0 AccXCQ= 0.00D+00.
 NRdTot=    1232 NPtTot=      157282 NUsed=      163029 NTot=      163045
 NSgBfM=   261   261   261   261   261 NAtAll=    19    19.
 Leave Link  302 at Sat Apr 16 16:38:26 2016, MaxMem=   33554432 cpu:       1.0
 (Enter c:\G09w03\l303.exe)
 DipDrv:  MaxL=1.
 Leave Link  303 at Sat Apr 16 16:38:26 2016, MaxMem=   33554432 cpu:       0.0
 (Enter c:\G09w03\l401.exe)
 Harris functional with IExCor=  402 diagonalized for initial guess.
 ExpMin= 3.60D-02 ExpMax= 8.59D+03 ExpMxC= 1.30D+03 IAcc=3 IRadAn=         0 AccDes= 0.00D+00
 HarFok:  IExCor=  402 AccDes= 0.00D+00 IRadAn=         0 IDoV= 1
 ScaDFX=  1.000000  1.000000  1.000000  1.000000
 FoFCou: FMM=F IPFlag=           0 FMFlag=      100000 FMFlg1=           0
         NFxFlg=           0 DoJE=T BraDBF=F KetDBF=T FulRan=T
         Omega=  0.000000  0.000000  1.000000  0.000000  0.000000 ICntrl=     500 IOpCl=  0
         NMat0=    1 NMatS0=    1 NMatT0=    0 NMatD0=    1 NMtDS0=    0 NMtDT0=    0
         I1Cent=           4 NGrid=           0.
 Symmetry not used in FoFCou.
 Harris En= -402.448408050865    
 Leave Link  401 at Sat Apr 16 16:38:38 2016, MaxMem=   33554432 cpu:      12.0
 (Enter c:\G09w03\l502.exe)
 Closed shell SCF:
 Requested convergence on RMS density matrix=1.00D-08 within 128 cycles.
 Requested convergence on MAX density matrix=1.00D-06.
 Requested convergence on             energy=1.00D-06.
 No special actions if energy rises.
 Using DIIS extrapolation, IDIIS=  1040.
 Two-electron integral symmetry not used.
       162864 words used for storage of precomputed grid.
 IEnd=      388383 IEndB=      388383 NGot=    33554432 MDV=    33251072
 LenX=    33251072 LenY=    33182510
 Fock matrices will be formed incrementally for  20 cycles.

 Cycle   1  Pass 1  IDiag  1:
 FoFCou: FMM=F IPFlag=           0 FMFlag=      100000 FMFlg1=           0
         NFxFlg=           0 DoJE=F BraDBF=F KetDBF=F FulRan=T
         Omega=  0.000000  0.000000  1.000000  0.000000  0.000000 ICntrl=       0 IOpCl=  0
         NMat0=    1 NMatS0=    1 NMatT0=    0 NMatD0=    1 NMtDS0=    0 NMtDT0=    0
         I1Cent=           0 NGrid=           0.
 Symmetry not used in FoFCou.
 E= -402.099487779726    
 DIIS: error= 3.75D-02 at cycle   1 NSaved=   1.
 NSaved= 1 IEnMin= 1 EnMin= -402.099487779726     IErMin= 1 ErrMin= 3.75D-02
 ErrMax= 3.75D-02 EMaxC= 1.00D-01 BMatC= 3.45D-01 BMatP= 3.45D-01
 IDIUse=3 WtCom= 6.25D-01 WtEn= 3.75D-01
 Coeff-Com:  0.100D+01
 Coeff-En:   0.100D+01
 Coeff:      0.100D+01
 Gap=     0.070 Goal=   None    Shift=    0.000
 GapD=    0.070 DampG=0.500 DampE=0.500 DampFc=0.2500 IDamp=-1.
 Damping current iteration by 2.50D-01
 RMSDP=2.28D-02 MaxDP=2.25D+00              OVMax= 3.84D-01

 Cycle   2  Pass 1  IDiag  1:
 RMSU=  3.85D-03    CP:  1.05D+00
 E= -402.210684855093     Delta-E=       -0.111197075367 Rises=F Damp=T
 DIIS: error= 1.64D-02 at cycle   2 NSaved=   2.
 NSaved= 2 IEnMin= 2 EnMin= -402.210684855093     IErMin= 2 ErrMin= 1.64D-02
 ErrMax= 1.64D-02 EMaxC= 1.00D-01 BMatC= 6.96D-02 BMatP= 3.45D-01
 IDIUse=3 WtCom= 8.36D-01 WtEn= 1.64D-01
 Coeff-Com: -0.667D+00 0.167D+01
 Coeff-En:   0.000D+00 0.100D+01
 Coeff:     -0.557D+00 0.156D+01
 Gap=     0.140 Goal=   None    Shift=    0.000
 RMSDP=1.27D-02 MaxDP=1.57D+00 DE=-1.11D-01 OVMax= 3.20D-01

 Cycle   3  Pass 1  IDiag  1:
 RMSU=  4.19D-03    CP:  7.04D-01  3.26D-01
 E= -402.386595955328     Delta-E=       -0.175911100235 Rises=F Damp=F
 DIIS: error= 6.31D-03 at cycle   3 NSaved=   3.
 NSaved= 3 IEnMin= 3 EnMin= -402.386595955328     IErMin= 3 ErrMin= 6.31D-03
 ErrMax= 6.31D-03 EMaxC= 1.00D-01 BMatC= 1.81D-02 BMatP= 6.96D-02
 IDIUse=3 WtCom= 9.37D-01 WtEn= 6.31D-02
 Coeff-Com: -0.342D+00 0.851D+00 0.491D+00
 Coeff-En:   0.000D+00 0.000D+00 0.100D+01
 Coeff:     -0.320D+00 0.797D+00 0.523D+00
 Gap=     0.137 Goal=   None    Shift=    0.000
 RMSDP=2.17D-03 MaxDP=1.99D-01 DE=-1.76D-01 OVMax= 9.85D-02

 Cycle   4  Pass 1  IDiag  1:
 RMSU=  9.78D-04    CP:  7.46D-01  4.93D-01  8.97D-01
 E= -402.400130648194     Delta-E=       -0.013534692866 Rises=F Damp=F
 DIIS: error= 4.00D-03 at cycle   4 NSaved=   4.
 NSaved= 4 IEnMin= 4 EnMin= -402.400130648194     IErMin= 4 ErrMin= 4.00D-03
 ErrMax= 4.00D-03 EMaxC= 1.00D-01 BMatC= 4.15D-03 BMatP= 1.81D-02
 IDIUse=3 WtCom= 9.60D-01 WtEn= 4.00D-02
 Coeff-Com: -0.739D-01 0.165D+00 0.321D+00 0.587D+00
 Coeff-En:   0.000D+00 0.000D+00 0.197D+00 0.803D+00
 Coeff:     -0.710D-01 0.159D+00 0.316D+00 0.596D+00
 Gap=     0.143 Goal=   None    Shift=    0.000
 RMSDP=1.29D-03 MaxDP=1.27D-01 DE=-1.35D-02 OVMax= 3.33D-02

 Cycle   5  Pass 1  IDiag  1:
 RMSU=  4.19D-04    CP:  7.11D-01  4.48D-01  9.38D-01  8.40D-01
 E= -402.403408963362     Delta-E=       -0.003278315168 Rises=F Damp=F
 DIIS: error= 8.60D-04 at cycle   5 NSaved=   5.
 NSaved= 5 IEnMin= 5 EnMin= -402.403408963362     IErMin= 5 ErrMin= 8.60D-04
 ErrMax= 8.60D-04 EMaxC= 1.00D-01 BMatC= 3.12D-04 BMatP= 4.15D-03
 IDIUse=3 WtCom= 9.91D-01 WtEn= 8.60D-03
 Coeff-Com: -0.193D-01 0.387D-01 0.143D+00 0.335D+00 0.502D+00
 Coeff-En:   0.000D+00 0.000D+00 0.000D+00 0.000D+00 0.100D+01
 Coeff:     -0.192D-01 0.383D-01 0.142D+00 0.332D+00 0.507D+00
 Gap=     0.142 Goal=   None    Shift=    0.000
 RMSDP=3.79D-04 MaxDP=3.02D-02 DE=-3.28D-03 OVMax= 6.14D-03

 Cycle   6  Pass 1  IDiag  1:
 RMSU=  1.32D-04    CP:  7.01D-01  4.57D-01  9.54D-01  8.47D-01  1.11D+00
 E= -402.403650853478     Delta-E=       -0.000241890116 Rises=F Damp=F
 DIIS: error= 1.91D-04 at cycle   6 NSaved=   6.
 NSaved= 6 IEnMin= 6 EnMin= -402.403650853478     IErMin= 6 ErrMin= 1.91D-04
 ErrMax= 1.91D-04 EMaxC= 1.00D-01 BMatC= 1.85D-05 BMatP= 3.12D-04
 IDIUse=3 WtCom= 9.98D-01 WtEn= 1.91D-03
 Coeff-Com: -0.778D-03-0.854D-04 0.280D-01 0.816D-01 0.245D+00 0.646D+00
 Coeff-En:   0.000D+00 0.000D+00 0.000D+00 0.000D+00 0.000D+00 0.100D+01
 Coeff:     -0.776D-03-0.852D-04 0.279D-01 0.815D-01 0.244D+00 0.647D+00
 Gap=     0.142 Goal=   None    Shift=    0.000
 RMSDP=5.48D-05 MaxDP=2.86D-03 DE=-2.42D-04 OVMax= 9.27D-04

 Cycle   7  Pass 1  IDiag  1:
 RMSU=  3.54D-05    CP:  7.00D-01  4.54D-01  9.57D-01  8.46D-01  1.11D+00
                    CP:  9.36D-01
 E= -402.403664648765     Delta-E=       -0.000013795287 Rises=F Damp=F
 DIIS: error= 5.07D-05 at cycle   7 NSaved=   7.
 NSaved= 7 IEnMin= 7 EnMin= -402.403664648765     IErMin= 7 ErrMin= 5.07D-05
 ErrMax= 5.07D-05 EMaxC= 1.00D-01 BMatC= 1.48D-06 BMatP= 1.85D-05
 IDIUse=1 WtCom= 1.00D+00 WtEn= 0.00D+00
 Coeff-Com:  0.571D-03-0.182D-02 0.883D-02 0.287D-01 0.113D+00 0.343D+00
 Coeff-Com:  0.508D+00
 Coeff:      0.571D-03-0.182D-02 0.883D-02 0.287D-01 0.113D+00 0.343D+00
 Coeff:      0.508D+00
 Gap=     0.142 Goal=   None    Shift=    0.000
 RMSDP=3.98D-05 MaxDP=3.56D-03 DE=-1.38D-05 OVMax= 3.45D-04

 Cycle   8  Pass 1  IDiag  1:
 RMSU=  6.88D-06    CP:  6.99D-01  4.53D-01  9.58D-01  8.45D-01  1.14D+00
                    CP:  9.72D-01  1.06D+00
 E= -402.403665681551     Delta-E=       -0.000001032785 Rises=F Damp=F
 DIIS: error= 1.84D-05 at cycle   8 NSaved=   8.
 NSaved= 8 IEnMin= 8 EnMin= -402.403665681551     IErMin= 8 ErrMin= 1.84D-05
 ErrMax= 1.84D-05 EMaxC= 1.00D-01 BMatC= 1.65D-07 BMatP= 1.48D-06
 IDIUse=1 WtCom= 1.00D+00 WtEn= 0.00D+00
 Coeff-Com:  0.470D-03-0.856D-03-0.657D-03-0.889D-03 0.136D-01 0.448D-01
 Coeff-Com:  0.257D+00 0.687D+00
 Coeff:      0.470D-03-0.856D-03-0.657D-03-0.889D-03 0.136D-01 0.448D-01
 Coeff:      0.257D+00 0.687D+00
 Gap=     0.142 Goal=   None    Shift=    0.000
 RMSDP=2.31D-05 MaxDP=1.97D-03 DE=-1.03D-06 OVMax= 1.29D-04

 Cycle   9  Pass 1  IDiag  1:
 RMSU=  3.06D-06    CP:  6.99D-01  4.53D-01  9.59D-01  8.45D-01  1.15D+00
                    CP:  9.95D-01  1.13D+00  1.25D+00
 E= -402.403665800276     Delta-E=       -0.000000118726 Rises=F Damp=F
 DIIS: error= 5.30D-06 at cycle   9 NSaved=   9.
 NSaved= 9 IEnMin= 9 EnMin= -402.403665800276     IErMin= 9 ErrMin= 5.30D-06
 ErrMax= 5.30D-06 EMaxC= 1.00D-01 BMatC= 1.56D-08 BMatP= 1.65D-07
 IDIUse=1 WtCom= 1.00D+00 WtEn= 0.00D+00
 Coeff-Com:  0.162D-03-0.248D-03-0.938D-03-0.237D-02-0.326D-03-0.167D-02
 Coeff-Com:  0.929D-01 0.345D+00 0.568D+00
 Coeff:      0.162D-03-0.248D-03-0.938D-03-0.237D-02-0.326D-03-0.167D-02
 Coeff:      0.929D-01 0.345D+00 0.568D+00
 Gap=     0.142 Goal=   None    Shift=    0.000
 RMSDP=4.33D-06 MaxDP=3.51D-04 DE=-1.19D-07 OVMax= 4.74D-05

 Cycle  10  Pass 1  IDiag  1:
 RMSU=  6.75D-07    CP:  6.99D-01  4.53D-01  9.59D-01  8.45D-01  1.15D+00
                    CP:  1.00D+00  1.17D+00  1.30D+00  1.03D+00
 E= -402.403665813604     Delta-E=       -0.000000013328 Rises=F Damp=F
 DIIS: error= 1.75D-06 at cycle  10 NSaved=  10.
 NSaved=10 IEnMin=10 EnMin= -402.403665813604     IErMin=10 ErrMin= 1.75D-06
 ErrMax= 1.75D-06 EMaxC= 1.00D-01 BMatC= 1.61D-09 BMatP= 1.56D-08
 IDIUse=1 WtCom= 1.00D+00 WtEn= 0.00D+00
 Coeff-Com: -0.163D-05 0.151D-04-0.396D-03-0.102D-02-0.177D-02-0.709D-02
 Coeff-Com:  0.892D-02 0.673D-01 0.268D+00 0.666D+00
 Coeff:     -0.163D-05 0.151D-04-0.396D-03-0.102D-02-0.177D-02-0.709D-02
 Coeff:      0.892D-02 0.673D-01 0.268D+00 0.666D+00
 Gap=     0.142 Goal=   None    Shift=    0.000
 RMSDP=3.63D-06 MaxDP=3.10D-04 DE=-1.33D-08 OVMax= 2.36D-05

 Cycle  11  Pass 1  IDiag  1:
 RMSU=  2.69D-07    CP:  6.98D-01  4.53D-01  9.59D-01  8.45D-01  1.15D+00
                    CP:  1.00D+00  1.19D+00  1.35D+00  1.12D+00  1.09D+00
 E= -402.403665815339     Delta-E=       -0.000000001735 Rises=F Damp=F
 DIIS: error= 4.48D-07 at cycle  11 NSaved=  11.
 NSaved=11 IEnMin=11 EnMin= -402.403665815339     IErMin=11 ErrMin= 4.48D-07
 ErrMax= 4.48D-07 EMaxC= 1.00D-01 BMatC= 8.66D-11 BMatP= 1.61D-09
 IDIUse=1 WtCom= 1.00D+00 WtEn= 0.00D+00
 Coeff-Com: -0.202D-04 0.300D-04-0.577D-04-0.103D-03-0.450D-03-0.211D-02
 Coeff-Com: -0.562D-02-0.127D-01 0.328D-01 0.202D+00 0.786D+00
 Coeff:     -0.202D-04 0.300D-04-0.577D-04-0.103D-03-0.450D-03-0.211D-02
 Coeff:     -0.562D-02-0.127D-01 0.328D-01 0.202D+00 0.786D+00
 Gap=     0.142 Goal=   None    Shift=    0.000
 RMSDP=1.09D-06 MaxDP=9.18D-05 DE=-1.73D-09 OVMax= 1.08D-05

 Cycle  12  Pass 1  IDiag  1:
 RMSU=  8.01D-08    CP:  6.98D-01  4.53D-01  9.59D-01  8.45D-01  1.15D+00
                    CP:  1.01D+00  1.19D+00  1.37D+00  1.15D+00  1.20D+00
                    CP:  9.85D-01
 E= -402.403665815450     Delta-E=       -0.000000000111 Rises=F Damp=F
 DIIS: error= 2.28D-07 at cycle  12 NSaved=  12.
 NSaved=12 IEnMin=12 EnMin= -402.403665815450     IErMin=12 ErrMin= 2.28D-07
 ErrMax= 2.28D-07 EMaxC= 1.00D-01 BMatC= 2.44D-11 BMatP= 8.66D-11
 IDIUse=1 WtCom= 1.00D+00 WtEn= 0.00D+00
 Coeff-Com: -0.117D-04 0.170D-04-0.757D-05 0.147D-04-0.102D-03-0.600D-03
 Coeff-Com: -0.332D-02-0.112D-01-0.357D-02 0.471D-01 0.432D+00 0.540D+00
 Coeff:     -0.117D-04 0.170D-04-0.757D-05 0.147D-04-0.102D-03-0.600D-03
 Coeff:     -0.332D-02-0.112D-01-0.357D-02 0.471D-01 0.432D+00 0.540D+00
 Gap=     0.142 Goal=   None    Shift=    0.000
 RMSDP=2.08D-07 MaxDP=1.75D-05 DE=-1.11D-10 OVMax= 2.31D-06

 Cycle  13  Pass 1  IDiag  1:
 RMSU=  2.00D-08    CP:  6.98D-01  4.53D-01  9.59D-01  8.45D-01  1.15D+00
                    CP:  1.01D+00  1.19D+00  1.37D+00  1.16D+00  1.22D+00
                    CP:  1.01D+00  1.03D+00
 E= -402.403665815470     Delta-E=       -0.000000000020 Rises=F Damp=F
 DIIS: error= 5.10D-08 at cycle  13 NSaved=  13.
 NSaved=13 IEnMin=13 EnMin= -402.403665815470     IErMin=13 ErrMin= 5.10D-08
 ErrMax= 5.10D-08 EMaxC= 1.00D-01 BMatC= 1.21D-12 BMatP= 2.44D-11
 IDIUse=1 WtCom= 1.00D+00 WtEn= 0.00D+00
 Coeff-Com: -0.105D-05 0.153D-05 0.326D-05 0.211D-04 0.343D-04 0.871D-04
 Coeff-Com: -0.309D-03-0.193D-02-0.624D-02-0.194D-01 0.231D-01 0.153D+00
 Coeff-Com:  0.852D+00
 Coeff:     -0.105D-05 0.153D-05 0.326D-05 0.211D-04 0.343D-04 0.871D-04
 Coeff:     -0.309D-03-0.193D-02-0.624D-02-0.194D-01 0.231D-01 0.153D+00
 Coeff:      0.852D+00
 Gap=     0.142 Goal=   None    Shift=    0.000
 RMSDP=1.22D-07 MaxDP=1.07D-05 DE=-1.97D-11 OVMax= 1.64D-06

 Cycle  14  Pass 1  IDiag  1:
 RMSU=  1.14D-08    CP:  6.98D-01  4.53D-01  9.59D-01  8.45D-01  1.15D+00
                    CP:  1.01D+00  1.19D+00  1.38D+00  1.17D+00  1.23D+00
                    CP:  1.05D+00  1.16D+00  1.11D+00
 E= -402.403665815472     Delta-E=       -0.000000000003 Rises=F Damp=F
 DIIS: error= 1.65D-08 at cycle  14 NSaved=  14.
 NSaved=14 IEnMin=14 EnMin= -402.403665815472     IErMin=14 ErrMin= 1.65D-08
 ErrMax= 1.65D-08 EMaxC= 1.00D-01 BMatC= 1.31D-13 BMatP= 1.21D-12
 IDIUse=1 WtCom= 1.00D+00 WtEn= 0.00D+00
 Coeff-Com:  0.922D-07-0.153D-06 0.592D-06 0.654D-05 0.159D-04 0.544D-04
 Coeff-Com:  0.924D-04 0.141D-04-0.146D-02-0.762D-02-0.127D-01 0.121D-02
 Coeff-Com:  0.254D+00 0.767D+00
 Coeff:      0.922D-07-0.153D-06 0.592D-06 0.654D-05 0.159D-04 0.544D-04
 Coeff:      0.924D-04 0.141D-04-0.146D-02-0.762D-02-0.127D-01 0.121D-02
 Coeff:      0.254D+00 0.767D+00
 Gap=     0.142 Goal=   None    Shift=    0.000
 RMSDP=1.07D-08 MaxDP=9.34D-07 DE=-2.61D-12 OVMax= 2.51D-07

 Cycle  15  Pass 1  IDiag  1:
 RMSU=  1.79D-09    CP:  6.98D-01  4.53D-01  9.59D-01  8.45D-01  1.15D+00
                    CP:  1.01D+00  1.19D+00  1.38D+00  1.17D+00  1.24D+00
                    CP:  1.05D+00  1.19D+00  1.18D+00  1.07D+00
 E= -402.403665815487     Delta-E=       -0.000000000014 Rises=F Damp=F
 DIIS: error= 5.79D-09 at cycle  15 NSaved=  15.
 NSaved=15 IEnMin=15 EnMin= -402.403665815487     IErMin=15 ErrMin= 5.79D-09
 ErrMax= 5.79D-09 EMaxC= 1.00D-01 BMatC= 1.79D-14 BMatP= 1.31D-13
 IDIUse=1 WtCom= 1.00D+00 WtEn= 0.00D+00
 Coeff-Com:  0.727D-07-0.102D-06-0.263D-06 0.101D-05 0.275D-05 0.151D-04
 Coeff-Com:  0.677D-04 0.172D-03-0.165D-03-0.195D-02-0.909D-02-0.181D-01
 Coeff-Com:  0.416D-01 0.342D+00 0.645D+00
 Coeff:      0.727D-07-0.102D-06-0.263D-06 0.101D-05 0.275D-05 0.151D-04
 Coeff:      0.677D-04 0.172D-03-0.165D-03-0.195D-02-0.909D-02-0.181D-01
 Coeff:      0.416D-01 0.342D+00 0.645D+00
 Gap=     0.142 Goal=   None    Shift=    0.000
 RMSDP=4.02D-09 MaxDP=4.35D-07 DE=-1.43D-11 OVMax= 5.38D-08

 Error on total polarization charges =  0.01535
 SCF Done:  E(RB3LYP) =  -402.403665815     A.U. after   15 cycles
             Convg  =    0.4020D-08             -V/T =  2.0041
 KE= 4.007514426715D+02 PE=-1.749982506328D+03 EE= 5.420628818397D+02
 Leave Link  502 at Sat Apr 16 16:49:44 2016, MaxMem=   33554432 cpu:     666.0
 (Enter c:\G09w03\l601.exe)
 Copying SCF densities to generalized density rwf, IOpCl= 0 IROHF=0.

 **********************************************************************

            Population analysis using the SCF density.

 **********************************************************************

 Alpha  occ. eigenvalues --  -19.19828 -19.17856 -14.29576 -10.30587 -10.18019
 Alpha  occ. eigenvalues --  -10.17186 -10.15689 -10.14908  -1.14454  -1.07147
 Alpha  occ. eigenvalues --   -0.88386  -0.78768  -0.70672  -0.68018  -0.63557
 Alpha  occ. eigenvalues --   -0.58730  -0.57124  -0.50305  -0.49207  -0.46893
 Alpha  occ. eigenvalues --   -0.45586  -0.43049  -0.42162  -0.41843  -0.38800
 Alpha  occ. eigenvalues --   -0.37914  -0.36337  -0.33936  -0.33601  -0.33513
 Alpha  occ. eigenvalues --   -0.26568  -0.17746
 Alpha virt. eigenvalues --   -0.03515  -0.00673   0.00546   0.00683   0.01377
 Alpha virt. eigenvalues --    0.02728   0.04140   0.04244   0.04682   0.05317
 Alpha virt. eigenvalues --    0.06534   0.07309   0.07843   0.08411   0.08827
 Alpha virt. eigenvalues --    0.09579   0.10275   0.10382   0.11614   0.12210
 Alpha virt. eigenvalues --    0.12416   0.12680   0.13436   0.13998   0.14812
 Alpha virt. eigenvalues --    0.14913   0.15547   0.16411   0.16723   0.17325
 Alpha virt. eigenvalues --    0.17674   0.18254   0.18834   0.19329   0.20027
 Alpha virt. eigenvalues --    0.21281   0.21829   0.22698   0.23171   0.23534
 Alpha virt. eigenvalues --    0.24133   0.25249   0.25710   0.26435   0.26779
 Alpha virt. eigenvalues --    0.27245   0.28293   0.29302   0.29893   0.30589
 Alpha virt. eigenvalues --    0.31015   0.31416   0.32774   0.32994   0.33660
 Alpha virt. eigenvalues --    0.35285   0.36480   0.37579   0.38003   0.41132
 Alpha virt. eigenvalues --    0.43321   0.44563   0.46125   0.48168   0.50468
 Alpha virt. eigenvalues --    0.51775   0.52927   0.54829   0.57167   0.57696
 Alpha virt. eigenvalues --    0.58329   0.61053   0.62245   0.62814   0.65035
 Alpha virt. eigenvalues --    0.66211   0.66990   0.67346   0.69020   0.70113
 Alpha virt. eigenvalues --    0.70820   0.72061   0.73208   0.74493   0.75683
 Alpha virt. eigenvalues --    0.76484   0.78198   0.80123   0.84203   0.86374
 Alpha virt. eigenvalues --    0.87506   0.90248   0.91299   0.95529   1.01770
 Alpha virt. eigenvalues --    1.04318   1.06052   1.08918   1.11424   1.12082
 Alpha virt. eigenvalues --    1.13384   1.16168   1.16559   1.18136   1.19801
 Alpha virt. eigenvalues --    1.21476   1.26015   1.28657   1.36354   1.39572
 Alpha virt. eigenvalues --    1.41381   1.44344   1.45719   1.46999   1.49047
 Alpha virt. eigenvalues --    1.49874   1.51163   1.54069   1.55567   1.56790
 Alpha virt. eigenvalues --    1.57262   1.59310   1.59997   1.63218   1.64958
 Alpha virt. eigenvalues --    1.66417   1.67121   1.69354   1.70062   1.70731
 Alpha virt. eigenvalues --    1.75864   1.75954   1.78929   1.80350   1.83301
 Alpha virt. eigenvalues --    1.86601   1.87675   1.90262   1.91455   1.93176
 Alpha virt. eigenvalues --    1.95365   1.98270   2.00517   2.03768   2.08086
 Alpha virt. eigenvalues --    2.10291   2.11062   2.16140   2.16507   2.17571
 Alpha virt. eigenvalues --    2.23328   2.26182   2.32774   2.34852   2.40370
 Alpha virt. eigenvalues --    2.46637   2.48897   2.50471   2.52387   2.52841
 Alpha virt. eigenvalues --    2.54455   2.56057   2.59511   2.61252   2.63062
 Alpha virt. eigenvalues --    2.64867   2.66989   2.69453   2.69930   2.73071
 Alpha virt. eigenvalues --    2.74966   2.76510   2.81147   2.84295   2.84919
 Alpha virt. eigenvalues --    2.90946   2.96083   2.98001   2.98917   3.00371
 Alpha virt. eigenvalues --    3.01743   3.06312   3.07274   3.09797   3.17147
 Alpha virt. eigenvalues --    3.18635   3.20926   3.22793   3.26762   3.31817
 Alpha virt. eigenvalues --    3.45309   3.51071   3.60147   3.71143   3.79321
 Alpha virt. eigenvalues --    3.80516   3.81276   3.83341   3.84556   3.89059
 Alpha virt. eigenvalues --    4.00919   4.05358   4.16126   4.27879   4.35515
 Alpha virt. eigenvalues --    4.74375   4.86110   4.99264   5.04201   5.31647
 Alpha virt. eigenvalues --    5.35426   5.56229   5.84479  23.72470  23.84157
 Alpha virt. eigenvalues --   23.89398  23.98474  23.99086  35.62879  49.84524
 Alpha virt. eigenvalues --   49.93187
          Condensed to atoms (all electrons):
              1          2          3          4          5          6
     1  N    6.773745   0.346103  -0.129270   0.015450   0.080709  -0.047570
     2  H    0.346103   0.511499  -0.065016  -0.001268   0.028413   0.014405
     3  C   -0.129270  -0.065016   9.408113  -0.077518  -2.202859  -1.098104
     4  H    0.015450  -0.001268  -0.077518   0.410452   0.098178   0.059828
     5  C    0.080709   0.028413  -2.202859   0.098178   7.981803   0.555038
     6  C   -0.047570   0.014405  -1.098104   0.059828   0.555038   6.755549
     7  C   -0.023656  -0.017341   1.255353  -0.034049  -1.276222  -0.552023
     8  O   -0.022061   0.002469  -0.181143   0.010761   0.035834   0.338596
     9  H   -0.002916   0.002527  -0.098242   0.000406   0.164131   0.035648
    10  H    0.002750  -0.000041   0.040692   0.000388  -0.102133  -0.040681
    11  H   -0.007350  -0.000737   0.048927  -0.000510  -0.123391   0.010567
    12  H    0.410288  -0.052828  -0.113365  -0.000100   0.009238   0.018662
    13  O    0.017631  -0.010508  -0.327699   0.216665  -0.118349   0.402170
    14  H   -0.005690  -0.000592   0.052948   0.002168  -0.007803  -0.039278
    15  H   -0.025634   0.039795  -0.338543   0.002668   0.822705   0.093789
    16  C    0.027272  -0.030920  -0.073975  -0.003916  -0.118519  -0.116072
    17  H    0.019052  -0.004173  -0.029405   0.001472  -0.065433  -0.019849
    18  H   -0.001240   0.002491   0.011813  -0.000651  -0.007222   0.000858
    19  H   -0.011135   0.003340  -0.024465  -0.002108   0.051077   0.026760
              7          8          9         10         11         12
     1  N   -0.023656  -0.022061  -0.002916   0.002750  -0.007350   0.410288
     2  H   -0.017341   0.002469   0.002527  -0.000041  -0.000737  -0.052828
     3  C    1.255353  -0.181143  -0.098242   0.040692   0.048927  -0.113365
     4  H   -0.034049   0.010761   0.000406   0.000388  -0.000510  -0.000100
     5  C   -1.276222   0.035834   0.164131  -0.102133  -0.123391   0.009238
     6  C   -0.552023   0.338596   0.035648  -0.040681   0.010567   0.018662
     7  C    6.341887  -0.025439   0.295115   0.441110   0.441879   0.006377
     8  O   -0.025439   7.867795   0.003049  -0.001304  -0.008248   0.004336
     9  H    0.295115   0.003049   0.569978  -0.041176  -0.044621  -0.001327
    10  H    0.441110  -0.001304  -0.041176   0.580209  -0.033727   0.000449
    11  H    0.441879  -0.008248  -0.044621  -0.033727   0.578229   0.000485
    12  H    0.006377   0.004336  -0.001327   0.000449   0.000485   0.438995
    13  O    0.042760  -0.107494  -0.005339   0.005780  -0.016422   0.008484
    14  H    0.007493   0.256865  -0.000669   0.000124   0.001358   0.001208
    15  H   -0.211224   0.012928   0.023954  -0.017974  -0.018002  -0.008672
    16  C    0.045313  -0.010673  -0.055607   0.019600   0.008424   0.006210
    17  H    0.023086   0.000166  -0.004236   0.002215  -0.001655   0.000990
    18  H   -0.023450   0.000488   0.004819   0.000073  -0.000499  -0.000260
    19  H   -0.038097   0.000068   0.015788  -0.004784  -0.001237  -0.001612
             13         14         15         16         17         18
     1  N    0.017631  -0.005690  -0.025634   0.027272   0.019052  -0.001240
     2  H   -0.010508  -0.000592   0.039795  -0.030920  -0.004173   0.002491
     3  C   -0.327699   0.052948  -0.338543  -0.073975  -0.029405   0.011813
     4  H    0.216665   0.002168   0.002668  -0.003916   0.001472  -0.000651
     5  C   -0.118349  -0.007803   0.822705  -0.118519  -0.065433  -0.007222
     6  C    0.402170  -0.039278   0.093789  -0.116072  -0.019849   0.000858
     7  C    0.042760   0.007493  -0.211224   0.045313   0.023086  -0.023450
     8  O   -0.107494   0.256865   0.012928  -0.010673   0.000166   0.000488
     9  H   -0.005339  -0.000669   0.023954  -0.055607  -0.004236   0.004819
    10  H    0.005780   0.000124  -0.017974   0.019600   0.002215   0.000073
    11  H   -0.016422   0.001358  -0.018002   0.008424  -0.001655  -0.000499
    12  H    0.008484   0.001208  -0.008672   0.006210   0.000990  -0.000260
    13  O    7.995504   0.004706  -0.006329   0.014291   0.001965  -0.001210
    14  H    0.004706   0.417009  -0.001897   0.000092   0.000155  -0.000037
    15  H   -0.006329  -0.001897   0.703428  -0.201418  -0.016227   0.005043
    16  C    0.014291   0.000092  -0.201418   5.776493   0.450309   0.361825
    17  H    0.001965   0.000155  -0.016227   0.450309   0.554151  -0.029855
    18  H   -0.001210  -0.000037   0.005043   0.361825  -0.029855   0.590280
    19  H   -0.005279  -0.000104   0.020801   0.336995  -0.041230  -0.033523
             19
     1  N   -0.011135
     2  H    0.003340
     3  C   -0.024465
     4  H   -0.002108
     5  C    0.051077
     6  C    0.026760
     7  C   -0.038097
     8  O    0.000068
     9  H    0.015788
    10  H   -0.004784
    11  H   -0.001237
    12  H   -0.001612
    13  O   -0.005279
    14  H   -0.000104
    15  H    0.020801
    16  C    0.336995
    17  H   -0.041230
    18  H   -0.033523
    19  H    0.579317
 Mulliken atomic charges:
              1
     1  N   -0.416478
     2  H    0.232382
     3  C   -0.058242
     4  H    0.301685
     5  C    0.194804
     6  C   -0.398292
     7  C   -0.698872
     8  O   -0.176992
     9  H    0.138719
    10  H    0.148429
    11  H    0.166529
    12  H    0.272440
    13  O   -0.111327
    14  H    0.311944
    15  H    0.120809
    16  C   -0.435724
    17  H    0.158501
    18  H    0.120256
    19  H    0.129427
 Sum of Mulliken atomic charges =   0.00000
 Mulliken charges with hydrogens summed into heavy atoms:
              1
     1  N    0.088345
     3  C   -0.058242
     5  C    0.315613
     6  C   -0.398292
     7  C   -0.245195
     8  O    0.134952
    13  O    0.190358
    16  C   -0.027540
 Sum of Mulliken charges with hydrogens summed into heavy atoms =   0.00000
 Electronic spatial extent (au):  <R**2>=           1081.9888
 Charge=              0.0000 electrons
 Dipole moment (field-independent basis, Debye):
    X=             -2.9229    Y=             -1.1588    Z=              0.3022  Tot=              3.1587
 Quadrupole moment (field-independent basis, Debye-Ang):
   XX=            -43.4134   YY=            -54.4429   ZZ=            -50.1390
   XY=             -3.1561   XZ=              0.6533   YZ=              0.7080
 Traceless Quadrupole moment (field-independent basis, Debye-Ang):
   XX=              5.9183   YY=             -5.1111   ZZ=             -0.8072
   XY=             -3.1561   XZ=              0.6533   YZ=              0.7080
 Octapole moment (field-independent basis, Debye-Ang**2):
  XXX=            -50.6896  YYY=              5.1059  ZZZ=             -9.4415  XYY=             -9.5893
  XXY=             -3.5913  XXZ=              1.5539  XZZ=              1.8718  YZZ=              2.4832
  YYZ=              2.9564  XYZ=              4.4260
 Hexadecapole moment (field-independent basis, Debye-Ang**3):
 XXXX=           -669.1658 YYYY=           -456.7785 ZZZZ=           -168.6343 XXXY=             25.3151
 XXXZ=              5.8604 YYYX=            -11.9489 YYYZ=            -18.0019 ZZZX=             10.0855
 ZZZY=            -11.1528 XXYY=           -209.4204 XXZZ=           -179.0548 YYZZ=            -99.8606
 XXYZ=            -19.0546 YYXZ=             -0.7480 ZZXY=              2.1892
 N-N= 4.047645160010D+02 E-N=-1.749982507324D+03  KE= 4.007514426715D+02
 No NMR shielding tensors so no spin-rotation constants.
 Leave Link  601 at Sat Apr 16 16:49:44 2016, MaxMem=   33554432 cpu:       0.0
 (Enter c:\G09w03\l701.exe)
 Compute integral first derivatives.
 ... and contract with generalized density number  0.
 D1PCM: C-PCM CHGder 1st derivatives, ID1Alg=3 FixD1E=F DoIter=F DoCFld=F I1PDM=0.
 GePol: Maximum number of non-zero 1st derivatives   =     194
 Leave Link  701 at Sat Apr 16 16:49:55 2016, MaxMem=   33554432 cpu:      11.0
 (Enter c:\G09w03\l702.exe)
 L702 exits ... SP integral derivatives will be done elsewhere.
 Leave Link  702 at Sat Apr 16 16:49:55 2016, MaxMem=   33554432 cpu:       0.0
 (Enter c:\G09w03\l703.exe)
 Compute integral first derivatives, UseDBF=F ICtDFT=           0.
 Integral derivatives from FoFDir, PRISM(SPDF).
 Calling FoFJK, ICntrl=      2127 FMM=F ISym2X=0 I1Cent= 0 IOpClX= 0 NMat=1 NMatS=1 NMatT=0.
 FoFCou: FMM=F IPFlag=           0 FMFlag=      100000 FMFlg1=         800
         NFxFlg=           0 DoJE=F BraDBF=F KetDBF=F FulRan=T
         Omega=  0.000000  0.000000  1.000000  0.000000  0.000000 ICntrl=    2127 IOpCl=  0
         NMat0=    1 NMatS0=    1 NMatT0=    0 NMatD0=    1 NMtDS0=    0 NMtDT0=    0
         I1Cent=           0 NGrid=           0.
 Symmetry not used in FoFCou.
 Leave Link  703 at Sat Apr 16 16:51:58 2016, MaxMem=   33554432 cpu:     123.0
 (Enter c:\G09w03\l716.exe)
 Dipole        =-1.14997614D+00-4.55893553D-01 1.18881566D-01
 -------------------------------------------------------------------
 Center     Atomic                   Forces (Hartrees/Bohr)
 Number     Number              X              Y              Z
 -------------------------------------------------------------------
      1        7          -0.000554237   -0.003233307    0.007952129
      2        1           0.000595663    0.003206474    0.002135335
      3        6          -0.018570849    0.003984688    0.025370185
      4        1          -0.047769082   -0.025618156    0.026972013
      5        6          -0.001448720    0.003014954   -0.013846215
      6        6           0.059745097    0.045766599    0.007524158
      7        6           0.000374533    0.000548861    0.000578302
      8        8          -0.009886963   -0.003476945   -0.004571607
      9        1           0.000391654   -0.000531477   -0.000215341
     10        1           0.000090622   -0.000440632   -0.000256214
     11        1          -0.000229421    0.000189805    0.000016503
     12        1          -0.000296007   -0.000764673    0.000079374
     13        8           0.017169405   -0.024507239   -0.052820637
     14        1          -0.002046722    0.002448143   -0.000220246
     15        1          -0.000814238    0.000753201    0.000294026
     16        6           0.002248726   -0.001469265    0.001272878
     17        1          -0.000229471    0.000014197    0.000077986
     18        1           0.001207886    0.000154117   -0.000249709
     19        1           0.000022122   -0.000039347   -0.000092921
 -------------------------------------------------------------------
 Cartesian Forces:  Max     0.059745097 RMS     0.015962281
 Leave Link  716 at Sat Apr 16 16:51:58 2016, MaxMem=   33554432 cpu:       0.0
 (Enter c:\G09w03\l103.exe)

 GradGradGradGradGradGradGradGradGradGradGradGradGradGradGradGradGradGrad
 Berny optimization.
 Internal  Forces:  Max     0.060288460 RMS     0.012140842
 Search for a local minimum.
 Step number   1 out of a maximum of   93
 All quantities printed in internal units (Hartrees-Bohrs-Radians)
 RMS Force = .12141D-01 SwitMx=.10000D-02 MixMth= 1
 Mixed Optimization -- RFO/linear search
 Second derivative matrix not updated -- first step.
 ITU=  0
     Eigenvalues ---    0.00230   0.00287   0.00321   0.01108   0.01620
     Eigenvalues ---    0.01838   0.02329   0.02795   0.03054   0.03309
     Eigenvalues ---    0.04847   0.04945   0.05293   0.05473   0.05562
     Eigenvalues ---    0.05634   0.05650   0.16000   0.16000   0.16000
     Eigenvalues ---    0.16000   0.16000   0.16000   0.16000   0.16000
     Eigenvalues ---    0.16000   0.16000   0.17200   0.19041   0.20689
     Eigenvalues ---    0.22201   0.24861   0.24932   0.28082   0.28858
     Eigenvalues ---    0.29089   0.33287   0.34221   0.34278   0.34396
     Eigenvalues ---    0.34430   0.34441   0.34652   0.35994   0.39025
     Eigenvalues ---    0.40215   0.44372   0.45458   0.53202   0.62784
     Eigenvalues ---    0.68034
 RFO step:  Lambda=-3.99334162D-02 EMin= 2.30000000D-03
 Linear search not attempted -- first point.
 Maximum step size (   0.300) exceeded in Quadratic search.
    -- Step size scaled by   0.982
 Iteration  1 RMS(Cart)=  0.13844610 RMS(Int)=  0.01306550
 Iteration  2 RMS(Cart)=  0.02026843 RMS(Int)=  0.00075179
 Iteration  3 RMS(Cart)=  0.00027378 RMS(Int)=  0.00070590
 Iteration  4 RMS(Cart)=  0.00000034 RMS(Int)=  0.00070590
 Variable       Old X    -DE/DX   Delta X   Delta X   Delta X     New X
                                 (Linear)    (Quad)   (Total)
    R1        1.92712   0.00241   0.00000   0.00490   0.00490   1.93202
    R2        2.72900   0.00251   0.00000   0.00573   0.00573   2.73472
    R3        1.91447  -0.00019   0.00000  -0.00038  -0.00038   1.91409
    R4        2.91960  -0.00331   0.00000  -0.01013  -0.01013   2.90948
    R5        2.71262  -0.01252   0.00000  -0.02781  -0.02781   2.68481
    R6        2.04090  -0.06029   0.00000  -0.14807  -0.14807   1.89283
    R7        2.89818   0.00019   0.00000   0.00057   0.00057   2.89876
    R8        2.08551   0.00035   0.00000   0.00093   0.00093   2.08644
    R9        2.90300   0.00169   0.00000   0.00506   0.00506   2.90806
   R10        2.48803   0.00623   0.00000   0.00917   0.00917   2.49720
   R11        2.45097   0.05322   0.00000   0.07257   0.07257   2.52354
   R12        2.06666   0.00034   0.00000   0.00087   0.00087   2.06753
   R13        2.06592   0.00016   0.00000   0.00040   0.00040   2.06631
   R14        2.06611   0.00012   0.00000   0.00030   0.00030   2.06640
   R15        1.83466   0.00084   0.00000   0.00144   0.00144   1.83610
   R16        2.06244   0.00000   0.00000   0.00001   0.00001   2.06244
   R17        2.06864   0.00085   0.00000   0.00218   0.00218   2.07082
   R18        2.06959   0.00010   0.00000   0.00025   0.00025   2.06984
    A1        1.97399   0.00516   0.00000   0.02679   0.02678   2.00077
    A2        1.88908  -0.00117   0.00000  -0.00330  -0.00331   1.88577
    A3        1.96416  -0.00199   0.00000  -0.00835  -0.00836   1.95580
    A4        1.94004  -0.00032   0.00000   0.00150   0.00152   1.94157
    A5        2.06709  -0.00580   0.00000  -0.02065  -0.02080   2.04629
    A6        2.07110   0.00696   0.00000   0.02957   0.02962   2.10071
    A7        2.02272  -0.00055   0.00000  -0.00048  -0.00052   2.02220
    A8        1.83687  -0.00146   0.00000  -0.01136  -0.01135   1.82553
    A9        1.93825   0.00326   0.00000   0.01750   0.01751   1.95576
   A10        1.85671   0.00089   0.00000   0.00048   0.00045   1.85716
   A11        1.92805  -0.00190   0.00000  -0.00470  -0.00475   1.92329
   A12        1.87097  -0.00032   0.00000  -0.00296  -0.00292   1.86805
   A13        2.22290  -0.01841   0.00000  -0.06011  -0.06090   2.16200
   A14        1.93852   0.05555   0.00000   0.19095   0.19036   2.12888
   A15        2.11257  -0.03655   0.00000  -0.12170  -0.12258   1.98999
   A16        1.95238   0.00053   0.00000   0.00249   0.00249   1.95487
   A17        1.90761   0.00054   0.00000   0.00259   0.00259   1.91020
   A18        1.95912  -0.00048   0.00000  -0.00217  -0.00217   1.95695
   A19        1.87794  -0.00064   0.00000  -0.00352  -0.00352   1.87442
   A20        1.88502  -0.00001   0.00000   0.00005   0.00005   1.88507
   A21        1.87860   0.00002   0.00000   0.00037   0.00037   1.87897
   A22        1.93107   0.00306   0.00000   0.01501   0.01501   1.94608
   A23        1.68818   0.01019   0.00000   0.05006   0.05006   1.73824
   A24        1.94136  -0.00061   0.00000  -0.00337  -0.00337   1.93799
   A25        1.93082   0.00143   0.00000   0.00760   0.00760   1.93842
   A26        1.92631  -0.00014   0.00000  -0.00087  -0.00088   1.92543
   A27        1.88799  -0.00036   0.00000  -0.00141  -0.00141   1.88658
   A28        1.88837   0.00014   0.00000  -0.00041  -0.00041   1.88796
   A29        1.88738  -0.00049   0.00000  -0.00167  -0.00167   1.88571
    D1       -1.02173  -0.00119   0.00000  -0.00113  -0.00104  -1.02277
    D2        1.46723   0.00281   0.00000   0.02528   0.02520   1.49243
    D3        3.11383  -0.00207   0.00000  -0.01092  -0.01084   3.10299
    D4       -0.68040   0.00193   0.00000   0.01549   0.01540  -0.66500
    D5        2.84112  -0.00053   0.00000   0.00032   0.00041   2.84153
    D6        0.79543  -0.00033   0.00000   0.00778   0.00786   0.80329
    D7       -1.22353  -0.00073   0.00000   0.00908   0.00923  -1.21429
    D8        0.35383   0.00078   0.00000  -0.00521  -0.00533   0.34850
    D9       -1.69186   0.00099   0.00000   0.00226   0.00211  -1.68974
   D10        2.57237   0.00059   0.00000   0.00355   0.00349   2.57586
   D11       -0.49450   0.00844   0.00000   0.13933   0.13779  -0.35671
   D12        2.50140   0.01101   0.00000   0.20426   0.20595   2.70735
   D13        1.94547   0.00955   0.00000   0.15536   0.15368   2.09915
   D14       -1.34182   0.01211   0.00000   0.22029   0.22183  -1.11998
   D15        1.13773   0.00142   0.00000   0.01329   0.01328   1.15100
   D16       -3.06754   0.00131   0.00000   0.01215   0.01214  -3.05539
   D17       -0.98457   0.00139   0.00000   0.01297   0.01296  -0.97161
   D18       -3.11084  -0.00012   0.00000  -0.00086  -0.00086  -3.11171
   D19       -1.03293  -0.00023   0.00000  -0.00199  -0.00199  -1.03492
   D20        1.05004  -0.00014   0.00000  -0.00117  -0.00118   1.04886
   D21       -1.08590  -0.00096   0.00000  -0.00649  -0.00647  -1.09237
   D22        0.99202  -0.00107   0.00000  -0.00762  -0.00760   0.98442
   D23        3.07499  -0.00099   0.00000  -0.00680  -0.00679   3.06820
   D24        0.85098  -0.00036   0.00000  -0.00730  -0.00730   0.84368
   D25        2.94975  -0.00026   0.00000  -0.00623  -0.00624   2.94351
   D26       -1.24526  -0.00004   0.00000  -0.00400  -0.00401  -1.24926
   D27        3.12039  -0.00001   0.00000   0.00241   0.00241   3.12280
   D28       -1.06403   0.00009   0.00000   0.00348   0.00348  -1.06055
   D29        1.02415   0.00031   0.00000   0.00570   0.00571   1.02986
   D30       -1.14676  -0.00012   0.00000  -0.00114  -0.00114  -1.14790
   D31        0.95201  -0.00002   0.00000  -0.00007  -0.00007   0.95193
   D32        3.04018   0.00020   0.00000   0.00216   0.00216   3.04234
   D33        2.82274   0.00264   0.00000   0.01491   0.01112   2.83386
   D34       -0.16007  -0.00710   0.00000  -0.07946  -0.07567  -0.23573
   D35       -0.19553   0.00066   0.00000   0.00130   0.00092  -0.19461
   D36        2.81098   0.00411   0.00000   0.06516   0.06554   2.87652
         Item               Value     Threshold  Converged?
 Maximum Force            0.060288     0.000450     NO 
 RMS     Force            0.012141     0.000300     NO 
 Maximum Displacement     0.882121     0.001800     NO 
 RMS     Displacement     0.144784     0.001200     NO 
 Predicted change in Energy=-2.463479D-02
 GradGradGradGradGradGradGradGradGradGradGradGradGradGradGradGradGradGrad

 Leave Link  103 at Sat Apr 16 16:51:58 2016, MaxMem=   33554432 cpu:       0.0
 (Enter c:\G09w03\l202.exe)
                          Input orientation:                          
 ---------------------------------------------------------------------
 Center     Atomic      Atomic             Coordinates (Angstroms)
 Number     Number       Type             X           Y           Z
 ---------------------------------------------------------------------
      1          7           0       -0.065539    1.924950    0.474102
      2          1           0        0.006006    1.995625    1.491525
      3          6           0       -0.087041    0.571045   -0.036519
      4          1           0       -0.782030   -1.003844   -1.524016
      5          6           0        1.178835   -0.201432    0.377356
      6          6           0       -1.345776   -0.086059   -0.084468
      7          6           0        1.098936   -1.728819    0.260213
      8          8           0       -2.393426    0.275828    0.635060
      9          1           0        1.004365   -2.055848   -0.779566
     10          1           0        2.014336   -2.173021    0.660656
     11          1           0        0.256620   -2.141482    0.822299
     12          1           0       -0.876136    2.455753    0.178920
     13          8           0       -1.591243   -1.082487   -0.938968
     14          1           0       -3.216597   -0.097032    0.278099
     15          1           0        1.303016    0.022923    1.451261
     16          6           0        2.435523    0.321462   -0.340602
     17          1           0        2.496058    1.409600   -0.281960
     18          1           0        3.345830   -0.094568    0.105609
     19          1           0        2.415474    0.036953   -1.398127
 ---------------------------------------------------------------------
                    Distance matrix (angstroms):
                    1          2          3          4          5
     1  N    0.000000
     2  H    1.022381   0.000000
     3  C    1.447154   2.091173   0.000000
     4  H    3.617135   4.325656   2.275067   0.000000
     5  C    2.465629   2.728362   1.539628   2.846766   0.000000
     6  C    2.448502   2.940149   1.420739   1.797897   2.569096
     7  C    3.840805   4.072114   2.604605   2.692044   1.533956
     8  O    2.857371   3.073842   2.420245   2.982577   3.613204
     9  H    4.308495   4.750685   2.940043   2.202754   2.192662
    10  H    4.599353   4.701206   3.525866   3.736232   2.159973
    11  H    4.094007   4.198371   2.865915   2.806814   2.193683
    12  H    1.012892   1.647065   2.054558   3.857156   3.364954
    13  O    3.656394   4.234770   2.410645   1.001644   3.190972
    14  H    3.749132   4.029489   3.215499   3.161809   4.397792
    15  H    2.538797   2.361231   2.108598   3.775439   1.104095
    16  C    3.080621   3.473048   2.553054   3.675534   1.538878
    17  H    2.720110   3.112722   2.726869   4.255970   2.182933
    18  H    3.981416   4.176613   3.499691   4.530087   2.186580
    19  H    3.636647   4.241700   2.898587   3.364987   2.176797
                    6          7          8          9         10
     6  C    0.000000
     7  C    2.965482   0.000000
     8  O    1.321459   4.044220   0.000000
     9  H    3.144263   1.094089   4.356933   0.000000
    10  H    4.025043   1.093447   5.042408   1.762955   0.000000
    11  H    2.759467   1.093492   3.591823   1.769865   1.765414
    12  H    2.598219   4.627976   2.694867   4.980916   5.478361
    13  O    1.335400   3.015435   2.228471   2.776692   4.092464
    14  H    1.905662   4.613770   0.971625   4.772015   5.640810
    15  H    3.063729   2.128108   3.793920   3.063832   2.439918
    16  C    3.811810   2.520139   4.926738   2.809361   2.720728
    17  H    4.127431   3.477870   5.102296   3.805535   3.735740
    18  H    4.695462   2.782662   5.775515   3.180033   2.530004
    19  H    3.985954   2.757049   5.226512   2.598782   3.046881
                   11         12         13         14         15
    11  H    0.000000
    12  H    4.778246   0.000000
    13  O    2.763717   3.778915   0.000000
    14  H    4.066837   3.464723   2.257022   0.000000
    15  H    2.484991   3.505170   3.913037   4.670931   0.000000
    16  C    3.487986   3.973938   4.306270   5.701262   2.140671
    17  H    4.341042   3.560694   4.831997   5.934478   2.519976
    18  H    3.774482   4.933001   5.142161   6.564693   2.449014
    19  H    3.786359   4.378626   4.185422   5.877747   3.058884
                   16         17         18         19
    16  C    0.000000
    17  H    1.091397   0.000000
    18  H    1.095830   1.770549   0.000000
    19  H    1.095311   1.771011   1.773156   0.000000
 Symmetry turned off by external request.
 Stoichiometry    C5H11NO2
 Framework group  C1[X(C5H11NO2)]
 Deg. of freedom    51
 Full point group                 C1      NOp   1
 Rotational constants (GHZ):      2.8369544      1.5429039      1.1411409
 Leave Link  202 at Sat Apr 16 16:51:58 2016, MaxMem=   33554432 cpu:       0.0
 (Enter c:\G09w03\l301.exe)
 Standard basis: 6-311++G(d,p) (5D, 7F)
 Ernie: Thresh=  0.10000D-02 Tol=  0.10000D-05 Strict=F.
 Integral buffers will be    262144 words long.
 Raffenetti 2 integral format.
 Two-electron integral symmetry is turned off.
   253 basis functions,   387 primitive gaussians,   261 cartesian basis functions
    32 alpha electrons       32 beta electrons
       nuclear repulsion energy       402.9484888181 Hartrees.
 IExCor=  402 DFT=T Ex+Corr=B3LYP ExCW=0 ScaHFX=  0.200000
 ScaDFX=  0.800000  0.720000  1.000000  0.810000 ScalE2=  1.000000  1.000000
 IRadAn=      0 IRanWt=     -1 IRanGd=            0 ICorTp=0
 NAtoms=   19 NActive=   19 NUniq=   19 SFac= 1.00D+00 NAtFMM=   50 NAOKFM=F Big=F
 ------------------------------------------------------------------------------
 Polarizable Continuum Model (PCM)
 =================================
 Model                : C-PCM.
 Atomic radii         : UFF (Universal Force Field).
 Polarization charges : Total charges.
 Charge compensation  : None.
 Solution method      : Matrix inversion.
 Cavity type          : Scaled VdW (van der Waals Surface) (Alpha=1.100).
 Cavity algorithm     : GePol (No added spheres)
                        Default sphere list used, NSphG=   19.
                        Lebedev-Laikov grids with approx.  5.0 points / Ang**2.
                        Smoothing algorithm: Karplus/York (Gamma=1.0000).
                        Polarization charges: spherical gaussians, with
                                              point-specific exponents (IZeta= 3).
                        Self-potential: point-specific (ISelfS= 7).
                        Self-field    : sphere-specific E.n sum rule (ISelfD= 2).
 1st derivatives      : Analytical E(r).r(x)/FMM algorithm (CHGder, D1EAlg=3).
                        Cavity 1st derivative terms included.
 Solvent              : Water, Eps=  78.355300 Eps(inf)=   1.777849
 ------------------------------------------------------------------------------
 Spheres list:
 ISph  on   Nord    Re0     Alpha      Xe            Ye            Ze
    1   N      1    1.830   1.100     -0.065539      1.924950      0.474102
    2   H      2    1.443   1.100      0.006006      1.995625      1.491525
    3   C      3    1.926   1.100     -0.087041      0.571045     -0.036519
    4   H      4    1.443   1.100     -0.782030     -1.003844     -1.524016
    5   C      5    1.926   1.100      1.178835     -0.201432      0.377356
    6   C      6    1.926   1.100     -1.345776     -0.086059     -0.084468
    7   C      7    1.926   1.100      1.098936     -1.728819      0.260213
    8   O      8    1.750   1.100     -2.393426      0.275828      0.635060
    9   H      9    1.443   1.100      1.004365     -2.055848     -0.779566
   10   H     10    1.443   1.100      2.014336     -2.173021      0.660656
   11   H     11    1.443   1.100      0.256620     -2.141482      0.822299
   12   H     12    1.443   1.100     -0.876136      2.455753      0.178920
   13   O     13    1.750   1.100     -1.591243     -1.082487     -0.938968
   14   H     14    1.443   1.100     -3.216597     -0.097032      0.278099
   15   H     15    1.443   1.100      1.303016      0.022923      1.451261
   16   C     16    1.926   1.100      2.435523      0.321462     -0.340602
   17   H     17    1.443   1.100      2.496058      1.409600     -0.281960
   18   H     18    1.443   1.100      3.345830     -0.094568      0.105609
   19   H     19    1.443   1.100      2.415474      0.036953     -1.398127
 ------------------------------------------------------------------------------
 GePol: Number of generator spheres                  =      19
 GePol: Total number of spheres                      =      19
 GePol: Number of exposed spheres                    =      19 (100.00%)
 GePol: Number of points                             =    1412
 GePol: Average weight of points                     =       0.14
 GePol: Minimum weight of points                     =   0.35D-11
 GePol: Maximum weight of points                     =    0.20577
 GePol: Number of points with low weight             =      82
 GePol: Fraction of low-weight points (<1% of avg)   =       5.81%
 GePol: Cavity surface area                          =    191.065 Ang**2
 GePol: Cavity volume                                =    187.724 Ang**3
 Leave Link  301 at Sat Apr 16 16:51:58 2016, MaxMem=   33554432 cpu:       0.0
 (Enter c:\G09w03\l302.exe)
 NPDir=0 NMtPBC=     1 NCelOv=     1 NCel=       1 NClECP=     1 NCelD=      1
         NCelK=      1 NCelE2=     1 NClLst=     1 CellRange=     0.0.
 One-electron integrals computed using PRISM.
 NBasis=   253 RedAO= T  NBF=   253
 NBsUse=   253 1.00D-06 NBFU=   253
 Precomputing XC quadrature grid using
 IXCGrd= 2 IRadAn=           0 IRanWt=          -1 IRanGd=           0 AccXCQ= 0.00D+00.
 NRdTot=    1232 NPtTot=      157282 NUsed=      163029 NTot=      163045
 NSgBfM=   261   261   261   261   261 NAtAll=    19    19.
 Leave Link  302 at Sat Apr 16 16:51:59 2016, MaxMem=   33554432 cpu:       1.0
 (Enter c:\G09w03\l303.exe)
 DipDrv:  MaxL=1.
 Leave Link  303 at Sat Apr 16 16:51:59 2016, MaxMem=   33554432 cpu:       0.0
 (Enter c:\G09w03\l401.exe)
 Initial guess read from the read-write file.
 B after Tr=     0.000000    0.000000    0.000000
         Rot=    1.000000    0.000000    0.000000    0.000000 Ang=   0.00 deg.
 Guess basis will be translated and rotated to current coordinates.
 Generating alternative initial guess.
 Harris functional with IExCor=  402 diagonalized for initial guess.
 ExpMin= 3.60D-02 ExpMax= 8.59D+03 ExpMxC= 1.30D+03 IAcc=3 IRadAn=         0 AccDes= 0.00D+00
 HarFok:  IExCor=  402 AccDes= 0.00D+00 IRadAn=         0 IDoV= 1
 ScaDFX=  1.000000  1.000000  1.000000  1.000000
 FoFCou: FMM=F IPFlag=           0 FMFlag=      100000 FMFlg1=           0
         NFxFlg=           0 DoJE=T BraDBF=F KetDBF=T FulRan=T
         Omega=  0.000000  0.000000  1.000000  0.000000  0.000000 ICntrl=     500 IOpCl=  0
         NMat0=    1 NMatS0=    1 NMatT0=    0 NMatD0=    1 NMtDS0=    0 NMtDT0=    0
         I1Cent=           4 NGrid=           0.
 Symmetry not used in FoFCou.
 Harris En= -402.473035709798    
 Leave Link  401 at Sat Apr 16 16:52:13 2016, MaxMem=   33554432 cpu:      14.0
 (Enter c:\G09w03\l502.exe)
 Closed shell SCF:
 Requested convergence on RMS density matrix=1.00D-08 within 128 cycles.
 Requested convergence on MAX density matrix=1.00D-06.
 Requested convergence on             energy=1.00D-06.
 No special actions if energy rises.
 Using DIIS extrapolation, IDIIS=  1040.
 Two-electron integral symmetry not used.
       162864 words used for storage of precomputed grid.
 IEnd=      388383 IEndB=      388383 NGot=    33554432 MDV=    33251072
 LenX=    33251072 LenY=    33182510
 Fock matrices will be formed incrementally for  20 cycles.

 Cycle   1  Pass 1  IDiag  1:
 FoFCou: FMM=F IPFlag=           0 FMFlag=      100000 FMFlg1=           0
         NFxFlg=           0 DoJE=F BraDBF=F KetDBF=F FulRan=T
         Omega=  0.000000  0.000000  1.000000  0.000000  0.000000 ICntrl=       0 IOpCl=  0
         NMat0=    1 NMatS0=    1 NMatT0=    0 NMatD0=    1 NMtDS0=    0 NMtDT0=    0
         I1Cent=           0 NGrid=           0.
 Symmetry not used in FoFCou.
 E= -402.382228568201    
 DIIS: error= 8.71D-03 at cycle   1 NSaved=   1.
 NSaved= 1 IEnMin= 1 EnMin= -402.382228568201     IErMin= 1 ErrMin= 8.71D-03
 ErrMax= 8.71D-03 EMaxC= 1.00D-01 BMatC= 3.55D-02 BMatP= 3.55D-02
 IDIUse=3 WtCom= 9.13D-01 WtEn= 8.71D-02
 Coeff-Com:  0.100D+01
 Coeff-En:   0.100D+01
 Coeff:      0.100D+01
 Gap=     0.226 Goal=   None    Shift=    0.000
 GapD=    0.226 DampG=1.000 DampE=1.000 DampFc=1.0000 IDamp=-1.
 RMSDP=5.47D-03 MaxDP=4.38D-01              OVMax= 8.18D-02

 Cycle   2  Pass 1  IDiag  1:
 RMSU=  2.81D-03    CP:  8.29D-01
 E= -402.432275189282     Delta-E=       -0.050046621082 Rises=F Damp=F
 DIIS: error= 1.95D-03 at cycle   2 NSaved=   2.
 NSaved= 2 IEnMin= 2 EnMin= -402.432275189282     IErMin= 2 ErrMin= 1.95D-03
 ErrMax= 1.95D-03 EMaxC= 1.00D-01 BMatC= 1.64D-03 BMatP= 3.55D-02
 IDIUse=3 WtCom= 9.80D-01 WtEn= 1.95D-02
 Coeff-Com:  0.265D-02 0.997D+00
 Coeff-En:   0.000D+00 0.100D+01
 Coeff:      0.260D-02 0.997D+00
 Gap=     0.165 Goal=   None    Shift=    0.000
 RMSDP=7.70D-04 MaxDP=2.39D-02 DE=-5.00D-02 OVMax= 4.34D-02

 Cycle   3  Pass 1  IDiag  1:
 RMSU=  5.43D-04    CP:  8.27D-01  1.01D+00
 E= -402.429981717434     Delta-E=        0.002293471849 Rises=F Damp=F
 DIIS: error= 3.24D-03 at cycle   3 NSaved=   3.
 NSaved= 3 IEnMin= 2 EnMin= -402.432275189282     IErMin= 2 ErrMin= 1.95D-03
 ErrMax= 3.24D-03 EMaxC= 1.00D-01 BMatC= 4.66D-03 BMatP= 1.64D-03
 IDIUse=3 WtCom= 1.49D-01 WtEn= 8.51D-01
 Coeff-Com: -0.335D-01 0.659D+00 0.375D+00
 Coeff-En:   0.000D+00 0.692D+00 0.308D+00
 Coeff:     -0.500D-02 0.687D+00 0.318D+00
 Gap=     0.161 Goal=   None    Shift=    0.000
 RMSDP=4.23D-04 MaxDP=3.21D-02 DE= 2.29D-03 OVMax= 2.92D-02

 Cycle   4  Pass 1  IDiag  1:
 RMSU=  2.05D-04    CP:  8.35D-01  9.95D-01  6.73D-01
 E= -402.433907101001     Delta-E=       -0.003925383568 Rises=F Damp=F
 DIIS: error= 4.92D-04 at cycle   4 NSaved=   4.
 NSaved= 4 IEnMin= 4 EnMin= -402.433907101001     IErMin= 4 ErrMin= 4.92D-04
 ErrMax= 4.92D-04 EMaxC= 1.00D-01 BMatC= 5.06D-05 BMatP= 1.64D-03
 IDIUse=3 WtCom= 9.95D-01 WtEn= 4.92D-03
 Coeff-Com: -0.148D-01 0.205D+00 0.615D-01 0.749D+00
 Coeff-En:   0.000D+00 0.000D+00 0.000D+00 0.100D+01
 Coeff:     -0.148D-01 0.204D+00 0.612D-01 0.750D+00
 Gap=     0.162 Goal=   None    Shift=    0.000
 RMSDP=2.00D-04 MaxDP=1.72D-02 DE=-3.93D-03 OVMax= 3.02D-03

 Cycle   5  Pass 1  IDiag  1:
 RMSU=  9.52D-05    CP:  8.40D-01  9.92D-01  7.38D-01  1.28D+00
 E= -402.433936890329     Delta-E=       -0.000029789328 Rises=F Damp=F
 DIIS: error= 2.15D-04 at cycle   5 NSaved=   5.
 NSaved= 5 IEnMin= 5 EnMin= -402.433936890329     IErMin= 5 ErrMin= 2.15D-04
 ErrMax= 2.15D-04 EMaxC= 1.00D-01 BMatC= 1.90D-05 BMatP= 5.06D-05
 IDIUse=3 WtCom= 9.98D-01 WtEn= 2.15D-03
 Coeff-Com: -0.396D-02 0.328D-01-0.134D-01 0.466D+00 0.518D+00
 Coeff-En:   0.000D+00 0.000D+00 0.000D+00 0.199D+00 0.801D+00
 Coeff:     -0.395D-02 0.327D-01-0.133D-01 0.466D+00 0.519D+00
 Gap=     0.161 Goal=   None    Shift=    0.000
 RMSDP=7.97D-05 MaxDP=8.45D-03 DE=-2.98D-05 OVMax= 2.10D-03

 Cycle   6  Pass 1  IDiag  1:
 RMSU=  2.47D-05    CP:  8.42D-01  9.87D-01  7.44D-01  1.43D+00  9.94D-01
 E= -402.433952197836     Delta-E=       -0.000015307506 Rises=F Damp=F
 DIIS: error= 6.10D-05 at cycle   6 NSaved=   6.
 NSaved= 6 IEnMin= 6 EnMin= -402.433952197836     IErMin= 6 ErrMin= 6.10D-05
 ErrMax= 6.10D-05 EMaxC= 1.00D-01 BMatC= 1.10D-06 BMatP= 1.90D-05
 IDIUse=1 WtCom= 1.00D+00 WtEn= 0.00D+00
 Coeff-Com: -0.643D-03-0.366D-02-0.918D-02 0.149D+00 0.258D+00 0.607D+00
 Coeff:     -0.643D-03-0.366D-02-0.918D-02 0.149D+00 0.258D+00 0.607D+00
 Gap=     0.161 Goal=   None    Shift=    0.000
 RMSDP=2.86D-05 MaxDP=2.46D-03 DE=-1.53D-05 OVMax= 3.89D-04

 Cycle   7  Pass 1  IDiag  1:
 RMSU=  6.69D-06    CP:  8.43D-01  9.85D-01  7.62D-01  1.47D+00  1.01D+00
                    CP:  1.13D+00
 E= -402.433953054949     Delta-E=       -0.000000857113 Rises=F Damp=F
 DIIS: error= 1.73D-05 at cycle   7 NSaved=   7.
 NSaved= 7 IEnMin= 7 EnMin= -402.433953054949     IErMin= 7 ErrMin= 1.73D-05
 ErrMax= 1.73D-05 EMaxC= 1.00D-01 BMatC= 1.50D-07 BMatP= 1.10D-06
 IDIUse=1 WtCom= 1.00D+00 WtEn= 0.00D+00
 Coeff-Com:  0.243D-03-0.663D-02-0.159D-02 0.126D-01 0.714D-01 0.296D+00
 Coeff-Com:  0.628D+00
 Coeff:      0.243D-03-0.663D-02-0.159D-02 0.126D-01 0.714D-01 0.296D+00
 Coeff:      0.628D+00
 Gap=     0.161 Goal=   None    Shift=    0.000
 RMSDP=1.96D-05 MaxDP=1.82D-03 DE=-8.57D-07 OVMax= 2.71D-04

 Cycle   8  Pass 1  IDiag  1:
 RMSU=  2.70D-06    CP:  8.44D-01  9.84D-01  7.71D-01  1.50D+00  1.07D+00
                    CP:  1.20D+00  1.05D+00
 E= -402.433953187863     Delta-E=       -0.000000132914 Rises=F Damp=F
 DIIS: error= 7.20D-06 at cycle   8 NSaved=   8.
 NSaved= 8 IEnMin= 8 EnMin= -402.433953187863     IErMin= 8 ErrMin= 7.20D-06
 ErrMax= 7.20D-06 EMaxC= 1.00D-01 BMatC= 1.87D-08 BMatP= 1.50D-07
 IDIUse=1 WtCom= 1.00D+00 WtEn= 0.00D+00
[...]
 0029891,-0.00164838,0.33999610,0.00002929,0.00038808,0.00107732,-0.000
 33091,0.00006931,0.00035048,0.00039854,0.00005976,-0.00047067,0.039515
 93,0.03603185,-0.00013670,-0.00200815,0.00104866,0.00019977,0.00055651
 ,0.00030102,0.00002226,0.00102697,0.00077645,-0.24175754,-0.00164936,0
 .19895882,-0.00520523,0.00796286,0.00152377,0.00102160,-0.00189997,-0.
 00102076,-0.16351807,0.04318089,-0.00244653,0.00064534,-0.00033916,-0.
 00086905,0.47677395,0.02998280,-0.01772707,-0.00247892,-0.00005190,0.0
 0021114,0.00032659,0.03159659,-0.09375320,-0.00995691,-0.00074574,0.00
 100641,-0.00010647,0.01205691,0.48150921,0.01562338,-0.00881581,-0.000
 47437,0.00212823,-0.00037170,0.00079786,-0.01535197,-0.00429721,-0.074
 21722,-0.00083893,-0.00094588,-0.00163643,0.05037560,0.05209891,0.5148
 5958,0.00655263,0.00489645,0.00203398,-0.00210810,0.00336974,0.0040974
 2,-0.33161287,-0.09400906,-0.19088760,-0.00022518,0.02722101,0.0233439
 2,-0.02776283,-0.00248132,-0.01289249,0.70968654,-0.02397597,-0.018876
 84,-0.03044936,0.00151442,-0.00176207,-0.00085237,-0.07695916,-0.11613
 257,-0.07684082,0.00045111,-0.00328573,-0.00352033,0.00561347,0.009103
 43,0.00924290,0.01579435,0.36614375,-0.01533467,-0.00883548,-0.0113878
 2,-0.00010834,-0.00248760,-0.00089800,-0.18079844,-0.09600758,-0.19895
 152,-0.00605344,-0.02066186,-0.01957960,-0.00482780,0.00716008,0.00262
 087,0.21730045,0.24307440,0.45664508,-0.00399470,0.00173896,-0.0008827
 3,0.00006088,-0.00002047,0.00020234,0.00057975,0.02977694,-0.00464618,
 -0.00084620,0.00016708,-0.00016287,-0.07703804,-0.00298642,-0.00165963
 ,0.00238305,0.00214066,0.00035048,0.56713958,0.00019218,0.00020363,0.0
 0105823,0.00001168,-0.00012670,0.00003070,0.00762738,-0.01600814,0.001
 26208,-0.00001675,0.00079917,-0.00050098,-0.00707080,-0.17284168,0.011
 82089,-0.00070547,0.00167712,0.00104432,0.00437318,0.45494169,0.001558
 30,-0.00099432,-0.00033626,-0.00033262,0.00003213,0.00043499,-0.001471
 61,0.00238989,-0.00123898,-0.00042637,0.00041584,-0.00075399,-0.001490
 08,0.01167657,-0.07816917,-0.00031380,0.00102528,0.00058936,-0.0028202
 5,0.02075659,0.56292539,-0.00002606,-0.01184432,-0.00195200,0.00193987
 ,0.00043625,-0.00063106,-0.04827998,0.03099698,0.00830177,-0.00055192,
 0.00405990,-0.00334380,0.00565697,-0.00389254,-0.00342431,-0.23683302,
 0.06738409,0.01487367,-0.00294939,-0.00063635,-0.00006059,0.40860738,0
 .00022522,0.00416375,0.00269757,-0.00195050,-0.00020660,0.00123411,-0.
 00032595,0.00309249,-0.00449062,0.00204861,-0.00632287,0.00174349,-0.0
 0048211,0.00217378,-0.00427198,0.06162824,-0.07125332,-0.02881092,-0.0
 0009479,0.00027076,-0.00010315,-0.12411358,0.10011733,-0.00123994,0.00
 282831,-0.00418647,-0.00075181,-0.00059022,0.00009990,-0.02293708,0.00
 873944,0.00855385,0.00131980,-0.00555702,0.00016308,-0.00272595,-0.005
 95450,0.00248272,-0.01990733,-0.01668686,-0.08792126,0.00087078,-0.000
 96055,0.00011577,0.16688199,0.03939294,0.51623102,0.00002678,-0.000297
 68,-0.00002589,-0.00001565,0.00003531,-0.00002109,0.00048474,0.0001282
 1,0.00047059,-0.00001272,0.00033000,-0.00036926,-0.00060850,0.00010974
 ,0.00070304,-0.00048169,0.00040355,0.00009812,-0.09299548,-0.05398738,
 -0.08501337,0.00028302,-0.00007786,0.00005163,0.09760616,0.00062982,0.
 00023069,0.00015424,-0.00027233,0.00008000,0.00020621,-0.00097692,0.00
 110651,-0.00011043,0.00067353,-0.00107906,0.00147441,-0.01477673,-0.01
 658764,-0.02605360,0.00070611,-0.00201637,-0.00161875,-0.05239254,-0.1
 0644292,-0.09538382,-0.00003673,0.00021087,0.00042200,0.05875598,0.118
 48082,0.00015244,-0.00008489,0.00005465,-0.00002446,0.00003592,-0.0000
 0305,-0.00008783,-0.00036181,0.00014885,-0.00045121,0.00057644,-0.0001
 8674,0.00326301,0.00248443,0.00423749,-0.00015842,-0.00032831,-0.00034
 135,-0.08391992,-0.09699934,-0.20211222,0.00020158,-0.00009379,0.00016
 643,0.09484481,0.10494063,0.21863775,-0.00017406,0.00027534,-0.0001245
 8,0.00001060,-0.00005888,0.00001362,0.00114617,-0.00027536,-0.00010630
 ,0.00001343,-0.00017056,0.00040871,0.00041656,-0.00131327,0.00090354,0
 .00094498,-0.00011057,0.00003158,-0.27384776,0.08124371,-0.02765959,-0
 .00060230,0.00011911,0.00002518,-0.01194422,0.00389577,-0.00098744,0.2
 9709421,0.00136942,-0.00060125,0.00033080,-0.00006370,0.00002676,0.000
 01710,-0.00166724,-0.00517730,0.00158698,0.00016532,-0.00019459,0.0001
 2971,0.03116268,-0.01243780,0.00380032,-0.00117032,-0.00129745,-0.0013
 7388,0.07889384,-0.07419174,0.01009458,0.00152001,-0.00006936,0.000071
 65,-0.01465744,0.00522436,-0.00032739,-0.08860213,0.08323325,-0.000340
 96,0.00034267,0.00003095,-0.00001284,0.00001280,-0.00005723,0.00090729
 ,0.00035274,0.00116761,0.00006531,-0.00027683,0.00051239,-0.00445515,0
 .00104506,-0.00193589,-0.00006293,-0.00105586,-0.00050916,-0.02690538,
 0.00998790,-0.05065934,-0.00003546,0.00009991,0.00005359,-0.02322643,0
 .00931202,-0.00226281,0.02974353,-0.01146024,0.04949257,0.00026437,-0.
 00018696,-0.00001513,-0.00003615,-0.00001056,0.00003674,0.00022077,0.0
 0046953,-0.00072342,0.00013812,-0.00012071,0.00005476,-0.00135863,0.00
 062700,-0.00075848,-0.00002572,0.00000156,-0.00012792,-0.11593719,-0.0
 2871204,0.11204694,0.00018783,-0.00000914,0.00006817,0.00775068,0.0037
 9959,-0.01178576,-0.01437556,-0.00658711,0.02488235,0.12218611,-0.0000
 1359,0.00000211,-0.00014324,-0.00000826,-0.00003767,0.00002504,-0.0011
 2742,0.00139915,-0.00005120,-0.00005048,-0.00013750,0.00000367,-0.0167
 3650,-0.00700129,0.02773334,0.00048753,0.00036443,0.00003530,-0.027155
 96,-0.05697898,0.04334621,-0.00008487,-0.00001082,0.00010701,0.0091090
 3,0.00308596,-0.01221691,0.00463814,0.00169628,-0.00956301,0.03126843,
 0.06346439,-0.00029566,0.00021700,0.00008208,0.00001674,0.00002285,-0.
 00009106,0.00054898,-0.00031254,0.00054257,0.00026579,-0.00019615,0.00
 033170,0.00134206,-0.00014740,-0.00366740,-0.00019849,-0.00035980,-0.0
 0014555,0.11167006,0.04528370,-0.22695574,-0.00013781,0.00012057,-0.00
 002595,0.01324860,0.00516499,-0.01990861,-0.00219226,-0.00177802,0.004
 15443,-0.12381769,-0.05018669,0.24385824,-0.39019328,0.14293340,0.0033
 5214,-0.01084974,0.00065109,0.00495768,-0.00164433,-0.00309040,0.00099
 628,-0.00010092,0.00011307,0.00001339,0.00098014,0.00078033,-0.0006964
 8,0.00186598,-0.00075266,-0.00125400,-0.00024081,-0.00016762,0.0004196
 7,-0.00148391,-0.00129203,-0.00092584,-0.00002364,0.00017196,-0.000013
 73,0.00003527,0.00009156,0.00001830,0.00002934,-0.00001620,-0.00002220
 ,0.40136874,0.10142318,-0.06330756,-0.02025782,0.00347625,-0.00328659,
 0.00079718,0.03102301,-0.01542230,-0.00238304,0.00015045,0.00012823,0.
 00005643,-0.00013710,-0.00243326,-0.00369720,0.00240880,-0.00102838,-0
 .00110524,0.00070606,0.00005197,-0.00004883,0.00055540,0.00022712,0.00
 134014,0.00000159,0.00001622,-0.00002070,0.00003236,-0.00023098,0.0000
 6532,-0.00001408,-0.00000588,0.00005214,-0.13926432,0.08449410,0.02112
 381,-0.03078739,-0.05635207,-0.03497968,0.01334807,0.00334783,0.021310
 02,-0.00158197,0.00058413,-0.00019043,0.00010637,-0.00004588,-0.001405
 41,-0.00377483,-0.00102983,0.00275232,-0.00295879,0.00005812,0.0009825
 2,0.00003453,-0.00014519,-0.00209932,0.00130138,-0.00000391,-0.0000233
 6,-0.00003882,-0.00003706,0.00001637,-0.00032085,0.00007478,-0.0000595
 3,0.00000100,0.00001861,-0.00726513,0.02379923,0.05317675,-0.00190049,
 0.00559798,-0.00419214,-0.00023803,-0.00199624,-0.00081083,0.00829271,
 -0.02214853,-0.01482821,-0.33964305,-0.07048146,0.22251893,0.00149142,
 0.00006607,0.00135491,-0.09299789,0.00070809,0.00844681,-0.00064403,0.
 00177046,0.00056898,-0.00969301,0.03932816,0.03488388,-0.00095056,-0.0
 0123312,-0.00145952,-0.00041551,-0.00051187,-0.00078520,-0.00015409,-0
 .00006121,-0.00041601,-0.00023797,-0.00038337,-0.00001533,0.43438356,-
 0.00332046,-0.00689900,-0.00954947,0.00297447,-0.00071621,-0.00245918,
 0.00187967,-0.00625390,-0.01319284,-0.03878409,-0.02754390,0.00271481,
 0.00263568,-0.00417161,0.00460585,-0.03181131,-0.15574578,-0.10540562,
 0.00018444,-0.00259320,-0.00094430,0.01801017,-0.02318085,-0.02091583,
 0.00030126,0.00206268,0.00151370,0.00035662,0.00128271,0.00107088,0.00
 009889,-0.00010363,0.00028787,-0.00047423,0.00049091,-0.00027726,0.052
 93017,0.21993928,-0.00697013,-0.01437033,-0.00179790,0.00089404,0.0001
 3032,0.00014343,0.00809964,-0.01770011,-0.01595066,0.24899157,0.027544
 16,-0.18077964,0.00439187,-0.00001513,-0.00025258,-0.02544843,-0.11876
 577,-0.14761898,-0.00184441,0.00085291,0.00039302,0.01862163,-0.025079
 92,-0.01224922,-0.00082533,0.00018948,-0.00127987,-0.00032410,0.000305
 58,-0.00037368,0.00017172,0.00003108,-0.00015578,-0.00011631,0.0017086
 3,-0.00038415,-0.24581031,0.14227981,0.36096811,0.00034527,0.00162420,
 0.00012430,-0.00015114,-0.00011696,0.00008611,-0.00217454,0.00383656,0
 .00115554,0.00012482,-0.00032523,0.00020776,-0.00092501,-0.00131696,-0
 .00016770,-0.03138786,0.00227590,-0.03907570,0.00041543,-0.00018134,0.
 00003920,-0.11113356,0.02313297,-0.15291710,-0.00000432,0.00011527,0.0
 0001896,0.00005774,-0.00008214,0.00002793,0.00000115,0.00003455,0.0000
 0883,-0.00008204,-0.00035166,-0.00013695,0.00396405,-0.00190158,0.0005
 0625,0.14131890,-0.00145847,0.00146265,0.00060828,-0.00063278,-0.00007
 666,0.00029444,0.00190681,-0.00320980,-0.00222813,-0.00026776,0.000475
 39,-0.00023351,-0.00022751,0.00099752,-0.00156269,0.01413473,-0.003672
 49,0.01785590,0.00013823,0.00020261,0.00005901,0.01488258,-0.00900773,
 -0.00292071,0.00001269,-0.00009402,-0.00002865,0.00004067,-0.00013569,
 -0.00003857,-0.00003146,0.00001934,-0.00001587,0.00028891,0.00079644,0
 .00078737,-0.00277392,0.00164304,0.00181565,-0.02677633,0.01084085,0.0
 0040218,0.00067374,0.00006471,-0.00016852,0.00011202,-0.00003710,0.002
 53067,-0.00038021,-0.00026445,0.00088757,-0.00053090,-0.00000603,0.000
 12090,-0.00011366,0.00079479,0.00084541,-0.00069929,0.00737163,0.00021
 284,0.00004814,0.00003992,-0.19623720,0.01558173,-0.42362650,-0.000025
 64,0.00003349,-0.00002405,0.00002566,-0.00007088,0.00000177,-0.0000138
 3,0.00000277,0.00000217,0.00027052,0.00003238,0.00006237,0.00115429,-0
 .00013427,-0.00094526,0.19003004,-0.01446084,0.41654846,0.00191581,-0.
 00142896,-0.00072495,-0.00124205,0.00093842,0.00131952,-0.02216629,-0.
 01100241,-0.02617403,-0.00014389,0.00001353,0.00028508,-0.10170440,-0.
 04475466,-0.09228733,-0.00111210,0.00397489,0.00198122,-0.00045863,-0.
 00085263,-0.00050616,-0.00254205,-0.00014984,-0.00083049,0.00105336,0.
 00015385,0.00050272,0.00068739,0.00006496,0.00052626,-0.00013462,-0.00
 011069,-0.00003686,0.00044565,-0.00018277,0.00004881,-0.00003808,-0.00
 010483,-0.00030847,-0.00028226,-0.00005197,0.00016948,0.11818307,0.001
 47226,0.00019471,0.00115853,0.00058332,0.00036872,-0.00038278,0.008465
 23,0.00334188,0.01041879,0.00012268,-0.00016629,0.00018172,-0.04712078
 ,-0.08519209,-0.08039490,0.00092660,-0.00165498,-0.00070881,-0.0154946
 0,-0.01920706,-0.02585476,0.00129728,0.00034898,0.00001306,-0.00000906
 ,-0.00638848,0.00130173,0.00043080,0.00143470,-0.00007603,-0.00010970,
 0.00137630,0.00038330,0.00004450,-0.00012881,0.00018573,-0.00021754,0.
 00035246,0.00022394,0.00005867,0.00008162,-0.00010063,0.04665762,0.100
 90553,0.00225223,-0.00086903,0.00134142,-0.00036527,0.00049716,0.00059
 253,-0.00159386,-0.00171809,-0.00263228,0.00035392,0.00016075,0.000241
 72,-0.09420695,-0.07834791,-0.20094246,0.00062771,0.00070241,0.0002794
 0,0.00274502,0.00252096,0.00465165,-0.00061004,0.00009670,0.00012232,0
 .00016055,0.00149159,0.00106261,0.00032726,-0.00054670,0.00027456,-0.0
 0001028,-0.00049158,0.00072074,0.00029864,-0.00013072,0.00034639,-0.00
 015015,-0.00025360,-0.00018989,0.00007693,0.00003471,0.00007640,0.0968
 2452,0.08538673,0.22196516,-0.00020225,-0.00124470,-0.00038078,-0.0001
 0516,0.00015695,0.00015850,-0.02763569,-0.00376974,0.02304457,0.000077
 70,0.00050299,-0.00046790,-0.09719294,-0.01366502,0.04198673,0.0019926
 3,0.00077892,0.00350877,-0.00097318,-0.00432918,0.00368088,-0.00153069
 ,0.00169330,-0.00155203,-0.00011728,0.00066622,0.00034812,0.00035973,0
 .00093585,-0.00056517,0.00062348,0.00082620,-0.00036317,0.00014452,0.0
 0041043,-0.00009952,-0.00004791,-0.00190317,0.00009173,-0.00011970,0.0
 0064493,-0.00022451,0.00703968,0.00301519,-0.00971920,0.51885171,0.001
 26218,-0.00107100,0.00033264,-0.00008556,0.00035657,0.00031101,0.00484
 780,0.00386006,-0.01009646,-0.00136629,-0.00091847,0.00008350,-0.00965
 280,-0.08018564,0.01496262,-0.00105884,-0.00009769,-0.00105696,-0.0189
 9551,-0.01245866,0.03117424,0.00156529,-0.00075779,0.00059323,-0.00004
 578,0.00179937,0.00015057,-0.00048985,0.00143489,0.00002685,-0.0005964
 1,-0.00676704,0.00171777,0.00005935,-0.00047566,0.00010505,0.00054495,
 0.00123916,-0.00004960,-0.00001971,-0.00027824,0.00002254,0.00701455,0
 .00331401,-0.01032936,-0.01946493,0.56247922,-0.00074171,0.00064220,-0
 .00020055,-0.00006696,0.00025045,-0.00009778,0.00623487,-0.00473790,0.
 00227878,-0.00303086,-0.00056084,0.00011807,0.03678895,0.01880911,-0.1
 3891494,-0.00094894,0.00171945,0.00202318,0.00315107,0.00572107,-0.006
 90444,-0.00163672,0.00037496,-0.00074728,-0.00033998,-0.00138778,0.001
 46454,0.00010870,-0.00056463,0.00007405,-0.00030625,-0.00021080,0.0011
 1422,-0.00007174,0.00007239,0.00030708,0.00154220,-0.00120519,-0.00145
 289,-0.00009478,0.00033339,-0.00002271,0.01659845,0.00753189,-0.026598
 92,0.04982309,0.01868019,0.48627702,0.00024852,-0.00003157,-0.00004614
 ,0.00002478,-0.00000927,0.00000554,0.00081749,-0.00078916,-0.00044753,
 0.00038156,-0.00007804,0.00014985,-0.00214692,-0.01811954,0.00168365,-
 0.00009562,-0.00014173,-0.00047741,-0.00178371,-0.00008846,0.00333204,
 0.00014896,-0.00004306,0.00006943,0.00003034,0.00037033,-0.00006417,0.
 00031869,-0.00020777,0.00006711,0.00030330,-0.00116334,0.00043779,0.00
 000312,0.00003320,-0.00002715,-0.00030152,0.00022563,0.00011721,-0.000
 00836,-0.00005501,0.00000432,0.00052933,0.00054215,-0.00044012,-0.0465
 8748,-0.00285539,-0.00024129,0.04718106,-0.00017029,0.00065123,0.00008
 731,0.00006100,-0.00001005,-0.00001379,0.00083342,0.00003269,-0.000382
 91,0.00043344,-0.00000871,0.00014814,0.00014160,-0.00638836,0.00012821
 ,-0.00010394,-0.00005720,-0.00028585,-0.00123311,0.00111937,0.00203879
 ,-0.00019223,0.00007026,0.00001221,0.00008993,0.00021896,-0.00015603,0
 .00008225,0.00018793,-0.00014793,-0.00005928,-0.00062284,0.00011139,-0
 .00006312,0.00003185,0.00007773,-0.00024529,0.00008573,0.00005821,0.00
 000360,-0.00000704,0.00001074,0.00010615,0.00048346,0.00042036,-0.0045
 3919,-0.30540393,0.03224169,0.00504898,0.33075738,-0.00018130,0.000082
 23,0.00013829,-0.00001572,0.00001218,-0.00001499,-0.00123286,0.0001884
 9,0.00072876,0.00034998,-0.00001293,0.00006839,0.00015949,0.02655503,-
 0.00352635,0.00029555,-0.00014744,0.00029544,0.00336414,0.00010233,-0.
 00422127,-0.00005786,0.00008201,-0.00000701,0.00014605,0.00019695,0.00
 011051,-0.00008533,-0.00036657,0.00005294,0.00036965,0.00175982,-0.000
 21906,-0.00000886,-0.00009441,0.00001683,-0.00015168,-0.00017280,-0.00
 010898,0.00002736,0.00002558,-0.00000264,-0.00088451,-0.00021033,0.001
 01578,0.00023025,0.03080337,-0.05006285,-0.00266767,-0.03632893,0.0534
 3933,-0.00046438,0.00018464,0.00010796,0.00000871,0.00002890,-0.000022
 27,-0.00143311,-0.00205837,0.00268053,0.00055813,0.00029010,0.00007769
 ,-0.01595327,0.00604595,-0.00256675,0.00160245,0.00052148,0.00154664,0
 .00033586,0.00059250,-0.00086952,-0.00155786,0.00058955,-0.00040257,-0
 .00002993,-0.00001023,0.00001341,0.00031132,-0.00055085,0.00018575,0.0
 0035527,-0.00005805,0.00011639,-0.00000207,0.00009826,0.00010519,-0.00
 015134,-0.00080023,-0.00034042,0.00006443,0.00022770,0.00002023,0.0009
 8170,0.00025055,0.00003270,-0.27337098,0.07847148,-0.03000237,0.001981
 43,-0.00011393,0.00016553,0.29781677,-0.00019437,0.00021472,0.00021073
 ,0.00000394,0.00000385,0.00002714,-0.00031043,0.00047144,0.00084593,0.
 00070891,0.00018968,-0.00002119,-0.00766016,0.00122122,-0.00104281,-0.
 00023997,-0.00022967,-0.00050850,-0.00059073,0.00042907,-0.00023922,-0
 .00001723,0.00013257,0.00001081,-0.00000317,-0.00000923,0.00002101,-0.
 00009577,-0.00015426,0.00030049,0.00011931,0.00016560,-0.00014830,-0.0
 0001261,0.00005032,0.00005250,-0.00029920,0.00015713,0.00043631,-0.000
 00933,-0.00000071,-0.00001839,0.00040683,0.00014062,-0.00033486,0.0792
 7555,-0.07492858,0.01044121,0.02989479,-0.00891127,0.00400798,-0.08710
 696,0.07681139,0.00033257,-0.00006393,0.00009753,-0.00001287,0.0000127
 9,0.00004472,0.00300869,0.00236928,-0.00298004,0.00113783,0.00026905,-
 0.00001863,0.02537804,-0.00869751,0.00183531,-0.00060866,-0.00138270,-
 0.00160373,-0.00014583,-0.00085952,0.00099079,0.00104353,-0.00027120,0
 .00059079,-0.00003133,0.00012024,-0.00002380,-0.00014023,0.00036332,-0
 .00008910,-0.00022966,-0.00026934,-0.00000894,0.00000091,-0.00011750,-
 0.00002983,-0.00046190,0.00120950,0.00083753,0.00003900,-0.00025422,0.
 00000430,-0.00044089,-0.00059937,0.00137008,-0.03151390,0.01085681,-0.
 04993524,-0.00327849,0.00076231,-0.00145030,0.03098987,-0.01259147,0.0
 5397123,-0.00009013,0.00007049,-0.00000308,-0.00000894,-0.00005144,-0.
 00009990,0.00175085,0.00038946,-0.00001128,-0.00130379,-0.00079539,-0.
 00017500,0.00642787,0.00806198,0.01588500,-0.00038537,0.00037758,-0.00
 008002,0.00079457,0.00093693,-0.00068202,0.00035972,-0.00022630,0.0000
 1928,-0.00005110,-0.00023981,-0.00039257,-0.00003666,-0.00010306,-0.00
 003431,-0.00003844,0.00022268,-0.00017509,-0.00001403,0.00001430,-0.00
 003722,-0.00071825,-0.00049711,0.00010224,-0.00002301,-0.00000204,-0.0
 0000444,-0.00101163,-0.00091517,0.00339637,-0.08120619,-0.03913456,-0.
 07676573,-0.00104496,-0.00007999,0.00017779,-0.01105313,-0.01386941,-0
 .02506670,0.08765261,0.00023028,-0.00004400,-0.00020805,0.00005509,-0.
 00001473,0.00000525,0.00012123,-0.00008908,-0.00034808,-0.00000061,0.0
 0050923,-0.00007937,0.00334952,0.00249694,0.00706076,0.00000667,-0.000
 17819,-0.00030296,0.00084473,0.00115367,0.00055928,0.00010993,0.000001
 45,0.00005489,-0.00019894,0.00010129,-0.00040662,0.00000162,-0.0000304
 6,0.00000184,0.00005312,0.00009210,-0.00021680,-0.00000098,0.00003226,
 -0.00005905,-0.00059414,-0.00004500,0.00040479,-0.00000051,-0.00003710
 ,-0.00000848,-0.00069205,0.00039472,0.00171048,-0.03999059,-0.09114058
 ,-0.08815088,-0.01253276,-0.01222948,-0.02648256,0.00339751,0.00424611
 ,0.00914346,0.04584086,0.09478086,0.00036582,-0.00001834,0.00016705,-0
 .00014494,0.00019207,0.00023225,-0.00147257,0.00043400,0.00074086,0.00
 228084,0.00036202,0.00048662,-0.00989601,-0.01056254,-0.02286197,0.000
 13031,-0.00171675,-0.00092612,-0.00056206,-0.00120398,0.00135571,0.000
 30198,0.00039622,0.00018812,0.00017831,0.00088698,0.00029674,0.0000156
 7,0.00010910,-0.00000244,0.00021763,0.00008753,0.00035333,0.00004676,-
 0.00006839,0.00003504,-0.00138869,0.00082794,0.00119740,0.00004403,-0.
 00007115,-0.00003778,0.00393764,0.00154217,-0.00369719,-0.07798644,-0.
 08828800,-0.21871935,0.00182303,0.00121837,0.00374721,-0.00183799,-0.0
 0144936,-0.00360266,0.08394668,0.09732211,0.24104719||0.00000209,0.000
 00095,0.00002389,0.00000485,-0.00001327,0.00001047,0.00000316,-0.00000
 007,-0.00001530,-0.00000637,0.00001118,-0.00000540,-0.00000402,0.00000
 298,0.00000236,-0.00000881,0.00001169,0.00001025,0.00001531,-0.0000125
 7,0.00000268,0.00001889,-0.00000866,0.00000765,0.00000034,-0.00000002,
 -0.00001339,-0.00000240,-0.00000499,-0.00001639,-0.00000290,-0.0000081
 0,-0.00002080,0.00000383,-0.00000523,0.00001777,-0.00002998,0.00002129
 ,0.00000675,-0.00000093,0.00000755,0.00001242,0.00001397,-0.00000501,-
 0.00000937,-0.00000212,-0.00001315,-0.00000857,-0.00000124,0.00000491,
 0.00000505,-0.00000195,0.00000053,-0.00000483,-0.00000174,0.00000999,-
 0.00000522|||@


 IN THE LONG RUN, DIGGING FOR TRUTH HAS ALWAYS PROVED NOT ONLY 
 MORE INTERESTING BUT MORE PROFITABLE THAN DIGGING FOR GOLD.

                             -- GEORGE R. HARRISON
 Job cpu time:  0 days  0 hours 48 minutes 59.0 seconds.
 File lengths (MBytes):  RWF=    139 Int=      0 D2E=      0 Chk=      9 Scr=      1
 Normal termination of Gaussian 09 at Sat Apr 16 23:01:06 2016.
