 Entering Gaussian System, Link 0=g09
 Input=Ala-S-opt-freq-tsa3-6-31g.com
 Output=Ala-S-opt-freq-tsa3-6-31g.log
 Initial command:
 /usr/local/gau/g09/l1.exe "/tmp/Gau-4508.inp" -scrdir="/tmp/"
 Entering Link 1 = /usr/local/gau/g09/l1.exe PID=      4510.
  
 Copyright (c) 1988,1990,1992,1993,1995,1998,2003,2009,2013,
            Gaussian, Inc.  All Rights Reserved.
  
 This is part of the Gaussian(R) 09 program.  It is based on
 the Gaussian(R) 03 system (copyright 2003, Gaussian, Inc.),
 the Gaussian(R) 98 system (copyright 1998, Gaussian, Inc.),
 the Gaussian(R) 94 system (copyright 1995, Gaussian, Inc.),
 the Gaussian 92(TM) system (copyright 1992, Gaussian, Inc.),
 the Gaussian 90(TM) system (copyright 1990, Gaussian, Inc.),
 the Gaussian 88(TM) system (copyright 1988, Gaussian, Inc.),
 the Gaussian 86(TM) system (copyright 1986, Carnegie Mellon
 University), and the Gaussian 82(TM) system (copyright 1983,
 Carnegie Mellon University). Gaussian is a federally registered
 trademark of Gaussian, Inc.
  
 This software contains proprietary and confidential information,
 including trade secrets, belonging to Gaussian, Inc.
  
 This software is provided under written license and may be
 used, copied, transmitted, or stored only in accord with that
 written license.
  
 The following legend is applicable only to US Government
 contracts under FAR:
  
                    RESTRICTED RIGHTS LEGEND
  
 Use, reproduction and disclosure by the US Government is
 subject to restrictions as set forth in subparagraphs (a)
 and (c) of the Commercial Computer Software - Restricted
 Rights clause in FAR 52.227-19.
  
 Gaussian, Inc.
 340 Quinnipiac St., Bldg. 40, Wallingford CT 06492
  
  
 ---------------------------------------------------------------
 Warning -- This program may not be used in any manner that
 competes with the business of Gaussian, Inc. or will provide
 assistance to any competitor of Gaussian, Inc.  The licensee
 of this program is prohibited from giving any competitor of
 Gaussian, Inc. access to this program.  By using this program,
 the user acknowledges that Gaussian, Inc. is engaged in the
 business of creating and licensing software in the field of
 computational chemistry and represents and warrants to the
 licensee that it is not a competitor of Gaussian, Inc. and that
 it will not use this program in any manner prohibited above.
 ---------------------------------------------------------------
  

 Cite this work as:
 Gaussian 09, Revision D.01,
 M. J. Frisch, G. W. Trucks, H. B. Schlegel, G. E. Scuseria, 
 M. A. Robb, J. R. Cheeseman, G. Scalmani, V. Barone, B. Mennucci, 
 G. A. Petersson, H. Nakatsuji, M. Caricato, X. Li, H. P. Hratchian, 
 A. F. Izmaylov, J. Bloino, G. Zheng, J. L. Sonnenberg, M. Hada, 
 M. Ehara, K. Toyota, R. Fukuda, J. Hasegawa, M. Ishida, T. Nakajima, 
 Y. Honda, O. Kitao, H. Nakai, T. Vreven, J. A. Montgomery, Jr., 
 J. E. Peralta, F. Ogliaro, M. Bearpark, J. J. Heyd, E. Brothers, 
 K. N. Kudin, V. N. Staroverov, T. Keith, R. Kobayashi, J. Normand, 
 K. Raghavachari, A. Rendell, J. C. Burant, S. S. Iyengar, J. Tomasi, 
 M. Cossi, N. Rega, J. M. Millam, M. Klene, J. E. Knox, J. B. Cross, 
 V. Bakken, C. Adamo, J. Jaramillo, R. Gomperts, R. E. Stratmann, 
 O. Yazyev, A. J. Austin, R. Cammi, C. Pomelli, J. W. Ochterski, 
 R. L. Martin, K. Morokuma, V. G. Zakrzewski, G. A. Voth, 
 P. Salvador, J. J. Dannenberg, S. Dapprich, A. D. Daniels, 
 O. Farkas, J. B. Foresman, J. V. Ortiz, J. Cioslowski, 
 and D. J. Fox, Gaussian, Inc., Wallingford CT, 2013.
 
 ******************************************
 Gaussian 09:  ES64L-G09RevD.01 24-Apr-2013
                12-Apr-2016 
 ******************************************
 %chk=Ala-S-opt-freq-tsa3-6-31g.chk
 -----------------------------------------------
 # opt=(calcfc,ts) freq rb3lyp/6-31g iop(1/11=1)
 -----------------------------------------------
 1/5=1,10=4,11=1,14=-1,18=20,26=3,38=1/1,3;
 2/9=110,12=2,17=6,18=5,40=1/2;
 3/5=1,6=6,11=2,16=1,25=1,30=1,71=2,74=-5,116=1,140=1/1,2,3;
 4//1;
 5/5=2,38=5/2;
 8/6=4,10=90,11=11/1;
 11/6=1,8=1,9=11,15=111,16=1/1,2,10;
 10/6=1,13=1/2;
 6/7=2,8=2,9=2,10=2,28=1/1;
 7/10=1,18=20,25=1/1,2,3,16;
 1/5=1,10=4,11=1,14=-1,18=20,26=3/3(2);
 2/9=110/2;
 99//99;
 2/9=110/2;
 3/5=1,6=6,11=2,16=1,25=1,30=1,71=1,74=-5,116=1/1,2,3;
 4/5=5,16=3,69=1/1;
 5/5=2,38=5/2;
 7//1,2,3,16;
 1/5=1,11=1,14=-1,18=20,26=3/3(-5);
 2/9=110/2;
 6/7=2,8=2,9=2,10=2,19=2,28=1/1;
 99/9=1/99;
 -------------------------
 Ala-S-opt-freq-tsa3-6-31g
 -------------------------
 Symbolic Z-matrix:
 Charge =  0 Multiplicity = 1
 N                     1.40127   1.28886  -0.01053 
 H                     2.3985    1.36479  -0.09299 
 C                     0.78333   0.04044  -0.03576 
 H                    -1.94421  -1.45391  -0.74214 
 C                     1.69135  -1.15764  -0.04344 
 C                    -0.71195  -0.0783   -0.04299 
 H                     2.33687  -1.16055   0.84521 
 H                     1.11009  -2.08015  -0.04642 
 H                     2.34658  -1.15059  -0.92597 
 O                    -1.52123   1.0729   -0.13429 
 H                     0.83892   2.11665  -0.10725 
 O                    -1.4022   -1.29383   0.06112 
 H                    -0.15455   1.09735   0.70344 
 
 Add virtual bond connecting atoms H13        and C3         Dist= 3.01D+00.
 Add virtual bond connecting atoms H13        and C6         Dist= 2.83D+00.
 Add virtual bond connecting atoms H13        and O10        Dist= 3.03D+00.
 Add virtual bond connecting atoms H13        and H11        Dist= 3.10D+00.

 GradGradGradGradGradGradGradGradGradGradGradGradGradGradGradGradGradGrad
 Berny optimization.
 Initialization pass.
                           ----------------------------
                           !    Initial Parameters    !
                           ! (Angstroms and Degrees)  !
 --------------------------                            --------------------------
 ! Name  Definition              Value          Derivative Info.                !
 --------------------------------------------------------------------------------
 ! R1    R(1,2)                  1.0035         calculate D2E/DX2 analytically  !
 ! R2    R(1,3)                  1.3932         calculate D2E/DX2 analytically  !
 ! R3    R(1,11)                 1.0054         calculate D2E/DX2 analytically  !
 ! R4    R(3,5)                  1.5033         calculate D2E/DX2 analytically  !
 ! R5    R(3,6)                  1.5            calculate D2E/DX2 analytically  !
 ! R6    R(3,13)                 1.5947         calculate D2E/DX2 analytically  !
 ! R7    R(4,12)                 0.9822         calculate D2E/DX2 analytically  !
 ! R8    R(5,7)                  1.0984         calculate D2E/DX2 analytically  !
 ! R9    R(5,8)                  1.0904         calculate D2E/DX2 analytically  !
 ! R10   R(5,9)                  1.0992         calculate D2E/DX2 analytically  !
 ! R11   R(6,10)                 1.4102         calculate D2E/DX2 analytically  !
 ! R12   R(6,12)                 1.4017         calculate D2E/DX2 analytically  !
 ! R13   R(6,13)                 1.5            calculate D2E/DX2 analytically  !
 ! R14   R(10,13)                1.6032         calculate D2E/DX2 analytically  !
 ! R15   R(11,13)                1.638          calculate D2E/DX2 analytically  !
 ! A1    A(2,1,3)              120.4689         calculate D2E/DX2 analytically  !
 ! A2    A(2,1,11)             119.0538         calculate D2E/DX2 analytically  !
 ! A3    A(3,1,11)             119.2059         calculate D2E/DX2 analytically  !
 ! A4    A(1,3,5)              116.508          calculate D2E/DX2 analytically  !
 ! A5    A(1,3,6)              120.8748         calculate D2E/DX2 analytically  !
 ! A6    A(1,3,13)              70.0364         calculate D2E/DX2 analytically  !
 ! A7    A(5,3,6)              122.6153         calculate D2E/DX2 analytically  !
 ! A8    A(5,3,13)             152.3492         calculate D2E/DX2 analytically  !
 ! A9    A(3,5,7)              110.6686         calculate D2E/DX2 analytically  !
 ! A10   A(3,5,8)              110.6273         calculate D2E/DX2 analytically  !
 ! A11   A(3,5,9)              111.0413         calculate D2E/DX2 analytically  !
 ! A12   A(7,5,8)              108.2564         calculate D2E/DX2 analytically  !
 ! A13   A(7,5,9)              107.4144         calculate D2E/DX2 analytically  !
 ! A14   A(8,5,9)              108.7238         calculate D2E/DX2 analytically  !
 ! A15   A(3,6,10)             120.5154         calculate D2E/DX2 analytically  !
 ! A16   A(3,6,12)             123.9986         calculate D2E/DX2 analytically  !
 ! A17   A(10,6,12)            115.4764         calculate D2E/DX2 analytically  !
 ! A18   A(12,6,13)            145.6589         calculate D2E/DX2 analytically  !
 ! A19   A(1,11,13)             77.2489         calculate D2E/DX2 analytically  !
 ! A20   A(4,12,6)             110.6311         calculate D2E/DX2 analytically  !
 ! A21   A(3,13,10)            104.4206         calculate D2E/DX2 analytically  !
 ! A22   A(3,13,11)             79.9974         calculate D2E/DX2 analytically  !
 ! A23   A(6,13,11)            117.8274         calculate D2E/DX2 analytically  !
 ! A24   A(10,13,11)           105.5397         calculate D2E/DX2 analytically  !
 ! D1    D(2,1,3,5)              6.2762         calculate D2E/DX2 analytically  !
 ! D2    D(2,1,3,6)           -174.2135         calculate D2E/DX2 analytically  !
 ! D3    D(2,1,3,13)           156.9637         calculate D2E/DX2 analytically  !
 ! D4    D(11,1,3,5)           173.2777         calculate D2E/DX2 analytically  !
 ! D5    D(11,1,3,6)            -7.2119         calculate D2E/DX2 analytically  !
 ! D6    D(11,1,3,13)          -36.0347         calculate D2E/DX2 analytically  !
 ! D7    D(2,1,11,13)         -159.3149         calculate D2E/DX2 analytically  !
 ! D8    D(3,1,11,13)           33.4982         calculate D2E/DX2 analytically  !
 ! D9    D(1,3,5,7)             59.0596         calculate D2E/DX2 analytically  !
 ! D10   D(1,3,5,8)            179.0434         calculate D2E/DX2 analytically  !
 ! D11   D(1,3,5,9)            -60.1392         calculate D2E/DX2 analytically  !
 ! D12   D(6,3,5,7)           -120.4415         calculate D2E/DX2 analytically  !
 ! D13   D(6,3,5,8)             -0.4577         calculate D2E/DX2 analytically  !
 ! D14   D(6,3,5,9)            120.3597         calculate D2E/DX2 analytically  !
 ! D15   D(13,3,5,7)           -38.4013         calculate D2E/DX2 analytically  !
 ! D16   D(13,3,5,8)            81.5825         calculate D2E/DX2 analytically  !
 ! D17   D(13,3,5,9)          -157.6001         calculate D2E/DX2 analytically  !
 ! D18   D(1,3,6,10)             5.1914         calculate D2E/DX2 analytically  !
 ! D19   D(1,3,6,12)          -173.6291         calculate D2E/DX2 analytically  !
 ! D20   D(5,3,6,10)          -175.3288         calculate D2E/DX2 analytically  !
 ! D21   D(5,3,6,12)             5.8507         calculate D2E/DX2 analytically  !
 ! D22   D(1,3,13,10)          122.2883         calculate D2E/DX2 analytically  !
 ! D23   D(1,3,13,11)           18.665          calculate D2E/DX2 analytically  !
 ! D24   D(5,3,13,10)         -128.4501         calculate D2E/DX2 analytically  !
 ! D25   D(5,3,13,11)          127.9265         calculate D2E/DX2 analytically  !
 ! D26   D(3,6,12,4)          -118.4765         calculate D2E/DX2 analytically  !
 ! D27   D(10,6,12,4)           62.649          calculate D2E/DX2 analytically  !
 ! D28   D(13,6,12,4)          148.2338         calculate D2E/DX2 analytically  !
 ! D29   D(12,6,13,11)         168.9247         calculate D2E/DX2 analytically  !
 ! D30   D(1,11,13,3)          -25.301          calculate D2E/DX2 analytically  !
 ! D31   D(1,11,13,6)          -70.596          calculate D2E/DX2 analytically  !
 ! D32   D(1,11,13,10)        -127.6246         calculate D2E/DX2 analytically  !
 --------------------------------------------------------------------------------
 Trust Radius=3.00D-01 FncErr=1.00D-07 GrdErr=1.00D-06
 Number of steps in this run=     81 maximum allowed number of steps=    100.
 Search for a saddle point of order  1.
 GradGradGradGradGradGradGradGradGradGradGradGradGradGradGradGradGradGrad

                          Input orientation:                          
 ---------------------------------------------------------------------
 Center     Atomic      Atomic             Coordinates (Angstroms)
 Number     Number       Type             X           Y           Z
 ---------------------------------------------------------------------
      1          7           0        1.401267    1.288864   -0.010530
      2          1           0        2.398497    1.364790   -0.092994
      3          6           0        0.783326    0.040444   -0.035764
      4          1           0       -1.944209   -1.453910   -0.742135
      5          6           0        1.691352   -1.157640   -0.043444
      6          6           0       -0.711949   -0.078302   -0.042986
      7          1           0        2.336869   -1.160552    0.845212
      8          1           0        1.110085   -2.080148   -0.046424
      9          1           0        2.346577   -1.150590   -0.925973
     10          8           0       -1.521230    1.072905   -0.134288
     11          1           0        0.838919    2.116648   -0.107252
     12          8           0       -1.402197   -1.293833    0.061120
     13          1           0       -0.154554    1.097352    0.703437
 ---------------------------------------------------------------------
                    Distance matrix (angstroms):
                    1          2          3          4          5
     1  N    0.000000
     2  H    1.003510   0.000000
     3  C    1.393212   2.089484   0.000000
     4  H    4.387513   5.217811   3.189279   0.000000
     5  C    2.463862   2.620145   1.503321   3.713926   0.000000
     6  C    2.517117   3.429270   1.500000   1.974733   2.634545
     7  H    2.758131   2.694695   2.152210   4.575299   1.098367
     8  H    3.381762   3.678284   2.145646   3.194511   1.090367
     9  H    2.771747   2.650224   2.157496   4.305420   1.099194
    10  O    2.933077   3.930797   2.527184   2.633094   3.912067
    11  H    1.005394   1.731409   2.078178   4.571407   3.384032
    12  O    3.812462   4.640830   2.562458   0.982151   3.098310
    13  H    1.722500   2.687731   1.594708   3.435329   3.008354
                    6          7          8          9         10
     6  C    0.000000
     7  H    3.354914   0.000000
     8  H    2.706881   1.773604   0.000000
     9  H    3.359174   1.771240   1.779493   0.000000
    10  O    1.410159   4.564283   4.107710   4.531073   0.000000
    11  H    2.688332   3.727074   4.205987   3.690282   2.580782
    12  O    1.401712   3.822719   2.634657   3.879198   2.377772
    13  H    1.500000   3.365326   3.501159   3.736827   1.603179
                   11         12         13
    11  H    0.000000
    12  O    4.084401   0.000000
    13  H    1.638039   2.772535   0.000000
 Stoichiometry    C3H7NO2
 Framework group  C1[X(C3H7NO2)]
 Deg. of freedom    33
 Full point group                 C1      NOp   1
 Largest Abelian subgroup         C1      NOp   1
 Largest concise Abelian subgroup C1      NOp   1
                         Standard orientation:                         
 ---------------------------------------------------------------------
 Center     Atomic      Atomic             Coordinates (Angstroms)
 Number     Number       Type             X           Y           Z
 ---------------------------------------------------------------------
      1          7           0        1.424627   -1.198866   -0.006235
      2          1           0        2.423404   -1.191391    0.090837
      3          6           0        0.704376   -0.006375    0.009418
      4          1           0       -2.148357    1.254647    0.675178
      5          6           0        1.509065    1.263284    0.029855
      6          6           0       -0.795538   -0.012803   -0.005279
      7          1           0        2.165001    1.320742   -0.849267
      8          1           0        0.852874    2.134076    0.023934
      9          1           0        2.149630    1.310231    0.921875
     10          8           0       -1.507193   -1.227588    0.074679
     11          1           0        0.931953   -2.070758    0.082613
     12          8           0       -1.583202    1.140982   -0.119996
     13          1           0       -0.131151   -1.137266   -0.742961
 ---------------------------------------------------------------------
 Rotational constants (GHZ):      4.8669886      2.9764163      1.8871722
 Standard basis: 6-31G (6D, 7F)
 There are    68 symmetry adapted cartesian basis functions of A   symmetry.
 There are    68 symmetry adapted basis functions of A   symmetry.
    68 basis functions,   160 primitive gaussians,    68 cartesian basis functions
    24 alpha electrons       24 beta electrons
       nuclear repulsion energy       240.9137297909 Hartrees.
 NAtoms=   13 NActive=   13 NUniq=   13 SFac= 1.00D+00 NAtFMM=   60 NAOKFM=F Big=F
 Integral buffers will be    131072 words long.
 Raffenetti 2 integral format.
 Two-electron integral symmetry is turned on.
 One-electron integrals computed using PRISM.
 NBasis=    68 RedAO= T EigKep=  3.88D-03  NBF=    68
 NBsUse=    68 1.00D-06 EigRej= -1.00D+00 NBFU=    68
 ExpMin= 1.61D-01 ExpMax= 5.48D+03 ExpMxC= 8.25D+02 IAcc=1 IRadAn=         1 AccDes= 0.00D+00
 Harris functional with IExCor=  402 and IRadAn=       1 diagonalized for initial guess.
 HarFok:  IExCor=  402 AccDes= 0.00D+00 IRadAn=         1 IDoV= 1 UseB2=F ITyADJ=14
 ICtDFT=  3500011 ScaDFX=  1.000000  1.000000  1.000000  1.000000
 FoFCou: FMM=F IPFlag=           0 FMFlag=      100000 FMFlg1=           0
         NFxFlg=           0 DoJE=T BraDBF=F KetDBF=T FulRan=T
         wScrn=  0.000000 ICntrl=     500 IOpCl=  0 I1Cent=   200000004 NGrid=           0
         NMat0=    1 NMatS0=      1 NMatT0=    0 NMatD0=    1 NMtDS0=    0 NMtDT0=    0
 Petite list used in FoFCou.
 Keep R1 ints in memory in canonical form, NReq=3676491.
 Requested convergence on RMS density matrix=1.00D-08 within 128 cycles.
 Requested convergence on MAX density matrix=1.00D-06.
 Requested convergence on             energy=1.00D-06.
 No special actions if energy rises.
 Integral accuracy reduced to 1.0D-05 until final iterations.
 EnCoef did     2 forward-backward iterations
 Initial convergence to 1.0D-05 achieved.  Increase integral accuracy.
 SCF Done:  E(RB3LYP) =  -323.431644067     A.U. after   18 cycles
            NFock= 18  Conv=0.91D-08     -V/T= 2.0065
 DoSCS=F DFT=T ScalE2(SS,OS)=  1.000000  1.000000
 Range of M.O.s used for correlation:     1    68
 NBasis=    68 NAE=    24 NBE=    24 NFC=     0 NFV=     0
 NROrb=     68 NOA=    24 NOB=    24 NVA=    44 NVB=    44
 Symmetrizing basis deriv contribution to polar:
 IMax=3 JMax=2 DiffMx= 0.00D+00
 G2DrvN: will do    14 centers at a time, making    1 passes.
 Calling FoFCou, ICntrl=  3107 FMM=F I1Cent=   0 AccDes= 0.00D+00.
 End of G2Drv F.D. properties file   721 does not exist.
 End of G2Drv F.D. properties file   722 does not exist.
 End of G2Drv F.D. properties file   788 does not exist.
          IDoAtm=1111111111111
          Differentiating once with respect to nuclear coordinates.
 Keep R1 ints in memory in canonical form, NReq=3645297.
          There are    42 degrees of freedom in the 1st order CPHF.  IDoFFX=6 NUNeed=     0.
     36 vectors produced by pass  0 Test12= 2.51D-15 2.38D-09 XBig12= 2.20D-01 1.37D-01.
 AX will form    36 AO Fock derivatives at one time.
     36 vectors produced by pass  1 Test12= 2.51D-15 2.38D-09 XBig12= 2.68D-02 3.97D-02.
     36 vectors produced by pass  2 Test12= 2.51D-15 2.38D-09 XBig12= 1.41D-04 1.77D-03.
     36 vectors produced by pass  3 Test12= 2.51D-15 2.38D-09 XBig12= 3.38D-07 1.07D-04.
     36 vectors produced by pass  4 Test12= 2.51D-15 2.38D-09 XBig12= 3.37D-10 2.61D-06.
     19 vectors produced by pass  5 Test12= 2.51D-15 2.38D-09 XBig12= 2.21D-13 6.76D-08.
 InvSVY:  IOpt=1 It=  1 EMax= 1.89D-15
 Solved reduced A of dimension   199 with    36 vectors.
 End of Minotr F.D. properties file   721 does not exist.
 End of Minotr F.D. properties file   722 does not exist.
 End of Minotr F.D. properties file   788 does not exist.

 **********************************************************************

            Population analysis using the SCF density.

 **********************************************************************

 Orbital symmetries:
       Occupied  (A) (A) (A) (A) (A) (A) (A) (A) (A) (A) (A) (A)
                 (A) (A) (A) (A) (A) (A) (A) (A) (A) (A) (A) (A)
       Virtual   (A) (A) (A) (A) (A) (A) (A) (A) (A) (A) (A) (A)
                 (A) (A) (A) (A) (A) (A) (A) (A) (A) (A) (A) (A)
                 (A) (A) (A) (A) (A) (A) (A) (A) (A) (A) (A) (A)
                 (A) (A) (A) (A) (A) (A) (A) (A)
 The electronic state is 1-A.
 Alpha  occ. eigenvalues --  -19.16861 -19.12456 -14.35677 -10.30626 -10.25822
 Alpha  occ. eigenvalues --  -10.19580  -1.06009  -0.97062  -0.93132  -0.76465
 Alpha  occ. eigenvalues --   -0.69065  -0.59754  -0.57055  -0.50757  -0.46309
 Alpha  occ. eigenvalues --   -0.45321  -0.42432  -0.40621  -0.39241  -0.35580
 Alpha  occ. eigenvalues --   -0.31488  -0.29943  -0.26376  -0.16856
 Alpha virt. eigenvalues --   -0.04424   0.01957   0.06541   0.08153   0.11452
 Alpha virt. eigenvalues --    0.12778   0.16165   0.16842   0.19589   0.21351
 Alpha virt. eigenvalues --    0.23868   0.34263   0.36881   0.52230   0.53997
 Alpha virt. eigenvalues --    0.55448   0.58110   0.62047   0.64621   0.66468
 Alpha virt. eigenvalues --    0.70361   0.74136   0.75591   0.79205   0.82557
 Alpha virt. eigenvalues --    0.85219   0.86656   0.90898   0.91489   0.93406
 Alpha virt. eigenvalues --    0.94726   0.97174   0.99387   1.05441   1.07791
 Alpha virt. eigenvalues --    1.09561   1.13592   1.18650   1.22153   1.33074
 Alpha virt. eigenvalues --    1.42686   1.53069   1.69993   1.97027
          Condensed to atoms (all electrons):
               1          2          3          4          5          6
     1  N    7.211930   0.326868   0.154604  -0.000094  -0.073490  -0.094778
     2  H    0.326868   0.369186  -0.022322   0.000003  -0.004389   0.005024
     3  C    0.154604  -0.022322   5.491673   0.001927   0.318507   0.315444
     4  H   -0.000094   0.000003   0.001927   0.403922   0.000190  -0.029505
     5  C   -0.073490  -0.004389   0.318507   0.000190   5.127892  -0.007806
     6  C   -0.094778   0.005024   0.315444  -0.029505  -0.007806   4.990935
     7  H    0.004994   0.000372  -0.043199  -0.000047   0.361077   0.000335
     8  H    0.003782  -0.000006  -0.031325  -0.000228   0.372782  -0.002499
     9  H   -0.001747   0.002511  -0.046173   0.000095   0.371400  -0.000683
    10  O   -0.000975   0.000212  -0.128191   0.003574   0.002123   0.231054
    11  H    0.304267  -0.016631  -0.038349  -0.000017   0.005173  -0.001600
    12  O    0.001677  -0.000001  -0.093455   0.233416  -0.002243   0.172713
    13  H   -0.017166   0.002876  -0.100793   0.000645   0.003946   0.099399
               7          8          9         10         11         12
     1  N    0.004994   0.003782  -0.001747  -0.000975   0.304267   0.001677
     2  H    0.000372  -0.000006   0.002511   0.000212  -0.016631  -0.000001
     3  C   -0.043199  -0.031325  -0.046173  -0.128191  -0.038349  -0.093455
     4  H   -0.000047  -0.000228   0.000095   0.003574  -0.000017   0.233416
     5  C    0.361077   0.372782   0.371400   0.002123   0.005173  -0.002243
     6  C    0.000335  -0.002499  -0.000683   0.231054  -0.001600   0.172713
     7  H    0.590403  -0.024503  -0.042035   0.000010  -0.000078   0.000038
     8  H   -0.024503   0.511360  -0.023170   0.000127  -0.000170   0.008664
     9  H   -0.042035  -0.023170   0.583611  -0.000034  -0.000116   0.000243
    10  O    0.000010   0.000127  -0.000034   8.414353   0.012997  -0.087999
    11  H   -0.000078  -0.000170  -0.000116   0.012997   0.385718   0.000251
    12  O    0.000038   0.008664   0.000243  -0.087999   0.000251   8.348769
    13  H   -0.001464  -0.000091   0.000348   0.094867   0.008770   0.011337
              13
     1  N   -0.017166
     2  H    0.002876
     3  C   -0.100793
     4  H    0.000645
     5  C    0.003946
     6  C    0.099399
     7  H   -0.001464
     8  H   -0.000091
     9  H    0.000348
    10  O    0.094867
    11  H    0.008770
    12  O    0.011337
    13  H    0.567708
 Mulliken charges:
               1
     1  N   -0.819872
     2  H    0.336296
     3  C    0.221651
     4  H    0.386120
     5  C   -0.475161
     6  C    0.321967
     7  H    0.154097
     8  H    0.185277
     9  H    0.155750
    10  O   -0.542116
    11  H    0.339785
    12  O   -0.593411
    13  H    0.329618
 Sum of Mulliken charges =   0.00000
 Mulliken charges with hydrogens summed into heavy atoms:
               1
     1  N   -0.143791
     3  C    0.221651
     5  C    0.019963
     6  C    0.651585
    10  O   -0.542116
    12  O   -0.207291
 APT charges:
               1
     1  N   -1.328013
     2  H    0.757721
     3  C    0.229002
     4  H    0.676650
     5  C   -1.234611
     6  C   -0.053787
     7  H    0.430321
     8  H    0.365732
     9  H    0.460095
    10  O   -0.433368
    11  H    0.528293
    12  O   -0.714541
    13  H    0.316507
 Sum of APT charges =   0.00000
 APT charges with hydrogens summed into heavy atoms:
               1
     1  N   -0.041999
     3  C    0.229002
     5  C    0.021537
     6  C    0.262720
    10  O   -0.433368
    12  O   -0.037891
 Electronic spatial extent (au):  <R**2>=            635.6829
 Charge=              0.0000 electrons
 Dipole moment (field-independent basis, Debye):
    X=              3.9190    Y=              0.6425    Z=              1.1751  Tot=              4.1415
 Quadrupole moment (field-independent basis, Debye-Ang):
   XX=            -33.7460   YY=            -35.8902   ZZ=            -37.3343
   XY=             -6.3384   XZ=             -2.8161   YZ=              3.0227
 Traceless Quadrupole moment (field-independent basis, Debye-Ang):
   XX=              1.9109   YY=             -0.2333   ZZ=             -1.6775
   XY=             -6.3384   XZ=             -2.8161   YZ=              3.0227
 Octapole moment (field-independent basis, Debye-Ang**2):
  XXX=              7.2208  YYY=             -5.8237  ZZZ=              1.3936  XYY=              8.2412
  XXY=              6.8127  XXZ=             10.2027  XZZ=             -4.9690  YZZ=              1.6785
  YYZ=              2.9751  XYZ=             -6.1725
 Hexadecapole moment (field-independent basis, Debye-Ang**3):
 XXXX=           -387.9285 YYYY=           -269.0613 ZZZZ=            -46.0434 XXXY=            -47.1313
 XXXZ=            -14.8757 YYYX=            -26.2467 YYYZ=              3.9151 ZZZX=             -2.4317
 ZZZY=              1.4858 XXYY=           -118.6934 XXZZ=            -78.9315 YYZZ=            -56.5328
 XXYZ=              8.6139 YYXZ=             -4.3811 ZZXY=             -2.2676
 N-N= 2.409137297909D+02 E-N=-1.239055682034D+03  KE= 3.213585050606D+02
  Exact polarizability:   0.000   0.000   0.000   0.000   0.000   0.000
 Approx polarizability: 146.750  10.674  82.902  -8.575   4.424  40.193
 Calling FoFJK, ICntrl=    100147 FMM=F ISym2X=0 I1Cent= 0 IOpClX= 0 NMat=1 NMatS=1 NMatT=0.
 ***** Axes restored to original set *****
 -------------------------------------------------------------------
 Center     Atomic                   Forces (Hartrees/Bohr)
 Number     Number              X              Y              Z
 -------------------------------------------------------------------
      1        7           0.010014619    0.020965827   -0.007036436
      2        1           0.001031936    0.000183361    0.000388539
      3        6          -0.074854712   -0.046907538   -0.012673142
      4        1          -0.001715943    0.003936802    0.001313178
      5        6          -0.004772536    0.002536766    0.011406753
      6        6           0.051012949    0.028732312   -0.009280390
      7        1           0.001974442   -0.002155413    0.000201687
      8        1          -0.000723348    0.000084312   -0.000085090
      9        1          -0.001183262    0.002247325   -0.001235367
     10        8           0.048807896   -0.004320268    0.020271027
     11        1           0.004266795    0.009436121   -0.011404358
     12        8           0.022684671    0.000338388    0.000908689
     13        1          -0.056543506   -0.015077996    0.007224911
 -------------------------------------------------------------------
 Cartesian Forces:  Max     0.074854712 RMS     0.022249576
 FormGI is forming the generalized inverse of G from B-inverse, IUseBI=4.

 GradGradGradGradGradGradGradGradGradGradGradGradGradGradGradGradGradGrad
 Berny optimization.
 Internal  Forces:  Max     0.065981706 RMS     0.011684896
 Search for a saddle point.
 Step number   1 out of a maximum of   81
 All quantities printed in internal units (Hartrees-Bohrs-Radians)
 Swapping is turned off.
 Second derivative matrix not updated -- analytic derivatives used.
 ITU=  0
     Eigenvalues ---   -0.10540  -0.01666  -0.00493  -0.00337   0.00090
     Eigenvalues ---    0.00139   0.00674   0.01069   0.01327   0.01676
     Eigenvalues ---    0.02499   0.03118   0.04822   0.04884   0.06431
     Eigenvalues ---    0.09763   0.10959   0.12701   0.13076   0.14476
     Eigenvalues ---    0.15349   0.16077   0.18545   0.21364   0.31626
     Eigenvalues ---    0.32926   0.33675   0.34430   0.35689   0.36071
     Eigenvalues ---    0.41476   0.46348   0.49584
 Eigenvectors required to have negative eigenvalues:
                          R14       R6        D28       R13       D27
   1                    0.60470  -0.25029   0.24172  -0.21793  -0.21297
                          R15       D31       D22       D4        D5
   1                    0.17486  -0.16688  -0.16507   0.16348   0.16145
 RFO step:  Lambda0=7.033316597D-03 Lambda=-5.29037737D-02.
 Linear search not attempted -- option 19 set.
 Maximum step size (   0.300) exceeded in Quadratic search.
    -- Step size scaled by   0.359
 Iteration  1 RMS(Cart)=  0.03913530 RMS(Int)=  0.00307162
 Iteration  2 RMS(Cart)=  0.00191470 RMS(Int)=  0.00102097
 Iteration  3 RMS(Cart)=  0.00000504 RMS(Int)=  0.00102095
 Iteration  4 RMS(Cart)=  0.00000000 RMS(Int)=  0.00102095
 Variable       Old X    -DE/DX   Delta X   Delta X   Delta X     New X
                                 (Linear)    (Quad)   (Total)
    R1        1.89636   0.00101   0.00000  -0.00170  -0.00170   1.89465
    R2        2.63279   0.02721   0.00000   0.00106   0.00009   2.63288
    R3        1.89992   0.00467   0.00000   0.00243   0.00206   1.90198
    R4        2.84087  -0.00506   0.00000  -0.00430  -0.00430   2.83656
    R5        2.83459  -0.06598   0.00000  -0.08480  -0.08442   2.75017
    R6        3.01356   0.00447   0.00000   0.06358   0.06340   3.07696
    R7        1.85600  -0.00077   0.00000   0.00010   0.00010   1.85610
    R8        2.07561   0.00133   0.00000  -0.00005  -0.00005   2.07556
    R9        2.06050   0.00032   0.00000   0.00007   0.00007   2.06057
   R10        2.07718   0.00030   0.00000  -0.00106  -0.00106   2.07612
   R11        2.66481  -0.00844   0.00000   0.00761   0.00649   2.67131
   R12        2.64885  -0.01387   0.00000  -0.00657  -0.00657   2.64229
   R13        2.83459  -0.01769   0.00000  -0.16299  -0.16335   2.67123
   R14        3.02957  -0.04311   0.00000  -0.07297  -0.07100   2.95857
   R15        3.09544   0.01372   0.00000   0.12137   0.12166   3.21710
    A1        2.10258   0.00175   0.00000   0.01149   0.01178   2.11435
    A2        2.07788   0.00179   0.00000   0.01284   0.01285   2.09073
    A3        2.08053  -0.00374   0.00000  -0.02107  -0.02135   2.05918
    A4        2.03345   0.00472   0.00000  -0.01231  -0.01102   2.02243
    A5        2.10966  -0.00232   0.00000  -0.01876  -0.01939   2.09027
    A6        1.22237  -0.00305   0.00000   0.04989   0.05016   1.27253
    A7        2.14004  -0.00241   0.00000   0.03078   0.02948   2.16952
    A8        2.65899  -0.00484   0.00000  -0.04163  -0.04053   2.61846
    A9        1.93153   0.00490   0.00000   0.00682   0.00682   1.93835
   A10        1.93081  -0.00094   0.00000   0.00236   0.00234   1.93315
   A11        1.93804  -0.00476   0.00000  -0.01363  -0.01362   1.92441
   A12        1.88943  -0.00108   0.00000   0.00063   0.00061   1.89004
   A13        1.87473   0.00011   0.00000   0.00196   0.00198   1.87672
   A14        1.89759   0.00185   0.00000   0.00210   0.00208   1.89967
   A15        2.10339   0.00631   0.00000   0.02662   0.02521   2.12860
   A16        2.16418  -0.01973   0.00000  -0.04488  -0.04614   2.11805
   A17        2.01544   0.01336   0.00000   0.01901   0.02082   2.03626
   A18        2.54223  -0.00842   0.00000  -0.07735  -0.07942   2.46281
   A19        1.34825  -0.00210   0.00000   0.03146   0.03108   1.37932
   A20        1.93088  -0.00436   0.00000  -0.01699  -0.01699   1.91389
   A21        1.82248  -0.01399   0.00000  -0.01293  -0.01575   1.80673
   A22        1.39622   0.00534   0.00000  -0.05988  -0.05829   1.33793
   A23        2.05648  -0.01476   0.00000  -0.06414  -0.06585   1.99062
   A24        1.84202  -0.01080   0.00000  -0.07960  -0.07979   1.76223
    D1        0.10954   0.00216   0.00000   0.01075   0.00931   0.11885
    D2       -3.04060   0.00211   0.00000  -0.02653  -0.02738  -3.06798
    D3        2.73953  -0.00373   0.00000  -0.01942  -0.01826   2.72128
    D4        3.02427   0.00140   0.00000   0.02883   0.02792   3.05219
    D5       -0.12587   0.00136   0.00000  -0.00846  -0.00877  -0.13464
    D6       -0.62892  -0.00449   0.00000  -0.00135   0.00036  -0.62857
    D7       -2.78057   0.00098   0.00000   0.01425   0.01307  -2.76749
    D8        0.58465   0.00171   0.00000  -0.00348  -0.00522   0.57943
    D9        1.03078  -0.00081   0.00000   0.00470   0.00456   1.03535
   D10        3.12490   0.00042   0.00000   0.01149   0.01136   3.13626
   D11       -1.04963  -0.00106   0.00000   0.00662   0.00650  -1.04312
   D12       -2.10210  -0.00076   0.00000   0.04296   0.04340  -2.05870
   D13       -0.00799   0.00047   0.00000   0.04975   0.05020   0.04221
   D14        2.10067  -0.00101   0.00000   0.04488   0.04534   2.14601
   D15       -0.67023   0.00038   0.00000  -0.05333  -0.05366  -0.72389
   D16        1.42388   0.00161   0.00000  -0.04655  -0.04686   1.37702
   D17       -2.75064   0.00013   0.00000  -0.05141  -0.05172  -2.80236
   D18        0.09061  -0.00608   0.00000   0.07632   0.07587   0.16648
   D19       -3.03040  -0.00283   0.00000   0.02966   0.02908  -3.00132
   D20       -3.06006  -0.00610   0.00000   0.03648   0.03567  -3.02439
   D21        0.10211  -0.00285   0.00000  -0.01018  -0.01112   0.09099
   D22        2.13433  -0.00657   0.00000  -0.09912  -0.09796   2.03638
   D23        0.32576   0.00180   0.00000  -0.00464  -0.00478   0.32098
   D24       -2.24188  -0.00344   0.00000  -0.04308  -0.04341  -2.28529
   D25        2.23274   0.00493   0.00000   0.05140   0.04977   2.28251
   D26       -2.06781  -0.00215   0.00000  -0.08848  -0.08738  -2.15518
   D27        1.09343   0.00100   0.00000  -0.13314  -0.13190   0.96153
   D28        2.58717  -0.00537   0.00000  -0.11905  -0.12140   2.46577
   D29        2.94829  -0.00798   0.00000  -0.01829  -0.01832   2.92997
   D30       -0.44159  -0.00595   0.00000   0.00171   0.00237  -0.43921
   D31       -1.23213   0.01030   0.00000   0.03279   0.03283  -1.19930
   D32       -2.22747   0.00607   0.00000   0.02042   0.01739  -2.21008
         Item               Value     Threshold  Converged?
 Maximum Force            0.065982     0.000450     NO 
 RMS     Force            0.011685     0.000300     NO 
 Maximum Displacement     0.144613     0.001800     NO 
 RMS     Displacement     0.039461     0.001200     NO 
 Predicted change in Energy=-1.835238D-02
 GradGradGradGradGradGradGradGradGradGradGradGradGradGradGradGradGradGrad

                          Input orientation:                          
 ---------------------------------------------------------------------
 Center     Atomic      Atomic             Coordinates (Angstroms)
 Number     Number       Type             X           Y           Z
 ---------------------------------------------------------------------
      1          7           0        1.396454    1.275520   -0.018227
      2          1           0        2.393110    1.359429   -0.087925
      3          6           0        0.773682    0.029826   -0.057865
      4          1           0       -1.944921   -1.409306   -0.679411
      5          6           0        1.688250   -1.160394   -0.049191
      6          6           0       -0.679291   -0.052167   -0.046845
      7          1           0        2.315931   -1.169254    0.852078
      8          1           0        1.115715   -2.087991   -0.076622
      9          1           0        2.358692   -1.131367   -0.919055
     10          8           0       -1.494504    1.093024   -0.195889
     11          1           0        0.818551    2.095288   -0.102004
     12          8           0       -1.337831   -1.278906    0.081615
     13          1           0       -0.231080    1.042328    0.727319
 ---------------------------------------------------------------------
                    Distance matrix (angstroms):
                    1          2          3          4          5
     1  N    0.000000
     2  H    1.002608   0.000000
     3  C    1.393259   2.095542   0.000000
     4  H    4.337078   5.180180   3.138188   0.000000
     5  C    2.453524   2.616836   1.501044   3.695817   0.000000
     6  C    2.464201   3.381411   1.455326   1.960558   2.614081
     7  H    2.753141   2.698851   2.155069   4.534087   1.098339
     8  H    3.375712   3.676489   2.145341   3.192407   1.090406
     9  H    2.744175   2.626028   2.145291   4.319232   1.098635
    10  O    2.902155   3.898227   2.508806   2.588113   3.902478
    11  H    1.006484   1.738081   2.066421   4.500262   3.370256
    12  O    3.743177   4.572688   2.488116   0.982204   3.031224
    13  H    1.805293   2.766143   1.628257   3.305549   3.023041
                    6          7          8          9         10
     6  C    0.000000
     7  H    3.320738   0.000000
     8  H    2.714317   1.774001   0.000000
     9  H    3.339874   1.772054   1.780397   0.000000
    10  O    1.413594   4.553631   4.116592   4.507549   0.000000
    11  H    2.618804   3.716134   4.193897   3.667548   2.522611
    12  O    1.398237   3.735721   2.588348   3.832413   2.393243
    13  H    1.413557   3.375488   3.501296   3.760640   1.565607
                   11         12         13
    11  H    0.000000
    12  O    4.008601   0.000000
    13  H    1.702418   2.651407   0.000000
 Stoichiometry    C3H7NO2
 Framework group  C1[X(C3H7NO2)]
 Deg. of freedom    33
 Full point group                 C1      NOp   1
 Largest Abelian subgroup         C1      NOp   1
 Largest concise Abelian subgroup C1      NOp   1
                         Standard orientation:                         
 ---------------------------------------------------------------------
 Center     Atomic      Atomic             Coordinates (Angstroms)
 Number     Number       Type             X           Y           Z
 ---------------------------------------------------------------------
      1          7           0        1.358693   -1.233605   -0.025891
      2          1           0        2.356868   -1.272662    0.059807
      3          6           0        0.678350   -0.018692    0.021963
      4          1           0       -2.113921    1.283618    0.618144
      5          6           0        1.536857    1.212345    0.047356
      6          6           0       -0.776476   -0.003493   -0.013023
      7          1           0        2.178361    1.264565   -0.842641
      8          1           0        0.921619    2.112048    0.079016
      9          1           0        2.193362    1.200234    0.928182
     10          8           0       -1.540168   -1.187238    0.104330
     11          1           0        0.818044   -2.080342    0.035305
     12          8           0       -1.488870    1.193542   -0.134133
     13          1           0       -0.265263   -1.063619   -0.795926
 ---------------------------------------------------------------------
 Rotational constants (GHZ):      4.8719146      3.0745984      1.9295138
 Standard basis: 6-31G (6D, 7F)
 There are    68 symmetry adapted cartesian basis functions of A   symmetry.
 There are    68 symmetry adapted basis functions of A   symmetry.
    68 basis functions,   160 primitive gaussians,    68 cartesian basis functions
    24 alpha electrons       24 beta electrons
       nuclear repulsion energy       242.7577664224 Hartrees.
 NAtoms=   13 NActive=   13 NUniq=   13 SFac= 1.00D+00 NAtFMM=   60 NAOKFM=F Big=F
 Integral buffers will be    131072 words long.
 Raffenetti 2 integral format.
 Two-electron integral symmetry is turned on.
 One-electron integrals computed using PRISM.
 NBasis=    68 RedAO= T EigKep=  3.55D-03  NBF=    68
 NBsUse=    68 1.00D-06 EigRej= -1.00D+00 NBFU=    68
 Initial guess from the checkpoint file:  "Ala-S-opt-freq-tsa3-6-31g.chk"
 B after Tr=     0.000000    0.000000    0.000000
         Rot=    0.999839   -0.002187   -0.000389    0.017819 Ang=  -2.06 deg.
 ExpMin= 1.61D-01 ExpMax= 5.48D+03 ExpMxC= 8.25D+02 IAcc=1 IRadAn=         1 AccDes= 0.00D+00
 Harris functional with IExCor=  402 and IRadAn=       1 diagonalized for initial guess.
 HarFok:  IExCor=  402 AccDes= 0.00D+00 IRadAn=         1 IDoV= 1 UseB2=F ITyADJ=14
 ICtDFT=  3500011 ScaDFX=  1.000000  1.000000  1.000000  1.000000
 FoFCou: FMM=F IPFlag=           0 FMFlag=      100000 FMFlg1=           0
         NFxFlg=           0 DoJE=T BraDBF=F KetDBF=T FulRan=T
         wScrn=  0.000000 ICntrl=     500 IOpCl=  0 I1Cent=   200000004 NGrid=           0
         NMat0=    1 NMatS0=      1 NMatT0=    0 NMatD0=    1 NMtDS0=    0 NMtDT0=    0
 Petite list used in FoFCou.
 Keep R1 ints in memory in canonical form, NReq=3676491.
 Requested convergence on RMS density matrix=1.00D-08 within 128 cycles.
 Requested convergence on MAX density matrix=1.00D-06.
 Requested convergence on             energy=1.00D-06.
 No special actions if energy rises.
 Integral accuracy reduced to 1.0D-05 until final iterations.
 EnCoef did     7 forward-backward iterations
 Initial convergence to 1.0D-05 achieved.  Increase integral accuracy.
 SCF Done:  E(RB3LYP) =  -323.449836997     A.U. after   15 cycles
            NFock= 15  Conv=0.55D-08     -V/T= 2.0061
 Calling FoFJK, ICntrl=      2127 FMM=F ISym2X=0 I1Cent= 0 IOpClX= 0 NMat=1 NMatS=1 NMatT=0.
 ***** Axes restored to original set *****
 -------------------------------------------------------------------
 Center     Atomic                   Forces (Hartrees/Bohr)
 Number     Number              X              Y              Z
 -------------------------------------------------------------------
      1        7           0.007569957    0.013891844   -0.007586521
      2        1           0.000750017    0.000151805   -0.000379476
      3        6          -0.040850408   -0.027006206   -0.011579918
      4        1          -0.002998813    0.003704686    0.002463427
      5        6          -0.005645056   -0.000203678    0.009572161
      6        6           0.038479179    0.022306900   -0.002912269
      7        1           0.001449704   -0.001380475    0.000013134
      8        1          -0.000482455    0.000124477   -0.000189804
      9        1          -0.000853294    0.001520147   -0.000909628
     10        8           0.035961286   -0.001802874    0.015792970
     11        1           0.005152363    0.008440184   -0.009073734
     12        8           0.015898054   -0.000568126   -0.000443495
     13        1          -0.054430536   -0.019178684    0.005233153
 -------------------------------------------------------------------
 Cartesian Forces:  Max     0.054430536 RMS     0.016271038

 GradGradGradGradGradGradGradGradGradGradGradGradGradGradGradGradGradGrad
 Berny optimization.
 FormGI is forming the generalized inverse of G from B-inverse, IUseBI=4.
 Internal  Forces:  Max     0.043417565 RMS     0.008384490
 Search for a saddle point.
 Step number   2 out of a maximum of   81
 All quantities printed in internal units (Hartrees-Bohrs-Radians)
 Swapping is turned off.
 Update second derivatives using D2CorX and points    1    2
 ITU=  0  0
     Eigenvalues ---   -0.10701  -0.01798  -0.00548  -0.00291   0.00091
     Eigenvalues ---    0.00139   0.00667   0.01079   0.01311   0.01683
     Eigenvalues ---    0.02516   0.03117   0.04822   0.04885   0.06477
     Eigenvalues ---    0.09771   0.10956   0.12701   0.13074   0.14509
     Eigenvalues ---    0.15347   0.16093   0.19098   0.21353   0.31634
     Eigenvalues ---    0.32926   0.33678   0.34427   0.35691   0.36077
     Eigenvalues ---    0.41466   0.46349   0.49584
 Eigenvectors required to have negative eigenvalues:
                          R14       R13       R6        D27       D28
   1                    0.59819  -0.24470  -0.23424  -0.22102   0.21913
                          R15       D31       D4        D5        D22
   1                    0.18607  -0.16743   0.16426   0.16166  -0.15998
 RFO step:  Lambda0=2.278666922D-03 Lambda=-4.26918889D-02.
 Linear search not attempted -- option 19 set.
 Maximum step size (   0.300) exceeded in Quadratic search.
    -- Step size scaled by   0.349
 Iteration  1 RMS(Cart)=  0.03961922 RMS(Int)=  0.00315422
 Iteration  2 RMS(Cart)=  0.00175827 RMS(Int)=  0.00102508
 Iteration  3 RMS(Cart)=  0.00000638 RMS(Int)=  0.00102506
 Iteration  4 RMS(Cart)=  0.00000000 RMS(Int)=  0.00102506
 Variable       Old X    -DE/DX   Delta X   Delta X   Delta X     New X
                                 (Linear)    (Quad)   (Total)
    R1        1.89465   0.00078   0.00000  -0.00129  -0.00129   1.89337
    R2        2.63288   0.01775   0.00000  -0.01068  -0.01153   2.62134
    R3        1.90198   0.00320   0.00000   0.00208   0.00187   1.90385
    R4        2.83656  -0.00337   0.00000  -0.00355  -0.00355   2.83301
    R5        2.75017  -0.04342   0.00000  -0.04926  -0.04889   2.70128
    R6        3.07696   0.00520   0.00000   0.10124   0.10148   3.17844
    R7        1.85610  -0.00055   0.00000   0.00044   0.00044   1.85654
    R8        2.07556   0.00085   0.00000   0.00000   0.00000   2.07556
    R9        2.06057   0.00015   0.00000   0.00020   0.00020   2.06077
   R10        2.07612   0.00024   0.00000  -0.00108  -0.00108   2.07504
   R11        2.67131  -0.00602   0.00000   0.02242   0.02117   2.69247
   R12        2.64229  -0.00864   0.00000  -0.00431  -0.00431   2.63798
   R13        2.67123  -0.01523   0.00000  -0.15175  -0.15218   2.51906
   R14        2.95857  -0.03213   0.00000  -0.09729  -0.09555   2.86302
   R15        3.21710   0.01438   0.00000   0.12330   0.12340   3.34050
    A1        2.11435   0.00150   0.00000   0.01127   0.01160   2.12595
    A2        2.09073   0.00145   0.00000   0.00916   0.00920   2.09993
    A3        2.05918  -0.00300   0.00000  -0.01725  -0.01766   2.04152
    A4        2.02243   0.00256   0.00000  -0.00646  -0.00539   2.01705
    A5        2.09027  -0.00277   0.00000  -0.02487  -0.02513   2.06514
    A6        1.27253   0.00028   0.00000   0.04667   0.04623   1.31876
    A7        2.16952   0.00016   0.00000   0.02946   0.02773   2.19725
    A8        2.61846  -0.00436   0.00000  -0.03075  -0.02913   2.58934
    A9        1.93835   0.00341   0.00000   0.00337   0.00336   1.94172
   A10        1.93315  -0.00069   0.00000   0.00220   0.00220   1.93535
   A11        1.92441  -0.00333   0.00000  -0.00787  -0.00786   1.91655
   A12        1.89004  -0.00065   0.00000   0.00052   0.00051   1.89054
   A13        1.87672   0.00007   0.00000   0.00139   0.00140   1.87811
   A14        1.89967   0.00123   0.00000   0.00046   0.00046   1.90013
   A15        2.12860   0.00479   0.00000   0.01034   0.00903   2.13763
   A16        2.11805  -0.01454   0.00000  -0.02512  -0.02503   2.09302
   A17        2.03626   0.00978   0.00000   0.01371   0.01387   2.05013
   A18        2.46281  -0.00872   0.00000  -0.07383  -0.07593   2.38688
   A19        1.37932  -0.00006   0.00000   0.03686   0.03635   1.41568
   A20        1.91389  -0.00280   0.00000  -0.01257  -0.01257   1.90132
   A21        1.80673  -0.00872   0.00000  -0.00812  -0.01109   1.79564
   A22        1.33793   0.00116   0.00000  -0.06779  -0.06532   1.27261
   A23        1.99062  -0.01253   0.00000  -0.06727  -0.06877   1.92185
   A24        1.76223  -0.01018   0.00000  -0.07607  -0.07634   1.68589
    D1        0.11885   0.00213   0.00000  -0.00511  -0.00676   0.11208
    D2       -3.06798   0.00099   0.00000  -0.04805  -0.04898  -3.11696
    D3        2.72128  -0.00214   0.00000  -0.02116  -0.01984   2.70143
    D4        3.05219   0.00204   0.00000   0.01316   0.01196   3.06414
    D5       -0.13464   0.00090   0.00000  -0.02977  -0.03025  -0.16490
    D6       -0.62857  -0.00223   0.00000  -0.00289  -0.00112  -0.62969
    D7       -2.76749   0.00018   0.00000   0.02210   0.02078  -2.74671
    D8        0.57943   0.00025   0.00000   0.00376   0.00199   0.58143
    D9        1.03535  -0.00021   0.00000   0.00528   0.00503   1.04037
   D10        3.13626   0.00077   0.00000   0.00965   0.00940  -3.13753
   D11       -1.04312  -0.00032   0.00000   0.00648   0.00623  -1.03689
   D12       -2.05870   0.00108   0.00000   0.05204   0.05253  -2.00617
   D13        0.04221   0.00206   0.00000   0.05640   0.05690   0.09911
   D14        2.14601   0.00096   0.00000   0.05324   0.05374   2.19975
   D15       -0.72389  -0.00198   0.00000  -0.05840  -0.05865  -0.78254
   D16        1.37702  -0.00099   0.00000  -0.05404  -0.05428   1.32274
   D17       -2.80236  -0.00209   0.00000  -0.05720  -0.05745  -2.85981
   D18        0.16648  -0.00290   0.00000   0.08124   0.08035   0.24683
   D19       -3.00132  -0.00116   0.00000   0.03097   0.03017  -2.97115
   D20       -3.02439  -0.00409   0.00000   0.03332   0.03222  -2.99217
   D21        0.09099  -0.00236   0.00000  -0.01694  -0.01796   0.07304
   D22        2.03638  -0.00812   0.00000  -0.09490  -0.09432   1.94205
   D23        0.32098   0.00053   0.00000  -0.00267  -0.00270   0.31828
   D24       -2.28529  -0.00407   0.00000  -0.03819  -0.03875  -2.32404
   D25        2.28251   0.00457   0.00000   0.05404   0.05287   2.33537
   D26       -2.15518  -0.00174   0.00000  -0.06713  -0.06643  -2.22161
   D27        0.96153  -0.00014   0.00000  -0.11486  -0.11416   0.84737
   D28        2.46577  -0.00707   0.00000  -0.14836  -0.14975   2.31601
   D29        2.92997  -0.00469   0.00000   0.00975   0.00852   2.93849
   D30       -0.43921  -0.00317   0.00000   0.00280   0.00320  -0.43601
   D31       -1.19930   0.00803   0.00000   0.03863   0.03942  -1.15988
   D32       -2.21008   0.00365   0.00000   0.00596   0.00266  -2.20742
         Item               Value     Threshold  Converged?
 Maximum Force            0.043418     0.000450     NO 
 RMS     Force            0.008384     0.000300     NO 
 Maximum Displacement     0.172658     0.001800     NO 
 RMS     Displacement     0.039761     0.001200     NO 
 Predicted change in Energy=-1.568028D-02
 GradGradGradGradGradGradGradGradGradGradGradGradGradGradGradGradGradGrad

                          Input orientation:                          
 ---------------------------------------------------------------------
 Center     Atomic      Atomic             Coordinates (Angstroms)
 Number     Number       Type             X           Y           Z
 ---------------------------------------------------------------------
      1          7           0        1.391372    1.259196   -0.024374
      2          1           0        2.387606    1.357076   -0.066719
      3          6           0        0.775625    0.017507   -0.081489
      4          1           0       -1.963804   -1.360750   -0.614103
      5          6           0        1.698264   -1.163896   -0.058582
      6          6           0       -0.652463   -0.033629   -0.045607
      7          1           0        2.305444   -1.177166    0.856573
      8          1           0        1.136411   -2.097070   -0.110730
      9          1           0        2.386266   -1.115387   -0.913007
     10          8           0       -1.464649    1.119176   -0.249163
     11          1           0        0.796875    2.068285   -0.107724
     12          8           0       -1.301745   -1.260219    0.104751
     13          1           0       -0.322446    0.992907    0.738152
 ---------------------------------------------------------------------
                    Distance matrix (angstroms):
                    1          2          3          4          5
     1  N    0.000000
     2  H    1.001926   0.000000
     3  C    1.387155   2.095984   0.000000
     4  H    4.297569   5.159552   3.112513   0.000000
     5  C    2.442688   2.613533   1.499167   3.709191   0.000000
     6  C    2.418493   3.343131   1.429453   1.950398   2.608369
     7  H    2.747263   2.698444   2.155818   4.519189   1.098340
     8  H    3.367044   3.674037   2.145334   3.225971   1.090510
     9  H    2.723623   2.613288   2.137531   4.367226   1.098063
    10  O    2.868273   3.863904   2.502122   2.555850   3.905478
    11  H    1.007472   1.742965   2.051056   4.431258   3.355877
    12  O    3.690123   4.526693   2.445963   0.982436   3.005996
    13  H    1.894606   2.850408   1.681956   3.172121   3.061022
                    6          7          8          9         10
     6  C    0.000000
     7  H    3.297092   0.000000
     8  H    2.731685   1.774411   0.000000
     9  H    3.340128   1.772501   1.780306   0.000000
    10  O    1.424795   4.550762   4.138710   4.501501   0.000000
    11  H    2.553915   3.706562   4.179172   3.648344   2.456686
    12  O    1.395958   3.685640   2.586766   3.828607   2.411082
    13  H    1.333029   3.410139   3.520912   3.808983   1.515045
                   11         12         13
    11  H    0.000000
    12  O    3.940596   0.000000
    13  H    1.767718   2.537085   0.000000
 Stoichiometry    C3H7NO2
 Framework group  C1[X(C3H7NO2)]
 Deg. of freedom    33
 Full point group                 C1      NOp   1
 Largest Abelian subgroup         C1      NOp   1
 Largest concise Abelian subgroup C1      NOp   1
                         Standard orientation:                         
 ---------------------------------------------------------------------
 Center     Atomic      Atomic             Coordinates (Angstroms)
 Number     Number       Type             X           Y           Z
 ---------------------------------------------------------------------
      1          7           0        1.288506   -1.266968   -0.047023
      2          1           0        2.284364   -1.361520    0.009403
      3          6           0        0.665590   -0.030361    0.036514
      4          1           0       -2.089423    1.318859    0.563055
      5          6           0        1.582482    1.155398    0.064562
      6          6           0       -0.761926    0.015304   -0.022221
      7          1           0        2.205002    1.198759   -0.839286
      8          1           0        1.015100    2.084025    0.134867
      9          1           0        2.256148    1.084538    0.928792
     10          8           0       -1.571586   -1.146760    0.133012
     11          1           0        0.696794   -2.080890    0.002030
     12          8           0       -1.414780    1.242861   -0.147059
     13          1           0       -0.413477   -0.985854   -0.830449
 ---------------------------------------------------------------------
 Rotational constants (GHZ):      4.8804869      3.1309137      1.9561911
 Standard basis: 6-31G (6D, 7F)
 There are    68 symmetry adapted cartesian basis functions of A   symmetry.
 There are    68 symmetry adapted basis functions of A   symmetry.
    68 basis functions,   160 primitive gaussians,    68 cartesian basis functions
    24 alpha electrons       24 beta electrons
       nuclear repulsion energy       243.9221926361 Hartrees.
 NAtoms=   13 NActive=   13 NUniq=   13 SFac= 1.00D+00 NAtFMM=   60 NAOKFM=F Big=F
 Integral buffers will be    131072 words long.
 Raffenetti 2 integral format.
 Two-electron integral symmetry is turned on.
 One-electron integrals computed using PRISM.
 NBasis=    68 RedAO= T EigKep=  3.21D-03  NBF=    68
 NBsUse=    68 1.00D-06 EigRej= -1.00D+00 NBFU=    68
 Initial guess from the checkpoint file:  "Ala-S-opt-freq-tsa3-6-31g.chk"
 B after Tr=     0.000000    0.000000    0.000000
         Rot=    0.999821   -0.002168   -0.000989    0.018752 Ang=  -2.17 deg.
 ExpMin= 1.61D-01 ExpMax= 5.48D+03 ExpMxC= 8.25D+02 IAcc=1 IRadAn=         1 AccDes= 0.00D+00
 Harris functional with IExCor=  402 and IRadAn=       1 diagonalized for initial guess.
 HarFok:  IExCor=  402 AccDes= 0.00D+00 IRadAn=         1 IDoV= 1 UseB2=F ITyADJ=14
 ICtDFT=  3500011 ScaDFX=  1.000000  1.000000  1.000000  1.000000
 FoFCou: FMM=F IPFlag=           0 FMFlag=      100000 FMFlg1=           0
         NFxFlg=           0 DoJE=T BraDBF=F KetDBF=T FulRan=T
         wScrn=  0.000000 ICntrl=     500 IOpCl=  0 I1Cent=   200000004 NGrid=           0
         NMat0=    1 NMatS0=      1 NMatT0=    0 NMatD0=    1 NMtDS0=    0 NMtDT0=    0
 Petite list used in FoFCou.
 Keep R1 ints in memory in canonical form, NReq=3676491.
 Requested convergence on RMS density matrix=1.00D-08 within 128 cycles.
 Requested convergence on MAX density matrix=1.00D-06.
 Requested convergence on             energy=1.00D-06.
 No special actions if energy rises.
 Integral accuracy reduced to 1.0D-05 until final iterations.
 EnCoef did     7 forward-backward iterations
 Initial convergence to 1.0D-05 achieved.  Increase integral accuracy.
 SCF Done:  E(RB3LYP) =  -323.464978312     A.U. after   15 cycles
            NFock= 15  Conv=0.40D-08     -V/T= 2.0058
 Calling FoFJK, ICntrl=      2127 FMM=F ISym2X=0 I1Cent= 0 IOpClX= 0 NMat=1 NMatS=1 NMatT=0.
 ***** Axes restored to original set *****
 -------------------------------------------------------------------
 Center     Atomic                   Forces (Hartrees/Bohr)
 Number     Number              X              Y              Z
 -------------------------------------------------------------------
      1        7           0.005972191    0.009723312   -0.008396508
      2        1           0.000889574    0.000238649   -0.000604182
      3        6          -0.015829310   -0.014103387   -0.011032120
      4        1          -0.003002990    0.002981267    0.003096797
      5        6          -0.006729961   -0.002428008    0.007433577
      6        6           0.028991144    0.017338961    0.003607737
      7        1           0.001065103   -0.000909008   -0.000045909
      8        1          -0.000327719    0.000093164   -0.000147983
      9        1          -0.000541888    0.000940002   -0.000687119
     10        8           0.025667955   -0.000572719    0.011006520
     11        1           0.005620331    0.007789714   -0.007183005
     12        8           0.009483962   -0.000926318   -0.001827368
     13        1          -0.051258393   -0.020165627    0.004779560
 -------------------------------------------------------------------
 Cartesian Forces:  Max     0.051258393 RMS     0.012547530

 GradGradGradGradGradGradGradGradGradGradGradGradGradGradGradGradGradGrad
 Berny optimization.
 FormGI is forming the generalized inverse of G from B-inverse, IUseBI=4.
 Internal  Forces:  Max     0.026687068 RMS     0.006129425
 Search for a saddle point.
 Step number   3 out of a maximum of   81
 All quantities printed in internal units (Hartrees-Bohrs-Radians)
 Swapping is turned off.
 Update second derivatives using D2CorX and points    2    3
 ITU=  0  0  0
     Eigenvalues ---   -0.10706  -0.01413  -0.00591  -0.00232   0.00092
     Eigenvalues ---    0.00140   0.00654   0.01099   0.01273   0.01761
     Eigenvalues ---    0.02544   0.03136   0.04822   0.04887   0.06562
     Eigenvalues ---    0.09709   0.10934   0.12695   0.13066   0.14500
     Eigenvalues ---    0.15345   0.16098   0.19472   0.21343   0.31637
     Eigenvalues ---    0.32926   0.33644   0.34393   0.35694   0.36114
     Eigenvalues ---    0.41443   0.46348   0.49587
 Eigenvectors required to have negative eigenvalues:
                          R14       R13       D27       R6        R15
   1                    0.58540  -0.28162  -0.23186  -0.20875   0.20028
                          D28       A18       D31       D4        D22
   1                    0.19126  -0.16840  -0.16402   0.16358  -0.16023
 RFO step:  Lambda0=3.113722595D-04 Lambda=-3.58988406D-02.
 Linear search not attempted -- option 19 set.
 Maximum step size (   0.300) exceeded in Quadratic search.
    -- Step size scaled by   0.323
 Iteration  1 RMS(Cart)=  0.03634597 RMS(Int)=  0.00313493
 Iteration  2 RMS(Cart)=  0.00160027 RMS(Int)=  0.00105213
 Iteration  3 RMS(Cart)=  0.00000696 RMS(Int)=  0.00105211
 Iteration  4 RMS(Cart)=  0.00000001 RMS(Int)=  0.00105211
 Variable       Old X    -DE/DX   Delta X   Delta X   Delta X     New X
                                 (Linear)    (Quad)   (Total)
    R1        1.89337   0.00093   0.00000  -0.00003  -0.00003   1.89333
    R2        2.62134   0.01216   0.00000  -0.01947  -0.02046   2.60088
    R3        1.90385   0.00232   0.00000   0.00289   0.00262   1.90646
    R4        2.83301  -0.00211   0.00000  -0.00225  -0.00225   2.83077
    R5        2.70128  -0.02669   0.00000  -0.01971  -0.01903   2.68225
    R6        3.17844   0.00685   0.00000   0.15389   0.15382   3.33226
    R7        1.85654  -0.00055   0.00000   0.00039   0.00039   1.85693
    R8        2.07556   0.00056   0.00000   0.00022   0.00022   2.07578
    R9        2.06077   0.00009   0.00000   0.00039   0.00039   2.06115
   R10        2.07504   0.00024   0.00000  -0.00084  -0.00084   2.07420
   R11        2.69247  -0.00423   0.00000   0.03443   0.03365   2.72612
   R12        2.63798  -0.00468   0.00000  -0.00119  -0.00119   2.63679
   R13        2.51906  -0.01244   0.00000  -0.11663  -0.11657   2.40249
   R14        2.86302  -0.02282   0.00000  -0.10647  -0.10548   2.75754
   R15        3.34050   0.01474   0.00000   0.11731   0.11753   3.45804
    A1        2.12595   0.00145   0.00000   0.01128   0.01168   2.13763
    A2        2.09993   0.00121   0.00000   0.00562   0.00573   2.10565
    A3        2.04152  -0.00258   0.00000  -0.01398  -0.01453   2.02699
    A4        2.01705   0.00164   0.00000   0.00345   0.00426   2.02131
    A5        2.06514  -0.00280   0.00000  -0.02460  -0.02486   2.04029
    A6        1.31876   0.00215   0.00000   0.04004   0.03902   1.35778
    A7        2.19725   0.00099   0.00000   0.01718   0.01558   2.21283
    A8        2.58934  -0.00389   0.00000  -0.01926  -0.01783   2.57151
    A9        1.94172   0.00237   0.00000   0.00131   0.00131   1.94302
   A10        1.93535  -0.00051   0.00000   0.00076   0.00075   1.93610
   A11        1.91655  -0.00217   0.00000  -0.00136  -0.00136   1.91519
   A12        1.89054  -0.00043   0.00000  -0.00027  -0.00028   1.89027
   A13        1.87811  -0.00001   0.00000   0.00013   0.00013   1.87824
   A14        1.90013   0.00078   0.00000  -0.00060  -0.00060   1.89953
   A15        2.13763   0.00328   0.00000  -0.00348  -0.00479   2.13284
   A16        2.09302  -0.00971   0.00000  -0.00204  -0.00199   2.09102
   A17        2.05013   0.00642   0.00000   0.00134   0.00069   2.05082
   A18        2.38688  -0.00853   0.00000  -0.06296  -0.06602   2.32086
   A19        1.41568   0.00140   0.00000   0.05007   0.04961   1.46529
   A20        1.90132  -0.00140   0.00000  -0.00403  -0.00403   1.89729
   A21        1.79564  -0.00594   0.00000  -0.01889  -0.02147   1.77417
   A22        1.27261  -0.00123   0.00000  -0.07306  -0.06996   1.20265
   A23        1.92185  -0.01057   0.00000  -0.07134  -0.07287   1.84898
   A24        1.68589  -0.00935   0.00000  -0.06569  -0.06620   1.61969
    D1        0.11208   0.00189   0.00000  -0.00983  -0.01139   0.10069
    D2       -3.11696   0.00004   0.00000  -0.05496  -0.05605   3.11018
    D3        2.70143  -0.00104   0.00000  -0.01111  -0.00983   2.69160
    D4        3.06414   0.00248   0.00000   0.00805   0.00700   3.07114
    D5       -0.16490   0.00063   0.00000  -0.03708  -0.03766  -0.20256
    D6       -0.62969  -0.00045   0.00000   0.00676   0.00856  -0.62114
    D7       -2.74671  -0.00024   0.00000   0.02256   0.02112  -2.72559
    D8        0.58143  -0.00086   0.00000   0.00427   0.00235   0.58378
    D9        1.04037   0.00028   0.00000   0.00819   0.00786   1.04824
   D10       -3.13753   0.00098   0.00000   0.00923   0.00891  -3.12862
   D11       -1.03689   0.00020   0.00000   0.00808   0.00776  -1.02913
   D12       -2.00617   0.00251   0.00000   0.05971   0.06002  -1.94615
   D13        0.09911   0.00321   0.00000   0.06076   0.06107   0.16018
   D14        2.19975   0.00243   0.00000   0.05961   0.05992   2.25967
   D15       -0.78254  -0.00366   0.00000  -0.06507  -0.06506  -0.84760
   D16        1.32274  -0.00296   0.00000  -0.06402  -0.06401   1.25873
   D17       -2.85981  -0.00374   0.00000  -0.06517  -0.06516  -2.92497
   D18        0.24683  -0.00031   0.00000   0.08753   0.08667   0.33350
   D19       -2.97115  -0.00024   0.00000   0.02119   0.01984  -2.95131
   D20       -2.99217  -0.00237   0.00000   0.03618   0.03547  -2.95670
   D21        0.07304  -0.00229   0.00000  -0.03016  -0.03136   0.04167
   D22        1.94205  -0.00878   0.00000  -0.08447  -0.08347   1.85858
   D23        0.31828  -0.00029   0.00000  -0.00439  -0.00444   0.31384
   D24       -2.32404  -0.00386   0.00000  -0.02003  -0.01991  -2.34395
   D25        2.33537   0.00462   0.00000   0.06005   0.05912   2.39450
   D26       -2.22161  -0.00074   0.00000  -0.00465  -0.00406  -2.22567
   D27        0.84737  -0.00076   0.00000  -0.06791  -0.06803   0.77934
   D28        2.31601  -0.00756   0.00000  -0.13993  -0.14040   2.17561
   D29        2.93849  -0.00187   0.00000   0.03071   0.02915   2.96763
   D30       -0.43601  -0.00133   0.00000   0.00922   0.00923  -0.42679
   D31       -1.15988   0.00630   0.00000   0.06255   0.06363  -1.09625
   D32       -2.20742   0.00225   0.00000   0.01400   0.01066  -2.19676
         Item               Value     Threshold  Converged?
 Maximum Force            0.026687     0.000450     NO 
 RMS     Force            0.006129     0.000300     NO 
 Maximum Displacement     0.196321     0.001800     NO 
 RMS     Displacement     0.036506     0.001200     NO 
 Predicted change in Energy=-1.336730D-02
 GradGradGradGradGradGradGradGradGradGradGradGradGradGradGradGradGradGrad

                          Input orientation:                          
 ---------------------------------------------------------------------
 Center     Atomic      Atomic             Coordinates (Angstroms)
 Number     Number       Type             X           Y           Z
 ---------------------------------------------------------------------
      1          7           0        1.389396    1.244484   -0.030918
      2          1           0        2.384436    1.360493   -0.047037
      3          6           0        0.788209    0.008447   -0.102075
      4          1           0       -1.973081   -1.324042   -0.567251
      5          6           0        1.713069   -1.169502   -0.070346
      6          6           0       -0.629021   -0.021453   -0.029861
      7          1           0        2.301250   -1.190751    0.857120
      8          1           0        1.156039   -2.104340   -0.144215
      9          1           0        2.418080   -1.109831   -0.909492
     10          8           0       -1.436928    1.144648   -0.291773
     11          1           0        0.777271    2.041957   -0.115382
     12          8           0       -1.289628   -1.239561    0.133707
     13          1           0       -0.426335    0.965482    0.745502
 ---------------------------------------------------------------------
                    Distance matrix (angstroms):
                    1          2          3          4          5
     1  N    0.000000
     2  H    1.001909   0.000000
     3  C    1.376328   2.092606   0.000000
     4  H    4.265118   5.144444   3.101070   0.000000
     5  C    2.435909   2.617662   1.497978   3.722700   0.000000
     6  C    2.382563   3.315267   1.419383   1.947311   2.608648
     7  H    2.747810   2.708000   2.155788   4.507383   1.098454
     8  H    3.358856   3.677427   2.144981   3.252570   1.090716
     9  H    2.715305   2.616765   2.135169   4.409683   1.097618
    10  O    2.840092   3.835272   2.505628   2.541216   3.914946
    11  H    1.008857   1.747010   2.033582   4.370191   3.345327
    12  O    3.657152   4.504631   2.435267   0.982642   3.010438
    13  H    1.994380   2.946962   1.763354   3.059030   3.130626
                    6          7          8          9         10
     6  C    0.000000
     7  H    3.277267   0.000000
     8  H    2.745529   1.774493   0.000000
     9  H    3.353079   1.772319   1.779731   0.000000
    10  O    1.442603   4.554999   4.159467   4.508363   0.000000
    11  H    2.498526   3.703872   4.163661   3.640965   2.395611
    12  O    1.395329   3.663348   2.608902   3.853854   2.426352
    13  H    1.271342   3.478723   3.566414   3.890581   1.459225
                   11         12         13
    11  H    0.000000
    12  O    3.886191   0.000000
    13  H    1.829914   2.445769   0.000000
 Stoichiometry    C3H7NO2
 Framework group  C1[X(C3H7NO2)]
 Deg. of freedom    33
 Full point group                 C1      NOp   1
 Largest Abelian subgroup         C1      NOp   1
 Largest concise Abelian subgroup C1      NOp   1
                         Standard orientation:                         
 ---------------------------------------------------------------------
 Center     Atomic      Atomic             Coordinates (Angstroms)
 Number     Number       Type             X           Y           Z
 ---------------------------------------------------------------------
      1          7           0        1.230420   -1.291335   -0.066458
      2          1           0        2.221149   -1.438687   -0.042681
      3          6           0        0.666157   -0.041387    0.049794
      4          1           0       -2.059580    1.355120    0.536377
      5          6           0        1.626761    1.107638    0.080153
      6          6           0       -0.748358    0.035426   -0.039059
      7          1           0        2.228241    1.149875   -0.838019
      8          1           0        1.097434    2.055318    0.186810
      9          1           0        2.317815    0.990711    0.924865
     10          8           0       -1.594936   -1.115127    0.162528
     11          1           0        0.593207   -2.072323   -0.023912
     12          8           0       -1.369267    1.279240   -0.158819
     13          1           0       -0.564941   -0.923629   -0.853236
 ---------------------------------------------------------------------
 Rotational constants (GHZ):      4.8827716      3.1493805      1.9682682
 Standard basis: 6-31G (6D, 7F)
 There are    68 symmetry adapted cartesian basis functions of A   symmetry.
 There are    68 symmetry adapted basis functions of A   symmetry.
    68 basis functions,   160 primitive gaussians,    68 cartesian basis functions
    24 alpha electrons       24 beta electrons
       nuclear repulsion energy       244.3726695671 Hartrees.
 NAtoms=   13 NActive=   13 NUniq=   13 SFac= 1.00D+00 NAtFMM=   60 NAOKFM=F Big=F
 Integral buffers will be    131072 words long.
 Raffenetti 2 integral format.
 Two-electron integral symmetry is turned on.
 One-electron integrals computed using PRISM.
 NBasis=    68 RedAO= T EigKep=  2.92D-03  NBF=    68
 NBsUse=    68 1.00D-06 EigRej= -1.00D+00 NBFU=    68
 Initial guess from the checkpoint file:  "Ala-S-opt-freq-tsa3-6-31g.chk"
 B after Tr=     0.000000    0.000000    0.000000
         Rot=    0.999881   -0.001753   -0.001661    0.015226 Ang=  -1.77 deg.
 ExpMin= 1.61D-01 ExpMax= 5.48D+03 ExpMxC= 8.25D+02 IAcc=1 IRadAn=         1 AccDes= 0.00D+00
 Harris functional with IExCor=  402 and IRadAn=       1 diagonalized for initial guess.
 HarFok:  IExCor=  402 AccDes= 0.00D+00 IRadAn=         1 IDoV= 1 UseB2=F ITyADJ=14
 ICtDFT=  3500011 ScaDFX=  1.000000  1.000000  1.000000  1.000000
 FoFCou: FMM=F IPFlag=           0 FMFlag=      100000 FMFlg1=           0
         NFxFlg=           0 DoJE=T BraDBF=F KetDBF=T FulRan=T
         wScrn=  0.000000 ICntrl=     500 IOpCl=  0 I1Cent=   200000004 NGrid=           0
         NMat0=    1 NMatS0=      1 NMatT0=    0 NMatD0=    1 NMtDS0=    0 NMtDT0=    0
 Petite list used in FoFCou.
 Keep R1 ints in memory in canonical form, NReq=3676491.
 Requested convergence on RMS density matrix=1.00D-08 within 128 cycles.
 Requested convergence on MAX density matrix=1.00D-06.
 Requested convergence on             energy=1.00D-06.
 No special actions if energy rises.
 Integral accuracy reduced to 1.0D-05 until final iterations.
 EnCoef did     7 forward-backward iterations
 Initial convergence to 1.0D-05 achieved.  Increase integral accuracy.
 SCF Done:  E(RB3LYP) =  -323.477514477     A.U. after   15 cycles
            NFock= 15  Conv=0.50D-08     -V/T= 2.0056
 Calling FoFJK, ICntrl=      2127 FMM=F ISym2X=0 I1Cent= 0 IOpClX= 0 NMat=1 NMatS=1 NMatT=0.
 ***** Axes restored to original set *****
 -------------------------------------------------------------------
 Center     Atomic                   Forces (Hartrees/Bohr)
 Number     Number              X              Y              Z
 -------------------------------------------------------------------
      1        7           0.005408914    0.009117263   -0.009470335
      2        1           0.001003383    0.000251332   -0.000541132
      3        6          -0.005687282   -0.008846330   -0.008385493
      4        1          -0.002424967    0.002355269    0.002905695
      5        6          -0.007105654   -0.003662152    0.005474300
      6        6           0.022780340    0.012540149    0.005695482
      7        1           0.000786893   -0.000665129   -0.000038302
      8        1          -0.000273912    0.000104607   -0.000005418
      9        1          -0.000355303    0.000625527   -0.000538211
     10        8           0.019131374    0.000207141    0.007553401
     11        1           0.005970227    0.007177089   -0.005636682
     12        8           0.006014163   -0.001269552   -0.002674980
     13        1          -0.045248177   -0.017935214    0.005661674
 -------------------------------------------------------------------
 Cartesian Forces:  Max     0.045248177 RMS     0.010373510

 GradGradGradGradGradGradGradGradGradGradGradGradGradGradGradGradGradGrad
 Berny optimization.
 FormGI is forming the generalized inverse of G from B-inverse, IUseBI=4.
 Internal  Forces:  Max     0.018633027 RMS     0.004953297
 Search for a saddle point.
 Step number   4 out of a maximum of   81
 All quantities printed in internal units (Hartrees-Bohrs-Radians)
 Swapping is turned off.
 Update second derivatives using D2CorX and points    3    4
 ITU=  0  0  0  0
     Eigenvalues ---   -0.10589  -0.00722  -0.00303  -0.00124   0.00097
     Eigenvalues ---    0.00145   0.00607   0.01068   0.01302   0.01975
     Eigenvalues ---    0.02568   0.03195   0.04823   0.04891   0.06610
     Eigenvalues ---    0.09567   0.10907   0.12683   0.13049   0.14424
     Eigenvalues ---    0.15342   0.16087   0.19263   0.21260   0.31636
     Eigenvalues ---    0.32926   0.33658   0.34396   0.35694   0.36135
     Eigenvalues ---    0.41436   0.46349   0.49592
 Eigenvectors required to have negative eigenvalues:
                          R14       R13       D27       R15       R6
   1                    0.57784  -0.31819  -0.23256   0.20919  -0.18032
                          D28       A18       D4        D22       A8
   1                    0.17444  -0.17408   0.16231  -0.15798  -0.15717
 RFO step:  Lambda0=6.177115851D-06 Lambda=-2.77644962D-02.
 Linear search not attempted -- option 19 set.
 Maximum step size (   0.300) exceeded in Quadratic search.
    -- Step size scaled by   0.394
 Iteration  1 RMS(Cart)=  0.04029888 RMS(Int)=  0.00341013
 Iteration  2 RMS(Cart)=  0.00235675 RMS(Int)=  0.00104310
 Iteration  3 RMS(Cart)=  0.00000692 RMS(Int)=  0.00104308
 Iteration  4 RMS(Cart)=  0.00000000 RMS(Int)=  0.00104308
 Variable       Old X    -DE/DX   Delta X   Delta X   Delta X     New X
                                 (Linear)    (Quad)   (Total)
    R1        1.89333   0.00104   0.00000   0.00123   0.00123   1.89457
    R2        2.60088   0.01074   0.00000  -0.01961  -0.02056   2.58032
    R3        1.90646   0.00172   0.00000   0.00172   0.00156   1.90803
    R4        2.83077  -0.00136   0.00000   0.00145   0.00145   2.83222
    R5        2.68225  -0.01863   0.00000  -0.02255  -0.02183   2.66041
    R6        3.33226   0.00724   0.00000   0.13580   0.13559   3.46784
    R7        1.85693  -0.00059   0.00000  -0.00053  -0.00053   1.85639
    R8        2.07578   0.00040   0.00000  -0.00078  -0.00078   2.07500
    R9        2.06115   0.00005   0.00000   0.00025   0.00025   2.06140
   R10        2.07420   0.00021   0.00000  -0.00054  -0.00054   2.07366
   R11        2.72612  -0.00296   0.00000   0.02683   0.02576   2.75188
   R12        2.63679  -0.00262   0.00000   0.00014   0.00014   2.63693
   R13        2.40249  -0.00846   0.00000  -0.08093  -0.07929   2.32320
   R14        2.75754  -0.01618   0.00000  -0.13277  -0.13252   2.62502
   R15        3.45804   0.01453   0.00000   0.13157   0.13159   3.58962
    A1        2.13763   0.00136   0.00000   0.00852   0.00933   2.14696
    A2        2.10565   0.00113   0.00000   0.00612   0.00648   2.11214
    A3        2.02699  -0.00234   0.00000  -0.01492  -0.01604   2.01096
    A4        2.02131   0.00183   0.00000   0.00363   0.00546   2.02677
    A5        2.04029  -0.00228   0.00000  -0.00269  -0.00236   2.03793
    A6        1.35778   0.00248   0.00000   0.05861   0.05774   1.41553
    A7        2.21283   0.00019   0.00000  -0.00261  -0.00487   2.20796
    A8        2.57151  -0.00376   0.00000  -0.02772  -0.02777   2.54374
    A9        1.94302   0.00173   0.00000  -0.00245  -0.00245   1.94058
   A10        1.93610  -0.00047   0.00000   0.00083   0.00083   1.93693
   A11        1.91519  -0.00146   0.00000   0.00168   0.00168   1.91687
   A12        1.89027  -0.00032   0.00000   0.00021   0.00021   1.89048
   A13        1.87824  -0.00004   0.00000   0.00038   0.00039   1.87863
   A14        1.89953   0.00058   0.00000  -0.00067  -0.00067   1.89886
   A15        2.13284   0.00194   0.00000  -0.01096  -0.00994   2.12291
   A16        2.09102  -0.00696   0.00000   0.00357   0.00372   2.09475
   A17        2.05082   0.00485   0.00000   0.00576   0.00440   2.05522
   A18        2.32086  -0.00770   0.00000  -0.07293  -0.07474   2.24611
   A19        1.46529   0.00176   0.00000   0.06191   0.06099   1.52628
   A20        1.89729  -0.00075   0.00000   0.01330   0.01330   1.91059
   A21        1.77417  -0.00556   0.00000  -0.01359  -0.01476   1.75941
   A22        1.20265  -0.00151   0.00000  -0.06598  -0.06356   1.13909
   A23        1.84898  -0.00927   0.00000  -0.07617  -0.07720   1.77178
   A24        1.61969  -0.00885   0.00000  -0.05440  -0.05477   1.56492
[...]
   D21       -0.37791   0.00000   0.00000   0.00001   0.00001  -0.37790
   D22        1.23106   0.00000   0.00000   0.00002   0.00002   1.23107
   D23        0.27994   0.00000   0.00000   0.00001   0.00001   0.27995
   D24       -2.53141   0.00000   0.00000   0.00006   0.00006  -2.53135
   D25        2.80066   0.00000   0.00000   0.00005   0.00005   2.80071
   D26       -3.03452   0.00000   0.00000   0.00038   0.00038  -3.03414
   D27       -0.34747   0.00000   0.00000   0.00031   0.00031  -0.34716
   D28        0.83481   0.00000   0.00000   0.00031   0.00031   0.83512
   D29       -2.99776   0.00000   0.00000   0.00000   0.00000  -2.99776
   D30       -0.37859   0.00000   0.00000  -0.00001  -0.00001  -0.37859
   D31       -1.00184   0.00000   0.00000   0.00004   0.00004  -1.00180
   D32       -2.34211   0.00000   0.00000   0.00002   0.00002  -2.34210
         Item               Value     Threshold  Converged?
 Maximum Force            0.000012     0.000450     YES
 RMS     Force            0.000003     0.000300     YES
 Maximum Displacement     0.000344     0.001800     YES
 RMS     Displacement     0.000068     0.001200     YES
 Predicted change in Energy=-2.005997D-09
 Optimization completed.
    -- Stationary point found.
                           ----------------------------
                           !   Optimized Parameters   !
                           ! (Angstroms and Degrees)  !
 --------------------------                            --------------------------
 ! Name  Definition              Value          Derivative Info.                !
 --------------------------------------------------------------------------------
 ! R1    R(1,2)                  1.0057         -DE/DX =    0.0                 !
 ! R2    R(1,3)                  1.3599         -DE/DX =    0.0                 !
 ! R3    R(1,11)                 1.0126         -DE/DX =    0.0                 !
 ! R4    R(3,5)                  1.4962         -DE/DX =    0.0                 !
 ! R5    R(3,6)                  1.397          -DE/DX =    0.0                 !
 ! R6    R(3,13)                 2.1526         -DE/DX =    0.0                 !
 ! R7    R(4,12)                 0.9772         -DE/DX =    0.0                 !
 ! R8    R(5,7)                  1.0985         -DE/DX =    0.0                 !
 ! R9    R(5,8)                  1.0991         -DE/DX =    0.0                 !
 ! R10   R(5,9)                  1.0901         -DE/DX =    0.0                 !
 ! R11   R(6,10)                 1.4713         -DE/DX =    0.0                 !
 ! R12   R(6,12)                 1.4111         -DE/DX =    0.0                 !
 ! R13   R(6,13)                 1.2188         -DE/DX =    0.0                 !
 ! R14   R(10,13)                1.3417         -DE/DX =    0.0                 !
 ! R15   R(11,13)                2.5837         -DE/DX =    0.0                 !
 ! A1    A(2,1,3)              122.5174         -DE/DX =    0.0                 !
 ! A2    A(2,1,11)             120.5026         -DE/DX =    0.0                 !
 ! A3    A(3,1,11)             116.955          -DE/DX =    0.0                 !
 ! A4    A(1,3,5)              120.0178         -DE/DX =    0.0                 !
 ! A5    A(1,3,6)              116.6945         -DE/DX =    0.0                 !
 ! A6    A(1,3,13)              97.276          -DE/DX =    0.0                 !
 ! A7    A(5,3,6)              123.2384         -DE/DX =    0.0                 !
 ! A8    A(5,3,13)             133.3049         -DE/DX =    0.0                 !
 ! A9    A(3,5,7)              110.2478         -DE/DX =    0.0                 !
 ! A10   A(3,5,8)              111.7773         -DE/DX =    0.0                 !
 ! A11   A(3,5,9)              110.3156         -DE/DX =    0.0                 !
 ! A12   A(7,5,8)              107.396          -DE/DX =    0.0                 !
 ! A13   A(7,5,9)              108.0974         -DE/DX =    0.0                 !
 ! A14   A(8,5,9)              108.8895         -DE/DX =    0.0                 !
 ! A15   A(3,6,10)             119.6006         -DE/DX =    0.0                 !
 ! A16   A(3,6,12)             117.8473         -DE/DX =    0.0                 !
 ! A17   A(10,6,12)            117.1336         -DE/DX =    0.0                 !
 ! A18   A(12,6,13)            118.9673         -DE/DX =    0.0                 !
 ! A19   A(1,11,13)             84.7756         -DE/DX =    0.0                 !
 ! A20   A(4,12,6)             107.5601         -DE/DX =    0.0                 !
 ! A21   A(3,13,10)             87.1506         -DE/DX =    0.0                 !
 ! A22   A(3,13,11)             49.7553         -DE/DX =    0.0                 !
 ! A23   A(6,13,11)             71.2929         -DE/DX =    0.0                 !
 ! A24   A(10,13,11)            61.6491         -DE/DX =    0.0                 !
 ! D1    D(2,1,3,5)             -9.6792         -DE/DX =    0.0                 !
 ! D2    D(2,1,3,6)            167.8489         -DE/DX =    0.0                 !
 ! D3    D(2,1,3,13)           141.0508         -DE/DX =    0.0                 !
 ! D4    D(11,1,3,5)           172.1338         -DE/DX =    0.0                 !
 ! D5    D(11,1,3,6)           -10.3381         -DE/DX =    0.0                 !
 ! D6    D(11,1,3,13)          -37.1361         -DE/DX =    0.0                 !
 ! D7    D(2,1,11,13)         -148.1587         -DE/DX =    0.0                 !
 ! D8    D(3,1,11,13)           30.0669         -DE/DX =    0.0                 !
 ! D9    D(1,3,5,7)            -66.6455         -DE/DX =    0.0                 !
 ! D10   D(1,3,5,8)             52.7297         -DE/DX =    0.0                 !
 ! D11   D(1,3,5,9)            174.0389         -DE/DX =    0.0                 !
 ! D12   D(6,3,5,7)            115.9951         -DE/DX =    0.0                 !
 ! D13   D(6,3,5,8)           -124.6297         -DE/DX =    0.0                 !
 ! D14   D(6,3,5,9)             -3.3205         -DE/DX =    0.0                 !
 ! D15   D(13,3,5,7)           155.1485         -DE/DX =    0.0                 !
 ! D16   D(13,3,5,8)           -85.4763         -DE/DX =    0.0                 !
 ! D17   D(13,3,5,9)            35.8329         -DE/DX =    0.0                 !
 ! D18   D(1,3,6,10)             7.6102         -DE/DX =    0.0                 !
 ! D19   D(1,3,6,12)           160.9062         -DE/DX =    0.0                 !
 ! D20   D(5,3,6,10)          -174.9489         -DE/DX =    0.0                 !
 ! D21   D(5,3,6,12)           -21.6528         -DE/DX =    0.0                 !
 ! D22   D(1,3,13,10)           70.5344         -DE/DX =    0.0                 !
 ! D23   D(1,3,13,11)           16.0396         -DE/DX =    0.0                 !
 ! D24   D(5,3,13,10)         -145.0392         -DE/DX =    0.0                 !
 ! D25   D(5,3,13,11)          160.4661         -DE/DX =    0.0                 !
 ! D26   D(3,6,12,4)          -173.8653         -DE/DX =    0.0                 !
 ! D27   D(10,6,12,4)          -19.9087         -DE/DX =    0.0                 !
 ! D28   D(13,6,12,4)           47.8312         -DE/DX =    0.0                 !
 ! D29   D(12,6,13,11)        -171.759          -DE/DX =    0.0                 !
 ! D30   D(1,11,13,3)          -21.6915         -DE/DX =    0.0                 !
 ! D31   D(1,11,13,6)          -57.4013         -DE/DX =    0.0                 !
 ! D32   D(1,11,13,10)        -134.1931         -DE/DX =    0.0                 !
 --------------------------------------------------------------------------------
 GradGradGradGradGradGradGradGradGradGradGradGradGradGradGradGradGradGrad


 Test job not archived.
 1\1\GINC-KALI\Freq\RB3LYP\6-31G\C3H7N1O2\ROOT\12-Apr-2016\0\\#N Geom=A
 llCheck Guess=TCheck SCRF=Check Test GenChk RB3LYP/6-31G Freq\\Ala-S-o
 pt-freq-tsa3-6-31g\\0,1\N,1.4119278305,1.2613384427,0.2324142314\H,2.3
 561153517,1.3834957826,0.5565443888\C,0.8710431728,0.0351253081,0.0019
 371673\H,-2.0007331206,-0.9914631987,-0.9695753715\C,1.7411235402,-1.1
 819865928,0.0190089885\C,-0.511783961,-0.0147805874,-0.1902484149\H,2.
 4490165746,-1.1550478773,-0.8205137867\H,2.3308303222,-1.2486998832,0.
 9440543686\H,1.1343574953,-2.0823966198,-0.0784323755\O,-1.2753819606,
 1.2376918914,-0.3039542605\H,0.809688328,2.0628091289,0.0899088766\O,-
 1.0484083195,-1.1555009048,-0.824291914\H,-1.0950378535,0.4554453502,0
 .771126552\\Version=ES64L-G09RevD.01\State=1-A\HF=-323.5135361\RMSD=2.
 644e-09\RMSF=4.467e-06\ZeroPoint=0.1013227\Thermal=0.1085858\Dipole=1.
 1967202,-0.1488537,0.6744361\DipoleDeriv=-0.68696,-0.1764442,0.1270549
 ,-0.8891495,-0.7203473,-0.0949537,-0.0118966,-0.0460913,-0.7103882,0.2
 292379,0.0209129,-0.0650814,0.0151959,0.2162378,0.0051764,-0.1240916,0
 .0002989,0.3574154,1.0374802,0.092289,-0.0437583,0.7935418,0.5823777,0
 .1221117,-0.0197096,-0.0293335,0.1075625,0.2180289,0.0699918,-0.010441
 ,0.1940012,0.3120651,-0.0075473,0.0472904,-0.0336949,0.3843807,0.03248
 96,0.0761701,0.032665,-0.0824126,-0.0623586,-0.0348333,0.0911859,-0.04
 49663,0.1280185,-0.4329941,0.213077,0.1582574,0.4507861,0.6156635,0.40
 07864,1.3150091,0.2695636,0.3561585,-0.0575589,0.0428675,0.0918721,0.0
 355742,0.0468666,0.0340101,0.109669,0.0083683,-0.0167875,-0.0297269,0.
 0459369,-0.1024213,0.0319063,0.044585,-0.0281443,-0.1480283,0.0285384,
 -0.0783322,0.0688989,-0.0810001,-0.0050733,-0.0218971,-0.0006908,-0.00
 38808,-0.0017053,-0.001526,0.1073644,-0.6927999,0.0919884,0.0089677,0.
 7399783,-0.7501461,-0.0940527,-0.8046303,0.1502942,-0.4539809,0.106158
 4,0.061903,-0.0496129,0.0228044,0.229904,-0.0181561,-0.021304,-0.00786
 37,0.3680196,-0.3567954,-0.2873515,-0.1453491,-0.5359859,-0.8020476,-0
 .2329549,-0.4369399,-0.1824445,-0.6552913,0.5645414,-0.1703407,0.00292
 03,-0.7543431,0.2878906,-0.0475617,0.0051511,-0.1111432,0.1058605\Pola
 r=72.1647853,-3.2144246,49.1960541,6.5758575,3.513366,29.6247239\PG=C0
 1 [X(C3H7N1O2)]\NImag=1\\0.82030363,-0.01382805,0.77048152,0.23508111,
 0.03351497,0.12369771,-0.41755633,-0.03834221,-0.13719006,0.43307181,-
 0.03683107,-0.08114554,-0.01463860,0.04759290,0.07364521,-0.13969496,-
 0.01549797,-0.05326951,0.14375076,0.01787997,0.05643791,-0.17184732,-0
 .07883684,-0.04144596,-0.00984695,-0.03728465,-0.00728932,0.72396567,-
 0.09403622,-0.33935337,-0.04761156,0.00121513,0.00010908,0.00033245,0.
 01331353,0.69562660,-0.03880796,-0.05155284,-0.05907256,-0.00081963,-0
 .01088828,-0.00458539,0.11847531,0.07349531,0.20209824,0.00086432,0.00
 270400,-0.00028796,-0.00007366,-0.00019102,0.00009410,-0.00166423,-0.0
 0342359,-0.00104196,0.46366294,-0.00100897,0.00168527,-0.00016711,-0.0
 0027049,-0.00050557,-0.00003273,-0.00196447,-0.00813999,-0.00276497,-0
 .05815312,0.04974859,-0.00009002,0.00097354,0.00107075,-0.00020964,-0.
 00011556,0.00078592,0.00072386,-0.00197504,-0.00083108,0.07963094,0.00
 961749,0.02641483,0.01422952,-0.01274828,0.00000629,0.00073898,0.00010
 822,0.00161375,-0.13837287,0.06217843,-0.00383221,0.00043400,0.0005406
 3,-0.00006863,0.54780369,0.02318175,-0.03671630,0.00041335,0.00063167,
 0.00243656,0.00091712,0.05775333,-0.17790105,-0.00032874,0.00014795,-0
 .00039929,-0.00001663,0.05326068,0.54593051,0.00397970,-0.00750733,0.0
 0298303,0.00116514,-0.00020255,-0.00056566,-0.01468914,0.00184395,-0.0
 7503076,0.00016916,0.00021057,-0.00059463,0.00886313,0.00487812,0.5353
 5534,-0.04207628,-0.04700291,-0.00974911,0.00390896,0.00113325,0.00168
 545,-0.31870311,0.00785954,-0.05083203,-0.02139941,-0.04540473,-0.0238
 8982,-0.01825005,0.00754500,0.00884753,0.59088987,-0.04280389,-0.00559
 853,-0.00742910,-0.00048863,-0.00584672,0.00006367,-0.02523930,-0.0916
 2430,-0.00264375,0.00603784,-0.00554866,0.00125335,0.02741723,0.004042
 61,-0.00077297,0.07633099,0.40098187,0.00633678,0.03808732,0.01367077,
 -0.00671593,-0.00190307,0.00521332,-0.10971231,-0.03554563,-0.07726946
 ,-0.00421651,-0.01610261,-0.00811190,-0.00151696,0.00168307,0.00607939
 ,0.15716849,0.08267668,0.23631284,0.00127947,-0.00143674,-0.00115297,0
 .00012025,0.00001349,0.00058384,-0.01763808,0.00245019,0.01482378,0.00
 006524,0.00011535,0.00016784,-0.14939151,-0.00768584,0.12688260,-0.000
 29242,0.00299184,0.00131626,0.16654639,-0.00083896,0.00086396,0.001776
 78,0.00009885,-0.00039878,-0.00109850,0.02162134,-0.00198779,-0.022971
 18,-0.00014318,-0.00003110,0.00011436,-0.00635391,-0.04801602,0.005858
 06,0.00097715,-0.00285051,-0.00103337,0.00292474,0.05116745,-0.0004409
 7,-0.00000350,0.00081865,0.00025223,-0.00039399,-0.00061452,-0.0003319
 9,-0.00016598,0.00365325,-0.00005692,-0.00004042,-0.00002358,0.1255432
 9,0.00722925,-0.19714037,-0.00121056,0.00031626,-0.00110718,-0.1405240
 4,-0.00792131,0.21560786,0.00125108,-0.00186309,0.00145168,0.00061077,
 0.00049416,-0.00063851,-0.01837621,0.00413184,-0.01729492,0.00010337,0
 .00030868,-0.00012499,-0.11604696,0.00421830,-0.11359968,0.00360128,0.
 00151828,-0.00030659,0.01119941,-0.00119749,0.01930549,0.12969397,-0.0
 0010418,0.00233151,-0.00097487,-0.00082490,-0.00082894,0.00024113,0.02
 121571,-0.00360872,0.02563299,-0.00017554,0.00017794,-0.00010962,0.005
 65344,-0.05118027,0.01139806,-0.00294950,-0.00295129,-0.00128760,0.000
 43967,0.00022615,0.00194001,-0.01106718,0.05291135,0.00057839,0.000398
 72,0.00085499,-0.00025166,0.00095923,-0.00032457,0.00011861,-0.0011075
 0,0.00314564,0.00010651,0.00010683,0.00003215,-0.11367773,0.00979334,-
 0.22818981,0.00116488,-0.00006936,0.00015838,-0.01506368,0.00039653,-0
 .02359599,0.12704837,-0.01178731,0.25054204,-0.00345669,0.00360637,-0.
 00063365,-0.00016294,0.00010833,-0.00000668,0.01391488,0.02049671,0.00
 213010,0.00006109,-0.00028062,-0.00004885,-0.13803065,-0.13280406,-0.0
 1403961,-0.00023351,0.00149934,0.00153163,-0.01136830,-0.01726149,-0.0
 0305804,-0.00918207,-0.01352847,0.00000360,0.14908607,0.00512892,-0.00
 268392,0.00075360,0.00021959,0.00034425,0.00041103,-0.01913462,-0.0248
 3211,-0.00248539,-0.00025440,0.00060801,0.00004961,-0.12477122,-0.2372
 1833,-0.01953615,0.00000483,-0.00154788,-0.00229419,0.00039839,0.00002
 581,-0.00069651,0.00242412,0.00302762,0.00096770,0.13785493,0.26135658
 ,-0.00036541,0.00011910,0.00149961,0.00016283,0.00025542,-0.00055067,0
 .00106051,-0.00050672,-0.00138841,0.00014053,-0.00022319,-0.00002713,-
 0.01446269,-0.02053889,-0.05194143,-0.00027195,0.00078950,0.00068054,0
 .01549065,0.02286457,0.00248865,-0.01656573,-0.02483987,-0.00216183,0.
 01488284,0.02241533,0.05189602,-0.00045355,0.00254907,0.00072881,-0.00
 117285,0.00201461,0.00206182,-0.02499532,0.03806696,-0.01202007,0.0020
 0868,0.00327314,0.00240564,-0.00202550,-0.00341740,-0.00249101,-0.0877
 3217,0.04811875,-0.02031971,-0.00087897,0.00059167,0.00003834,-0.00142
 448,0.00182839,-0.00014705,0.00013925,0.00001601,-0.00012262,0.1158516
 7,0.00529056,0.02561369,0.00279582,-0.00386888,0.00189695,0.00101924,-
 0.02238112,-0.03098697,-0.00567633,0.00115957,0.00219883,0.00077728,-0
 .00218290,0.00283572,0.00239166,0.11873697,-0.16481694,-0.03899106,0.0
 0038563,0.00018570,-0.00022833,0.00132314,-0.00134913,0.00083632,0.000
 02393,-0.00007549,0.00003836,-0.09933990,0.18259582,-0.01225914,-0.022
 42129,-0.00698713,0.00250340,-0.00042386,-0.00039234,0.04812418,0.0130
 1673,0.01111680,0.00349365,0.00658536,0.00004920,-0.00077000,-0.000343
 78,0.00663912,-0.12812153,0.07559650,0.02631819,-0.00097210,0.00109087
 ,-0.00034820,0.00094763,-0.00061704,-0.00038387,-0.00049113,0.00059650
 ,-0.00045756,0.03149809,-0.00234990,0.00245187,-0.20058742,0.17081974,
 -0.04754677,-0.00842934,0.02401510,-0.00135729,0.02155097,-0.00655574,
 0.00272791,0.00021939,-0.00033634,0.00010796,-0.00081938,-0.00299507,-
 0.00177534,-0.00827865,-0.00526294,0.01072771,-0.00025673,-0.00006854,
 0.00000166,-0.00054104,0.00033048,-0.00015047,0.00047372,-0.00065245,-
 0.00012340,0.00357144,0.01293217,-0.00695046,0.18957088,0.17358634,-0.
 30519035,0.03671947,-0.00994147,0.01071214,-0.00221847,0.01922935,-0.0
 3118321,0.00344057,-0.00017748,-0.00011252,-0.00001872,-0.00454387,-0.
 00185418,-0.00027506,0.00288691,-0.00428699,-0.00129442,0.00000492,0.0
 0024152,-0.00014128,0.00002267,0.00027271,0.00017116,0.00104776,-0.000
 81218,-0.00004669,0.00252050,0.00136008,0.00103257,-0.18426835,0.32991
 277,-0.04793482,0.03554963,-0.02948005,-0.00360410,0.00902062,-0.00221
 940,0.00887009,-0.00421227,0.00622012,-0.00003847,-0.00014948,-0.00025
 681,-0.00213267,-0.00241273,0.00299257,-0.00287430,-0.00067278,-0.0013
 9394,-0.00033856,0.00071983,0.00001745,0.00023371,-0.00041790,0.000047
 81,0.00033196,-0.00072725,0.00057544,0.00091576,0.00017862,-0.00377291
 ,0.04438850,-0.03857580,0.02787090,-0.00610453,0.00262210,-0.00077815,
 -0.00050193,-0.00175709,0.00025780,-0.01974206,-0.03898503,-0.02542026
 ,-0.44378422,0.10557362,-0.05703492,-0.00032625,-0.00032061,-0.0006591
 9,-0.11483859,-0.07593469,-0.06186421,-0.00007426,0.00017615,0.0003235
 9,-0.00063067,-0.00079839,-0.00004785,-0.00139275,-0.00106406,-0.00011
 112,0.01001130,0.00793142,0.02090666,0.00057077,0.00047612,-0.00033313
 ,0.58074399,-0.00306924,-0.00619457,-0.00163753,0.00116168,0.00016664,
 -0.00150253,0.00122495,0.00343782,-0.00742506,0.05072191,-0.04375424,-
 0.00991403,0.00086219,-0.00236641,0.00120371,-0.03498158,-0.16363140,-
 0.05684526,-0.00071494,0.00087352,0.00021697,-0.00059731,0.00086229,-0
 .00037396,-0.00039473,0.00134127,0.00002339,-0.00266841,-0.03470288,-0
 .01936990,0.00077213,0.00073218,0.00073205,-0.00981418,0.25787690,-0.0
 0642368,-0.01186419,0.00184976,0.00119937,0.00002776,0.00000379,0.0094
 9390,-0.00110026,-0.00336493,-0.07817812,0.00498569,-0.01840575,0.0006
 3400,-0.00075419,-0.00075233,-0.05336716,-0.08119598,-0.08326313,-0.00
 081414,-0.00001310,0.00011814,-0.00020983,0.00055748,-0.00007240,-0.00
 051498,0.00037832,-0.00063268,0.01002618,-0.00225330,0.00960753,-0.002
 19791,0.00073649,-0.00071284,0.13220497,0.10363502,0.10193500,0.004154
 10,0.01175685,0.00151676,-0.00070679,0.00058376,-0.00106075,-0.0382453
 7,-0.00671176,0.01191194,-0.00049751,-0.00239268,-0.00156937,0.0000569
 9,0.00048430,-0.00265329,0.01340407,-0.01418482,0.02757134,0.00068949,
 -0.00052632,0.00015794,-0.00025845,-0.00001955,0.00031809,0.00015191,-
 0.00017005,0.00028556,-0.01289951,-0.02001059,0.04209075,0.00295539,-0
 .00084340,0.00251604,-0.00393080,-0.00250247,-0.01185260,0.03512649,-0
 .01466702,-0.02409335,-0.00351522,0.00281675,-0.00058528,-0.00051442,0
 .05048279,0.01044402,0.00416767,0.00174708,0.00407274,-0.00063602,0.00
 057937,0.00040645,0.00050992,-0.08513591,0.04367874,0.03285014,0.00011
 330,-0.00029991,-0.00011115,0.00028389,0.00010879,-0.00029169,-0.00036
 801,0.00046638,-0.00035030,0.00644660,0.01524464,-0.05239276,-0.008730
 19,0.00020804,0.00096744,0.01189463,-0.01464112,-0.01313973,0.03453672
 ,-0.03501013,0.00004100,0.00020384,0.00236400,-0.00024271,0.00042289,0
 .00008111,-0.01339776,0.00353654,-0.00469144,0.00018505,-0.00202541,-0
 .00010196,-0.00019956,-0.00051930,0.00016555,0.10145014,-0.06791202,-0
 .11728782,-0.00039947,0.00021647,0.00012586,-0.00024661,0.00026452,-0.
 00005253,-0.00008718,0.00016739,0.00001944,-0.01257418,0.04146162,-0.0
 4384070,0.00214789,0.00047019,0.00011166,-0.00744420,-0.00874285,-0.00
 631018,-0.06923240,0.03245612,0.16941702\\0.00000788,0.00001169,-0.000
 00146,-0.00000168,0.00000079,-0.00000103,0.00000502,-0.00000996,0.0000
 0593,0.00000077,-0.00000424,0.00000168,-0.00000645,-0.00000475,0.00000
 276,-0.00000166,0.00000228,-0.00000714,0.00000399,-0.00000063,0.000002
 51,0.00000442,0.00000641,0.00000479,0.00000187,0.00000382,0.00000115,-
 0.00000214,-0.00000368,-0.00000486,-0.00000299,0.00000040,-0.00000323,
 -0.00000834,-0.00000100,-0.00000125,-0.00000067,-0.00000114,0.00000014
 \\\@


 A BIRD IN THE HAND IS SAFER THAN ONE OVERHEAD.

                       -- NEWTON'S SEVENTH LAW
 Job cpu time:       0 days  0 hours  1 minutes  7.5 seconds.
 File lengths (MBytes):  RWF=     12 Int=      0 D2E=      0 Chk=      2 Scr=      1
 Normal termination of Gaussian 09 at Tue Apr 12 14:47:53 2016.
