 Entering Link 1 = c:\G09w03\l1.exe PID=      7172.
  
 Copyright (c) 1988,1990,1992,1993,1995,1998,2003,2009,2010,
            Gaussian, Inc.  All Rights Reserved.
  
 This is part of the Gaussian(R) 09 program.  It is based on
 the Gaussian(R) 03 system (copyright 2003, Gaussian, Inc.),
 the Gaussian(R) 98 system (copyright 1998, Gaussian, Inc.),
 the Gaussian(R) 94 system (copyright 1995, Gaussian, Inc.),
 the Gaussian 92(TM) system (copyright 1992, Gaussian, Inc.),
 the Gaussian 90(TM) system (copyright 1990, Gaussian, Inc.),
 the Gaussian 88(TM) system (copyright 1988, Gaussian, Inc.),
 the Gaussian 86(TM) system (copyright 1986, Carnegie Mellon
 University), and the Gaussian 82(TM) system (copyright 1983,
 Carnegie Mellon University). Gaussian is a federally registered
 trademark of Gaussian, Inc.
  
 This software contains proprietary and confidential information,
 including trade secrets, belonging to Gaussian, Inc.
  
 This software is provided under written license and may be
 used, copied, transmitted, or stored only in accord with that
 written license.
  
 The following legend is applicable only to US Government
 contracts under FAR:
  
                    RESTRICTED RIGHTS LEGEND
  
 Use, reproduction and disclosure by the US Government is
 subject to restrictions as set forth in subparagraphs (a)
 and (c) of the Commercial Computer Software - Restricted
 Rights clause in FAR 52.227-19.
  
 Gaussian, Inc.
 340 Quinnipiac St., Bldg. 40, Wallingford CT 06492
  
  
 ---------------------------------------------------------------
 Warning -- This program may not be used in any manner that
 competes with the business of Gaussian, Inc. or will provide
 assistance to any competitor of Gaussian, Inc.  The licensee
 of this program is prohibited from giving any competitor of
 Gaussian, Inc. access to this program.  By using this program,
 the user acknowledges that Gaussian, Inc. is engaged in the
 business of creating and licensing software in the field of
 computational chemistry and represents and warrants to the
 licensee that it is not a competitor of Gaussian, Inc. and that
 it will not use this program in any manner prohibited above.
 ---------------------------------------------------------------
  

 Cite this work as:
 Gaussian 09, Revision B.01,
 M. J. Frisch, G. W. Trucks, H. B. Schlegel, G. E. Scuseria, 
 M. A. Robb, J. R. Cheeseman, G. Scalmani, V. Barone, B. Mennucci, 
 G. A. Petersson, H. Nakatsuji, M. Caricato, X. Li, H. P. Hratchian, 
 A. F. Izmaylov, J. Bloino, G. Zheng, J. L. Sonnenberg, M. Hada, 
 M. Ehara, K. Toyota, R. Fukuda, J. Hasegawa, M. Ishida, T. Nakajima, 
 Y. Honda, O. Kitao, H. Nakai, T. Vreven, J. A. Montgomery, Jr., 
 J. E. Peralta, F. Ogliaro, M. Bearpark, J. J. Heyd, E. Brothers, 
 K. N. Kudin, V. N. Staroverov, T. Keith, R. Kobayashi, J. Normand, 
 K. Raghavachari, A. Rendell, J. C. Burant, S. S. Iyengar, J. Tomasi, 
 M. Cossi, N. Rega, J. M. Millam, M. Klene, J. E. Knox, J. B. Cross, 
 V. Bakken, C. Adamo, J. Jaramillo, R. Gomperts, R. E. Stratmann, 
 O. Yazyev, A. J. Austin, R. Cammi, C. Pomelli, J. W. Ochterski, 
 R. L. Martin, K. Morokuma, V. G. Zakrzewski, G. A. Voth, 
 P. Salvador, J. J. Dannenberg, S. Dapprich, A. D. Daniels, 
 O. Farkas, J. B. Foresman, J. V. Ortiz, J. Cioslowski, 
 and D. J. Fox, Gaussian, Inc., Wallingford CT, 2010.
 
 ******************************************
 Gaussian 09:  IA32W-G09RevB.01 12-Aug-2010
                16-Apr-2016 
 ******************************************
 %chk=Ala-S-opt-freq-cpcm-w-pa1-6-311++gdp.chk
 -----------------------------------------------------------------
 #p opt freq rb3lyp/6-311++g(d,p) scrf=(cpcm,solvent=water) nosymm
 -----------------------------------------------------------------
 1/14=-1,18=20,19=15,26=3,38=1/1,3;
 2/9=110,12=2,15=1,17=6,18=5,40=1/2;
 3/5=4,6=6,7=1111,11=2,16=1,25=1,30=1,70=2101,71=1,72=1,74=-5,116=1/1,2,3;
 4//1;
 5/5=2,38=5,53=1/2;
 6/7=2,8=2,9=2,10=2,28=1/1;
 7/30=1/1,2,3,16;
 1/14=-1,18=20,19=15/3(2);
 2/9=110,15=1/2;
 99//99;
 2/9=110,15=1/2;
 3/5=4,6=6,7=1111,11=2,16=1,25=1,30=1,70=2105,71=1,72=1,74=-5,116=1/1,2,3;
 4/5=5,16=3/1;
 5/5=2,38=5,53=1/2;
 7/30=1/1,2,3,16;
 1/14=-1,18=20,19=15/3(-5);
 2/9=110,15=1/2;
 6/7=2,8=2,9=2,10=2,19=2,28=1/1;
 99/9=1/99;
 Leave Link    1 at Sat Apr 16 01:04:42 2016, MaxMem=          0 cpu:       0.0
 (Enter c:\G09w03\l101.exe)
 ------------------------------------
 Ala-S-opt-freq-cpcm-w-pa1-6-311++gdp
 ------------------------------------
 Symbolic Z-matrix:
 Charge =  0 Multiplicity = 1
 N                    -1.36378  -1.20683  -0.28529 
 H                    -1.38103  -1.51101   0.68475 
 C                    -0.70672   0.09471  -0.40124 
 H                    -0.76847   0.41124  -1.44622 
 C                    -1.29606   1.22064   0.4797 
 C                     0.75752  -0.03908  -0.09612 
 H                    -1.22644   0.95828   1.53843 
 H                    -0.77709   2.16738   0.31572 
 H                    -2.3489    1.35309   0.22356 
 O                     1.30496  -0.98719   0.55952 
 H                    -2.3308   -1.12152  -0.58351 
 O                     1.64665   0.82047  -0.41927 
 H                     2.23405  -0.59898   0.38142 
 
 NAtoms=     13 NQM=     13 NQMF=      0 NMic=      0 NMicF=      0 NTot=     13.
                    Isotopes and Nuclear Properties:
 (Nuclear quadrupole moments (NQMom) in fm**2, nuclear magnetic moments (NMagM)
  in nuclear magnetons)

  Atom         1           2           3           4           5           6           7           8           9          10
 IAtWgt=          14           1          12           1          12          12           1           1           1          16
 AtmWgt=  14.0030740   1.0078250  12.0000000   1.0078250  12.0000000  12.0000000   1.0078250   1.0078250   1.0078250  15.9949146
 NucSpn=           2           1           0           1           0           0           1           1           1           0
 AtZEff=   0.0000000   0.0000000   0.0000000   0.0000000   0.0000000   0.0000000   0.0000000   0.0000000   0.0000000   0.0000000
 NQMom=    2.0440000   0.0000000   0.0000000   0.0000000   0.0000000   0.0000000   0.0000000   0.0000000   0.0000000   0.0000000
 NMagM=    0.4037610   2.7928460   0.0000000   2.7928460   0.0000000   0.0000000   2.7928460   2.7928460   2.7928460   0.0000000

  Atom        11          12          13
 IAtWgt=           1          16           1
 AtmWgt=   1.0078250  15.9949146   1.0078250
 NucSpn=           1           0           1
 AtZEff=   0.0000000   0.0000000   0.0000000
 NQMom=    0.0000000   0.0000000   0.0000000
 NMagM=    2.7928460   0.0000000   2.7928460
 Leave Link  101 at Sat Apr 16 01:04:43 2016, MaxMem=   33554432 cpu:       1.0
 (Enter c:\G09w03\l103.exe)

 GradGradGradGradGradGradGradGradGradGradGradGradGradGradGradGradGradGrad
 Berny optimization.
 Initialization pass.
                           ----------------------------
                           !    Initial Parameters    !
                           ! (Angstroms and Degrees)  !
 --------------------------                            --------------------------
 ! Name  Definition              Value          Derivative Info.                !
 --------------------------------------------------------------------------------
 ! R1    R(1,2)                  1.0168         estimate D2E/DX2                !
 ! R2    R(1,3)                  1.4626         estimate D2E/DX2                !
 ! R3    R(1,11)                 1.0155         estimate D2E/DX2                !
 ! R4    R(3,4)                  1.0936         estimate D2E/DX2                !
 ! R5    R(3,5)                  1.5463         estimate D2E/DX2                !
 ! R6    R(3,6)                  1.5017         estimate D2E/DX2                !
 ! R7    R(5,7)                  1.093          estimate D2E/DX2                !
 ! R8    R(5,8)                  1.092          estimate D2E/DX2                !
 ! R9    R(5,9)                  1.0916         estimate D2E/DX2                !
 ! R10   R(6,10)                 1.2761         estimate D2E/DX2                !
 ! R11   R(6,12)                 1.2782         estimate D2E/DX2                !
 ! R12   R(10,13)                1.0226         estimate D2E/DX2                !
 ! A1    A(2,1,3)              110.4555         estimate D2E/DX2                !
 ! A2    A(2,1,11)             106.8058         estimate D2E/DX2                !
 ! A3    A(3,1,11)             109.2537         estimate D2E/DX2                !
 ! A4    A(1,3,4)              107.9356         estimate D2E/DX2                !
 ! A5    A(1,3,5)              115.5676         estimate D2E/DX2                !
 ! A6    A(1,3,6)              110.0391         estimate D2E/DX2                !
 ! A7    A(4,3,5)              108.1854         estimate D2E/DX2                !
 ! A8    A(4,3,6)              105.9619         estimate D2E/DX2                !
 ! A9    A(5,3,6)              108.7079         estimate D2E/DX2                !
 ! A10   A(3,5,7)              110.6581         estimate D2E/DX2                !
 ! A11   A(3,5,8)              111.3825         estimate D2E/DX2                !
 ! A12   A(3,5,9)              108.7994         estimate D2E/DX2                !
 ! A13   A(7,5,8)              108.8624         estimate D2E/DX2                !
 ! A14   A(7,5,9)              108.5332         estimate D2E/DX2                !
 ! A15   A(8,5,9)              108.5374         estimate D2E/DX2                !
 ! A16   A(3,6,10)             126.078          estimate D2E/DX2                !
 ! A17   A(3,6,12)             124.5409         estimate D2E/DX2                !
 ! A18   A(10,6,12)            109.3355         estimate D2E/DX2                !
 ! A19   A(6,10,13)             91.0448         estimate D2E/DX2                !
 ! D1    D(2,1,3,4)           -176.3809         estimate D2E/DX2                !
 ! D2    D(2,1,3,5)            -55.1492         estimate D2E/DX2                !
 ! D3    D(2,1,3,6)             68.4222         estimate D2E/DX2                !
 ! D4    D(11,1,3,4)           -59.1772         estimate D2E/DX2                !
 ! D5    D(11,1,3,5)            62.0544         estimate D2E/DX2                !
 ! D6    D(11,1,3,6)          -174.3742         estimate D2E/DX2                !
 ! D7    D(1,3,5,7)             60.6246         estimate D2E/DX2                !
 ! D8    D(1,3,5,8)           -178.1319         estimate D2E/DX2                !
 ! D9    D(1,3,5,9)            -58.5313         estimate D2E/DX2                !
 ! D10   D(4,3,5,7)           -178.2785         estimate D2E/DX2                !
 ! D11   D(4,3,5,8)            -57.035          estimate D2E/DX2                !
 ! D12   D(4,3,5,9)             62.5657         estimate D2E/DX2                !
 ! D13   D(6,3,5,7)            -63.643          estimate D2E/DX2                !
 ! D14   D(6,3,5,8)             57.6005         estimate D2E/DX2                !
 ! D15   D(6,3,5,9)            177.2012         estimate D2E/DX2                !
 ! D16   D(1,3,6,10)           -20.5549         estimate D2E/DX2                !
 ! D17   D(1,3,6,12)           162.1671         estimate D2E/DX2                !
 ! D18   D(4,3,6,10)          -136.9952         estimate D2E/DX2                !
 ! D19   D(4,3,6,12)            45.7268         estimate D2E/DX2                !
 ! D20   D(5,3,6,10)           106.9282         estimate D2E/DX2                !
 ! D21   D(5,3,6,12)           -70.3499         estimate D2E/DX2                !
 ! D22   D(3,6,10,13)          175.8847         estimate D2E/DX2                !
 ! D23   D(12,6,10,13)          -6.4913         estimate D2E/DX2                !
 --------------------------------------------------------------------------------
 Trust Radius=3.00D-01 FncErr=1.00D-07 GrdErr=1.00D-06
 Number of steps in this run=     64 maximum allowed number of steps=    100.
 GradGradGradGradGradGradGradGradGradGradGradGradGradGradGradGradGradGrad

 Leave Link  103 at Sat Apr 16 01:04:43 2016, MaxMem=   33554432 cpu:       0.0
 (Enter c:\G09w03\l202.exe)
                          Input orientation:                          
 ---------------------------------------------------------------------
 Center     Atomic      Atomic             Coordinates (Angstroms)
 Number     Number       Type             X           Y           Z
 ---------------------------------------------------------------------
      1          7           0       -1.363782   -1.206826   -0.285294
      2          1           0       -1.381032   -1.511010    0.684745
      3          6           0       -0.706718    0.094708   -0.401239
      4          1           0       -0.768472    0.411244   -1.446219
      5          6           0       -1.296059    1.220640    0.479701
      6          6           0        0.757515   -0.039080   -0.096123
      7          1           0       -1.226443    0.958276    1.538433
      8          1           0       -0.777092    2.167382    0.315720
      9          1           0       -2.348900    1.353090    0.223555
     10          8           0        1.304955   -0.987187    0.559518
     11          1           0       -2.330800   -1.121520   -0.583506
     12          8           0        1.646646    0.820465   -0.419271
     13          1           0        2.234052   -0.598980    0.381418
 ---------------------------------------------------------------------
                    Distance matrix (angstroms):
                    1          2          3          4          5
     1  N    0.000000
     2  H    1.016760   0.000000
     3  C    1.462589   2.052411   0.000000
     4  H    2.078531   2.934501   1.093614   0.000000
     5  C    2.546055   2.740652   1.546319   2.154678   0.000000
     6  C    2.428851   2.711036   1.501657   2.086669   2.477021
     7  H    2.834168   2.617261   2.185907   3.068734   1.092975
     8  H    3.477169   3.745863   2.194302   2.487674   1.092033
     9  H    2.789723   3.058191   2.161170   2.484547   1.091617
    10  O    2.807865   2.739452   2.477979   3.205884   3.412645
    11  H    1.015545   1.631632   2.037173   2.352554   2.772510
    12  O    3.631878   3.977620   2.462797   2.656102   3.102870
    13  H    3.709231   3.740674   3.121199   3.657316   3.972702
                    6          7          8          9         10
     6  C    0.000000
     7  H    2.757278   0.000000
     8  H    2.719027   1.777324   0.000000
     9  H    3.419085   1.773328   1.772610   0.000000
    10  O    1.276112   3.339323   3.787567   4.352060   0.000000
    11  H    3.308611   3.169823   3.746931   2.602954   3.813563
    12  O    1.278200   3.479402   2.868606   4.081826   2.083839
    13  H    1.649756   3.967210   4.089506   4.983869   1.022568
                   11         12         13
    11  H    0.000000
    12  O    4.429261   0.000000
    13  H    4.694891   1.732331   0.000000
 Symmetry turned off by external request.
 Stoichiometry    C3H7NO2
 Framework group  C1[X(C3H7NO2)]
 Deg. of freedom    33
 Full point group                 C1      NOp   1
 Rotational constants (GHZ):      5.2850131      2.9860518      2.2336273
 Leave Link  202 at Sat Apr 16 01:04:43 2016, MaxMem=   33554432 cpu:       0.0
 (Enter c:\G09w03\l301.exe)
 Standard basis: 6-311++G(d,p) (5D, 7F)
 Ernie: Thresh=  0.10000D-02 Tol=  0.10000D-05 Strict=F.
 Integral buffers will be    262144 words long.
 Raffenetti 2 integral format.
 Two-electron integral symmetry is turned off.
   181 basis functions,   279 primitive gaussians,   187 cartesian basis functions
    24 alpha electrons       24 beta electrons
       nuclear repulsion energy       249.2769352896 Hartrees.
 IExCor=  402 DFT=T Ex+Corr=B3LYP ExCW=0 ScaHFX=  0.200000
 ScaDFX=  0.800000  0.720000  1.000000  0.810000 ScalE2=  1.000000  1.000000
 IRadAn=      0 IRanWt=     -1 IRanGd=            0 ICorTp=0
 NAtoms=   13 NActive=   13 NUniq=   13 SFac= 1.00D+00 NAtFMM=   50 NAOKFM=F Big=F
 ------------------------------------------------------------------------------
 Polarizable Continuum Model (PCM)
 =================================
 Model                : C-PCM.
 Atomic radii         : UFF (Universal Force Field).
 Polarization charges : Total charges.
 Charge compensation  : None.
 Solution method      : Matrix inversion.
 Cavity type          : Scaled VdW (van der Waals Surface) (Alpha=1.100).
 Cavity algorithm     : GePol (No added spheres)
                        Default sphere list used, NSphG=   13.
                        Lebedev-Laikov grids with approx.  5.0 points / Ang**2.
                        Smoothing algorithm: Karplus/York (Gamma=1.0000).
                        Polarization charges: spherical gaussians, with
                                              point-specific exponents (IZeta= 3).
                        Self-potential: point-specific (ISelfS= 7).
                        Self-field    : sphere-specific E.n sum rule (ISelfD= 2).
 1st derivatives      : Analytical E(r).r(x)/FMM algorithm (CHGder, D1EAlg=3).
                        Cavity 1st derivative terms included.
 Solvent              : Water, Eps=  78.355300 Eps(inf)=   1.777849
 ------------------------------------------------------------------------------
 Spheres list:
 ISph  on   Nord    Re0     Alpha      Xe            Ye            Ze
    1   N      1    1.830   1.100     -1.363782     -1.206826     -0.285294
    2   H      2    1.443   1.100     -1.381032     -1.511010      0.684745
    3   C      3    1.926   1.100     -0.706718      0.094708     -0.401239
    4   H      4    1.443   1.100     -0.768472      0.411244     -1.446219
    5   C      5    1.926   1.100     -1.296059      1.220640      0.479701
    6   C      6    1.926   1.100      0.757515     -0.039080     -0.096123
    7   H      7    1.443   1.100     -1.226443      0.958276      1.538433
    8   H      8    1.443   1.100     -0.777092      2.167382      0.315720
    9   H      9    1.443   1.100     -2.348900      1.353090      0.223555
   10   O     10    1.750   1.100      1.304955     -0.987187      0.559518
   11   H     11    1.443   1.100     -2.330800     -1.121520     -0.583506
   12   O     12    1.750   1.100      1.646646      0.820465     -0.419271
   13   H     13    1.443   1.100      2.234052     -0.598980      0.381418
 ------------------------------------------------------------------------------
 GePol: Number of generator spheres                  =      13
 GePol: Total number of spheres                      =      13
 GePol: Number of exposed spheres                    =      13 (100.00%)
 GePol: Number of points                             =    1104
 GePol: Average weight of points                     =       0.14
 GePol: Minimum weight of points                     =   0.22D-09
 GePol: Maximum weight of points                     =    0.20577
 GePol: Number of points with low weight             =      69
 GePol: Fraction of low-weight points (<1% of avg)   =       6.25%
 GePol: Cavity surface area                          =    150.942 Ang**2
 GePol: Cavity volume                                =    138.373 Ang**3
 Leave Link  301 at Sat Apr 16 01:04:43 2016, MaxMem=   33554432 cpu:       0.0
 (Enter c:\G09w03\l302.exe)
 NPDir=0 NMtPBC=     1 NCelOv=     1 NCel=       1 NClECP=     1 NCelD=      1
         NCelK=      1 NCelE2=     1 NClLst=     1 CellRange=     0.0.
 One-electron integrals computed using PRISM.
 NBasis=   181 RedAO= T  NBF=   181
 NBsUse=   181 1.00D-06 NBFU=   181
 Precomputing XC quadrature grid using
 IXCGrd= 2 IRadAn=           0 IRanWt=          -1 IRanGd=           0 AccXCQ= 0.00D+00.
 NRdTot=     842 NPtTot=      107058 NUsed=      110990 NTot=      111006
 NSgBfM=   187   187   187   187   187 NAtAll=    13    13.
 Leave Link  302 at Sat Apr 16 01:04:44 2016, MaxMem=   33554432 cpu:       1.0
 (Enter c:\G09w03\l303.exe)
 DipDrv:  MaxL=1.
 Leave Link  303 at Sat Apr 16 01:04:44 2016, MaxMem=   33554432 cpu:       0.0
 (Enter c:\G09w03\l401.exe)
 Harris functional with IExCor=  402 diagonalized for initial guess.
 ExpMin= 3.60D-02 ExpMax= 8.59D+03 ExpMxC= 1.30D+03 IAcc=3 IRadAn=         0 AccDes= 0.00D+00
 HarFok:  IExCor=  402 AccDes= 0.00D+00 IRadAn=         0 IDoV= 1
 ScaDFX=  1.000000  1.000000  1.000000  1.000000
 FoFCou: FMM=F IPFlag=           0 FMFlag=      100000 FMFlg1=           0
         NFxFlg=           0 DoJE=T BraDBF=F KetDBF=T FulRan=T
         Omega=  0.000000  0.000000  1.000000  0.000000  0.000000 ICntrl=     500 IOpCl=  0
         NMat0=    1 NMatS0=    1 NMatT0=    0 NMatD0=    1 NMtDS0=    0 NMtDT0=    0
         I1Cent=           4 NGrid=           0.
 Symmetry not used in FoFCou.
 Harris En= -323.849550927571    
 Leave Link  401 at Sat Apr 16 01:04:49 2016, MaxMem=   33554432 cpu:       5.0
 (Enter c:\G09w03\l502.exe)
 Closed shell SCF:
 Requested convergence on RMS density matrix=1.00D-08 within 128 cycles.
 Requested convergence on MAX density matrix=1.00D-06.
 Requested convergence on             energy=1.00D-06.
 No special actions if energy rises.
 Using DIIS extrapolation, IDIIS=  1040.
 Two-electron integral symmetry not used.
       110873 words used for storage of precomputed grid.
 IEnd=      236079 IEndB=      236079 NGot=    33554432 MDV=    33370150
 LenX=    33370150 LenY=    33334740
 Fock matrices will be formed incrementally for  20 cycles.

 Cycle   1  Pass 1  IDiag  1:
 FoFCou: FMM=F IPFlag=           0 FMFlag=      100000 FMFlg1=           0
         NFxFlg=           0 DoJE=F BraDBF=F KetDBF=F FulRan=T
         Omega=  0.000000  0.000000  1.000000  0.000000  0.000000 ICntrl=       0 IOpCl=  0
         NMat0=    1 NMatS0=    1 NMatT0=    0 NMatD0=    1 NMtDS0=    0 NMtDT0=    0
         I1Cent=           0 NGrid=           0.
 Symmetry not used in FoFCou.
 E= -323.624481789313    
 DIIS: error= 3.29D-02 at cycle   1 NSaved=   1.
 NSaved= 1 IEnMin= 1 EnMin= -323.624481789313     IErMin= 1 ErrMin= 3.29D-02
 ErrMax= 3.29D-02 EMaxC= 1.00D-01 BMatC= 2.82D-01 BMatP= 2.82D-01
 IDIUse=3 WtCom= 6.71D-01 WtEn= 3.29D-01
 Coeff-Com:  0.100D+01
 Coeff-En:   0.100D+01
 Coeff:      0.100D+01
 Gap=     0.132 Goal=   None    Shift=    0.000
 GapD=    0.132 DampG=1.000 DampE=0.500 DampFc=0.5000 IDamp=-1.
 Damping current iteration by 5.00D-01
 RMSDP=6.58D-03 MaxDP=1.52D-01              OVMax= 2.66D-01

 Cycle   2  Pass 1  IDiag  1:
 RMSU=  2.32D-03    CP:  9.83D-01
 E= -323.677076209122     Delta-E=       -0.052594419809 Rises=F Damp=T
 DIIS: error= 1.60D-02 at cycle   2 NSaved=   2.
 NSaved= 2 IEnMin= 2 EnMin= -323.677076209122     IErMin= 2 ErrMin= 1.60D-02
 ErrMax= 1.60D-02 EMaxC= 1.00D-01 BMatC= 3.71D-02 BMatP= 2.82D-01
 IDIUse=3 WtCom= 8.40D-01 WtEn= 1.60D-01
 Coeff-Com:  0.216D+00 0.784D+00
 Coeff-En:   0.369D+00 0.631D+00
 Coeff:      0.241D+00 0.759D+00
 Gap=     0.241 Goal=   None    Shift=    0.000
 RMSDP=3.09D-03 MaxDP=2.05D-01 DE=-5.26D-02 OVMax= 2.13D-01

 Cycle   3  Pass 1  IDiag  1:
 RMSU=  1.67D-03    CP:  9.07D-01  5.56D-01
 E= -323.811514397918     Delta-E=       -0.134438188796 Rises=F Damp=F
 DIIS: error= 1.37D-02 at cycle   3 NSaved=   3.
 NSaved= 3 IEnMin= 3 EnMin= -323.811514397918     IErMin= 3 ErrMin= 1.37D-02
 ErrMax= 1.37D-02 EMaxC= 1.00D-01 BMatC= 3.02D-02 BMatP= 3.71D-02
 IDIUse=3 WtCom= 8.63D-01 WtEn= 1.37D-01
 Coeff-Com:  0.938D-01 0.480D+00 0.426D+00
 Coeff-En:   0.000D+00 0.000D+00 0.100D+01
 Coeff:      0.810D-01 0.414D+00 0.505D+00
 Gap=     0.242 Goal=   None    Shift=    0.000
 RMSDP=1.26D-03 MaxDP=5.09D-02 DE=-1.34D-01 OVMax= 8.38D-02

 Cycle   4  Pass 1  IDiag  1:
 RMSU=  6.67D-04    CP:  9.24D-01  6.88D-01  7.25D-01
 E= -323.829071324215     Delta-E=       -0.017556926296 Rises=F Damp=F
 DIIS: error= 6.49D-03 at cycle   4 NSaved=   4.
 NSaved= 4 IEnMin= 4 EnMin= -323.829071324215     IErMin= 4 ErrMin= 6.49D-03
 ErrMax= 6.49D-03 EMaxC= 1.00D-01 BMatC= 7.60D-03 BMatP= 3.02D-02
 IDIUse=3 WtCom= 9.35D-01 WtEn= 6.49D-02
 Coeff-Com:  0.843D-02 0.963D-01 0.337D+00 0.558D+00
 Coeff-En:   0.000D+00 0.000D+00 0.236D+00 0.764D+00
 Coeff:      0.788D-02 0.901D-01 0.330D+00 0.572D+00
 Gap=     0.236 Goal=   None    Shift=    0.000
 RMSDP=5.07D-04 MaxDP=2.83D-02 DE=-1.76D-02 OVMax= 3.02D-02

 Cycle   5  Pass 1  IDiag  1:
 RMSU=  1.35D-04    CP:  9.13D-01  6.35D-01  8.50D-01  7.27D-01
 E= -323.834274172377     Delta-E=       -0.005202848163 Rises=F Damp=F
 DIIS: error= 1.37D-03 at cycle   5 NSaved=   5.
 NSaved= 5 IEnMin= 5 EnMin= -323.834274172377     IErMin= 5 ErrMin= 1.37D-03
 ErrMax= 1.37D-03 EMaxC= 1.00D-01 BMatC= 3.23D-04 BMatP= 7.60D-03
 IDIUse=3 WtCom= 9.86D-01 WtEn= 1.37D-02
 Coeff-Com: -0.145D-02 0.196D-01 0.150D+00 0.320D+00 0.511D+00
 Coeff-En:   0.000D+00 0.000D+00 0.000D+00 0.000D+00 0.100D+01
 Coeff:     -0.143D-02 0.193D-01 0.148D+00 0.316D+00 0.518D+00
 Gap=     0.236 Goal=   None    Shift=    0.000
 RMSDP=1.31D-04 MaxDP=9.46D-03 DE=-5.20D-03 OVMax= 3.91D-03

 Cycle   6  Pass 1  IDiag  1:
 RMSU=  6.93D-05    CP:  9.10D-01  6.38D-01  8.69D-01  7.36D-01  7.74D-01
 E= -323.834523356718     Delta-E=       -0.000249184341 Rises=F Damp=F
 DIIS: error= 1.88D-04 at cycle   6 NSaved=   6.
 NSaved= 6 IEnMin= 6 EnMin= -323.834523356718     IErMin= 6 ErrMin= 1.88D-04
 ErrMax= 1.88D-04 EMaxC= 1.00D-01 BMatC= 1.36D-05 BMatP= 3.23D-04
 IDIUse=3 WtCom= 9.98D-01 WtEn= 1.88D-03
 Coeff-Com: -0.124D-02 0.273D-03 0.356D-01 0.869D-01 0.236D+00 0.643D+00
 Coeff-En:   0.000D+00 0.000D+00 0.000D+00 0.000D+00 0.000D+00 0.100D+01
 Coeff:     -0.124D-02 0.273D-03 0.355D-01 0.868D-01 0.235D+00 0.643D+00
 Gap=     0.236 Goal=   None    Shift=    0.000
 RMSDP=2.70D-05 MaxDP=1.17D-03 DE=-2.49D-04 OVMax= 7.04D-04

 Cycle   7  Pass 1  IDiag  1:
 RMSU=  1.00D-05    CP:  9.10D-01  6.38D-01  8.69D-01  7.46D-01  7.73D-01
                    CP:  7.92D-01
 E= -323.834533964450     Delta-E=       -0.000010607732 Rises=F Damp=F
 DIIS: error= 6.59D-05 at cycle   7 NSaved=   7.
 NSaved= 7 IEnMin= 7 EnMin= -323.834533964450     IErMin= 7 ErrMin= 6.59D-05
 ErrMax= 6.59D-05 EMaxC= 1.00D-01 BMatC= 6.83D-07 BMatP= 1.36D-05
 IDIUse=1 WtCom= 1.00D+00 WtEn= 0.00D+00
 Coeff-Com: -0.329D-03-0.654D-03 0.101D-01 0.252D-01 0.865D-01 0.285D+00
 Coeff-Com:  0.594D+00
 Coeff:     -0.329D-03-0.654D-03 0.101D-01 0.252D-01 0.865D-01 0.285D+00
 Coeff:      0.594D+00
 Gap=     0.236 Goal=   None    Shift=    0.000
 RMSDP=4.96D-06 MaxDP=1.06D-04 DE=-1.06D-05 OVMax= 1.75D-04

 Cycle   8  Pass 1  IDiag  1:
 RMSU=  2.94D-06    CP:  9.10D-01  6.38D-01  8.69D-01  7.46D-01  7.77D-01
                    CP:  7.82D-01  8.41D-01
 E= -323.834534447135     Delta-E=       -0.000000482684 Rises=F Damp=F
 DIIS: error= 1.53D-05 at cycle   8 NSaved=   8.
 NSaved= 8 IEnMin= 8 EnMin= -323.834534447135     IErMin= 8 ErrMin= 1.53D-05
 ErrMax= 1.53D-05 EMaxC= 1.00D-01 BMatC= 7.20D-08 BMatP= 6.83D-07
 IDIUse=1 WtCom= 1.00D+00 WtEn= 0.00D+00
 Coeff-Com:  0.457D-04-0.359D-03 0.418D-03 0.887D-03 0.120D-01 0.521D-01
 Coeff-Com:  0.270D+00 0.665D+00
 Coeff:      0.457D-04-0.359D-03 0.418D-03 0.887D-03 0.120D-01 0.521D-01
 Coeff:      0.270D+00 0.665D+00
 Gap=     0.236 Goal=   None    Shift=    0.000
 RMSDP=1.53D-06 MaxDP=4.54D-05 DE=-4.83D-07 OVMax= 8.40D-05

 Cycle   9  Pass 1  IDiag  1:
 RMSU=  8.64D-07    CP:  9.10D-01  6.37D-01  8.69D-01  7.46D-01  7.79D-01
                    CP:  7.81D-01  8.26D-01  8.16D-01
 E= -323.834534499746     Delta-E=       -0.000000052611 Rises=F Damp=F
 DIIS: error= 4.35D-06 at cycle   9 NSaved=   9.
 NSaved= 9 IEnMin= 9 EnMin= -323.834534499746     IErMin= 9 ErrMin= 4.35D-06
 ErrMax= 4.35D-06 EMaxC= 1.00D-01 BMatC= 6.96D-09 BMatP= 7.20D-08
 IDIUse=1 WtCom= 1.00D+00 WtEn= 0.00D+00
 Coeff-Com:  0.294D-04-0.160D-03-0.169D-03-0.471D-03 0.234D-02 0.124D-01
 Coeff-Com:  0.987D-01 0.335D+00 0.552D+00
 Coeff:      0.294D-04-0.160D-03-0.169D-03-0.471D-03 0.234D-02 0.124D-01
 Coeff:      0.987D-01 0.335D+00 0.552D+00
 Gap=     0.236 Goal=   None    Shift=    0.000
 RMSDP=6.42D-07 MaxDP=3.00D-05 DE=-5.26D-08 OVMax= 2.11D-05

 Cycle  10  Pass 1  IDiag  1:
 RMSU=  2.23D-07    CP:  9.10D-01  6.37D-01  8.69D-01  7.46D-01  7.79D-01
                    CP:  7.83D-01  8.42D-01  8.35D-01  8.25D-01
 E= -323.834534505274     Delta-E=       -0.000000005528 Rises=F Damp=F
 DIIS: error= 1.20D-06 at cycle  10 NSaved=  10.
 NSaved=10 IEnMin=10 EnMin= -323.834534505274     IErMin=10 ErrMin= 1.20D-06
 ErrMax= 1.20D-06 EMaxC= 1.00D-01 BMatC= 3.14D-10 BMatP= 6.96D-09
 IDIUse=1 WtCom= 1.00D+00 WtEn= 0.00D+00
 Coeff-Com:  0.647D-05-0.204D-04-0.159D-03-0.375D-03-0.547D-03-0.113D-02
 Coeff-Com:  0.110D-01 0.701D-01 0.213D+00 0.708D+00
 Coeff:      0.647D-05-0.204D-04-0.159D-03-0.375D-03-0.547D-03-0.113D-02
 Coeff:      0.110D-01 0.701D-01 0.213D+00 0.708D+00
 Gap=     0.236 Goal=   None    Shift=    0.000
 RMSDP=1.30D-07 MaxDP=4.18D-06 DE=-5.53D-09 OVMax= 3.32D-06

 Cycle  11  Pass 1  IDiag  1:
 RMSU=  6.34D-08    CP:  9.10D-01  6.37D-01  8.69D-01  7.46D-01  7.79D-01
                    CP:  7.82D-01  8.44D-01  8.47D-01  8.53D-01  8.46D-01
 E= -323.834534505544     Delta-E=       -0.000000000270 Rises=F Damp=F
 DIIS: error= 1.84D-07 at cycle  11 NSaved=  11.
 NSaved=11 IEnMin=11 EnMin= -323.834534505544     IErMin=11 ErrMin= 1.84D-07
 ErrMax= 1.84D-07 EMaxC= 1.00D-01 BMatC= 9.45D-12 BMatP= 3.14D-10
 IDIUse=1 WtCom= 1.00D+00 WtEn= 0.00D+00
 Coeff-Com: -0.194D-05 0.415D-05-0.293D-04-0.546D-04-0.212D-03-0.722D-03
 Coeff-Com: -0.168D-02 0.768D-03 0.177D-01 0.153D+00 0.832D+00
 Coeff:     -0.194D-05 0.415D-05-0.293D-04-0.546D-04-0.212D-03-0.722D-03
 Coeff:     -0.168D-02 0.768D-03 0.177D-01 0.153D+00 0.832D+00
 Gap=     0.236 Goal=   None    Shift=    0.000
 RMSDP=3.25D-08 MaxDP=1.59D-06 DE=-2.70D-10 OVMax= 9.61D-07

 Cycle  12  Pass 1  IDiag  1:
 RMSU=  1.13D-08    CP:  9.10D-01  6.37D-01  8.69D-01  7.46D-01  7.79D-01
                    CP:  7.82D-01  8.44D-01  8.50D-01  8.61D-01  8.83D-01
                    CP:  9.33D-01
 E= -323.834534505552     Delta-E=       -0.000000000008 Rises=F Damp=F
 DIIS: error= 4.47D-08 at cycle  12 NSaved=  12.
 NSaved=12 IEnMin=12 EnMin= -323.834534505552     IErMin=12 ErrMin= 4.47D-08
 ErrMax= 4.47D-08 EMaxC= 1.00D-01 BMatC= 7.27D-13 BMatP= 9.45D-12
 IDIUse=1 WtCom= 1.00D+00 WtEn= 0.00D+00
 Coeff-Com: -0.124D-05 0.246D-05-0.654D-05-0.856D-05-0.649D-04-0.245D-03
 Coeff-Com: -0.100D-02-0.209D-02-0.304D-04 0.371D-01 0.345D+00 0.621D+00
 Coeff:     -0.124D-05 0.246D-05-0.654D-05-0.856D-05-0.649D-04-0.245D-03
 Coeff:     -0.100D-02-0.209D-02-0.304D-04 0.371D-01 0.345D+00 0.621D+00
 Gap=     0.236 Goal=   None    Shift=    0.000
 RMSDP=7.75D-09 MaxDP=4.74D-07 DE=-8.07D-12 OVMax= 1.83D-07

 Error on total polarization charges =  0.01194
 SCF Done:  E(RB3LYP) =  -323.834534506     A.U. after   12 cycles
             Convg  =    0.7755D-08             -V/T =  2.0037
 KE= 3.226402915751D+02 PE=-1.257001656249D+03 EE= 3.612498948791D+02
 Leave Link  502 at Sat Apr 16 01:07:04 2016, MaxMem=   33554432 cpu:     135.0
 (Enter c:\G09w03\l601.exe)
 Copying SCF densities to generalized density rwf, IOpCl= 0 IROHF=0.

 **********************************************************************

            Population analysis using the SCF density.

 **********************************************************************

 Alpha  occ. eigenvalues --  -19.19057 -19.11658 -14.31181 -10.32372 -10.23701
 Alpha  occ. eigenvalues --  -10.17565  -1.16177  -0.99657  -0.91298  -0.76585
 Alpha  occ. eigenvalues --   -0.68324  -0.60177  -0.53196  -0.51130  -0.49287
 Alpha  occ. eigenvalues --   -0.48212  -0.44175  -0.42480  -0.42101  -0.38320
 Alpha  occ. eigenvalues --   -0.37548  -0.32211  -0.29552  -0.26539
 Alpha virt. eigenvalues --   -0.02943  -0.00992   0.00897   0.01759   0.01863
 Alpha virt. eigenvalues --    0.04408   0.05267   0.05990   0.06639   0.07145
 Alpha virt. eigenvalues --    0.08180   0.10023   0.10193   0.10968   0.11774
 Alpha virt. eigenvalues --    0.12508   0.12884   0.13653   0.13959   0.15105
 Alpha virt. eigenvalues --    0.16364   0.16755   0.18107   0.18440   0.19848
 Alpha virt. eigenvalues --    0.20320   0.21515   0.21743   0.23176   0.23727
 Alpha virt. eigenvalues --    0.24405   0.26825   0.27061   0.28154   0.28593
 Alpha virt. eigenvalues --    0.28812   0.30069   0.32039   0.34297   0.34990
 Alpha virt. eigenvalues --    0.36158   0.36767   0.39879   0.43265   0.45679
 Alpha virt. eigenvalues --    0.47774   0.52523   0.52855   0.54944   0.56208
 Alpha virt. eigenvalues --    0.57520   0.61266   0.63890   0.65074   0.67321
 Alpha virt. eigenvalues --    0.67715   0.69659   0.70429   0.73484   0.74570
 Alpha virt. eigenvalues --    0.80483   0.83806   0.84583   0.87336   0.94924
 Alpha virt. eigenvalues --    1.00790   1.01489   1.05854   1.07913   1.10820
 Alpha virt. eigenvalues --    1.13092   1.14397   1.16351   1.19307   1.20901
 Alpha virt. eigenvalues --    1.25100   1.28812   1.34129   1.38202   1.40811
 Alpha virt. eigenvalues --    1.44935   1.47453   1.51712   1.53766   1.56267
 Alpha virt. eigenvalues --    1.57619   1.60613   1.61572   1.63213   1.66950
 Alpha virt. eigenvalues --    1.68770   1.70396   1.75074   1.78458   1.83119
 Alpha virt. eigenvalues --    1.87219   1.89328   1.92236   1.95489   2.00933
 Alpha virt. eigenvalues --    2.03524   2.08175   2.12330   2.15014   2.26939
 Alpha virt. eigenvalues --    2.27888   2.33571   2.46450   2.48207   2.53176
 Alpha virt. eigenvalues --    2.53885   2.57960   2.59533   2.61082   2.63390
 Alpha virt. eigenvalues --    2.66108   2.67943   2.71712   2.76985   2.81514
 Alpha virt. eigenvalues --    2.83056   2.85520   2.89693   2.95054   2.99056
 Alpha virt. eigenvalues --    2.99613   3.03127   3.08448   3.12466   3.20110
 Alpha virt. eigenvalues --    3.23114   3.27825   3.33327   3.49090   3.59590
 Alpha virt. eigenvalues --    3.70542   3.74204   3.79887   3.80348   4.04090
 Alpha virt. eigenvalues --    4.07472   4.11902   4.22697   4.72200   4.85025
 Alpha virt. eigenvalues --    4.96013   5.04386   5.14822   5.45707   5.51291
 Alpha virt. eigenvalues --    5.77932  23.76765  23.80180  23.95661  35.58595
 Alpha virt. eigenvalues --   49.84919  49.98200
          Condensed to atoms (all electrons):
              1          2          3          4          5          6
     1  N    6.700781   0.390765   0.074562  -0.052910  -0.133430   0.037586
     2  H    0.390765   0.431182  -0.021744   0.006005   0.005495  -0.020244
     3  C    0.074562  -0.021744   6.858511   0.491515   0.131109  -0.952652
     4  H   -0.052910   0.006005   0.491515   0.492878  -0.083193  -0.072361
     5  C   -0.133430   0.005495   0.131109  -0.083193   5.505556  -0.106103
     6  C    0.037586  -0.020244  -0.952652  -0.072361  -0.106103   6.311707
     7  H   -0.014380  -0.000689   0.021740   0.009053   0.371668  -0.025962
     8  H    0.017481  -0.001592  -0.065200  -0.009650   0.409409   0.008411
     9  H   -0.013547   0.001618  -0.022465  -0.008383   0.417333  -0.016448
    10  O    0.015138   0.000270  -0.243319   0.004188  -0.065842   0.386849
    11  H    0.394769  -0.044143  -0.078905  -0.008604   0.005687   0.031887
    12  O   -0.003462   0.000216  -0.062178  -0.001503  -0.032721   0.439835
    13  H    0.000763   0.000496  -0.005244  -0.001480  -0.000029  -0.003203
              7          8          9         10         11         12
     1  N   -0.014380   0.017481  -0.013547   0.015138   0.394769  -0.003462
     2  H   -0.000689  -0.001592   0.001618   0.000270  -0.044143   0.000216
     3  C    0.021740  -0.065200  -0.022465  -0.243319  -0.078905  -0.062178
     4  H    0.009053  -0.009650  -0.008383   0.004188  -0.008604  -0.001503
     5  C    0.371668   0.409409   0.417333  -0.065842   0.005687  -0.032721
     6  C   -0.025962   0.008411  -0.016448   0.386849   0.031887   0.439835
     7  H    0.545450  -0.035106  -0.040966   0.005866   0.003578  -0.002805
     8  H   -0.035106   0.533293  -0.023136   0.002284  -0.000623   0.009878
     9  H   -0.040966  -0.023136   0.536921  -0.004828  -0.000533  -0.001800
    10  O    0.005866   0.002284  -0.004828   7.989978   0.000828  -0.225291
    11  H    0.003578  -0.000623  -0.000533   0.000828   0.427562  -0.001122
    12  O   -0.002805   0.009878  -0.001800  -0.225291  -0.001122   8.307391
    13  H   -0.000207   0.000030  -0.000167   0.267709  -0.000054   0.024426
             13
     1  N    0.000763
     2  H    0.000496
     3  C   -0.005244
     4  H   -0.001480
     5  C   -0.000029
     6  C   -0.003203
     7  H   -0.000207
     8  H    0.000030
     9  H   -0.000167
    10  O    0.267709
    11  H   -0.000054
    12  O    0.024426
    13  H    0.398339
 Mulliken atomic charges:
              1
     1  N   -0.414116
     2  H    0.252363
     3  C   -0.125731
     4  H    0.234443
     5  C   -0.424938
     6  C   -0.019301
     7  H    0.162760
     8  H    0.154520
     9  H    0.176401
    10  O   -0.133831
    11  H    0.269674
    12  O   -0.450863
    13  H    0.318620
 Sum of Mulliken atomic charges =   0.00000
 Mulliken charges with hydrogens summed into heavy atoms:
              1
     1  N    0.107921
     3  C    0.108712
     5  C    0.068743
     6  C   -0.019301
    10  O    0.184789
    12  O   -0.450863
 Sum of Mulliken charges with hydrogens summed into heavy atoms =   0.00000
 Electronic spatial extent (au):  <R**2>=            588.9559
 Charge=              0.0000 electrons
 Dipole moment (field-independent basis, Debye):
    X=             -3.4576    Y=             -0.1701    Z=              1.3318  Tot=              3.7092
 Quadrupole moment (field-independent basis, Debye-Ang):
   XX=            -32.1126   YY=            -42.6983   ZZ=            -36.5510
   XY=             -4.1153   XZ=              1.9283   YZ=             -0.4339
 Traceless Quadrupole moment (field-independent basis, Debye-Ang):
   XX=              5.0080   YY=             -5.5776   ZZ=              0.5696
   XY=             -4.1153   XZ=              1.9283   YZ=             -0.4339
 Octapole moment (field-independent basis, Debye-Ang**2):
  XXX=             -3.0417  YYY=              4.7379  ZZZ=              0.9585  XYY=             -3.5379
  XXY=            -13.7460  XXZ=              3.3546  XZZ=             -1.1887  YZZ=             -0.3094
  YYZ=              5.2623  XYZ=              5.1737
 Hexadecapole moment (field-independent basis, Debye-Ang**3):
 XXXX=           -356.3854 YYYY=           -259.9612 ZZZZ=            -89.5429 XXXY=             -9.1745
 XXXZ=             23.0417 YYYX=             -1.4580 YYYZ=            -10.1582 ZZZX=              2.3241
 ZZZY=             -4.4672 XXYY=           -111.3574 XXZZ=            -83.8840 YYZZ=            -59.7477
 XXYZ=              1.0321 YYXZ=             -3.5046 ZZXY=              0.3880
 N-N= 2.492769352896D+02 E-N=-1.257001646960D+03  KE= 3.226402915751D+02
 No NMR shielding tensors so no spin-rotation constants.
 Leave Link  601 at Sat Apr 16 01:07:04 2016, MaxMem=   33554432 cpu:       0.0
 (Enter c:\G09w03\l701.exe)
 Compute integral first derivatives.
 ... and contract with generalized density number  0.
 D1PCM: C-PCM CHGder 1st derivatives, ID1Alg=3 FixD1E=F DoIter=F DoCFld=F I1PDM=0.
 GePol: Maximum number of non-zero 1st derivatives   =     202
 Leave Link  701 at Sat Apr 16 01:07:08 2016, MaxMem=   33554432 cpu:       4.0
 (Enter c:\G09w03\l702.exe)
 L702 exits ... SP integral derivatives will be done elsewhere.
 Leave Link  702 at Sat Apr 16 01:07:08 2016, MaxMem=   33554432 cpu:       0.0
 (Enter c:\G09w03\l703.exe)
 Compute integral first derivatives, UseDBF=F ICtDFT=           0.
 Integral derivatives from FoFDir, PRISM(SPDF).
 Calling FoFJK, ICntrl=      2127 FMM=F ISym2X=0 I1Cent= 0 IOpClX= 0 NMat=1 NMatS=1 NMatT=0.
 FoFCou: FMM=F IPFlag=           0 FMFlag=      100000 FMFlg1=         800
         NFxFlg=           0 DoJE=F BraDBF=F KetDBF=F FulRan=T
         Omega=  0.000000  0.000000  1.000000  0.000000  0.000000 ICntrl=    2127 IOpCl=  0
         NMat0=    1 NMatS0=    1 NMatT0=    0 NMatD0=    1 NMtDS0=    0 NMtDT0=    0
         I1Cent=           0 NGrid=           0.
 Symmetry not used in FoFCou.
 Leave Link  703 at Sat Apr 16 01:07:40 2016, MaxMem=   33554432 cpu:      32.0
 (Enter c:\G09w03\l716.exe)
 Dipole        =-1.36034227D+00-6.69395554D-02 5.23967435D-01
 -------------------------------------------------------------------
 Center     Atomic                   Forces (Hartrees/Bohr)
 Number     Number              X              Y              Z
 -------------------------------------------------------------------
      1        7          -0.001154451   -0.000934811    0.000039021
      2        1          -0.000871720   -0.000120483    0.000134114
      3        6          -0.000794733   -0.003645988    0.004976815
      4        1           0.001612107   -0.000468795    0.000704012
      5        6          -0.000291135   -0.000157858   -0.000002367
      6        6           0.042406484    0.076775420   -0.032445054
      7        1          -0.000134165    0.000057347    0.000080879
      8        1           0.000173808   -0.000453291   -0.000162970
      9        1          -0.000207992   -0.000059533    0.000002682
     10        8           0.019898153   -0.043488851    0.017704809
     11        1          -0.000091583   -0.000582550    0.000140607
     12        8          -0.048919654   -0.001626565   -0.011897427
     13        1          -0.011625118   -0.025294042    0.020724879
 -------------------------------------------------------------------
 Cartesian Forces:  Max     0.076775420 RMS     0.019698845
 Leave Link  716 at Sat Apr 16 01:07:41 2016, MaxMem=   33554432 cpu:       0.0
 (Enter c:\G09w03\l103.exe)

 GradGradGradGradGradGradGradGradGradGradGradGradGradGradGradGradGradGrad
 Berny optimization.
 Internal  Forces:  Max     0.074393989 RMS     0.017644380
 Search for a local minimum.
 Step number   1 out of a maximum of   64
 All quantities printed in internal units (Hartrees-Bohrs-Radians)
 RMS Force = .17644D-01 SwitMx=.10000D-02 MixMth= 1
 Mixed Optimization -- RFO/linear search
 Second derivative matrix not updated -- first step.
 ITU=  0
     Eigenvalues ---    0.00230   0.00744   0.00864   0.01273   0.03331
     Eigenvalues ---    0.04129   0.04407   0.05103   0.05423   0.05701
     Eigenvalues ---    0.06853   0.16000   0.16000   0.16000   0.16000
     Eigenvalues ---    0.16000   0.16000   0.17706   0.18900   0.24992
     Eigenvalues ---    0.25000   0.27966   0.32204   0.34398   0.34471
     Eigenvalues ---    0.34579   0.34626   0.36642   0.43931   0.44859
     Eigenvalues ---    0.45057   0.73630   0.74289
 RFO step:  Lambda=-4.60498084D-02 EMin= 2.30000000D-03
 Linear search not attempted -- first point.
 Maximum step size (   0.300) exceeded in Quadratic search.
    -- Step size scaled by   0.771
 Iteration  1 RMS(Cart)=  0.08524818 RMS(Int)=  0.00917205
 Iteration  2 RMS(Cart)=  0.01015245 RMS(Int)=  0.00013610
 Iteration  3 RMS(Cart)=  0.00007337 RMS(Int)=  0.00012708
 Iteration  4 RMS(Cart)=  0.00000001 RMS(Int)=  0.00012708
 Variable       Old X    -DE/DX   Delta X   Delta X   Delta X     New X
                                 (Linear)    (Quad)   (Total)
    R1        1.92140   0.00017   0.00000   0.00027   0.00027   1.92166
    R2        2.76389   0.00243   0.00000   0.00454   0.00454   2.76844
    R3        1.91910   0.00000   0.00000   0.00000   0.00000   1.91910
    R4        2.06663  -0.00090   0.00000  -0.00178  -0.00178   2.06485
    R5        2.92212  -0.00031   0.00000  -0.00073  -0.00073   2.92139
    R6        2.83772  -0.00006   0.00000  -0.00012  -0.00012   2.83760
    R7        2.06542   0.00006   0.00000   0.00013   0.00013   2.06555
    R8        2.06364  -0.00029   0.00000  -0.00057  -0.00057   2.06308
    R9        2.06286   0.00019   0.00000   0.00037   0.00037   2.06323
   R10        2.41150   0.07439   0.00000   0.07274   0.07274   2.48425
   R11        2.41545  -0.03211   0.00000  -0.03167  -0.03167   2.38378
   R12        1.93237  -0.02378   0.00000  -0.03779  -0.03779   1.89458
    A1        1.92781   0.00058   0.00000   0.00210   0.00210   1.92991
    A2        1.86411  -0.00072   0.00000  -0.00285  -0.00285   1.86126
    A3        1.90684   0.00080   0.00000   0.00290   0.00290   1.90974
    A4        1.88383   0.00027   0.00000   0.00070   0.00071   1.88454
    A5        2.01703  -0.00128   0.00000  -0.00263  -0.00265   2.01439
    A6        1.92054   0.00119   0.00000   0.00518   0.00518   1.92572
    A7        1.88819   0.00064   0.00000   0.00219   0.00219   1.89038
    A8        1.84938  -0.00151   0.00000  -0.00905  -0.00905   1.84034
    A9        1.89731   0.00062   0.00000   0.00283   0.00283   1.90014
   A10        1.93135   0.00027   0.00000   0.00102   0.00102   1.93237
   A11        1.94399  -0.00062   0.00000  -0.00239  -0.00239   1.94160
   A12        1.89891   0.00005   0.00000   0.00024   0.00024   1.89915
   A13        1.90001   0.00015   0.00000   0.00045   0.00045   1.90046
   A14        1.89426  -0.00012   0.00000  -0.00031  -0.00031   1.89396
   A15        1.89433   0.00028   0.00000   0.00103   0.00103   1.89536
   A16        2.20048  -0.04431   0.00000  -0.11526  -0.11528   2.08519
   A17        2.17365  -0.02453   0.00000  -0.06379  -0.06383   2.10982
   A18        1.90826   0.06885   0.00000   0.17963   0.17962   2.08788
   A19        1.58903   0.04810   0.00000   0.18007   0.18007   1.76910
    D1       -3.07843  -0.00016   0.00000   0.00014   0.00015  -3.07828
    D2       -0.96254   0.00002   0.00000   0.00174   0.00174  -0.96079
    D3        1.19419   0.00086   0.00000   0.00778   0.00778   1.20197
    D4       -1.03284  -0.00022   0.00000  -0.00035  -0.00035  -1.03319
    D5        1.08305  -0.00004   0.00000   0.00124   0.00125   1.08430
    D6       -3.04340   0.00080   0.00000   0.00728   0.00728  -3.03613
    D7        1.05810   0.00040   0.00000   0.00205   0.00205   1.06015
    D8       -3.10899   0.00035   0.00000   0.00171   0.00170  -3.10728
    D9       -1.02156   0.00035   0.00000   0.00167   0.00167  -1.01990
   D10       -3.11155   0.00038   0.00000   0.00285   0.00285  -3.10870
   D11       -0.99545   0.00033   0.00000   0.00250   0.00250  -0.99295
   D12        1.09198   0.00032   0.00000   0.00246   0.00246   1.09444
   D13       -1.11078  -0.00074   0.00000  -0.00519  -0.00519  -1.11597
   D14        1.00532  -0.00079   0.00000  -0.00554  -0.00554   0.99978
   D15        3.09274  -0.00079   0.00000  -0.00558  -0.00557   3.08717
   D16       -0.35875   0.00123   0.00000   0.01121   0.01102  -0.34774
   D17        2.83035  -0.00073   0.00000  -0.01074  -0.01056   2.81978
   D18       -2.39102   0.00115   0.00000   0.01277   0.01259  -2.37843
   D19        0.79808  -0.00081   0.00000  -0.00918  -0.00899   0.78909
   D20        1.86625   0.00088   0.00000   0.01354   0.01336   1.87961
   D21       -1.22784  -0.00108   0.00000  -0.00841  -0.00822  -1.23605
   D22        3.06977   0.00427   0.00000   0.03417   0.03359   3.10336
   D23       -0.11329   0.00428   0.00000   0.04889   0.04946  -0.06383
         Item               Value     Threshold  Converged?
 Maximum Force            0.074394     0.000450     NO 
 RMS     Force            0.017644     0.000300     NO 
 Maximum Displacement     0.405384     0.001800     NO 
 RMS     Displacement     0.088030     0.001200     NO 
 Predicted change in Energy=-2.399678D-02
 GradGradGradGradGradGradGradGradGradGradGradGradGradGradGradGradGradGrad

 Leave Link  103 at Sat Apr 16 01:07:41 2016, MaxMem=   33554432 cpu:       0.0
 (Enter c:\G09w03\l202.exe)
                          Input orientation:                          
 ---------------------------------------------------------------------
 Center     Atomic      Atomic             Coordinates (Angstroms)
 Number     Number       Type             X           Y           Z
 ---------------------------------------------------------------------
      1          7           0       -1.320809   -1.200322   -0.282925
      2          1           0       -1.318987   -1.505191    0.687199
      3          6           0       -0.695089    0.118267   -0.409416
      4          1           0       -0.777843    0.432114   -1.452770
      5          6           0       -1.299956    1.227878    0.480984
      6          6           0        0.778377    0.025101   -0.135553
      7          1           0       -1.207291    0.968326    1.538712
      8          1           0       -0.807212    2.186581    0.307852
      9          1           0       -2.359950    1.332912    0.241325
     10          8           0        1.248207   -1.004963    0.532595
     11          1           0       -2.293912   -1.140978   -0.567323
     12          8           0        1.566041    0.934976   -0.513639
     13          1           0        2.232292   -0.813499    0.524400
 ---------------------------------------------------------------------
                    Distance matrix (angstroms):
                    1          2          3          4          5
     1  N    0.000000
     2  H    1.016901   0.000000
     3  C    1.464993   2.056072   0.000000
     4  H    2.080432   2.936913   1.092674   0.000000
     5  C    2.545614   2.740904   1.545934   2.155284   0.000000
     6  C    2.435151   2.723536   1.501594   2.079072   2.479165
     7  H    2.834481   2.618366   2.186357   3.069351   1.093043
     8  H    3.476192   3.746331   2.192023   2.485721   1.091733
     9  H    2.787818   3.055689   2.161154   2.486857   1.091814
    10  O    2.702421   2.620041   2.434220   3.179896   3.388417
    11  H    1.015546   1.630017   2.041290   2.357350   2.774594
    12  O    3.598143   3.964822   2.406364   2.574613   3.047787
    13  H    3.664141   3.621674   3.210881   3.810730   4.079936
                    6          7          8          9         10
     6  C    0.000000
     7  H    2.763280   0.000000
     8  H    2.717112   1.777421   0.000000
     9  H    3.420746   1.773347   1.773182   0.000000
    10  O    1.314607   3.306904   3.802789   4.309210   0.000000
    11  H    3.314381   3.172584   3.748180   2.603536   3.711458
    12  O    1.261443   3.450309   2.806010   4.017677   2.226878
    13  H    1.803512   4.004306   4.276208   5.076997   1.002571
                   11         12         13
    11  H    0.000000
    12  O    4.383116   0.000000
    13  H    4.667506   2.139762   0.000000
 Symmetry turned off by external request.
 Stoichiometry    C3H7NO2
 Framework group  C1[X(C3H7NO2)]
 Deg. of freedom    33
 Full point group                 C1      NOp   1
 Rotational constants (GHZ):      5.0038943      3.1126334      2.2671947
 Leave Link  202 at Sat Apr 16 01:07:41 2016, MaxMem=   33554432 cpu:       0.0
 (Enter c:\G09w03\l301.exe)
 Standard basis: 6-311++G(d,p) (5D, 7F)
 Ernie: Thresh=  0.10000D-02 Tol=  0.10000D-05 Strict=F.
 Integral buffers will be    262144 words long.
 Raffenetti 2 integral format.
 Two-electron integral symmetry is turned off.
   181 basis functions,   279 primitive gaussians,   187 cartesian basis functions
    24 alpha electrons       24 beta electrons
       nuclear repulsion energy       248.6305532537 Hartrees.
 IExCor=  402 DFT=T Ex+Corr=B3LYP ExCW=0 ScaHFX=  0.200000
 ScaDFX=  0.800000  0.720000  1.000000  0.810000 ScalE2=  1.000000  1.000000
 IRadAn=      0 IRanWt=     -1 IRanGd=            0 ICorTp=0
 NAtoms=   13 NActive=   13 NUniq=   13 SFac= 1.00D+00 NAtFMM=   50 NAOKFM=F Big=F
 ------------------------------------------------------------------------------
 Polarizable Continuum Model (PCM)
 =================================
 Model                : C-PCM.
 Atomic radii         : UFF (Universal Force Field).
 Polarization charges : Total charges.
 Charge compensation  : None.
 Solution method      : Matrix inversion.
 Cavity type          : Scaled VdW (van der Waals Surface) (Alpha=1.100).
 Cavity algorithm     : GePol (No added spheres)
                        Default sphere list used, NSphG=   13.
                        Lebedev-Laikov grids with approx.  5.0 points / Ang**2.
                        Smoothing algorithm: Karplus/York (Gamma=1.0000).
                        Polarization charges: spherical gaussians, with
                                              point-specific exponents (IZeta= 3).
                        Self-potential: point-specific (ISelfS= 7).
                        Self-field    : sphere-specific E.n sum rule (ISelfD= 2).
 1st derivatives      : Analytical E(r).r(x)/FMM algorithm (CHGder, D1EAlg=3).
                        Cavity 1st derivative terms included.
 Solvent              : Water, Eps=  78.355300 Eps(inf)=   1.777849
 ------------------------------------------------------------------------------
 Spheres list:
 ISph  on   Nord    Re0     Alpha      Xe            Ye            Ze
    1   N      1    1.830   1.100     -1.320809     -1.200322     -0.282925
    2   H      2    1.443   1.100     -1.318987     -1.505191      0.687199
    3   C      3    1.926   1.100     -0.695089      0.118267     -0.409416
    4   H      4    1.443   1.100     -0.777843      0.432114     -1.452770
    5   C      5    1.926   1.100     -1.299956      1.227878      0.480984
    6   C      6    1.926   1.100      0.778377      0.025101     -0.135553
    7   H      7    1.443   1.100     -1.207291      0.968326      1.538712
    8   H      8    1.443   1.100     -0.807212      2.186581      0.307852
    9   H      9    1.443   1.100     -2.359950      1.332912      0.241325
   10   O     10    1.750   1.100      1.248207     -1.004963      0.532595
   11   H     11    1.443   1.100     -2.293912     -1.140978     -0.567323
   12   O     12    1.750   1.100      1.566041      0.934976     -0.513639
   13   H     13    1.443   1.100      2.232292     -0.813499      0.524400
 ------------------------------------------------------------------------------
 GePol: Number of generator spheres                  =      13
 GePol: Total number of spheres                      =      13
 GePol: Number of exposed spheres                    =      13 (100.00%)
 GePol: Number of points                             =    1106
 GePol: Average weight of points                     =       0.14
 GePol: Minimum weight of points                     =   0.17D-08
 GePol: Maximum weight of points                     =    0.20577
 GePol: Number of points with low weight             =      62
 GePol: Fraction of low-weight points (<1% of avg)   =       5.61%
 GePol: Cavity surface area                          =    151.418 Ang**2
 GePol: Cavity volume                                =    138.997 Ang**3
 Leave Link  301 at Sat Apr 16 01:07:41 2016, MaxMem=   33554432 cpu:       0.0
 (Enter c:\G09w03\l302.exe)
 NPDir=0 NMtPBC=     1 NCelOv=     1 NCel=       1 NClECP=     1 NCelD=      1
         NCelK=      1 NCelE2=     1 NClLst=     1 CellRange=     0.0.
 One-electron integrals computed using PRISM.
 NBasis=   181 RedAO= T  NBF=   181
 NBsUse=   181 1.00D-06 NBFU=   181
 Precomputing XC quadrature grid using
 IXCGrd= 2 IRadAn=           0 IRanWt=          -1 IRanGd=           0 AccXCQ= 0.00D+00.
 NRdTot=     842 NPtTot=      107058 NUsed=      110990 NTot=      111006
 NSgBfM=   187   187   187   187   187 NAtAll=    13    13.
 Leave Link  302 at Sat Apr 16 01:07:41 2016, MaxMem=   33554432 cpu:       0.0
 (Enter c:\G09w03\l303.exe)
 DipDrv:  MaxL=1.
 Leave Link  303 at Sat Apr 16 01:07:41 2016, MaxMem=   33554432 cpu:       0.0
 (Enter c:\G09w03\l401.exe)
 Initial guess read from the read-write file.
 B after Tr=     0.000000    0.000000    0.000000
         Rot=    1.000000    0.000000    0.000000    0.000000 Ang=   0.00 deg.
 Guess basis will be translated and rotated to current coordinates.
 Generating alternative initial guess.
 Harris functional with IExCor=  402 diagonalized for initial guess.
 ExpMin= 3.60D-02 ExpMax= 8.59D+03 ExpMxC= 1.30D+03 IAcc=3 IRadAn=         0 AccDes= 0.00D+00
 HarFok:  IExCor=  402 AccDes= 0.00D+00 IRadAn=         0 IDoV= 1
 ScaDFX=  1.000000  1.000000  1.000000  1.000000
 FoFCou: FMM=F IPFlag=           0 FMFlag=      100000 FMFlg1=           0
         NFxFlg=           0 DoJE=T BraDBF=F KetDBF=T FulRan=T
         Omega=  0.000000  0.000000  1.000000  0.000000  0.000000 ICntrl=     500 IOpCl=  0
         NMat0=    1 NMatS0=    1 NMatT0=    0 NMatD0=    1 NMtDS0=    0 NMtDT0=    0
         I1Cent=           4 NGrid=           0.
 Symmetry not used in FoFCou.
 Harris En= -323.873338294225    
 Leave Link  401 at Sat Apr 16 01:07:46 2016, MaxMem=   33554432 cpu:       5.0
 (Enter c:\G09w03\l502.exe)
 Closed shell SCF:
 Requested convergence on RMS density matrix=1.00D-08 within 128 cycles.
 Requested convergence on MAX density matrix=1.00D-06.
 Requested convergence on             energy=1.00D-06.
 No special actions if energy rises.
 Using DIIS extrapolation, IDIIS=  1040.
 Two-electron integral symmetry not used.
       110873 words used for storage of precomputed grid.
 IEnd=      236079 IEndB=      236079 NGot=    33554432 MDV=    33370150
 LenX=    33370150 LenY=    33334740
 Fock matrices will be formed incrementally for  20 cycles.

 Cycle   1  Pass 1  IDiag  1:
 FoFCou: FMM=F IPFlag=           0 FMFlag=      100000 FMFlg1=           0
         NFxFlg=           0 DoJE=F BraDBF=F KetDBF=F FulRan=T
         Omega=  0.000000  0.000000  1.000000  0.000000  0.000000 ICntrl=       0 IOpCl=  0
         NMat0=    1 NMatS0=    1 NMatT0=    0 NMatD0=    1 NMtDS0=    0 NMtDT0=    0
         I1Cent=           0 NGrid=           0.
 Symmetry not used in FoFCou.
 E= -323.837051479225    
 DIIS: error= 6.62D-03 at cycle   1 NSaved=   1.
 NSaved= 1 IEnMin= 1 EnMin= -323.837051479225     IErMin= 1 ErrMin= 6.62D-03
 ErrMax= 6.62D-03 EMaxC= 1.00D-01 BMatC= 1.50D-02 BMatP= 1.50D-02
 IDIUse=3 WtCom= 9.34D-01 WtEn= 6.62D-02
 Coeff-Com:  0.100D+01
 Coeff-En:   0.100D+01
 Coeff:      0.100D+01
 Gap=     0.241 Goal=   None    Shift=    0.000
 GapD=    0.241 DampG=1.000 DampE=1.000 DampFc=1.0000 IDamp=-1.
 RMSDP=4.22D-03 MaxDP=2.86D-01              OVMax= 5.22D-02

 Cycle   2  Pass 1  IDiag  1:
 RMSU=  2.61D-03    CP:  8.78D-01
 E= -323.856433666654     Delta-E=       -0.019382187429 Rises=F Damp=F
 DIIS: error= 1.28D-03 at cycle   2 NSaved=   2.
 NSaved= 2 IEnMin= 2 EnMin= -323.856433666654     IErMin= 2 ErrMin= 1.28D-03
 ErrMax= 1.28D-03 EMaxC= 1.00D-01 BMatC= 5.13D-04 BMatP= 1.50D-02
 IDIUse=3 WtCom= 9.87D-01 WtEn= 1.28D-02
 Coeff-Com:  0.875D-03 0.999D+00
 Coeff-En:   0.000D+00 0.100D+01
 Coeff:      0.864D-03 0.999D+00
 Gap=     0.234 Goal=   None    Shift=    0.000
 RMSDP=2.82D-04 MaxDP=4.65D-03 DE=-1.94D-02 OVMax= 1.41D-02

 Cycle   3  Pass 1  IDiag  1:
 RMSU=  1.93D-04    CP:  8.76D-01  1.02D+00
 E= -323.856019867199     Delta-E=        0.000413799456 Rises=F Damp=F
 DIIS: error= 2.44D-03 at cycle   3 NSaved=   3.
 NSaved= 3 IEnMin= 2 EnMin= -323.856433666654     IErMin= 2 ErrMin= 1.28D-03
 ErrMax= 2.44D-03 EMaxC= 1.00D-01 BMatC= 1.20D-03 BMatP= 5.13D-04
 IDIUse=3 WtCom= 1.68D-01 WtEn= 8.32D-01
 Coeff-Com: -0.222D-01 0.634D+00 0.388D+00
 Coeff-En:   0.000D+00 0.662D+00 0.338D+00
 Coeff:     -0.375D-02 0.658D+00 0.346D+00
 Gap=     0.235 Goal=   None    Shift=    0.000
 RMSDP=1.43D-04 MaxDP=3.20D-03 DE= 4.14D-04 OVMax= 1.21D-02

 Cycle   4  Pass 1  IDiag  1:
 RMSU=  6.40D-05    CP:  8.76D-01  1.02D+00  5.97D-01
 E= -323.856850222661     Delta-E=       -0.000830355462 Rises=F Damp=F
 DIIS: error= 3.80D-04 at cycle   4 NSaved=   4.
 NSaved= 4 IEnMin= 4 EnMin= -323.856850222661     IErMin= 4 ErrMin= 3.80D-04
 ErrMax= 3.80D-04 EMaxC= 1.00D-01 BMatC= 2.65D-05 BMatP= 5.13D-04
 IDIUse=3 WtCom= 9.96D-01 WtEn= 3.80D-03
 Coeff-Com: -0.128D-01 0.186D+00 0.146D+00 0.680D+00
 Coeff-En:   0.000D+00 0.000D+00 0.000D+00 0.100D+01
 Coeff:     -0.128D-01 0.185D+00 0.146D+00 0.681D+00
 Gap=     0.235 Goal=   None    Shift=    0.000
 RMSDP=5.98D-05 MaxDP=2.63D-03 DE=-8.30D-04 OVMax= 1.70D-03

 Cycle   5  Pass 1  IDiag  1:
 RMSU=  2.87D-05    CP:  8.74D-01  1.03D+00  6.28D-01  7.54D-01
 E= -323.856862460060     Delta-E=       -0.000012237400 Rises=F Damp=F
 DIIS: error= 2.21D-04 at cycle   5 NSaved=   5.
 NSaved= 5 IEnMin= 5 EnMin= -323.856862460060     IErMin= 5 ErrMin= 2.21D-04
 ErrMax= 2.21D-04 EMaxC= 1.00D-01 BMatC= 9.71D-06 BMatP= 2.65D-05
 IDIUse=3 WtCom= 9.98D-01 WtEn= 2.21D-03
 Coeff-Com: -0.539D-02 0.638D-01 0.547D-01 0.415D+00 0.472D+00
 Coeff-En:   0.000D+00 0.000D+00 0.000D+00 0.282D+00 0.718D+00
 Coeff:     -0.538D-02 0.637D-01 0.546D-01 0.415D+00 0.472D+00
 Gap=     0.235 Goal=   None    Shift=    0.000
 RMSDP=1.62D-05 MaxDP=7.17D-04 DE=-1.22D-05 OVMax= 8.49D-04

 Cycle   6  Pass 1  IDiag  1:
 RMSU=  8.67D-06    CP:  8.74D-01  1.03D+00  6.16D-01  7.95D-01  8.07D-01
 E= -323.856869645601     Delta-E=       -0.000007185540 Rises=F Damp=F
 DIIS: error= 3.63D-05 at cycle   6 NSaved=   6.
 NSaved= 6 IEnMin= 6 EnMin= -323.856869645601     IErMin= 6 ErrMin= 3.63D-05
 ErrMax= 3.63D-05 EMaxC= 1.00D-01 BMatC= 3.93D-07 BMatP= 9.71D-06
 IDIUse=1 WtCom= 1.00D+00 WtEn= 0.00D+00
 Coeff-Com: -0.124D-02 0.108D-01 0.103D-01 0.128D+00 0.223D+00 0.629D+00
 Coeff:     -0.124D-02 0.108D-01 0.103D-01 0.128D+00 0.223D+00 0.629D+00
 Gap=     0.235 Goal=   None    Shift=    0.000
 RMSDP=3.53D-06 MaxDP=1.12D-04 DE=-7.19D-06 OVMax= 1.48D-04

 Cycle   7  Pass 1  IDiag  1:
 RMSU=  2.06D-06    CP:  8.74D-01  1.03D+00  6.20D-01  8.01D-01  8.32D-01
                    CP:  9.44D-01
 E= -323.856869884005     Delta-E=       -0.000000238404 Rises=F Damp=F
 DIIS: error= 1.32D-05 at cycle   7 NSaved=   7.
 NSaved= 7 IEnMin= 7 EnMin= -323.856869884005     IErMin= 7 ErrMin= 1.32D-05
 ErrMax= 1.32D-05 EMaxC= 1.00D-01 BMatC= 4.08D-08 BMatP= 3.93D-07
 IDIUse=1 WtCom= 1.00D+00 WtEn= 0.00D+00
 Coeff-Com:  0.965D-04-0.401D-02-0.220D-02 0.751D-02 0.525D-01 0.297D+00
 Coeff-Com:  0.650D+00
 Coeff:      0.965D-04-0.401D-02-0.220D-02 0.751D-02 0.525D-01 0.297D+00
 Coeff:      0.650D+00
 Gap=     0.235 Goal=   None    Shift=    0.000
 RMSDP=1.29D-06 MaxDP=3.25D-05 DE=-2.38D-07 OVMax= 3.85D-05

 Cycle   8  Pass 1  IDiag  1:
 RMSU=  6.13D-07    CP:  8.74D-01  1.03D+00  6.21D-01  8.02D-01  8.48D-01
                    CP:  9.62D-01  8.31D-01
 E= -323.856869915790     Delta-E=       -0.000000031786 Rises=F Damp=F
 DIIS: error= 2.24D-06 at cycle   8 NSaved=   8.
 NSaved= 8 IEnMin= 8 EnMin= -323.856869915790     IErMin= 8 ErrMin= 2.24D-06
 ErrMax= 2.24D-06 EMaxC= 1.00D-01 BMatC= 1.11D-09 BMatP= 4.08D-08
 IDIUse=1 WtCom= 1.00D+00 WtEn= 0.00D+00
 Coeff-Com:  0.650D-04-0.144D-02-0.522D-03-0.258D-02 0.911D-02 0.606D-01
 Coeff-Com:  0.184D+00 0.751D+00
 Coeff:      0.650D-04-0.144D-02-0.522D-03-0.258D-02 0.911D-02 0.606D-01
 Coeff:      0.184D+00 0.751D+00
 Gap=     0.235 Goal=   None    Shift=    0.000
 RMSDP=4.10D-07 MaxDP=2.35D-05 DE=-3.18D-08 OVMax= 1.01D-05

 Cycle   9  Pass 1  IDiag  1:
 RMSU=  1.54D-07    CP:  8.74D-01  1.03D+00  6.22D-01  8.01D-01  8.52D-01
                    CP:  9.64D-01  8.73D-01  1.02D+00
 E= -323.856869916612     Delta-E=       -0.000000000821 Rises=F Damp=F
 DIIS: error= 8.13D-07 at cycle   9 NSaved=   9.
 NSaved= 9 IEnMin= 9 EnMin= -323.856869916612     IErMin= 9 ErrMin= 8.13D-07
 ErrMax= 8.13D-07 EMaxC= 1.00D-01 BMatC= 1.76D-10 BMatP= 1.11D-09
 IDIUse=1 WtCom= 1.00D+00 WtEn= 0.00D+00
 Coeff-Com:  0.240D-04-0.366D-03-0.467D-05-0.195D-02 0.595D-03 0.603D-02
 Coeff-Com:  0.382D-01 0.379D+00 0.579D+00
 Coeff:      0.240D-04-0.366D-03-0.467D-05-0.195D-02 0.595D-03 0.603D-02
 Coeff:      0.382D-01 0.379D+00 0.579D+00
 Gap=     0.235 Goal=   None    Shift=    0.000
 RMSDP=1.21D-07 MaxDP=2.82D-06 DE=-8.21D-10 OVMax= 3.66D-06

 Cycle  10  Pass 1  IDiag  1:
 RMSU=  5.14D-08    CP:  8.74D-01  1.03D+00  6.22D-01  8.01D-01  8.53D-01
                    CP:  9.67D-01  8.81D-01  1.05D+00  7.55D-01
 E= -323.856869916769     Delta-E=       -0.000000000158 Rises=F Damp=F
 DIIS: error= 2.47D-07 at cycle  10 NSaved=  10.
 NSaved=10 IEnMin=10 EnMin= -323.856869916769     IErMin=10 ErrMin= 2.47D-07
 ErrMax= 2.47D-07 EMaxC= 1.00D-01 BMatC= 9.41D-12 BMatP= 1.76D-10
 IDIUse=1 WtCom= 1.00D+00 WtEn= 0.00D+00
 Coeff-Com:  0.250D-05 0.222D-04 0.535D-04-0.486D-03-0.789D-03-0.473D-02
 Coeff-Com: -0.781D-02 0.449D-01 0.217D+00 0.751D+00
 Coeff:      0.250D-05 0.222D-04 0.535D-04-0.486D-03-0.789D-03-0.473D-02
 Coeff:     -0.781D-02 0.449D-01 0.217D+00 0.751D+00
 Gap=     0.235 Goal=   None    Shift=    0.000
 RMSDP=4.32D-08 MaxDP=2.54D-06 DE=-1.58D-10 OVMax= 9.79D-07

 Cycle  11  Pass 1  IDiag  1:
 RMSU=  1.23D-08    CP:  8.74D-01  1.03D+00  6.22D-01  8.01D-01  8.53D-01
                    CP:  9.67D-01  8.85D-01  1.06D+00  8.21D-01  9.90D-01
 E= -323.856869916781     Delta-E=       -0.000000000012 Rises=F Damp=F
 DIIS: error= 8.34D-08 at cycle  11 NSaved=  11.
 NSaved=11 IEnMin=11 EnMin= -323.856869916781     IErMin=11 ErrMin= 8.34D-08
 ErrMax= 8.34D-08 EMaxC= 1.00D-01 BMatC= 1.31D-12 BMatP= 9.41D-12
 IDIUse=1 WtCom= 1.00D+00 WtEn= 0.00D+00
 Coeff-Com: -0.436D-06 0.369D-04 0.249D-04-0.111D-03-0.442D-03-0.277D-02
 Coeff-Com: -0.653D-02-0.401D-02 0.679D-01 0.367D+00 0.579D+00
 Coeff:     -0.436D-06 0.369D-04 0.249D-04-0.111D-03-0.442D-03-0.277D-02
 Coeff:     -0.653D-02-0.401D-02 0.679D-01 0.367D+00 0.579D+00
 Gap=     0.235 Goal=   None    Shift=    0.000
 RMSDP=1.00D-08 MaxDP=6.95D-07 DE=-1.21D-11 OVMax= 3.67D-07

 Cycle  12  Pass 1  IDiag  1:
 RMSU=  4.24D-09    CP:  8.74D-01  1.03D+00  6.22D-01  8.01D-01  8.54D-01
                    CP:  9.67D-01  8.85D-01  1.07D+00  8.37D-01  1.01D+00
                    CP:  8.99D-01
 E= -323.856869916774     Delta-E=        0.000000000007 Rises=F Damp=F
 DIIS: error= 2.28D-08 at cycle  12 NSaved=  12.
 NSaved=12 IEnMin=11 EnMin= -323.856869916781     IErMin=12 ErrMin= 2.28D-08
 ErrMax= 2.28D-08 EMaxC= 1.00D-01 BMatC= 8.97D-14 BMatP= 1.31D-12
 IDIUse=1 WtCom= 1.00D+00 WtEn= 0.00D+00
 Coeff-Com: -0.416D-06 0.104D-04 0.155D-05 0.114D-04-0.771D-04-0.438D-03
 Coeff-Com: -0.142D-02-0.643D-02 0.108D-02 0.534D-01 0.236D+00 0.718D+00
 Coeff:     -0.416D-06 0.104D-04 0.155D-05 0.114D-04-0.771D-04-0.438D-03
 Coeff:     -0.142D-02-0.643D-02 0.108D-02 0.534D-01 0.236D+00 0.718D+00
 Gap=     0.235 Goal=   None    Shift=    0.000
 RMSDP=2.15D-09 MaxDP=4.07D-08 DE= 7.39D-12 OVMax= 9.49D-08

 Error on total polarization charges =  0.01203
 SCF Done:  E(RB3LYP) =  -323.856869917     A.U. after   12 cycles
             Convg  =    0.2145D-08             -V/T =  2.0042
 KE= 3.225106965605D+02 PE=-1.255763030867D+03 EE= 3.607649111361D+02
 Leave Link  502 at Sat Apr 16 01:10:14 2016, MaxMem=   33554432 cpu:     148.0
 (Enter c:\G09w03\l701.exe)
 Compute integral first derivatives.
 ... and contract with generalized density number  0.
 D1PCM: C-PCM CHGder 1st derivatives, ID1Alg=3 FixD1E=F DoIter=F DoCFld=F I1PDM=0.
 GePol: Maximum number of non-zero 1st derivatives   =     205
 Leave Link  701 at Sat Apr 16 01:10:17 2016, MaxMem=   33554432 cpu:       3.0
 (Enter c:\G09w03\l702.exe)
 L702 exits ... SP integral derivatives will be done elsewhere.
 Leave Link  702 at Sat Apr 16 01:10:17 2016, MaxMem=   33554432 cpu:       0.0
 (Enter c:\G09w03\l703.exe)
 Compute integral first derivatives, UseDBF=F ICtDFT=           0.
 Integral derivatives from FoFDir, PRISM(SPDF).
 Calling FoFJK, ICntrl=      2127 FMM=F ISym2X=0 I1Cent= 0 IOpClX= 0 NMat=1 NMatS=1 NMatT=0.
 FoFCou: FMM=F IPFlag=           0 FMFlag=      100000 FMFlg1=         800
         NFxFlg=           0 DoJE=F BraDBF=F KetDBF=F FulRan=T
         Omega=  0.000000  0.000000  1.000000  0.000000  0.000000 ICntrl=    2127 IOpCl=  0
         NMat0=    1 NMatS0=    1 NMatT0=    0 NMatD0=    1 NMtDS0=    0 NMtDT0=    0
         I1Cent=           0 NGrid=           0.
 Symmetry not used in FoFCou.
 Leave Link  703 at Sat Apr 16 01:10:53 2016, MaxMem=   33554432 cpu:      36.0
 (Enter c:\G09w03\l716.exe)
 Dipole        =-1.03240536D+00-2.26316246D-01 6.96723522D-01
 -------------------------------------------------------------------
 Center     Atomic                   Forces (Hartrees/Bohr)
 Number     Number              X              Y              Z
 -------------------------------------------------------------------
      1        7          -0.002829867   -0.000377189   -0.000609455
      2        1          -0.000336262    0.000106677   -0.000087024
      3        6          -0.004557801   -0.005962225    0.004984397
      4        1           0.000272077   -0.000394683    0.000187976
      5        6          -0.000776168   -0.000690624   -0.000653157
      6        6           0.035100472    0.057058113   -0.026878630
      7        1          -0.000108768   -0.000031612    0.000191107
      8        1           0.000140993   -0.000203382   -0.000076229
      9        1          -0.000272620    0.000227645    0.000233416
     10        8           0.025904696   -0.003173886    0.002056059
     11        1          -0.000193849   -0.000106070    0.000149616
     12        8          -0.031166069   -0.034787961    0.013517945
     13        1          -0.021176834   -0.011664804    0.006983979
 -------------------------------------------------------------------
 Cartesian Forces:  Max     0.057058113 RMS     0.015178433
 Leave Link  716 at Sat Apr 16 01:10:53 2016, MaxMem=   33554432 cpu:       0.0
 (Enter c:\G09w03\l103.exe)

 GradGradGradGradGradGradGradGradGradGradGradGradGradGradGradGradGradGrad
 Berny optimization.
 Using GEDIIS/GDIIS optimizer.
 Internal  Forces:  Max     0.048604851 RMS     0.008581355
 Search for a local minimum.
 Step number   2 out of a maximum of   64
 All quantities printed in internal units (Hartrees-Bohrs-Radians)
 RMS Force = .85814D-02 SwitMx=.10000D-02 MixMth= 1
 Mixed Optimization -- RFO/linear search
 Update second derivatives using D2CorX and points    1    2
 DE= -2.23D-02 DEPred=-2.40D-02 R= 9.31D-01
 SS=  1.41D+00  RLast= 3.07D-01 DXNew= 5.0454D-01 9.2217D-01
 Trust test= 9.31D-01 RLast= 3.07D-01 DXMaxT set to 5.05D-01
 ITU=  1  0
 Use linear search instead of GDIIS.
     Eigenvalues ---    0.00230   0.00744   0.00864   0.01386   0.03349
     Eigenvalues ---    0.04096   0.04386   0.05103   0.05431   0.05701
     Eigenvalues ---    0.06865   0.14889   0.16000   0.16000   0.16000
     Eigenvalues ---    0.16000   0.16004   0.17748   0.18942   0.23626
     Eigenvalues ---    0.27966   0.29608   0.33429   0.34398   0.34472
     Eigenvalues ---    0.34579   0.34627   0.36640   0.43566   0.44860
     Eigenvalues ---    0.45057   0.65663   0.84713
 RFO step:  Lambda=-9.42279536D-03 EMin= 2.29999631D-03
 Quartic linear search produced a step of  0.48103.
 Iteration  1 RMS(Cart)=  0.06199176 RMS(Int)=  0.00727070
 Iteration  2 RMS(Cart)=  0.00783153 RMS(Int)=  0.00008413
 Iteration  3 RMS(Cart)=  0.00003450 RMS(Int)=  0.00008075
 Iteration  4 RMS(Cart)=  0.00000000 RMS(Int)=  0.00008075
 Variable       Old X    -DE/DX   Delta X   Delta X   Delta X     New X
                                 (Linear)    (Quad)   (Total)
    R1        1.92166  -0.00012   0.00013  -0.00049  -0.00036   1.92130
    R2        2.76844   0.00172   0.00218   0.00503   0.00722   2.77565
    R3        1.91910   0.00014   0.00000   0.00045   0.00045   1.91955
    R4        2.06485  -0.00031  -0.00085  -0.00063  -0.00149   2.06337
    R5        2.92139  -0.00027  -0.00035  -0.00112  -0.00147   2.91992
    R6        2.83760   0.00725  -0.00006   0.03226   0.03220   2.86980
    R7        2.06555   0.00019   0.00006   0.00073   0.00079   2.06634
    R8        2.06308  -0.00010  -0.00027  -0.00022  -0.00049   2.06259
    R9        2.06323   0.00023   0.00018   0.00083   0.00101   2.06424
   R10        2.48425   0.01791   0.03499   0.00787   0.04286   2.52711
   R11        2.38378  -0.04860  -0.01523  -0.08414  -0.09938   2.28440
   R12        1.89458  -0.02307  -0.01818  -0.06149  -0.07967   1.81491
    A1        1.92991   0.00006   0.00101  -0.00116  -0.00015   1.92977
    A2        1.86126  -0.00024  -0.00137  -0.00274  -0.00411   1.85715
    A3        1.90974   0.00017   0.00140  -0.00053   0.00087   1.91060
    A4        1.88454  -0.00036   0.00034  -0.01117  -0.01081   1.87373
    A5        2.01439  -0.00217  -0.00127  -0.01097  -0.01256   2.00182
    A6        1.92572   0.00320   0.00249   0.03174   0.03430   1.96002
    A7        1.89038   0.00088   0.00105  -0.00346  -0.00254   1.88784
    A8        1.84034  -0.00113  -0.00435  -0.01015  -0.01439   1.82595
    A9        1.90014  -0.00038   0.00136   0.00304   0.00434   1.90448
   A10        1.93237   0.00006   0.00049  -0.00025   0.00023   1.93260
   A11        1.94160  -0.00041  -0.00115  -0.00292  -0.00407   1.93754
   A12        1.89915   0.00057   0.00012   0.00539   0.00550   1.90465
   A13        1.90046   0.00010   0.00022  -0.00038  -0.00017   1.90029
   A14        1.89396  -0.00027  -0.00015  -0.00180  -0.00195   1.89201
   A15        1.89536  -0.00003   0.00049  -0.00002   0.00048   1.89584
   A16        2.08519  -0.01456  -0.05546  -0.03884  -0.09440   1.99079
   A17        2.10982   0.00585  -0.03070   0.05737   0.02656   2.13638
   A18        2.08788   0.00870   0.08640  -0.01928   0.06702   2.15490
   A19        1.76910   0.01868   0.08662   0.09266   0.17928   1.94839
    D1       -3.07828   0.00038   0.00007   0.01096   0.01096  -3.06732
    D2       -0.96079  -0.00021   0.00084  -0.00928  -0.00838  -0.96917
    D3        1.20197   0.00023   0.00374   0.01250   0.01625   1.21822
    D4       -1.03319   0.00021  -0.00017   0.00662   0.00638  -1.02681
    D5        1.08430  -0.00038   0.00060  -0.01362  -0.01296   1.07134
    D6       -3.03613   0.00007   0.00350   0.00816   0.01167  -3.02446
    D7        1.06015   0.00123   0.00099   0.01842   0.01934   1.07950
    D8       -3.10728   0.00111   0.00082   0.01578   0.01654  -3.09074
    D9       -1.01990   0.00118   0.00080   0.01742   0.01815  -1.00174
   D10       -3.10870  -0.00004   0.00137  -0.00605  -0.00467  -3.11337
   D11       -0.99295  -0.00016   0.00120  -0.00869  -0.00747  -1.00043
   D12        1.09444  -0.00009   0.00118  -0.00706  -0.00586   1.08857
   D13       -1.11597  -0.00110  -0.00249  -0.01823  -0.02067  -1.13664
   D14        0.99978  -0.00122  -0.00266  -0.02087  -0.02348   0.97631
   D15        3.08717  -0.00115  -0.00268  -0.01923  -0.02187   3.06530
   D16       -0.34774   0.00019   0.00530  -0.02685  -0.02177  -0.36950
   D17        2.81978   0.00057  -0.00508   0.00666   0.00143   2.82121
   D18       -2.37843  -0.00033   0.00606  -0.02377  -0.01770  -2.39613
   D19        0.78909   0.00004  -0.00432   0.00975   0.00549   0.79458
   D20        1.87961  -0.00059   0.00643  -0.01597  -0.00942   1.87019
   D21       -1.23605  -0.00021  -0.00395   0.01755   0.01377  -1.22228
   D22        3.10336   0.00202   0.01616   0.06019   0.07626  -3.10356
   D23       -0.06383   0.00161   0.02379   0.02826   0.05215  -0.01168
         Item               Value     Threshold  Converged?
 Maximum Force            0.048605     0.000450     NO 
 RMS     Force            0.008581     0.000300     NO 
 Maximum Displacement     0.253966     0.001800     NO 
 RMS     Displacement     0.061349     0.001200     NO 
 Predicted change in Energy=-6.333078D-03
 GradGradGradGradGradGradGradGradGradGradGradGradGradGradGradGradGradGrad

 Leave Link  103 at Sat Apr 16 01:10:53 2016, MaxMem=   33554432 cpu:       0.0
 (Enter c:\G09w03\l202.exe)
                          Input orientation:                          
 ---------------------------------------------------------------------
 Center     Atomic      Atomic             Coordinates (Angstroms)
 Number     Number       Type             X           Y           Z
 ---------------------------------------------------------------------
      1          7           0       -1.303353   -1.195823   -0.284845
      2          1           0       -1.285683   -1.503035    0.684178
      3          6           0       -0.684804    0.129800   -0.417260
      4          1           0       -0.799946    0.440519   -1.457651
      5          6           0       -1.302267    1.223166    0.483180
      6          6           0        0.816660    0.090131   -0.193014
      7          1           0       -1.183930    0.966962    1.539595
      8          1           0       -0.833620    2.191745    0.300043
      9          1           0       -2.369587    1.305365    0.265709
     10          8           0        1.236841   -0.974917    0.497972
     11          1           0       -2.282216   -1.140753   -0.550570
     12          8           0        1.550750    0.975935   -0.564218
     13          1           0        2.185027   -0.947892    0.648319
 ---------------------------------------------------------------------
                    Distance matrix (angstroms):
                    1          2          3          4          5
     1  N    0.000000
     2  H    1.016708   0.000000
     3  C    1.468813   2.059215   0.000000
     4  H    2.075212   2.932707   1.091887   0.000000
     5  C    2.537985   2.733650   1.545155   2.152136   0.000000
     6  C    2.481243   2.779835   1.518635   2.082185   2.496169
     7  H    2.832045   2.615908   2.186149   3.067258   1.093460
     8  H    3.469633   3.742100   2.188215   2.481414   1.091474
     9  H    2.774149   3.039256   2.164924   2.486303   1.092348
    10  O    2.667244   2.583933   2.398076   3.158548   3.358401
    11  H    1.015783   1.627553   2.045434   2.349540   2.759901
    12  O    3.597289   3.968518   2.394837   2.571121   3.049242
    13  H    3.619539   3.515010   3.245429   3.908051   4.111202
                    6          7          8          9         10
     6  C    0.000000
     7  H    2.788032   0.000000
     8  H    2.717224   1.777442   0.000000
     9  H    3.440842   1.772875   1.773709   0.000000
    10  O    1.337288   3.273531   3.788632   4.273168   0.000000
    11  H    3.353498   3.165040   3.731958   2.580201   3.675691
    12  O    1.208855   3.450302   2.812537   4.020740   2.243348
    13  H    1.912528   3.976294   4.369308   5.095888   0.960412
                   11         12         13
    11  H    0.000000
    12  O    4.378605   0.000000
    13  H    4.629340   2.360861   0.000000
 Symmetry turned off by external request.
 Stoichiometry    C3H7NO2
 Framework group  C1[X(C3H7NO2)]
 Deg. of freedom    33
 Full point group                 C1      NOp   1
 Rotational constants (GHZ):      4.9728548      3.1295740      2.2780783
 Leave Link  202 at Sat Apr 16 01:10:53 2016, MaxMem=   33554432 cpu:       0.0
 (Enter c:\G09w03\l301.exe)
 Standard basis: 6-311++G(d,p) (5D, 7F)
 Ernie: Thresh=  0.10000D-02 Tol=  0.10000D-05 Strict=F.
 Integral buffers will be    262144 words long.
 Raffenetti 2 integral format.
 Two-electron integral symmetry is turned off.
   181 basis functions,   279 primitive gaussians,   187 cartesian basis functions
    24 alpha electrons       24 beta electrons
       nuclear repulsion energy       249.0488307596 Hartrees.
 IExCor=  402 DFT=T Ex+Corr=B3LYP ExCW=0 ScaHFX=  0.200000
 ScaDFX=  0.800000  0.720000  1.000000  0.810000 ScalE2=  1.000000  1.000000
 IRadAn=      0 IRanWt=     -1 IRanGd=            0 ICorTp=0
 NAtoms=   13 NActive=   13 NUniq=   13 SFac= 1.00D+00 NAtFMM=   50 NAOKFM=F Big=F
 ------------------------------------------------------------------------------
 Polarizable Continuum Model (PCM)
 =================================
 Model                : C-PCM.
 Atomic radii         : UFF (Universal Force Field).
 Polarization charges : Total charges.
 Charge compensation  : None.
 Solution method      : Matrix inversion.
 Cavity type          : Scaled VdW (van der Waals Surface) (Alpha=1.100).
 Cavity algorithm     : GePol (No added spheres)
                        Default sphere list used, NSphG=   13.
                        Lebedev-Laikov grids with approx.  5.0 points / Ang**2.
                        Smoothing algorithm: Karplus/York (Gamma=1.0000).
                        Polarization charges: spherical gaussians, with
[...]
   A14        1.89321   0.00000   0.00000   0.00004   0.00004   1.89325
   A15        1.88914   0.00000   0.00000   0.00004   0.00004   1.88918
   A16        1.96471   0.00001   0.00000   0.00003   0.00003   1.96474
   A17        2.17648   0.00000   0.00000  -0.00002  -0.00002   2.17646
   A18        2.14118   0.00000   0.00000  -0.00001  -0.00001   2.14117
   A19        1.89605   0.00000   0.00000   0.00002   0.00002   1.89606
    D1       -3.06179   0.00000   0.00000   0.00036   0.00036  -3.06143
    D2       -0.94318   0.00000   0.00000   0.00025   0.00025  -0.94294
    D3        1.22071   0.00000   0.00000   0.00022   0.00022   1.22093
    D4       -1.02275   0.00000   0.00000   0.00041   0.00041  -1.02234
    D5        1.09586   0.00000   0.00000   0.00029   0.00029   1.09615
    D6       -3.02343   0.00000   0.00000   0.00027   0.00027  -3.02317
    D7        1.04148   0.00000   0.00000   0.00002   0.00002   1.04150
    D8       -3.12777   0.00000   0.00000   0.00002   0.00002  -3.12775
    D9       -1.04200   0.00000   0.00000   0.00003   0.00003  -1.04197
   D10       -3.13308   0.00000   0.00000  -0.00006  -0.00006  -3.13313
   D11       -1.01915   0.00000   0.00000  -0.00006  -0.00006  -1.01921
   D12        1.06662   0.00000   0.00000  -0.00004  -0.00004   1.06658
   D13       -1.13450   0.00000   0.00000  -0.00004  -0.00004  -1.13454
   D14        0.97943   0.00000   0.00000  -0.00004  -0.00004   0.97938
   D15        3.06520   0.00000   0.00000  -0.00003  -0.00003   3.06517
   D16       -0.75129   0.00000   0.00000   0.00006   0.00006  -0.75123
   D17        2.43277   0.00000   0.00000   0.00006   0.00006   2.43283
   D18       -2.77657   0.00000   0.00000  -0.00003  -0.00003  -2.77661
   D19        0.40748   0.00000   0.00000  -0.00003  -0.00003   0.40745
   D20        1.47109   0.00000   0.00000   0.00005   0.00005   1.47114
   D21       -1.62804   0.00000   0.00000   0.00005   0.00005  -1.62799
   D22       -3.10223   0.00000   0.00000   0.00003   0.00003  -3.10220
   D23       -0.00211   0.00000   0.00000   0.00003   0.00003  -0.00209
         Item               Value     Threshold  Converged?
 Maximum Force            0.000019     0.000450     YES
 RMS     Force            0.000005     0.000300     YES
 Maximum Displacement     0.000510     0.001800     YES
 RMS     Displacement     0.000115     0.001200     YES
 Predicted change in Energy=-5.096028D-09
 Optimization completed.
    -- Stationary point found.
                           ----------------------------
                           !   Optimized Parameters   !
                           ! (Angstroms and Degrees)  !
 --------------------------                            --------------------------
 ! Name  Definition              Value          Derivative Info.                !
 --------------------------------------------------------------------------------
 ! R1    R(1,2)                  1.0166         -DE/DX =    0.0                 !
 ! R2    R(1,3)                  1.4682         -DE/DX =    0.0                 !
 ! R3    R(1,11)                 1.016          -DE/DX =    0.0                 !
 ! R4    R(3,4)                  1.0915         -DE/DX =    0.0                 !
 ! R5    R(3,5)                  1.5428         -DE/DX =    0.0                 !
 ! R6    R(3,6)                  1.5211         -DE/DX =    0.0                 !
 ! R7    R(5,7)                  1.0931         -DE/DX =    0.0                 !
 ! R8    R(5,8)                  1.0934         -DE/DX =    0.0                 !
 ! R9    R(5,9)                  1.0924         -DE/DX =    0.0                 !
 ! R10   R(6,10)                 1.3465         -DE/DX =    0.0                 !
 ! R11   R(6,12)                 1.211          -DE/DX =    0.0                 !
 ! R12   R(10,13)                0.9706         -DE/DX =    0.0                 !
 ! A1    A(2,1,3)              110.2851         -DE/DX =    0.0                 !
 ! A2    A(2,1,11)             106.6622         -DE/DX =    0.0                 !
 ! A3    A(3,1,11)             109.0821         -DE/DX =    0.0                 !
 ! A4    A(1,3,4)              107.6829         -DE/DX =    0.0                 !
 ! A5    A(1,3,5)              115.024          -DE/DX =    0.0                 !
 ! A6    A(1,3,6)              110.4123         -DE/DX =    0.0                 !
 ! A7    A(4,3,5)              108.7326         -DE/DX =    0.0                 !
 ! A8    A(4,3,6)              105.4384         -DE/DX =    0.0                 !
 ! A9    A(5,3,6)              109.0948         -DE/DX =    0.0                 !
 ! A10   A(3,5,7)              110.7332         -DE/DX =    0.0                 !
 ! A11   A(3,5,8)              111.4125         -DE/DX =    0.0                 !
 ! A12   A(3,5,9)              109.1952         -DE/DX =    0.0                 !
 ! A13   A(7,5,8)              108.7079         -DE/DX =    0.0                 !
 ! A14   A(7,5,9)              108.4727         -DE/DX =    0.0                 !
 ! A15   A(8,5,9)              108.2398         -DE/DX =    0.0                 !
 ! A16   A(3,6,10)             112.5698         -DE/DX =    0.0                 !
 ! A17   A(3,6,12)             124.7032         -DE/DX =    0.0                 !
 ! A18   A(10,6,12)            122.6804         -DE/DX =    0.0                 !
 ! A19   A(6,10,13)            108.6355         -DE/DX =    0.0                 !
 ! D1    D(2,1,3,4)           -175.4279         -DE/DX =    0.0                 !
 ! D2    D(2,1,3,5)            -54.0404         -DE/DX =    0.0                 !
 ! D3    D(2,1,3,6)             69.9415         -DE/DX =    0.0                 !
 ! D4    D(11,1,3,4)           -58.5993         -DE/DX =    0.0                 !
 ! D5    D(11,1,3,5)            62.7882         -DE/DX =    0.0                 !
 ! D6    D(11,1,3,6)          -173.2299         -DE/DX =    0.0                 !
 ! D7    D(1,3,5,7)             59.6727         -DE/DX =    0.0                 !
 ! D8    D(1,3,5,8)           -179.2081         -DE/DX =    0.0                 !
 ! D9    D(1,3,5,9)            -59.7021         -DE/DX =    0.0                 !
 ! D10   D(4,3,5,7)           -179.5122         -DE/DX =    0.0                 !
 ! D11   D(4,3,5,8)            -58.393          -DE/DX =    0.0                 !
 ! D12   D(4,3,5,9)             61.1131         -DE/DX =    0.0                 !
 ! D13   D(6,3,5,7)            -65.0021         -DE/DX =    0.0                 !
 ! D14   D(6,3,5,8)             56.1171         -DE/DX =    0.0                 !
 ! D15   D(6,3,5,9)            175.6231         -DE/DX =    0.0                 !
 ! D16   D(1,3,6,10)           -43.0456         -DE/DX =    0.0                 !
 ! D17   D(1,3,6,12)           139.3874         -DE/DX =    0.0                 !
 ! D18   D(4,3,6,10)          -159.086          -DE/DX =    0.0                 !
 ! D19   D(4,3,6,12)            23.347          -DE/DX =    0.0                 !
 ! D20   D(5,3,6,10)            84.2873         -DE/DX =    0.0                 !
 ! D21   D(5,3,6,12)           -93.2797         -DE/DX =    0.0                 !
 ! D22   D(3,6,10,13)         -177.7448         -DE/DX =    0.0                 !
 ! D23   D(12,6,10,13)          -0.1212         -DE/DX =    0.0                 !
 --------------------------------------------------------------------------------
 GradGradGradGradGradGradGradGradGradGradGradGradGradGradGradGradGradGrad

 Leave Link  103 at Sat Apr 16 02:13:48 2016, MaxMem=   33554432 cpu:       1.0
 (Enter c:\G09w03\l9999.exe)
 1|1|UNPC-WIN-20150318OUM|Freq|RB3LYP|6-311++G(d,p)|C3H7N1O2|ADMINISTRA
 TOR|16-Apr-2016|0||#P Geom=AllCheck Guess=TCheck SCRF=Check GenChk RB3
 LYP/6-311++G(d,p) Freq||Ala-S-opt-freq-cpcm-w-pa1-6-311++gdp||0,1|N,-1
 .3046088679,-1.1874100536,-0.3694237076|H,-1.2574376849,-1.5371729219,
 0.5839189319|C,-0.7018409069,0.1488560076,-0.4517851235|H,-0.848029207
 1,0.5163686654,-1.4690505659|C,-1.2751273473,1.1854388043,0.5367007841
 |C,0.8053234868,0.0634474088,-0.2647766662|H,-1.1377851012,0.853019093
 5,1.5689331721|H,-0.7954106702,2.16043219,0.4154927092|H,-2.3449609681
 ,1.3053196561,0.3511090522|O,1.1559306166,-0.7709492104,0.7322311086|H
 ,-2.2901933661,-1.1224588882,-0.6074658452|O,1.6160539401,0.7011376582
 ,-0.8993411348|H,2.1219561362,-0.7548259198,0.8248957653||Version=IA32
 W-G09RevB.01|HF=-323.8634369|RMSD=4.707e-009|RMSF=1.128e-005|ZeroPoint
 =0.1072346|Thermal=0.1142067|Dipole=-0.9252994,0.0122359,0.9855867|Dip
 oleDeriv=-0.5007484,-0.1012631,0.063255,-0.0367061,-0.8946755,-0.20114
 24,0.0441069,-0.1356104,-0.4402481,0.2489972,-0.093829,-0.0132196,-0.0
 691176,0.2801461,-0.0128038,-0.0087339,0.0833135,0.051696,0.1340057,0.
 256461,-0.0004442,0.1934562,0.6726101,0.1525139,0.0046092,0.0171313,0.
 2687755,0.0357317,0.001063,-0.0015325,-0.0288382,0.0019189,0.0304547,-
 0.0161013,0.0554303,-0.1103649,-0.0141262,0.0271792,0.0379327,-0.06642
 93,-0.0636002,-0.0890245,-0.047691,-0.0989031,0.0673128,1.6791073,0.07
 83983,-0.1657098,0.1672947,1.1966958,-1.0402231,-0.0776958,-1.0784974,
 1.4899811,0.0815111,0.0363778,-0.035549,0.0256869,0.0313612,0.0988935,
 -0.0020999,0.0337993,-0.1325556,0.0467159,-0.1137139,0.0249075,-0.0806
 526,-0.1645238,-0.0213416,0.0300768,0.0099172,0.0692729,-0.1656724,0.0
 4076,-0.0215498,0.0297676,0.07597,-0.0253055,-0.0308166,-0.0242495,0.0
 579617,-0.6630447,0.3373961,-0.3635723,0.1248427,-0.9191414,0.5405522,
 -0.1678553,0.6030192,-1.1008032,0.031414,-0.0173623,-0.0303444,0.05397
 98,0.2246173,0.0912624,0.0323742,0.102357,0.3045007,-1.2130917,-0.3981
 693,0.4610179,-0.2484012,-0.8321474,0.4522542,0.1816088,0.4059442,-0.9
 207354,0.2992006,-0.0532977,0.0448084,-0.064883,0.3907689,0.0239099,0.
 058218,0.0263484,0.3952065|Polar=71.3755138,1.591411,67.1296502,-2.789
 5838,-4.9896488,63.5525886|PG=C01 [X(C3H7N1O2)]|NImag=0||0.56881336,0.
 06287672,0.34851986,0.12617027,-0.16881988,0.51265017,-0.04983005,-0.0
 1519450,-0.01205914,0.05165456,-0.00940727,-0.07029591,0.10021404,0.00
 877993,0.09168722,-0.03692656,0.14172116,-0.37895650,0.03208736,-0.137
 68128,0.38783748,-0.10134593,-0.02444390,-0.01058376,0.00072790,0.0017
 4095,0.00196048,0.48091854,-0.06640980,-0.17415604,0.03627934,-0.00409
 633,-0.01770219,-0.00367408,0.01248253,0.45037444,-0.02575798,0.003637
 51,-0.08672310,0.01766465,0.03606107,-0.00276237,0.03808717,-0.0874830
 0,0.58477653,0.00215805,-0.00953387,0.01543074,-0.00118736,-0.00325295
 ,0.00069470,-0.05682422,0.01093035,-0.03609282,0.06410384,0.00304819,-
 0.01927721,0.03106728,-0.00357633,-0.00464295,0.00020355,0.01050337,-0
 .07331058,0.07688002,-0.01098080,0.09244626,0.00117571,0.00236021,0.00
 087758,0.00020907,-0.00042784,0.00187173,-0.03960404,0.08251039,-0.278
 00110,0.03765958,-0.08694896,0.29930265,0.00638556,-0.01670512,-0.0097
 6640,0.00008741,0.00101463,-0.00047801,-0.09339741,0.03043795,0.029302
 30,0.00238766,-0.00242662,-0.00239452,0.55260833,0.00508083,-0.0394140
 2,-0.02202380,0.00037681,0.00208716,-0.00122335,0.01496433,-0.10029924
 ,-0.03063386,-0.00274591,0.00618858,0.00350530,0.03515724,0.50782034,-
 0.00101123,-0.00029458,0.00415667,-0.00054549,0.00144232,0.00244672,0.
 01905661,-0.03328408,-0.11840729,0.01410402,-0.02248627,-0.02110833,0.
 03002983,-0.05854586,0.51508714,-0.01380611,-0.00890654,-0.00001499,0.
 00082069,-0.00026322,-0.00022357,-0.17431016,0.00132682,-0.02189525,-0
 .00569027,0.00243526,0.00143706,-0.01418452,0.01750755,0.01094754,0.76
 657243,-0.03763084,-0.00353057,-0.00762516,-0.00240573,0.00003982,0.00
 136764,0.01885844,-0.07874711,-0.00238093,0.01103623,-0.00209123,0.002
 47760,0.02510753,-0.00313142,0.00282277,0.14745251,0.46602568,-0.00010
 664,0.00062397,-0.00044987,0.00334430,0.00112516,-0.00101979,-0.022212
 44,-0.00554797,-0.08592367,-0.03302308,0.00357704,-0.00603365,0.025632
 03,-0.00253864,0.00386541,-0.11575044,-0.23926113,0.49195063,-0.000129
 62,-0.00076291,-0.00109029,0.00022258,0.00012472,-0.00037651,0.0001247
 7,-0.00442246,0.01362643,-0.00022959,0.00202040,0.00167630,-0.05183550
 ,0.01104835,-0.03388044,0.00089353,-0.00098987,0.00138656,0.05194309,0
 .00011838,0.00294121,0.00052545,-0.00007288,-0.00046197,0.00061922,-0.
 00262431,0.00546244,-0.02275894,0.00186642,-0.00251010,-0.00305931,0.0
 1017222,-0.07325297,0.07908599,-0.00100110,0.00074934,-0.00006860,-0.0
 1367766,0.07651026,-0.00016813,0.00041801,0.00246862,-0.00035852,-0.00
 101835,0.00011924,-0.00110477,0.00687198,-0.02142808,0.00210785,-0.003
 24322,-0.00117704,-0.03311284,0.07733799,-0.27783686,-0.00215226,0.000
 82762,-0.00125506,0.03442960,-0.08281324,0.30355536,0.00063649,0.00249
 964,0.00176649,-0.00009123,-0.00020868,0.00008562,0.00508565,0.0111109
 7,-0.00339554,0.00038541,-0.00044139,-0.00024982,-0.09891706,-0.103958
 23,0.01422917,-0.00043421,0.00070722,-0.00049707,0.00166123,0.00512509
 ,-0.00007834,0.10349124,0.00149194,-0.00534699,-0.00423223,-0.00021018
 ,0.00087995,-0.00030595,-0.00927995,-0.01536408,0.00549140,-0.00007991
 ,0.00067647,-0.00023128,-0.10237650,-0.25272886,0.02699470,-0.00151481
 ,-0.00124716,0.00060885,-0.00357012,-0.00752536,0.00067415,0.11273434,
 0.27506241,0.00155453,-0.00544208,-0.00210842,0.00003397,-0.00024802,-
 0.00022969,-0.01126769,-0.01601897,0.00349173,-0.00054597,0.00073705,0
 .00050762,0.01481480,0.02830903,-0.05172602,-0.00015030,-0.00029055,0.
 00079278,0.01405727,0.02639194,-0.00168939,-0.01641462,-0.02847642,0.0
 5089502,0.00221676,-0.00047253,-0.00041618,0.00001540,0.00009584,-0.00
 003068,-0.01368676,0.00105569,-0.00155205,0.00058509,-0.00024178,0.000
 24597,-0.29980437,0.02669855,-0.04728989,0.00270687,0.00119273,0.00242
 535,-0.00253915,0.00015042,-0.00051753,-0.01222401,0.00154140,-0.00229
 193,0.32413934,-0.00026881,0.00250589,0.00106490,0.00015629,-0.0002425
 7,0.00007893,0.02410404,-0.00589182,0.00202524,-0.00083064,0.00077070,
 0.00046383,0.02525071,-0.04762071,0.00636423,-0.00203480,-0.00342184,-
 0.00346799,0.00988579,-0.00178932,0.00122299,-0.02804257,0.00433955,-0
 .00561330,-0.03032127,0.05021767,-0.00048064,0.00226387,0.00074086,-0.
 00007225,-0.00022316,-0.00001188,0.02493679,-0.00491721,0.00137529,-0.
 00017058,0.00092794,0.00115121,-0.04849193,0.00589359,-0.05411634,-0.0
 0193129,-0.00352510,-0.00376347,-0.02958167,0.00220804,-0.00417086,0.0
 0403562,-0.00061839,-0.00013277,0.04980112,-0.00278152,0.05720127,-0.0
 0392813,0.00023095,-0.00144711,-0.00012057,0.00002542,-0.00101223,-0.0
 1106561,0.02481540,-0.03279828,-0.00785815,0.00076865,-0.00133833,-0.0
 0171274,-0.00139930,-0.00221361,-0.14793430,0.03196499,-0.04383573,0.0
 0018833,-0.00011318,0.00016467,0.00007217,0.00038936,0.00003953,-0.000
 51448,0.00094527,0.00082030,0.62321821,-0.00031813,0.00074940,-0.00001
 414,0.00023309,-0.00003088,-0.00063801,0.00373767,-0.00082097,0.011018
 25,0.00116070,0.00067384,-0.00026545,-0.00015608,0.00125800,0.00078225
 ,0.02224995,-0.12896341,0.07716846,0.00014794,-0.00010160,-0.00018768,
 -0.00015128,0.00006419,0.00010112,0.00017348,-0.00016275,-0.00021996,-
 0.00257710,0.19001183,-0.00061335,0.00047258,-0.00035328,-0.00051213,-
 0.00027061,0.00015352,-0.00636779,0.01312246,-0.00431743,-0.00149777,0
 .00001331,0.00033049,-0.00197636,-0.00134872,-0.00259701,-0.03442217,0
 .07887943,-0.15569721,-0.00007258,-0.00021060,0.00096585,0.00016264,-0
 .00003341,-0.00008919,-0.00033107,0.00071021,0.00124459,0.07080704,-0.
 17477538,0.24537032,-0.40165509,0.01086474,-0.10605701,-0.00217106,0.0
 0134459,0.00399429,-0.01559534,0.00431823,-0.00131014,0.00054472,0.000
 28243,0.00034359,0.00181678,0.00119039,-0.00032752,0.00196984,-0.00255
 741,0.00099687,0.00003171,-0.00009152,-0.00004237,0.00005636,0.0003364
 6,0.00032996,0.00032543,-0.00041318,-0.00046249,-0.00027951,0.00006924
 ,-0.00010902,0.41664929,0.04049692,-0.04248364,0.03440952,0.01454569,-
 0.00179758,0.00005935,-0.03981461,-0.00378264,-0.01108125,0.00041073,0
 .00107823,0.00029416,-0.00078497,0.00163392,-0.00011451,0.00093140,-0.
 00692117,0.00102251,0.00010333,-0.00009828,-0.00001380,0.00040195,0.00
 026882,0.00045465,0.00067495,-0.00023950,-0.00019386,0.00045910,0.0011
 6583,-0.00004563,-0.01493264,0.05050460,-0.06791809,0.02423651,-0.0546
 8408,-0.03836218,0.00179188,-0.00977901,0.00269413,-0.00251828,0.00032
 884,0.00038352,-0.00015116,0.00020777,-0.00046495,0.00055020,-0.000400
 56,-0.00050965,0.00222938,0.00004785,-0.00002126,-0.00008719,0.0000291
 4,0.00029075,0.00033127,0.00028416,0.00010020,-0.00025555,0.00003053,0
 .00014417,-0.00027366,0.00044795,0.10221803,-0.02537845,0.06374807,-0.
 01042441,-0.00054584,-0.00234966,-0.00004231,-0.00000099,0.00017493,-0
 .02307684,-0.02212603,0.02618999,0.00201697,-0.00157226,0.00076696,-0.
 00366611,-0.00400827,-0.00328855,-0.39907563,-0.20029619,0.19246957,-0
 .00030815,0.00014864,0.00070180,0.00030193,0.00050116,-0.00015873,-0.0
 0128557,0.00166981,0.00154529,0.03304932,-0.01954055,0.02313056,-0.001
 87877,-0.00248029,0.00144502,0.40448607,0.00157911,-0.00036835,-0.0004
 7988,0.00083419,0.00029922,-0.00021665,-0.00988489,0.01473480,0.012852
 48,0.00074354,-0.00008925,-0.00084087,-0.00378793,-0.00275456,-0.00262
 410,-0.21487098,-0.23857058,0.15979398,0.00011185,0.00009916,-0.000018
 13,0.00017413,0.00097969,0.00013615,-0.00048761,0.00141669,0.00104094,
 -0.02047843,-0.03621306,0.07186072,-0.00027484,0.00046605,-0.00022758,
 0.25156109,0.26073634,0.00297361,-0.00137482,0.00221854,-0.00101901,-0
 .00042421,0.00030448,0.00427093,0.00971048,0.00899789,0.00165143,-0.00
 082440,0.00205225,-0.00228268,0.00056324,0.00086531,0.20876958,0.16106
 148,-0.23659158,-0.00007478,0.00005574,0.00023596,0.00001145,-0.000163
 05,-0.00002211,-0.00010657,0.00007635,0.00017513,0.02407368,0.07205561
 ,-0.05126113,0.00035550,0.00058177,-0.00031518,-0.24507742,-0.23575896
 ,0.27152295,0.00090912,0.00009316,0.00041705,-0.00008597,0.00000703,0.
 00005016,0.00244540,0.00057668,-0.00206848,-0.00039214,0.00018087,0.00
 007248,0.00023197,0.00008767,0.00018955,-0.01752816,0.00756039,-0.0108
 2929,-0.00002323,-0.00000052,0.00013085,-0.00002397,0.00003680,-0.0000
 0081,0.00006544,-0.00010064,0.00005172,-0.48311455,-0.00502893,-0.0481
 9800,0.00018562,-0.00001156,0.00000031,-0.00009651,-0.00521923,0.00645
 429,0.49742697,-0.00065726,0.00015637,-0.00036545,0.00062995,0.0001806
 8,-0.00031054,-0.00034366,-0.00049701,0.00637202,0.00127611,0.00008726
 ,0.00016219,-0.00090307,0.00021378,-0.00014288,0.03668795,-0.00019034,
 0.00696437,-0.00001937,-0.00002281,-0.00005832,0.00004882,-0.00005863,
 -0.00004060,-0.00005987,0.00011802,0.00014483,-0.03503114,-0.02763042,
 0.01162565,-0.00013648,0.00020537,-0.00024738,-0.00331028,-0.00073615,
 -0.00555923,0.00181829,0.02817389,0.00110850,0.00019754,0.00016280,-0.
 00041063,-0.00034098,0.00002606,0.00013437,0.00494894,-0.00140723,-0.0
 0070163,0.00024782,0.00001882,-0.00081128,0.00015487,-0.00022884,-0.04
 410427,0.00341695,-0.00592237,-0.00007862,0.00011149,0.00018313,0.0000
 5366,-0.00003964,0.00002629,-0.00003674,0.00011167,0.00027644,-0.01340
 410,0.01524858,-0.03419749,0.00007033,0.00000553,0.00005452,0.00445025
 ,-0.00551810,0.00181749,0.05373015,-0.01854467,0.03919038||0.00000433,
 -0.00000365,0.00000047,-0.00000193,-0.00000062,0.00000381,-0.00003284,
 0.00002940,0.00001735,0.00000438,-0.00000194,-0.00000397,0.00001270,-0
 .00002075,-0.00001701,0.00002407,0.00000309,-0.00002072,0.00000224,0.0
 0000450,0.00000529,0.00000354,0.00000221,0.00000145,0.00000119,0.00000
 587,0.00000692,0.00000587,-0.00000823,0.00000447,-0.00000408,0.0000037
 9,0.00000596,-0.00001128,-0.00001012,0.00000377,-0.00000820,-0.0000035
 3,-0.00000779|||@


 IT IS A CAPITAL MISTAKE TO THEORIZE BEFORE ONE HAS
 DATA.  INSENSIBLY ONE BEGINS TO TWIST FACTS TO SUIT
 THEORIES RATHER THAN THEORIES TO SUIT FACTS.

                                         -- SHERLOCK HOLMES
 Job cpu time:  0 days  0 hours 20 minutes 59.0 seconds.
 File lengths (MBytes):  RWF=     60 Int=      0 D2E=      0 Chk=      6 Scr=      1
 Normal termination of Gaussian 09 at Sat Apr 16 02:13:48 2016.
