 Entering Link 1 = c:\G09w02\l1.exe PID=      8104.
  
 Copyright (c) 1988,1990,1992,1993,1995,1998,2003,2009,2010,
            Gaussian, Inc.  All Rights Reserved.
  
 This is part of the Gaussian(R) 09 program.  It is based on
 the Gaussian(R) 03 system (copyright 2003, Gaussian, Inc.),
 the Gaussian(R) 98 system (copyright 1998, Gaussian, Inc.),
 the Gaussian(R) 94 system (copyright 1995, Gaussian, Inc.),
 the Gaussian 92(TM) system (copyright 1992, Gaussian, Inc.),
 the Gaussian 90(TM) system (copyright 1990, Gaussian, Inc.),
 the Gaussian 88(TM) system (copyright 1988, Gaussian, Inc.),
 the Gaussian 86(TM) system (copyright 1986, Carnegie Mellon
 University), and the Gaussian 82(TM) system (copyright 1983,
 Carnegie Mellon University). Gaussian is a federally registered
 trademark of Gaussian, Inc.
  
 This software contains proprietary and confidential information,
 including trade secrets, belonging to Gaussian, Inc.
  
 This software is provided under written license and may be
 used, copied, transmitted, or stored only in accord with that
 written license.
  
 The following legend is applicable only to US Government
 contracts under FAR:
  
                    RESTRICTED RIGHTS LEGEND
  
 Use, reproduction and disclosure by the US Government is
 subject to restrictions as set forth in subparagraphs (a)
 and (c) of the Commercial Computer Software - Restricted
 Rights clause in FAR 52.227-19.
  
 Gaussian, Inc.
 340 Quinnipiac St., Bldg. 40, Wallingford CT 06492
  
  
 ---------------------------------------------------------------
 Warning -- This program may not be used in any manner that
 competes with the business of Gaussian, Inc. or will provide
 assistance to any competitor of Gaussian, Inc.  The licensee
 of this program is prohibited from giving any competitor of
 Gaussian, Inc. access to this program.  By using this program,
 the user acknowledges that Gaussian, Inc. is engaged in the
 business of creating and licensing software in the field of
 computational chemistry and represents and warrants to the
 licensee that it is not a competitor of Gaussian, Inc. and that
 it will not use this program in any manner prohibited above.
 ---------------------------------------------------------------
  

 Cite this work as:
 Gaussian 09, Revision B.01,
 M. J. Frisch, G. W. Trucks, H. B. Schlegel, G. E. Scuseria, 
 M. A. Robb, J. R. Cheeseman, G. Scalmani, V. Barone, B. Mennucci, 
 G. A. Petersson, H. Nakatsuji, M. Caricato, X. Li, H. P. Hratchian, 
 A. F. Izmaylov, J. Bloino, G. Zheng, J. L. Sonnenberg, M. Hada, 
 M. Ehara, K. Toyota, R. Fukuda, J. Hasegawa, M. Ishida, T. Nakajima, 
 Y. Honda, O. Kitao, H. Nakai, T. Vreven, J. A. Montgomery, Jr., 
 J. E. Peralta, F. Ogliaro, M. Bearpark, J. J. Heyd, E. Brothers, 
 K. N. Kudin, V. N. Staroverov, T. Keith, R. Kobayashi, J. Normand, 
 K. Raghavachari, A. Rendell, J. C. Burant, S. S. Iyengar, J. Tomasi, 
 M. Cossi, N. Rega, J. M. Millam, M. Klene, J. E. Knox, J. B. Cross, 
 V. Bakken, C. Adamo, J. Jaramillo, R. Gomperts, R. E. Stratmann, 
 O. Yazyev, A. J. Austin, R. Cammi, C. Pomelli, J. W. Ochterski, 
 R. L. Martin, K. Morokuma, V. G. Zakrzewski, G. A. Voth, 
 P. Salvador, J. J. Dannenberg, S. Dapprich, A. D. Daniels, 
 O. Farkas, J. B. Foresman, J. V. Ortiz, J. Cioslowski, 
 and D. J. Fox, Gaussian, Inc., Wallingford CT, 2010.
 
 ******************************************
 Gaussian 09:  IA32W-G09RevB.01 12-Aug-2010
                16-Apr-2016 
 ******************************************
 %chk=Ala-S-opt-freq-cpcm-w-tsa2-6-311++gdp.chk
 ----------------------------------------------------------------------
 #p opt=(calcfc,ts) freq rb3lyp/6-311++g(d,p) scrf=(cpcm,solvent=water)
  iop(1/11=1) nosymm
 ----------------------------------------------------------------------
 1/5=1,10=4,11=1,14=-1,18=20,26=3,38=1/1,3;
 2/9=110,12=2,15=1,17=6,18=5,40=1/2;
 3/5=4,6=6,7=1111,11=2,16=1,25=1,30=1,70=2101,71=2,72=1,74=-5,116=1/1,2,3;
 4//1;
 5/5=2,38=5,53=1/2;
 8/6=4,10=90,11=11/1;
 11/6=1,8=1,9=11,15=111,16=1,31=1/1,2,10;
 10/6=1,7=6,13=1,31=1/2;
 6/7=2,8=2,9=2,10=2,28=1/1;
 7/10=1,18=20,25=1,30=1/1,2,3,16;
 1/5=1,10=4,11=1,14=-1,18=20/3(2);
 2/9=110,15=1/2;
 99//99;
 2/9=110,15=1/2;
 3/5=4,6=6,7=1111,11=2,16=1,25=1,30=1,70=2105,71=1,72=1,74=-5,116=1/1,2,3;
 4/5=5,16=3/1;
 5/5=2,38=5,53=1/2;
 7/30=1/1,2,3,16;
 1/5=1,11=1,14=-1,18=20/3(-5);
 2/9=110,15=1/2;
 6/7=2,8=2,9=2,10=2,19=2,28=1/1;
 99/9=1/99;
 Leave Link    1 at Sat Apr 16 14:26:17 2016, MaxMem=          0 cpu:       0.0
 (Enter c:\G09w02\l101.exe)
 -------------------------------------
 Ala-S-opt-freq-cpcm-w-tsa2-6-311++gdp
 -------------------------------------
 Symbolic Z-matrix:
 Charge =  0 Multiplicity = 1
 N                    -1.16996  -1.22097  -0.32597 
 H                    -1.12279  -1.57073   0.62737 
 C                    -0.56719   0.1153   -0.40834 
 H                     0.35273   1.04812  -1.30927 
 C                    -1.14048   1.15188   0.58015 
 C                     0.93997   0.02989  -0.22133 
 H                    -1.00314   0.81946   1.61238 
 H                    -0.66076   2.12687   0.45894 
 H                    -2.21031   1.27176   0.39456 
 O                     1.29058  -0.80451   0.77568 
 H                    -2.15555  -1.15602  -0.56402 
 O                     1.7507    0.66758  -0.85589 
 H                     2.2566   -0.78838   0.86835 
 
 NAtoms=     13 NQM=     13 NQMF=      0 NMic=      0 NMicF=      0 NTot=     13.
 Add atom      4 valence  3 ND=      2 dihedral       3      4      6     12
                    Isotopes and Nuclear Properties:
 (Nuclear quadrupole moments (NQMom) in fm**2, nuclear magnetic moments (NMagM)
  in nuclear magnetons)

  Atom         1           2           3           4           5           6           7           8           9          10
 IAtWgt=          14           1          12           1          12          12           1           1           1          16
 AtmWgt=  14.0030740   1.0078250  12.0000000   1.0078250  12.0000000  12.0000000   1.0078250   1.0078250   1.0078250  15.9949146
 NucSpn=           2           1           0           1           0           0           1           1           1           0
 AtZEff=   0.0000000   0.0000000   0.0000000   0.0000000   0.0000000   0.0000000   0.0000000   0.0000000   0.0000000   0.0000000
 NQMom=    2.0440000   0.0000000   0.0000000   0.0000000   0.0000000   0.0000000   0.0000000   0.0000000   0.0000000   0.0000000
 NMagM=    0.4037610   2.7928460   0.0000000   2.7928460   0.0000000   0.0000000   2.7928460   2.7928460   2.7928460   0.0000000

  Atom        11          12          13
 IAtWgt=           1          16           1
 AtmWgt=   1.0078250  15.9949146   1.0078250
 NucSpn=           1           0           1
 AtZEff=   0.0000000   0.0000000   0.0000000
 NQMom=    0.0000000   0.0000000   0.0000000
 NMagM=    2.7928460   0.0000000   2.7928460
 Leave Link  101 at Sat Apr 16 14:26:17 2016, MaxMem=   33554432 cpu:       0.0
 (Enter c:\G09w02\l103.exe)

 GradGradGradGradGradGradGradGradGradGradGradGradGradGradGradGradGradGrad
 Berny optimization.
 Initialization pass.
                           ----------------------------
                           !    Initial Parameters    !
                           ! (Angstroms and Degrees)  !
 --------------------------                            --------------------------
 ! Name  Definition              Value          Derivative Info.                !
 --------------------------------------------------------------------------------
 ! R1    R(1,2)                  1.0166         calculate D2E/DX2 analytically  !
 ! R2    R(1,3)                  1.4682         calculate D2E/DX2 analytically  !
 ! R3    R(1,11)                 1.016          calculate D2E/DX2 analytically  !
 ! R4    R(3,4)                  1.59           calculate D2E/DX2 analytically  !
 ! R5    R(3,5)                  1.5428         calculate D2E/DX2 analytically  !
 ! R6    R(3,6)                  1.5211         calculate D2E/DX2 analytically  !
 ! R7    R(4,6)                  1.6016         calculate D2E/DX2 analytically  !
 ! R8    R(4,12)                 1.5181         calculate D2E/DX2 analytically  !
 ! R9    R(5,7)                  1.0931         calculate D2E/DX2 analytically  !
 ! R10   R(5,8)                  1.0934         calculate D2E/DX2 analytically  !
 ! R11   R(5,9)                  1.0924         calculate D2E/DX2 analytically  !
 ! R12   R(6,10)                 1.3465         calculate D2E/DX2 analytically  !
 ! R13   R(6,12)                 1.211          calculate D2E/DX2 analytically  !
 ! R14   R(10,13)                0.9706         calculate D2E/DX2 analytically  !
 ! A1    A(2,1,3)              110.2851         calculate D2E/DX2 analytically  !
 ! A2    A(2,1,11)             106.6622         calculate D2E/DX2 analytically  !
 ! A3    A(3,1,11)             109.0821         calculate D2E/DX2 analytically  !
 ! A4    A(1,3,4)              143.4422         calculate D2E/DX2 analytically  !
 ! A5    A(1,3,5)              115.024          calculate D2E/DX2 analytically  !
 ! A6    A(1,3,6)              110.4123         calculate D2E/DX2 analytically  !
 ! A7    A(4,3,5)              100.594          calculate D2E/DX2 analytically  !
 ! A8    A(5,3,6)              109.0948         calculate D2E/DX2 analytically  !
 ! A9    A(3,4,12)             102.5035         calculate D2E/DX2 analytically  !
 ! A10   A(3,5,7)              110.7332         calculate D2E/DX2 analytically  !
 ! A11   A(3,5,8)              111.4126         calculate D2E/DX2 analytically  !
 ! A12   A(3,5,9)              109.1952         calculate D2E/DX2 analytically  !
 ! A13   A(7,5,8)              108.7079         calculate D2E/DX2 analytically  !
 ! A14   A(7,5,9)              108.4727         calculate D2E/DX2 analytically  !
 ! A15   A(8,5,9)              108.2397         calculate D2E/DX2 analytically  !
 ! A16   A(3,6,10)             112.5698         calculate D2E/DX2 analytically  !
 ! A17   A(3,6,12)             124.7032         calculate D2E/DX2 analytically  !
 ! A18   A(4,6,10)             172.9102         calculate D2E/DX2 analytically  !
 ! A19   A(10,6,12)            122.6804         calculate D2E/DX2 analytically  !
 ! A20   A(6,10,13)            108.6356         calculate D2E/DX2 analytically  !
 ! D1    D(2,1,3,4)            139.9879         calculate D2E/DX2 analytically  !
 ! D2    D(2,1,3,5)            -54.0404         calculate D2E/DX2 analytically  !
 ! D3    D(2,1,3,6)             69.9416         calculate D2E/DX2 analytically  !
 ! D4    D(11,1,3,4)          -103.1836         calculate D2E/DX2 analytically  !
 ! D5    D(11,1,3,5)            62.7882         calculate D2E/DX2 analytically  !
 ! D6    D(11,1,3,6)          -173.2299         calculate D2E/DX2 analytically  !
 ! D7    D(1,3,4,12)           -85.9822         calculate D2E/DX2 analytically  !
 ! D8    D(5,3,4,12)           106.9298         calculate D2E/DX2 analytically  !
 ! D9    D(1,3,5,7)             59.6726         calculate D2E/DX2 analytically  !
 ! D10   D(1,3,5,8)           -179.2081         calculate D2E/DX2 analytically  !
 ! D11   D(1,3,5,9)            -59.7021         calculate D2E/DX2 analytically  !
 ! D12   D(4,3,5,7)           -128.7738         calculate D2E/DX2 analytically  !
 ! D13   D(4,3,5,8)             -7.6546         calculate D2E/DX2 analytically  !
 ! D14   D(4,3,5,9)            111.8515         calculate D2E/DX2 analytically  !
 ! D15   D(6,3,5,7)            -65.0022         calculate D2E/DX2 analytically  !
 ! D16   D(6,3,5,8)             56.1171         calculate D2E/DX2 analytically  !
 ! D17   D(6,3,5,9)            175.6231         calculate D2E/DX2 analytically  !
 ! D18   D(1,3,6,10)           -43.0456         calculate D2E/DX2 analytically  !
 ! D19   D(1,3,6,12)           139.3875         calculate D2E/DX2 analytically  !
 ! D20   D(5,3,6,10)            84.2873         calculate D2E/DX2 analytically  !
 ! D21   D(5,3,6,12)           -93.2796         calculate D2E/DX2 analytically  !
 ! D22   D(3,4,6,12)           178.8746         calculate D2E/DX2 analytically  !
 ! D23   D(3,6,10,13)         -177.7448         calculate D2E/DX2 analytically  !
 ! D24   D(4,6,10,13)         -150.8167         calculate D2E/DX2 analytically  !
 ! D25   D(12,6,10,13)          -0.1212         calculate D2E/DX2 analytically  !
 --------------------------------------------------------------------------------
 Trust Radius=3.00D-01 FncErr=1.00D-07 GrdErr=1.00D-06
 Number of steps in this run=     69 maximum allowed number of steps=    100.
 Search for a saddle point of order  1.
 GradGradGradGradGradGradGradGradGradGradGradGradGradGradGradGradGradGrad

 Leave Link  103 at Sat Apr 16 14:26:17 2016, MaxMem=   33554432 cpu:       0.0
 (Enter c:\G09w02\l202.exe)
                          Input orientation:                          
 ---------------------------------------------------------------------
 Center     Atomic      Atomic             Coordinates (Angstroms)
 Number     Number       Type             X           Y           Z
 ---------------------------------------------------------------------
      1          7           0       -1.169961   -1.220967   -0.325975
      2          1           0       -1.122790   -1.570730    0.627368
      3          6           0       -0.567193    0.115299   -0.408336
      4          1           0        0.352731    1.048120   -1.309271
      5          6           0       -1.140479    1.151882    0.580150
      6          6           0        0.939971    0.029890   -0.221328
      7          1           0       -1.003137    0.819462    1.612382
      8          1           0       -0.660763    2.126875    0.458942
      9          1           0       -2.210313    1.271763    0.394558
     10          8           0        1.290579   -0.804506    0.775680
     11          1           0       -2.155545   -1.156016   -0.564017
     12          8           0        1.750702    0.667581   -0.855892
     13          1           0        2.256604   -0.788383    0.868345
 ---------------------------------------------------------------------
                    Distance matrix (angstroms):
                    1          2          3          4          5
     1  N    0.000000
     2  H    1.016574   0.000000
     3  C    1.468237   2.055253   0.000000
     4  H    2.904173   3.575767   1.590000   0.000000
     5  C    2.540146   2.723079   1.542811   2.410468   0.000000
     6  C    2.455078   2.745406   1.521121   1.601644   2.495898
     7  H    2.819292   2.587970   2.183848   3.229043   1.093101
     8  H    3.476122   3.730163   2.192570   2.305962   1.093357
     9  H    2.795568   3.052323   2.163768   3.085814   1.092410
    10  O    2.727882   2.536424   2.387311   2.942584   3.126616
    11  H    1.016001   1.630328   2.040427   3.421267   2.768731
    12  O    3.518195   3.932817   2.424450   1.518119   3.264306
    13  H    3.654432   3.477131   3.228062   3.426293   3.922736
                    6          7          8          9         10
     6  C    0.000000
     7  H    2.785962   0.000000
     8  H    2.724420   1.776787   0.000000
     9  H    3.441781   1.773399   1.771007   0.000000
    10  O    1.346539   2.932316   3.535683   4.088079   0.000000
    11  H    3.332571   3.157098   3.749426   2.610743   3.714043
    12  O    1.211035   3.701226   3.110224   4.197416   2.245168
    13  H    1.894856   3.710077   4.144559   4.941864   0.970593
                   11         12         13
    11  H    0.000000
    12  O    4.320817   0.000000
    13  H    4.653372   2.312739   0.000000
 Symmetry turned off by external request.
 Stoichiometry    C3H7NO2
 Framework group  C1[X(C3H7NO2)]
 Deg. of freedom    33
 Full point group                 C1      NOp   1
 Rotational constants (GHZ):      5.0041099      2.9128204      2.4369487
 Leave Link  202 at Sat Apr 16 14:26:17 2016, MaxMem=   33554432 cpu:       0.0
 (Enter c:\G09w02\l301.exe)
 Standard basis: 6-311++G(d,p) (5D, 7F)
 Ernie: Thresh=  0.10000D-02 Tol=  0.10000D-05 Strict=F.
 Integral buffers will be    262144 words long.
 Raffenetti 2 integral format.
 Two-electron integral symmetry is turned off.
   181 basis functions,   279 primitive gaussians,   187 cartesian basis functions
    24 alpha electrons       24 beta electrons
       nuclear repulsion energy       248.9490592694 Hartrees.
 IExCor=  402 DFT=T Ex+Corr=B3LYP ExCW=0 ScaHFX=  0.200000
 ScaDFX=  0.800000  0.720000  1.000000  0.810000 ScalE2=  1.000000  1.000000
 IRadAn=      0 IRanWt=     -1 IRanGd=            0 ICorTp=0
 NAtoms=   13 NActive=   13 NUniq=   13 SFac= 1.00D+00 NAtFMM=   50 NAOKFM=F Big=F
 ------------------------------------------------------------------------------
 Polarizable Continuum Model (PCM)
 =================================
 Model                : C-PCM.
 Atomic radii         : UFF (Universal Force Field).
 Polarization charges : Total charges.
 Charge compensation  : None.
 Solution method      : Matrix inversion.
 Cavity type          : Scaled VdW (van der Waals Surface) (Alpha=1.100).
 Cavity algorithm     : GePol (No added spheres)
                        Default sphere list used, NSphG=   13.
                        Lebedev-Laikov grids with approx.  5.0 points / Ang**2.
                        Smoothing algorithm: Karplus/York (Gamma=1.0000).
                        Polarization charges: spherical gaussians, with
                                              point-specific exponents (IZeta= 3).
                        Self-potential: point-specific (ISelfS= 7).
                        Self-field    : sphere-specific E.n sum rule (ISelfD= 2).
 1st derivatives      : Analytical E(r).r(x)/FMM algorithm (CHGder, D1EAlg=3).
                        Cavity 1st derivative terms included.
 2nd derivatives      : Analytical E(r).r(xy)/FMM algorithm (CHGder, D2EAlg=3).
                        Cavity 2nd derivative terms included.
 Solvent              : Water, Eps=  78.355300 Eps(inf)=   1.777849
 ------------------------------------------------------------------------------
 Spheres list:
 ISph  on   Nord    Re0     Alpha      Xe            Ye            Ze
    1   N      1    1.830   1.100     -1.169961     -1.220967     -0.325975
    2   H      2    1.443   1.100     -1.122790     -1.570730      0.627368
    3   C      3    1.926   1.100     -0.567193      0.115299     -0.408336
    4   H      4    1.443   1.100      0.352731      1.048120     -1.309271
    5   C      5    1.926   1.100     -1.140479      1.151882      0.580150
    6   C      6    1.926   1.100      0.939971      0.029890     -0.221328
    7   H      7    1.443   1.100     -1.003137      0.819462      1.612382
    8   H      8    1.443   1.100     -0.660763      2.126875      0.458942
    9   H      9    1.443   1.100     -2.210313      1.271763      0.394558
   10   O     10    1.750   1.100      1.290579     -0.804506      0.775680
   11   H     11    1.443   1.100     -2.155545     -1.156016     -0.564017
   12   O     12    1.750   1.100      1.750702      0.667581     -0.855892
   13   H     13    1.443   1.100      2.256604     -0.788383      0.868345
 ------------------------------------------------------------------------------
 GePol: Number of generator spheres                  =      13
 GePol: Total number of spheres                      =      13
 GePol: Number of exposed spheres                    =      13 (100.00%)
 GePol: Number of points                             =    1094
 GePol: Average weight of points                     =       0.14
 GePol: Minimum weight of points                     =   0.24D-08
 GePol: Maximum weight of points                     =    0.20577
 GePol: Number of points with low weight             =      62
 GePol: Fraction of low-weight points (<1% of avg)   =       5.67%
 GePol: Cavity surface area                          =    150.224 Ang**2
 GePol: Cavity volume                                =    139.069 Ang**3
 Leave Link  301 at Sat Apr 16 14:26:17 2016, MaxMem=   33554432 cpu:       0.0
 (Enter c:\G09w02\l302.exe)
 NPDir=0 NMtPBC=     1 NCelOv=     1 NCel=       1 NClECP=     1 NCelD=      1
         NCelK=      1 NCelE2=     1 NClLst=     1 CellRange=     0.0.
 One-electron integrals computed using PRISM.
 NBasis=   181 RedAO= T  NBF=   181
 NBsUse=   181 1.00D-06 NBFU=   181
 Precomputing XC quadrature grid using
 IXCGrd= 2 IRadAn=           0 IRanWt=          -1 IRanGd=           0 AccXCQ= 0.00D+00.
 NRdTot=     842 NPtTot=      106912 NUsed=      110844 NTot=      110860
 NSgBfM=   187   187   187   187   187 NAtAll=    13    13.
 Leave Link  302 at Sat Apr 16 14:26:17 2016, MaxMem=   33554432 cpu:       0.0
 (Enter c:\G09w02\l303.exe)
 DipDrv:  MaxL=1.
 Leave Link  303 at Sat Apr 16 14:26:18 2016, MaxMem=   33554432 cpu:       0.0
 (Enter c:\G09w02\l401.exe)
 Harris functional with IExCor=  402 diagonalized for initial guess.
 ExpMin= 3.60D-02 ExpMax= 8.59D+03 ExpMxC= 1.30D+03 IAcc=3 IRadAn=         0 AccDes= 0.00D+00
 HarFok:  IExCor=  402 AccDes= 0.00D+00 IRadAn=         0 IDoV= 1
 ScaDFX=  1.000000  1.000000  1.000000  1.000000
 FoFCou: FMM=F IPFlag=           0 FMFlag=      100000 FMFlg1=           0
         NFxFlg=           0 DoJE=T BraDBF=F KetDBF=T FulRan=T
         Omega=  0.000000  0.000000  1.000000  0.000000  0.000000 ICntrl=     500 IOpCl=  0
         NMat0=    1 NMatS0=    1 NMatT0=    0 NMatD0=    1 NMtDS0=    0 NMtDT0=    0
         I1Cent=           4 NGrid=           0.
 Symmetry not used in FoFCou.
 Harris En= -323.738070892990    
 Leave Link  401 at Sat Apr 16 14:26:22 2016, MaxMem=   33554432 cpu:       4.0
 (Enter c:\G09w02\l502.exe)
 Closed shell SCF:
 Requested convergence on RMS density matrix=1.00D-08 within 128 cycles.
 Requested convergence on MAX density matrix=1.00D-06.
 Requested convergence on             energy=1.00D-06.
 No special actions if energy rises.
 Using DIIS extrapolation, IDIIS=  1040.
 Two-electron integral symmetry not used.
       110727 words used for storage of precomputed grid.
 IEnd=      235933 IEndB=      235933 NGot=    33554432 MDV=    33370296
 LenX=    33370296 LenY=    33334886
 Fock matrices will be formed incrementally for  20 cycles.

 Cycle   1  Pass 1  IDiag  1:
 FoFCou: FMM=F IPFlag=           0 FMFlag=      100000 FMFlg1=           0
         NFxFlg=           0 DoJE=F BraDBF=F KetDBF=F FulRan=T
         Omega=  0.000000  0.000000  1.000000  0.000000  0.000000 ICntrl=       0 IOpCl=  0
         NMat0=    1 NMatS0=    1 NMatT0=    0 NMatD0=    1 NMtDS0=    0 NMtDT0=    0
         I1Cent=           0 NGrid=           0.
 Symmetry not used in FoFCou.
 E= -323.523823692953    
 DIIS: error= 3.17D-02 at cycle   1 NSaved=   1.
 NSaved= 1 IEnMin= 1 EnMin= -323.523823692953     IErMin= 1 ErrMin= 3.17D-02
 ErrMax= 3.17D-02 EMaxC= 1.00D-01 BMatC= 2.58D-01 BMatP= 2.58D-01
 IDIUse=3 WtCom= 6.83D-01 WtEn= 3.17D-01
 Coeff-Com:  0.100D+01
 Coeff-En:   0.100D+01
 Coeff:      0.100D+01
 Gap=     0.165 Goal=   None    Shift=    0.000
 GapD=    0.165 DampG=1.000 DampE=0.500 DampFc=0.5000 IDamp=-1.
 Damping current iteration by 5.00D-01
 RMSDP=8.32D-03 MaxDP=3.04D-01              OVMax= 2.49D-01

 Cycle   2  Pass 1  IDiag  1:
 RMSU=  2.77D-03    CP:  9.34D-01
 E= -323.589665591471     Delta-E=       -0.065841898518 Rises=F Damp=T
 DIIS: error= 6.91D-03 at cycle   2 NSaved=   2.
 NSaved= 2 IEnMin= 2 EnMin= -323.589665591471     IErMin= 2 ErrMin= 6.91D-03
 ErrMax= 6.91D-03 EMaxC= 1.00D-01 BMatC= 1.99D-02 BMatP= 2.58D-01
 IDIUse=3 WtCom= 9.31D-01 WtEn= 6.91D-02
 Coeff-Com:  0.167D+00 0.833D+00
 Coeff-En:   0.308D+00 0.692D+00
 Coeff:      0.177D+00 0.823D+00
 Gap=     0.220 Goal=   None    Shift=    0.000
 RMSDP=2.92D-03 MaxDP=2.95D-01 DE=-6.58D-02 OVMax= 1.50D-01

 Cycle   3  Pass 1  IDiag  1:
 RMSU=  1.68D-03    CP:  8.56D-01  9.15D-01
 E= -323.722121894193     Delta-E=       -0.132456302722 Rises=F Damp=F
 DIIS: error= 3.70D-03 at cycle   3 NSaved=   3.
 NSaved= 3 IEnMin= 3 EnMin= -323.722121894193     IErMin= 3 ErrMin= 3.70D-03
 ErrMax= 3.70D-03 EMaxC= 1.00D-01 BMatC= 4.29D-03 BMatP= 1.99D-02
 IDIUse=3 WtCom= 9.63D-01 WtEn= 3.70D-02
 Coeff-Com:  0.245D-01 0.314D+00 0.662D+00
 Coeff-En:   0.000D+00 0.000D+00 0.100D+01
 Coeff:      0.236D-01 0.302D+00 0.674D+00
 Gap=     0.197 Goal=   None    Shift=    0.000
 RMSDP=6.56D-04 MaxDP=4.13D-02 DE=-1.32D-01 OVMax= 1.70D-02

 Cycle   4  Pass 1  IDiag  1:
 RMSU=  3.89D-04    CP:  8.44D-01  9.72D-01  1.05D+00
 E= -323.724946371894     Delta-E=       -0.002824477702 Rises=F Damp=F
 DIIS: error= 1.72D-03 at cycle   4 NSaved=   4.
 NSaved= 4 IEnMin= 4 EnMin= -323.724946371894     IErMin= 4 ErrMin= 1.72D-03
 ErrMax= 1.72D-03 EMaxC= 1.00D-01 BMatC= 1.03D-03 BMatP= 4.29D-03
 IDIUse=3 WtCom= 9.83D-01 WtEn= 1.72D-02
 Coeff-Com: -0.730D-02 0.651D-01 0.359D+00 0.583D+00
 Coeff-En:   0.000D+00 0.000D+00 0.180D+00 0.820D+00
 Coeff:     -0.718D-02 0.639D-01 0.356D+00 0.587D+00
 Gap=     0.198 Goal=   None    Shift=    0.000
 RMSDP=3.44D-04 MaxDP=3.04D-02 DE=-2.82D-03 OVMax= 7.05D-03

 Cycle   5  Pass 1  IDiag  1:
 RMSU=  1.52D-04    CP:  8.34D-01  9.92D-01  1.10D+00  8.77D-01
 E= -323.725830797643     Delta-E=       -0.000884425748 Rises=F Damp=F
 DIIS: error= 4.91D-04 at cycle   5 NSaved=   5.
 NSaved= 5 IEnMin= 5 EnMin= -323.725830797643     IErMin= 5 ErrMin= 4.91D-04
 ErrMax= 4.91D-04 EMaxC= 1.00D-01 BMatC= 5.62D-05 BMatP= 1.03D-03
 IDIUse=3 WtCom= 9.95D-01 WtEn= 4.91D-03
 Coeff-Com: -0.476D-02 0.170D-01 0.147D+00 0.293D+00 0.547D+00
 Coeff-En:   0.000D+00 0.000D+00 0.000D+00 0.000D+00 0.100D+01
 Coeff:     -0.474D-02 0.169D-01 0.147D+00 0.292D+00 0.550D+00
 Gap=     0.199 Goal=   None    Shift=    0.000
 RMSDP=7.64D-05 MaxDP=3.76D-03 DE=-8.84D-04 OVMax= 3.24D-03

 Cycle   6  Pass 1  IDiag  1:
 RMSU=  4.24D-05    CP:  8.35D-01  9.93D-01  1.10D+00  8.70D-01  7.95D-01
 E= -323.725857977069     Delta-E=       -0.000027179427 Rises=F Damp=F
 DIIS: error= 3.39D-04 at cycle   6 NSaved=   6.
 NSaved= 6 IEnMin= 6 EnMin= -323.725857977069     IErMin= 6 ErrMin= 3.39D-04
 ErrMax= 3.39D-04 EMaxC= 1.00D-01 BMatC= 2.28D-05 BMatP= 5.62D-05
 IDIUse=3 WtCom= 9.97D-01 WtEn= 3.39D-03
 Coeff-Com: -0.197D-02 0.178D-02 0.502D-01 0.117D+00 0.394D+00 0.439D+00
 Coeff-En:   0.000D+00 0.000D+00 0.000D+00 0.000D+00 0.305D+00 0.695D+00
 Coeff:     -0.197D-02 0.177D-02 0.500D-01 0.117D+00 0.394D+00 0.440D+00
 Gap=     0.198 Goal=   None    Shift=    0.000
 RMSDP=2.92D-05 MaxDP=1.05D-03 DE=-2.72D-05 OVMax= 1.53D-03

 Cycle   7  Pass 1  IDiag  1:
 RMSU=  1.64D-05    CP:  8.35D-01  9.95D-01  1.10D+00  8.70D-01  7.97D-01
                    CP:  7.76D-01
 E= -323.725875121809     Delta-E=       -0.000017144740 Rises=F Damp=F
 DIIS: error= 4.07D-05 at cycle   7 NSaved=   7.
 NSaved= 7 IEnMin= 7 EnMin= -323.725875121809     IErMin= 7 ErrMin= 4.07D-05
 ErrMax= 4.07D-05 EMaxC= 1.00D-01 BMatC= 4.62D-07 BMatP= 2.28D-05
 IDIUse=1 WtCom= 1.00D+00 WtEn= 0.00D+00
 Coeff-Com: -0.375D-03-0.251D-03 0.118D-01 0.295D-01 0.131D+00 0.200D+00
 Coeff-Com:  0.628D+00
 Coeff:     -0.375D-03-0.251D-03 0.118D-01 0.295D-01 0.131D+00 0.200D+00
 Coeff:      0.628D+00
 Gap=     0.198 Goal=   None    Shift=    0.000
 RMSDP=9.57D-06 MaxDP=2.89D-04 DE=-1.71D-05 OVMax= 1.88D-04

 Cycle   8  Pass 1  IDiag  1:
 RMSU=  5.35D-06    CP:  8.35D-01  9.95D-01  1.10D+00  8.73D-01  7.97D-01
                    CP:  8.15D-01  1.05D+00
 E= -323.725875500353     Delta-E=       -0.000000378544 Rises=F Damp=F
 DIIS: error= 1.64D-05 at cycle   8 NSaved=   8.
 NSaved= 8 IEnMin= 8 EnMin= -323.725875500353     IErMin= 8 ErrMin= 1.64D-05
 ErrMax= 1.64D-05 EMaxC= 1.00D-01 BMatC= 6.73D-08 BMatP= 4.62D-07
 IDIUse=1 WtCom= 1.00D+00 WtEn= 0.00D+00
 Coeff-Com:  0.113D-03-0.556D-03-0.108D-02-0.161D-02 0.116D-01 0.456D-01
 Coeff-Com:  0.316D+00 0.630D+00
 Coeff:      0.113D-03-0.556D-03-0.108D-02-0.161D-02 0.116D-01 0.456D-01
 Coeff:      0.316D+00 0.630D+00
 Gap=     0.198 Goal=   None    Shift=    0.000
 RMSDP=4.50D-06 MaxDP=2.94D-04 DE=-3.79D-07 OVMax= 8.33D-05

 Cycle   9  Pass 1  IDiag  1:
 RMSU=  1.14D-06    CP:  8.35D-01  9.96D-01  1.10D+00  8.75D-01  8.04D-01
                    CP:  8.41D-01  1.10D+00  9.89D-01
 E= -323.725875554279     Delta-E=       -0.000000053926 Rises=F Damp=F
 DIIS: error= 4.98D-06 at cycle   9 NSaved=   9.
 NSaved= 9 IEnMin= 9 EnMin= -323.725875554279     IErMin= 9 ErrMin= 4.98D-06
 ErrMax= 4.98D-06 EMaxC= 1.00D-01 BMatC= 5.85D-09 BMatP= 6.73D-08
 IDIUse=1 WtCom= 1.00D+00 WtEn= 0.00D+00
 Coeff-Com:  0.768D-04-0.236D-03-0.128D-02-0.284D-02-0.424D-02 0.837D-02
 Coeff-Com:  0.107D+00 0.302D+00 0.591D+00
 Coeff:      0.768D-04-0.236D-03-0.128D-02-0.284D-02-0.424D-02 0.837D-02
 Coeff:      0.107D+00 0.302D+00 0.591D+00
 Gap=     0.198 Goal=   None    Shift=    0.000
 RMSDP=7.88D-07 MaxDP=2.59D-05 DE=-5.39D-08 OVMax= 2.44D-05

 Cycle  10  Pass 1  IDiag  1:
 RMSU=  3.44D-07    CP:  8.35D-01  9.96D-01  1.10D+00  8.75D-01  8.04D-01
                    CP:  8.47D-01  1.11D+00  1.03D+00  9.85D-01
 E= -323.725875558646     Delta-E=       -0.000000004366 Rises=F Damp=F
 DIIS: error= 1.81D-06 at cycle  10 NSaved=  10.
 NSaved=10 IEnMin=10 EnMin= -323.725875558646     IErMin=10 ErrMin= 1.81D-06
 ErrMax= 1.81D-06 EMaxC= 1.00D-01 BMatC= 7.49D-10 BMatP= 5.85D-09
 IDIUse=1 WtCom= 1.00D+00 WtEn= 0.00D+00
 Coeff-Com:  0.217D-04-0.436D-04-0.505D-03-0.124D-02-0.362D-02-0.138D-02
 Coeff-Com:  0.130D-01 0.632D-01 0.294D+00 0.636D+00
 Coeff:      0.217D-04-0.436D-04-0.505D-03-0.124D-02-0.362D-02-0.138D-02
 Coeff:      0.130D-01 0.632D-01 0.294D+00 0.636D+00
 Gap=     0.198 Goal=   None    Shift=    0.000
 RMSDP=3.20D-07 MaxDP=8.59D-06 DE=-4.37D-09 OVMax= 1.14D-05

 Cycle  11  Pass 1  IDiag  1:
 RMSU=  1.49D-07    CP:  8.35D-01  9.96D-01  1.10D+00  8.75D-01  8.04D-01
                    CP:  8.49D-01  1.12D+00  1.04D+00  9.83D-01  8.93D-01
 E= -323.725875559277     Delta-E=       -0.000000000631 Rises=F Damp=F
 DIIS: error= 4.21D-07 at cycle  11 NSaved=  11.
 NSaved=11 IEnMin=11 EnMin= -323.725875559277     IErMin=11 ErrMin= 4.21D-07
 ErrMax= 4.21D-07 EMaxC= 1.00D-01 BMatC= 5.31D-11 BMatP= 7.49D-10
 IDIUse=1 WtCom= 1.00D+00 WtEn= 0.00D+00
 Coeff-Com: -0.201D-06 0.470D-05-0.101D-03-0.285D-03-0.121D-02-0.143D-02
 Coeff-Com: -0.526D-02-0.587D-02 0.562D-01 0.254D+00 0.704D+00
 Coeff:     -0.201D-06 0.470D-05-0.101D-03-0.285D-03-0.121D-02-0.143D-02
 Coeff:     -0.526D-02-0.587D-02 0.562D-01 0.254D+00 0.704D+00
 Gap=     0.198 Goal=   None    Shift=    0.000
 RMSDP=1.56D-07 MaxDP=5.11D-06 DE=-6.31D-10 OVMax= 3.41D-06

 Cycle  12  Pass 1  IDiag  1:
 RMSU=  3.25D-08    CP:  8.35D-01  9.96D-01  1.10D+00  8.75D-01  8.04D-01
                    CP:  8.50D-01  1.12D+00  1.05D+00  1.01D+00  9.27D-01
                    CP:  8.60D-01
 E= -323.725875559316     Delta-E=       -0.000000000040 Rises=F Damp=F
 DIIS: error= 1.86D-07 at cycle  12 NSaved=  12.
 NSaved=12 IEnMin=12 EnMin= -323.725875559316     IErMin=12 ErrMin= 1.86D-07
 ErrMax= 1.86D-07 EMaxC= 1.00D-01 BMatC= 1.33D-11 BMatP= 5.31D-11
 IDIUse=1 WtCom= 1.00D+00 WtEn= 0.00D+00
 Coeff-Com: -0.219D-05 0.594D-05 0.319D-05-0.166D-04-0.173D-03-0.325D-03
 Coeff-Com: -0.285D-02-0.687D-02 0.501D-02 0.807D-01 0.401D+00 0.523D+00
 Coeff:     -0.219D-05 0.594D-05 0.319D-05-0.166D-04-0.173D-03-0.325D-03
 Coeff:     -0.285D-02-0.687D-02 0.501D-02 0.807D-01 0.401D+00 0.523D+00
 Gap=     0.198 Goal=   None    Shift=    0.000
 RMSDP=3.45D-08 MaxDP=2.00D-06 DE=-3.97D-11 OVMax= 1.66D-06

 Cycle  13  Pass 1  IDiag  1:
 RMSU=  1.11D-08    CP:  8.35D-01  9.96D-01  1.10D+00  8.75D-01  8.04D-01
                    CP:  8.49D-01  1.12D+00  1.05D+00  1.02D+00  9.44D-01
                    CP:  8.97D-01  7.15D-01
 E= -323.725875559327     Delta-E=       -0.000000000011 Rises=F Damp=F
 DIIS: error= 4.02D-08 at cycle  13 NSaved=  13.
 NSaved=13 IEnMin=13 EnMin= -323.725875559327     IErMin=13 ErrMin= 4.02D-08
 ErrMax= 4.02D-08 EMaxC= 1.00D-01 BMatC= 4.61D-13 BMatP= 1.33D-11
 IDIUse=1 WtCom= 1.00D+00 WtEn= 0.00D+00
 Coeff-Com: -0.341D-06 0.108D-05 0.664D-05 0.108D-04 0.180D-04 0.757D-05
 Coeff-Com: -0.698D-03-0.159D-02-0.583D-02-0.422D-02 0.381D-01 0.150D+00
 Coeff-Com:  0.824D+00
 Coeff:     -0.341D-06 0.108D-05 0.664D-05 0.108D-04 0.180D-04 0.757D-05
 Coeff:     -0.698D-03-0.159D-02-0.583D-02-0.422D-02 0.381D-01 0.150D+00
 Coeff:      0.824D+00
 Gap=     0.198 Goal=   None    Shift=    0.000
 RMSDP=9.34D-09 MaxDP=2.69D-07 DE=-1.10D-11 OVMax= 4.21D-07

 Error on total polarization charges =  0.01397
 SCF Done:  E(RB3LYP) =  -323.725875559     A.U. after   13 cycles
             Convg  =    0.9344D-08             -V/T =  2.0041
 KE= 3.224128135751D+02 PE=-1.255915784129D+03 EE= 3.608280357248D+02
 Leave Link  502 at Sat Apr 16 14:29:00 2016, MaxMem=   33554432 cpu:     158.0
 (Enter c:\G09w02\l801.exe)
 Range of M.O.s used for correlation:     1   181
 NBasis=   181 NAE=    24 NBE=    24 NFC=     0 NFV=     0
 NROrb=    181 NOA=    24 NOB=    24 NVA=   157 NVB=   157

 **** Warning!!: The largest alpha MO coefficient is  0.69455684D+02

 Leave Link  801 at Sat Apr 16 14:29:00 2016, MaxMem=   33554432 cpu:       0.0
 (Enter c:\G09w02\l1101.exe)
 Using compressed storage, NAtomX=    13.
 Will process  14 centers per pass.
 Leave Link 1101 at Sat Apr 16 14:29:01 2016, MaxMem=   33554432 cpu:       1.0
 (Enter c:\G09w02\l1102.exe)
 Symmetrizing basis deriv contribution to polar:
 IMax=3 JMax=2 DiffMx= 0.00D+00
 Leave Link 1102 at Sat Apr 16 14:29:01 2016, MaxMem=   33554432 cpu:       0.0
 (Enter c:\G09w02\l1110.exe)
 Forming Gx(P) for the SCF density, NAtomX=    13.
 Integral derivatives from FoFDir/FoFCou, PRISM(SPDF).
 Do as many integral derivatives as possible in FoFDir.
 G2DrvN: MDV=      33554300.
 G2DrvN: will do    14 centers at a time, making    1 passes doing MaxLOS=2.
 Calling FoFCou, ICntrl=  3107 FMM=F I1Cent=   0 AccDes= 0.00D+00.
 FoFCou: FMM=F IPFlag=           0 FMFlag=      100000 FMFlg1=           0
         NFxFlg=           0 DoJE=F BraDBF=F KetDBF=F FulRan=T
         Omega=  0.000000  0.000000  1.000000  0.000000  0.000000 ICntrl=    3107 IOpCl=  0
         NMat0=    1 NMatS0=    1 NMatT0=    0 NMatD0=    1 NMtDS0=    0 NMtDT0=    0
         I1Cent=           0 NGrid=           0.
 Symmetry not used in FoFCou.
 FoFDir/FoFCou used for L=0 through L=2.
 G2PCM: DoFxE=T DoFxN=T DoGrad=T DoPD/DQ/DG=FFF NFrqRd=   0 IEInf=0 DoCFld=F IF1Alg=4.
 GePol: Maximum number of non-zero 1st derivatives   =     203
 End of G2Drv Frequency-dependent properties file   721 does not exist.
 End of G2Drv Frequency-dependent properties file   722 does not exist.
 Leave Link 1110 at Sat Apr 16 14:32:10 2016, MaxMem=   33554432 cpu:     189.0
 (Enter c:\G09w02\l1002.exe)
 Minotr:  Closed shell wavefunction.
          IDoAtm=1111111111111
 NEqPCM:  Using equilibrium solvation (IEInf=0, Eps=  78.3553, EpsInf=   1.7778)
          Direct CPHF calculation.
          Differentiating once with respect to nuclear coordinates.
          Requested convergence is 1.0D-06 RMS, and 1.0D-05 maximum.
          Secondary convergence is 1.0D-12 RMS, and 1.0D-12 maximum.
          NewPWx=T KeepS1=F KeepF1=F KeepIn=T MapXYZ=F SortEE=F KeepMc=T.
          MDV=      33554336 using IRadAn=       2.
 Generate precomputed XC quadrature information.
          Solving linear equations simultaneously, MaxMat=       0.
 Symmetry not used in FoFDir.
 MinBra= 0 MaxBra= 2 Meth= 1.
 IRaf=       0 NMat=  42 IRICut=     105 DoRegI=T DoRafI=T ISym2E= 0 JSym2E=0.
          There are    42 degrees of freedom in the 1st order CPHF.  IDoFFX=5.
     36 vectors produced by pass  0 Test12= 8.97D-11 2.38D-07 XBig12= 2.38D-01 1.84D-01.
 AX will form    36 AO Fock derivatives at one time.
     36 vectors produced by pass  1 Test12= 8.97D-11 2.38D-07 XBig12= 6.74D-02 8.55D-02.
     36 vectors produced by pass  2 Test12= 8.97D-11 2.38D-07 XBig12= 4.51D-04 2.87D-03.
     36 vectors produced by pass  3 Test12= 8.97D-11 2.38D-07 XBig12= 1.65D-06 1.74D-04.
     21 vectors produced by pass  4 Test12= 8.97D-11 2.38D-07 XBig12= 4.18D-09 9.35D-06.
      1 vectors produced by pass  5 Test12= 8.97D-11 2.38D-07 XBig12= 6.76D-12 3.66D-07.
 Inverted reduced A of dimension   166 with in-core refinement.
 End of Minotr Frequency-dependent properties file   721 does not exist.
 End of Minotr Frequency-dependent properties file   722 does not exist.
 Leave Link 1002 at Sat Apr 16 14:36:56 2016, MaxMem=   33554432 cpu:     286.0
 (Enter c:\G09w02\l601.exe)
 Copying SCF densities to generalized density rwf, IOpCl= 0 IROHF=0.

 **********************************************************************

            Population analysis using the SCF density.

 **********************************************************************

 Alpha  occ. eigenvalues --  -19.19235 -19.16526 -14.31349 -10.33353 -10.22537
 Alpha  occ. eigenvalues --  -10.17013  -1.14788  -1.06553  -0.90005  -0.75598
 Alpha  occ. eigenvalues --   -0.68294  -0.60819  -0.53269  -0.51875  -0.49059
 Alpha  occ. eigenvalues --   -0.48275  -0.43677  -0.41967  -0.41012  -0.39576
 Alpha  occ. eigenvalues --   -0.36145  -0.34024  -0.27639  -0.23726
 Alpha virt. eigenvalues --   -0.03879  -0.01460  -0.00482   0.00977   0.01978
 Alpha virt. eigenvalues --    0.03896   0.04635   0.05574   0.05955   0.06305
 Alpha virt. eigenvalues --    0.07574   0.08246   0.10319   0.10692   0.11400
 Alpha virt. eigenvalues --    0.12056   0.12409   0.13132   0.13580   0.15315
 Alpha virt. eigenvalues --    0.15689   0.16488   0.17626   0.18241   0.19266
 Alpha virt. eigenvalues --    0.20709   0.20876   0.22006   0.23543   0.24455
 Alpha virt. eigenvalues --    0.24962   0.26535   0.26865   0.27543   0.28296
 Alpha virt. eigenvalues --    0.28944   0.31023   0.32104   0.32339   0.34092
 Alpha virt. eigenvalues --    0.37435   0.37701   0.38445   0.44112   0.46271
 Alpha virt. eigenvalues --    0.47371   0.48520   0.52406   0.55203   0.56460
 Alpha virt. eigenvalues --    0.58079   0.60488   0.63231   0.64969   0.66089
 Alpha virt. eigenvalues --    0.67440   0.67976   0.70655   0.73182   0.75971
 Alpha virt. eigenvalues --    0.79421   0.81741   0.83809   0.88717   0.89866
 Alpha virt. eigenvalues --    0.99765   1.01825   1.04833   1.07330   1.11065
 Alpha virt. eigenvalues --    1.13977   1.15744   1.17307   1.18783   1.23336
 Alpha virt. eigenvalues --    1.26488   1.30589   1.32918   1.36717   1.39786
 Alpha virt. eigenvalues --    1.44251   1.47173   1.50815   1.52128   1.53899
 Alpha virt. eigenvalues --    1.55487   1.57848   1.59790   1.61993   1.65190
 Alpha virt. eigenvalues --    1.65821   1.69093   1.72716   1.76300   1.78692
 Alpha virt. eigenvalues --    1.82859   1.91004   1.93381   1.96287   1.98165
 Alpha virt. eigenvalues --    1.99010   2.03678   2.10712   2.14392   2.20130
 Alpha virt. eigenvalues --    2.26340   2.30215   2.36075   2.46853   2.49480
 Alpha virt. eigenvalues --    2.53407   2.54405   2.55568   2.58453   2.60119
 Alpha virt. eigenvalues --    2.62859   2.65080   2.69628   2.72325   2.78705
 Alpha virt. eigenvalues --    2.82526   2.86195   2.91254   2.95380   3.01003
 Alpha virt. eigenvalues --    3.04087   3.05348   3.09685   3.12738   3.16653
 Alpha virt. eigenvalues --    3.19326   3.24755   3.32988   3.38187   3.56498
 Alpha virt. eigenvalues --    3.60896   3.78190   3.80761   3.81904   3.88358
 Alpha virt. eigenvalues --    4.04220   4.08346   4.22674   4.71614   4.79512
 Alpha virt. eigenvalues --    4.95415   5.01516   5.12089   5.37637   5.58897
 Alpha virt. eigenvalues --    5.84755  23.69034  23.78652  23.95306  35.58213
 Alpha virt. eigenvalues --   49.86144  49.96180
          Condensed to atoms (all electrons):
              1          2          3          4          5          6
     1  N    6.815420   0.401195  -0.240072   0.025047  -0.008311   0.071007
     2  H    0.401195   0.442472  -0.032566   0.006284   0.005838  -0.042571
     3  C   -0.240072  -0.032566   8.149687   0.127532  -0.405948  -0.863601
     4  H    0.025047   0.006284   0.127532   0.716150  -0.015198   0.043853
     5  C   -0.008311   0.005838  -0.405948  -0.015198   5.540314   0.169104
     6  C    0.071007  -0.042571  -0.863601   0.043853   0.169104   5.834168
     7  H    0.002802   0.007795  -0.015699   0.015228   0.379914  -0.038309
     8  H    0.018806  -0.000844  -0.080657   0.002037   0.421718   0.002710
     9  H   -0.022498  -0.001975  -0.020682  -0.009184   0.410624   0.000848
    10  O   -0.010874   0.006390  -0.127978   0.042683  -0.041880   0.245448
    11  H    0.368421  -0.047192  -0.030508  -0.000836  -0.010222   0.010136
    12  O   -0.020122  -0.005580  -0.088610  -0.075757  -0.058063   0.399995
    13  H    0.005560  -0.000940  -0.083870  -0.000132   0.014423   0.062640
              7          8          9         10         11         12
     1  N    0.002802   0.018806  -0.022498  -0.010874   0.368421  -0.020122
     2  H    0.007795  -0.000844  -0.001975   0.006390  -0.047192  -0.005580
     3  C   -0.015699  -0.080657  -0.020682  -0.127978  -0.030508  -0.088610
     4  H    0.015228   0.002037  -0.009184   0.042683  -0.000836  -0.075757
     5  C    0.379914   0.421718   0.410624  -0.041880  -0.010222  -0.058063
     6  C   -0.038309   0.002710   0.000848   0.245448   0.010136   0.399995
     7  H    0.588983  -0.033931  -0.054629   0.019616   0.002533  -0.008304
     8  H   -0.033931   0.541905  -0.019569  -0.000716  -0.001554   0.001223
     9  H   -0.054629  -0.019569   0.546310  -0.005976   0.004273   0.001766
    10  O    0.019616  -0.000716  -0.005976   7.936317  -0.000355  -0.116605
    11  H    0.002533  -0.001554   0.004273  -0.000355   0.442492  -0.000458
    12  O   -0.008304   0.001223   0.001766  -0.116605  -0.000458   8.216227
    13  H   -0.001738   0.000389  -0.000419   0.255524  -0.000662  -0.011616
             13
     1  N    0.005560
     2  H   -0.000940
     3  C   -0.083870
     4  H   -0.000132
     5  C    0.014423
     6  C    0.062640
     7  H   -0.001738
     8  H    0.000389
     9  H   -0.000419
    10  O    0.255524
    11  H   -0.000662
    12  O   -0.011616
    13  H    0.437243
 Mulliken atomic charges:
              1
     1  N   -0.406383
     2  H    0.261694
     3  C   -0.287029
     4  H    0.122293
     5  C   -0.402313
     6  C    0.104572
     7  H    0.135738
     8  H    0.148483
     9  H    0.171110
    10  O   -0.201594
    11  H    0.263930
    12  O   -0.234099
    13  H    0.323598
 Sum of Mulliken atomic charges =   0.00000
 Mulliken charges with hydrogens summed into heavy atoms:
              1
     1  N    0.119241
     3  C   -0.287029
     5  C    0.053018
     6  C    0.104572
    10  O    0.122004
    12  O   -0.111806
 Sum of Mulliken charges with hydrogens summed into heavy atoms =   0.00000
 APT atomic charges:
              1
     1  N   -1.073337
     2  H    0.412400
     3  C   -0.266073
     4  H    0.139777
     5  C   -1.059936
     6  C    0.038178
     7  H    0.269479
     8  H    0.360125
     9  H    0.482027
    10  O   -0.616864
    11  H    0.609402
    12  O   -0.049521
    13  H    0.754341
 Sum of APT charges=   0.00000
 APT Atomic charges with hydrogens summed into heavy atoms:
              1
     1  N   -0.051535
     2  H    0.000000
     3  C   -0.266073
     4  H    0.000000
     5  C    0.051696
     6  C    0.038178
     7  H    0.000000
     8  H    0.000000
     9  H    0.000000
    10  O    0.137478
    11  H    0.000000
    12  O    0.090256
    13  H    0.000000
 Sum of APT charges=   0.00000
 Electronic spatial extent (au):  <R**2>=            583.7172
 Charge=              0.0000 electrons
 Dipole moment (field-independent basis, Debye):
    X=             -0.3950    Y=              0.0812    Z=              2.9485  Tot=              2.9760
 Quadrupole moment (field-independent basis, Debye-Ang):
   XX=            -30.8692   YY=            -39.7603   ZZ=            -40.3506
   XY=             -2.2970   XZ=              2.6908   YZ=             -1.1460
 Traceless Quadrupole moment (field-independent basis, Debye-Ang):
   XX=              6.1241   YY=             -2.7669   ZZ=             -3.3573
   XY=             -2.2970   XZ=              2.6908   YZ=             -1.1460
 Octapole moment (field-independent basis, Debye-Ang**2):
  XXX=             -9.1437  YYY=              2.8550  ZZZ=             10.2520  XYY=             -2.7897
  XXY=            -15.2089  XXZ=             12.0761  XZZ=             -1.1949  YZZ=             -2.2513
  YYZ=              7.4174  XYZ=              1.8923
 Hexadecapole moment (field-independent basis, Debye-Ang**3):
 XXXX=           -328.3131 YYYY=           -235.2526 ZZZZ=           -144.7192 XXXY=            -16.2870
 XXXZ=             50.9824 YYYX=             -0.9683 YYYZ=             -7.7616 ZZZX=             15.7007
 ZZZY=              1.2995 XXYY=            -96.4173 XXZZ=            -86.2357 YYZZ=            -64.3057
 XXYZ=              0.1532 YYXZ=              2.3005 ZZXY=             -1.3782
 N-N= 2.489490592694D+02 E-N=-1.255915788576D+03  KE= 3.224128135751D+02
  Exact polarizability:   0.000   0.000   0.000   0.000   0.000   0.000
 Approx polarizability:  96.750  13.448  83.665 -10.825 -16.862  79.958
 No NMR shielding tensors so no spin-rotation constants.
 Leave Link  601 at Sat Apr 16 14:36:56 2016, MaxMem=   33554432 cpu:       0.0
 (Enter c:\G09w02\l701.exe)
 Compute integral second derivatives.
 ... and contract with generalized density number  0.
 D2PCM: C-PCM CHGder 2nd derivatives, FixD1E=F FixD2E=F DoIter=F DoCFld=F I1PDM=0
 GePol: Maximum number of non-zero 2nd derivatives   =     203
 Leave Link  701 at Sat Apr 16 14:37:16 2016, MaxMem=   33554432 cpu:      20.0
 (Enter c:\G09w02\l702.exe)
 L702 exits ... SP integral derivatives will be done elsewhere.
 Leave Link  702 at Sat Apr 16 14:37:16 2016, MaxMem=   33554432 cpu:       0.0
 (Enter c:\G09w02\l703.exe)
 Compute integral second derivatives, UseDBF=F ICtDFT=           0.
 Integral derivatives from FoFDir, PRISM(SPDF).
 Calling FoFJK, ICntrl=    100147 FMM=F ISym2X=0 I1Cent= 0 IOpClX= 0 NMat=1 NMatS=1 NMatT=0.
 FoFCou: FMM=F IPFlag=           0 FMFlag=      100000 FMFlg1=         800
         NFxFlg=           0 DoJE=F BraDBF=F KetDBF=F FulRan=T
         Omega=  0.000000  0.000000  1.000000  0.000000  0.000000 ICntrl=  100147 IOpCl=  0
         NMat0=    1 NMatS0=    1 NMatT0=    0 NMatD0=    1 NMtDS0=    0 NMtDT0=    0
         I1Cent=           0 NGrid=           0.
 Symmetry not used in FoFCou.
 Leave Link  703 at Sat Apr 16 14:45:12 2016, MaxMem=   33554432 cpu:     476.0
 (Enter c:\G09w02\l716.exe)
 Dipole        =-1.55385417D-01 3.19316400D-02 1.16004158D+00
 Polarizability= 0.00000000D+00 0.00000000D+00 0.00000000D+00
                 0.00000000D+00 0.00000000D+00 0.00000000D+00
 -------------------------------------------------------------------
 Center     Atomic                   Forces (Hartrees/Bohr)
 Number     Number              X              Y              Z
 -------------------------------------------------------------------
      1        7          -0.001458827    0.013935231   -0.023954619
      2        1           0.002985097    0.001940729    0.002774801
      3        6           0.058895908    0.041778951   -0.005670201
      4        1          -0.060090988   -0.023427559   -0.017393167
      5        6           0.002201770   -0.003258719   -0.004637815
      6        6          -0.026076985   -0.048396911    0.059960566
      7        1          -0.002030674   -0.001125334    0.003506016
      8        1          -0.001161269    0.000060822    0.000849548
      9        1          -0.000149763    0.001150671   -0.000335059
     10        8           0.012052345    0.004612015   -0.006757495
     11        1           0.000156825   -0.000980211   -0.000247889
     12        8           0.013460510    0.017284981   -0.010135595
     13        1           0.001216052   -0.003574666    0.002040910
 -------------------------------------------------------------------
 Cartesian Forces:  Max     0.060090988 RMS     0.021477035
 Force constants in Cartesian coordinates: 
                1             2             3             4             5 
      1  0.560355D+00
      2  0.541855D-01  0.306378D+00
      3  0.132433D+00 -0.144931D+00  0.492169D+00
      4 -0.444639D-01 -0.165261D-01 -0.130840D-01  0.477190D-01
      5 -0.782711D-02 -0.608047D-01  0.104780D+00  0.881330D-02  0.844016D-01
      6 -0.410353D-01  0.139769D+00 -0.376600D+00  0.346895D-01 -0.136848D+00
      7 -0.922738D-01 -0.224131D-01  0.652159D-03 -0.905217D-03 -0.526890D-02
      8 -0.579528D-01 -0.160266D+00  0.398730D-01 -0.588479D-02 -0.259234D-01
      9 -0.287397D-01 -0.217790D-01 -0.720855D-01  0.164870D-01  0.331541D-01
     10 -0.691314D-02  0.486612D-02 -0.196252D-01  0.469957D-02  0.504257D-02
     11  0.298685D-02 -0.291521D-02  0.302025D-02 -0.469258D-03  0.444096D-03
     12  0.964055D-03  0.250477D-02  0.541870D-02 -0.476547D-03 -0.195179D-02
     13  0.682012D-02 -0.169273D-01 -0.993861D-02  0.753911D-03  0.482701D-03
     14  0.576442D-02 -0.374029D-01 -0.190231D-01  0.352916D-03  0.991117D-03
     15  0.996922D-03  0.260085D-02  0.208808D-02  0.583315D-04  0.963540D-03
     16 -0.152293D-01 -0.117625D-01  0.735593D-02 -0.781220D-03 -0.137210D-02
     17 -0.377719D-01 -0.751931D-02 -0.323329D-02 -0.482227D-02 -0.584337D-03
     18 -0.501567D-02  0.690085D-02 -0.103979D-01  0.586908D-02  0.271930D-02
     19 -0.355889D-03 -0.992152D-03 -0.911723D-03  0.158534D-03  0.171619D-03
     20  0.474920D-03  0.309875D-02 -0.155620D-03  0.379831D-04 -0.471306D-03
     21 -0.821345D-04  0.541047D-03  0.225226D-02 -0.317151D-03 -0.106795D-02
     22  0.105001D-03  0.182738D-02  0.104348D-02 -0.171918D-03  0.462415D-04
     23  0.137791D-02 -0.554818D-02 -0.473589D-02 -0.566957D-05  0.102943D-02
     24  0.202481D-02 -0.487244D-02 -0.906166D-03  0.256126D-03 -0.753278D-03
     25  0.219162D-02 -0.368626D-03 -0.246701D-03  0.591910D-04  0.530855D-04
     26 -0.371234D-03  0.249568D-02  0.836296D-03  0.121913D-03 -0.124303D-03
     27 -0.589366D-03  0.229003D-02  0.981005D-03 -0.190398D-03 -0.199426D-03
     28 -0.353058D-02  0.204309D-02 -0.266074D-02  0.377421D-03 -0.200087D-04
     29 -0.725764D-03  0.830254D-03 -0.924680D-03  0.697120D-03  0.335624D-03
     30  0.244759D-03  0.450332D-04  0.107638D-02 -0.821239D-03 -0.771824D-03
     31 -0.400332D+00  0.128767D-01 -0.105400D+00 -0.305789D-02  0.178450D-02
     32  0.407863D-01 -0.413533D-01  0.340608D-01  0.137223D-01 -0.119064D-02
     33 -0.678646D-01  0.229031D-01 -0.555149D-01 -0.383397D-01  0.218591D-02
     34 -0.714369D-02 -0.715249D-02  0.103611D-01 -0.448205D-02 -0.199379D-02
     35 -0.258953D-03  0.333245D-02 -0.984072D-02  0.347453D-02  0.175664D-02
     36  0.553489D-02 -0.627322D-02  0.113536D-01 -0.374659D-02 -0.188883D-02
     37  0.770965D-03  0.343474D-03  0.209403D-04  0.946093D-04  0.878820D-04
     38 -0.668122D-03 -0.324993D-03  0.273882D-03  0.488058D-03  0.140093D-03
     39  0.112793D-02  0.300813D-03  0.165064D-03 -0.384495D-03 -0.321076D-03
                6             7             8             9            10 
      6  0.384920D+00
      7  0.526757D-02  0.407494D+00
      8 -0.528440D-03  0.176351D-02  0.370592D+00
      9 -0.921751D-03  0.231708D-02  0.439528D-01  0.273243D+00
     10 -0.274181D-02  0.174055D-01  0.356597D-01  0.264405D-02 -0.599764D-01
     11 -0.169172D-02  0.156037D-01 -0.811236D-02 -0.177675D-01 -0.494640D-01
     12  0.352414D-03 -0.948012D-02 -0.203855D-01 -0.216703D-01  0.234355D-01
     13 -0.769397D-03 -0.913845D-01  0.266641D-01  0.283140D-01 -0.383617D-02
     14 -0.144282D-02  0.109817D-01 -0.996859D-01 -0.335615D-01 -0.763801D-03
     15  0.234749D-02  0.267369D-01 -0.525532D-01 -0.988692D-01  0.787320D-02
     16 -0.438462D-03 -0.159178D+00 -0.204648D-01 -0.299001D-02  0.579783D-01
     17  0.235397D-02  0.190446D-01 -0.838698D-01 -0.205116D-01  0.503056D-01
     18 -0.145639D-02 -0.272521D-01 -0.202749D-01 -0.531601D-01 -0.479300D-01
     19 -0.548098D-03 -0.987497D-03 -0.149881D-02  0.145817D-01 -0.392964D-03
     20  0.757842D-03 -0.169936D-02  0.407316D-02 -0.195173D-01  0.945417D-05
     21  0.397976D-05  0.499047D-02  0.291502D-02 -0.226133D-01 -0.306815D-02
     22  0.611485D-04  0.536516D-02  0.112539D-01 -0.146371D-02  0.277534D-03
     23 -0.396267D-03 -0.926181D-02 -0.135815D-01  0.547187D-02 -0.123985D-02
     24 -0.337105D-03 -0.119707D-01 -0.166780D-01  0.145574D-02 -0.633652D-03
     25 -0.130007D-03 -0.131534D-01  0.161288D-02 -0.247766D-03 -0.257702D-03
     26  0.103723D-03  0.237636D-01 -0.467933D-02  0.463535D-03 -0.398661D-03
     27  0.295142D-04  0.247326D-01 -0.421747D-02  0.543036D-03 -0.225618D-03
     28 -0.131723D-03 -0.194852D-01  0.264091D-01 -0.305311D-01 -0.708284D-02
     29 -0.109865D-02  0.110181D-01 -0.439021D-03  0.142112D-01 -0.106394D-01
     30  0.919167D-03 -0.135915D-01  0.132814D-01 -0.692053D-02  0.140634D-01
     31  0.357734D-02 -0.149297D-01  0.181962D-02  0.286103D-03 -0.119681D-02
     32  0.905978D-04 -0.385883D-01 -0.331370D-02 -0.988653D-02 -0.104003D-02
     33 -0.101278D-01  0.300605D-02 -0.864895D-03  0.167804D-03  0.355723D-03
     34  0.214785D-02 -0.420704D-01 -0.201316D-01  0.689033D-03  0.125272D-02
     35 -0.710778D-03 -0.603155D-02  0.263328D-01  0.191054D-01 -0.357407D-01
     36  0.891706D-03 -0.621434D-02  0.103060D-01  0.652093D-03  0.279393D-01
     37  0.513903D-04  0.410375D-02  0.749921D-03 -0.134661D-02 -0.195749D-02
     38 -0.357910D-03  0.108776D-02 -0.112653D-02  0.666460D-02  0.340292D-02
     39 -0.212345D-04  0.805850D-03  0.517425D-02  0.178759D-03 -0.208682D-02
               11            12            13            14            15 
     11  0.300321D-01
     12 -0.179804D-01  0.716057D-01
     13  0.356137D-03 -0.220573D-02  0.548315D+00
     14  0.372475D-02  0.628724D-02  0.399240D-01  0.508041D+00
     15 -0.578296D-02 -0.145908D-01  0.296353D-01 -0.629473D-01  0.482774D+00
     16  0.131122D-01 -0.290030D-02 -0.128710D-01  0.203258D-01  0.407361D-02
     17 -0.163730D-01  0.385010D-01  0.251646D-01 -0.450357D-02  0.828744D-02
     18  0.429250D-01 -0.396506D-01  0.267278D-01 -0.243226D-02  0.353155D-04
     19  0.153397D-02  0.223352D-02 -0.502132D-01  0.919549D-02 -0.344304D-01
     20  0.950904D-03 -0.229166D-02  0.934646D-02 -0.746467D-01  0.756675D-01
     21 -0.200542D-02 -0.259269D-02 -0.358076D-01  0.797553D-01 -0.270779D+00
     22  0.805786D-03  0.936921D-03 -0.981632D-01 -0.104003D+00  0.133414D-01
     23  0.501706D-03 -0.129910D-02 -0.102780D+00 -0.251877D+00  0.275989D-01
     24 -0.310742D-03 -0.799514D-03  0.149129D-01  0.301448D-01 -0.510186D-01
     25 -0.863152D-04 -0.327575D-03 -0.298841D+00  0.264786D-01 -0.480818D-01
     26 -0.337967D-03 -0.506096D-03  0.256003D-01 -0.456882D-01  0.748808D-02
     27  0.276601D-03  0.139550D-02 -0.477838D-01  0.590430D-02 -0.520758D-01
     28  0.422996D-02 -0.659593D-02 -0.132044D-02 -0.194859D-02 -0.410250D-02
     29 -0.103512D-02  0.388660D-02 -0.124954D-02  0.272351D-02  0.765105D-03
     30  0.327720D-02  0.464896D-03 -0.110385D-02 -0.266403D-02 -0.223061D-02
     31  0.719848D-03 -0.834230D-03  0.193164D-02  0.114000D-02 -0.113769D-03
     32  0.131768D-04  0.794904D-03 -0.525268D-03  0.175026D-02  0.444996D-04
     33 -0.112023D-02  0.143965D-02 -0.385412D-03  0.650583D-03 -0.478118D-03
     34  0.964455D-02 -0.349664D-02 -0.152119D-02 -0.773139D-02  0.412866D-02
     35 -0.611406D-02 -0.891092D-02 -0.489041D-02 -0.390835D-02 -0.193005D-02
     36 -0.318030D-02 -0.519023D-03 -0.545480D-03 -0.119107D-02  0.359700D-02
     37  0.102650D-02 -0.125295D-02  0.329438D-03  0.283623D-03 -0.115941D-03
     38 -0.778978D-03  0.135096D-02 -0.116570D-02  0.481850D-03 -0.202321D-03
     39  0.340303D-03 -0.853916D-03 -0.105014D-02  0.519884D-03 -0.799905D-03
               16            17            18            19            20 
     16  0.681807D+00
     17  0.147822D+00  0.482747D+00
     18 -0.126977D+00 -0.265884D+00  0.493358D+00
     19  0.202953D-02 -0.104961D-02  0.220676D-02  0.511478D-01
     20 -0.593086D-03  0.138469D-02 -0.129304D-02 -0.136899D-01  0.756808D-01
     21 -0.304040D-02  0.233106D-02 -0.208799D-02  0.336496D-01 -0.828094D-01
     22 -0.115160D-02  0.314453D-03 -0.808710D-03  0.216220D-02  0.550417D-02
     23  0.349077D-03 -0.132169D-02  0.283590D-03 -0.352634D-02 -0.762557D-02
     24  0.114460D-02 -0.695343D-04  0.422408D-03  0.135105D-01  0.257395D-01
     25  0.242779D-02  0.154617D-02  0.213252D-02 -0.298288D-02  0.227748D-03
     26 -0.655338D-03 -0.446336D-02 -0.280908D-02  0.103161D-01 -0.176686D-02
     27 -0.187713D-02 -0.391940D-02 -0.357749D-02 -0.295662D-01  0.264530D-02
     28 -0.137633D+00  0.342159D-01 -0.456937D-01  0.620450D-03 -0.882158D-03
     29  0.165732D-01 -0.130451D+00  0.720844D-01 -0.350549D-04 -0.982831D-04
     30 -0.313569D-01  0.753645D-01 -0.155650D+00 -0.189491D-03  0.350716D-04
     31  0.192279D-02 -0.247461D-02  0.000000D+00 -0.561955D-04 -0.486810D-04
     32  0.479192D-03 -0.700279D-02 -0.962412D-03  0.115366D-03 -0.779005D-04
     33 -0.926209D-03  0.231695D-02 -0.125140D-03 -0.414754D-04 -0.919269D-05
     34 -0.401282D+00 -0.239524D+00  0.227357D+00 -0.119159D-02  0.145072D-02
     35 -0.197165D+00 -0.227451D+00  0.160465D+00 -0.461168D-03 -0.549805D-03
     36  0.201790D+00  0.160012D+00 -0.222428D+00 -0.429372D-03  0.121038D-02
     37 -0.180380D-01  0.722867D-02 -0.106160D-01  0.616862D-04 -0.138303D-03
     38  0.333514D-01 -0.592382D-03  0.827737D-02 -0.795708D-04  0.481190D-04
     39 -0.438582D-01  0.445094D-02 -0.528228D-02 -0.653837D-04  0.206918D-04
               21            22            23            24            25 
     21  0.298627D+00
     22 -0.283240D-03  0.103062D+00
     23  0.977632D-03  0.112269D+00  0.274082D+00
     24 -0.218626D-02 -0.175300D-01 -0.285205D-01  0.529638D-01
     25 -0.707261D-03 -0.120632D-01  0.150887D-02 -0.209339D-02  0.323522D+00
     26  0.170821D-02 -0.284435D-01  0.403024D-02 -0.483953D-02 -0.310719D-01
     27 -0.463120D-02  0.413015D-02 -0.566287D-03 -0.332549D-03  0.499265D-01
     28  0.967642D-03  0.163505D-03  0.181623D-03 -0.708325D-04 -0.487413D-03
     29 -0.128898D-02 -0.226117D-03  0.277462D-04  0.120439D-03  0.153539D-03
     30  0.188055D-02  0.258800D-03  0.112533D-03 -0.646777D-04 -0.288041D-03
     31 -0.119575D-03  0.940681D-04  0.274318D-03  0.366349D-03  0.225812D-03
     32 -0.236456D-04  0.244118D-03  0.338298D-03  0.635509D-03  0.786827D-03
     33  0.251744D-04  0.226560D-03  0.403496D-03  0.362038D-03  0.501115D-04
     34  0.375267D-02  0.374326D-03  0.846808D-03  0.785058D-04 -0.704338D-03
     35 -0.801106D-03  0.344344D-03 -0.390633D-04 -0.576196D-03 -0.772319D-03
     36  0.207909D-02  0.436742D-04  0.697056D-03  0.410566D-03  0.772406D-04
     37  0.651171D-04 -0.542939D-04  0.659962D-05  0.473146D-05  0.630930D-04
     38 -0.231789D-03  0.633412D-04 -0.165112D-04 -0.199177D-04 -0.684939D-04
     39  0.223272D-04  0.435013D-04 -0.269779D-04  0.302737D-04 -0.638209D-04
               26            27            28            29            30 
     26  0.494260D-01
     27 -0.313690D-02  0.562551D-01
     28  0.104386D-02  0.109005D-02  0.625186D+00
     29 -0.258835D-04 -0.320952D-03 -0.706808D-02  0.190436D+00
     30  0.638878D-03  0.127384D-02  0.731923D-01 -0.169557D+00  0.247886D+00
     31 -0.464832D-03 -0.494913D-03 -0.245550D-03 -0.102173D-03  0.787087D-04
     32 -0.297194D-03 -0.215520D-03  0.299234D-03  0.131123D-02 -0.974622D-05
     33 -0.266345D-03  0.299668D-04  0.419015D-03 -0.238171D-03  0.529303D-03
     34  0.635753D-03  0.815213D-03  0.263617D-01 -0.259419D-02  0.596794D-02
     35  0.127451D-02  0.131237D-02 -0.229509D-01 -0.358730D-01  0.701808D-01
     36  0.661870D-04 -0.214519D-03  0.259391D-01  0.686084D-01 -0.523393D-01
     37 -0.760422D-04  0.328412D-04 -0.482924D+00 -0.580164D-02 -0.464549D-01
     38  0.156709D-03  0.147346D-03 -0.355531D-01 -0.277418D-01  0.100667D-01
     39  0.253041D-03  0.323599D-03 -0.118214D-01  0.137518D-01 -0.368241D-01
               31            32            33            34            35 
     31  0.416817D+00
     32 -0.147779D-01  0.493799D-01
     33  0.101633D+00 -0.257032D-01  0.643288D-01
     34 -0.131028D-02 -0.149931D-02  0.186440D-02  0.430767D+00
     35 -0.651708D-03  0.160553D-03 -0.155956D-04  0.270528D+00  0.240316D+00
     36  0.965697D-03  0.114295D-02 -0.695029D-03 -0.258027D+00 -0.223156D+00
     37  0.136752D-03 -0.251030D-05  0.248872D-05  0.950476D-03 -0.542467D-02
     38 -0.951189D-04  0.282081D-03 -0.242440D-03 -0.247984D-02  0.762098D-03
     39  0.553180D-04  0.317586D-04  0.582316D-04  0.436208D-02 -0.512229D-02
               36            37            38            39 
     36  0.255359D+00
     37  0.667337D-02  0.496463D+00
     38 -0.635338D-02  0.171650D-02  0.287103D-01
     39  0.185245D-02  0.529356D-01 -0.193731D-01  0.411508D-01
 Leave Link  716 at Sat Apr 16 14:45:12 2016, MaxMem=   33554432 cpu:       0.0
 (Enter c:\G09w02\l103.exe)

 GradGradGradGradGradGradGradGradGradGradGradGradGradGradGradGradGradGrad
 Berny optimization.
 Red2BG is reusing G-inverse.
 Internal  Forces:  Max     0.045099303 RMS     0.010597142
 Search for a saddle point.
 Step number   1 out of a maximum of   69
 All quantities printed in internal units (Hartrees-Bohrs-Radians)
 Swaping is turned off.
 Second derivative matrix not updated -- analytic derivatives used.
 ITU=  0
     Eigenvalues ---   -0.05271   0.00019   0.00140   0.00249   0.01259
     Eigenvalues ---    0.01600   0.02293   0.02816   0.02906   0.03187
     Eigenvalues ---    0.04466   0.04564   0.06764   0.10318   0.11790
     Eigenvalues ---    0.12574   0.12898   0.13535   0.14849   0.16822
     Eigenvalues ---    0.17155   0.18242   0.23025   0.26718   0.31768
     Eigenvalues ---    0.33017   0.33308   0.34170   0.38841   0.44072
     Eigenvalues ---    0.44598   0.50540   0.74302
 Eigenvectors required to have negative eigenvalues:
                          R4        R8        A18       D18       D24
   1                   -0.59647   0.55579  -0.26809  -0.20683  -0.19535
                          D20       D19       D23       D7        D21
   1                   -0.18174  -0.13732   0.11853  -0.11831  -0.11223
 RFO step:  Lambda0=2.366923271D-02 Lambda=-3.36464647D-02.
 Linear search not attempted -- option 19 set.
 Maximum step size (   0.300) exceeded in Quadratic search.
    -- Step size scaled by   0.434
 Iteration  1 RMS(Cart)=  0.00545113 RMS(Int)=  0.03984023
 Iteration  2 RMS(Cart)=  0.00393290 RMS(Int)=  0.03594549
 Iteration  3 RMS(Cart)=  0.00321194 RMS(Int)=  0.03277350
 Iteration  4 RMS(Cart)=  0.00270881 RMS(Int)=  0.03010488
 Iteration  5 RMS(Cart)=  0.00234456 RMS(Int)=  0.02780034
 Iteration  6 RMS(Cart)=  0.00207478 RMS(Int)=  0.02576546
 Iteration  7 RMS(Cart)=  0.00187294 RMS(Int)=  0.02393263
 Iteration  8 RMS(Cart)=  0.00172252 RMS(Int)=  0.02225090
 Iteration  9 RMS(Cart)=  0.00161306 RMS(Int)=  0.02067997
 Iteration 10 RMS(Cart)=  0.00153800 RMS(Int)=  0.01918632
 Iteration 11 RMS(Cart)=  0.00149345 RMS(Int)=  0.01774061
 Iteration 12 RMS(Cart)=  0.00147754 RMS(Int)=  0.01631587
 Iteration 13 RMS(Cart)=  0.00149021 RMS(Int)=  0.01488602
 Iteration 14 RMS(Cart)=  0.00153327 RMS(Int)=  0.01342464
 Iteration 15 RMS(Cart)=  0.00161108 RMS(Int)=  0.01190386
 Iteration 16 RMS(Cart)=  0.00173211 RMS(Int)=  0.01029368
 Iteration 17 RMS(Cart)=  0.00191272 RMS(Int)=  0.00856398
 Iteration 18 RMS(Cart)=  0.00218518 RMS(Int)=  0.00670383
 Iteration 19 RMS(Cart)=  0.00260431 RMS(Int)=  0.00486333
 Iteration 20 RMS(Cart)=  0.00277283 RMS(Int)=  0.00399271
 Iteration 21 RMS(Cart)=  0.00018573 RMS(Int)=  0.00394244
 Iteration 22 RMS(Cart)=  0.00003279 RMS(Int)=  0.00394234
 Iteration 23 RMS(Cart)=  0.00000046 RMS(Int)=  0.00394234
 Variable       Old X    -DE/DX   Delta X   Delta X   Delta X     New X
                                 (Linear)    (Quad)   (Total)
    R1        1.92105   0.00208   0.00000   0.00456   0.00456   1.92560
    R2        2.77457  -0.01545   0.00000  -0.00196  -0.00196   2.77261
    R3        1.91996  -0.00015   0.00000  -0.00012  -0.00012   1.91984
    R4        3.00466  -0.04510   0.00000   0.04706   0.04226   3.04693
    R5        2.91549  -0.00210   0.00000   0.00199   0.00199   2.91748
    R6        2.87450  -0.01007   0.00000  -0.04793  -0.04495   2.82956
    R7        3.02667   0.01880   0.00000   0.02226   0.02155   3.04822
    R8        2.86883   0.00797   0.00000  -0.22009  -0.21642   2.65241
    R9        2.06566   0.00340   0.00000   0.00594   0.00594   2.07160
   R10        2.06615  -0.00055   0.00000  -0.00001  -0.00001   2.06614
   R11        2.06436   0.00033   0.00000   0.00044   0.00044   2.06480
   R12        2.54459  -0.00068   0.00000  -0.03358  -0.03358   2.51102
   R13        2.28852   0.01957   0.00000   0.03516   0.03455   2.32308
   R14        1.83416   0.00134   0.00000   0.00071   0.00071   1.83487
    A1        1.92484  -0.00643   0.00000  -0.00015  -0.00014   1.92469
    A2        1.86161   0.00181   0.00000  -0.00700  -0.00700   1.85461
    A3        1.90384   0.00263   0.00000   0.00308   0.00308   1.90692
    A4        2.50354  -0.01503   0.00000  -0.00360  -0.00932   2.49422
    A5        2.00755   0.00982   0.00000  -0.00545  -0.00540   2.00215
    A6        1.92706  -0.01529   0.00000  -0.00401  -0.00641   1.92065
    A7        1.75570   0.00329   0.00000   0.00795   0.01362   1.76932
    A8        1.90406   0.00261   0.00000   0.00469   0.00731   1.91137
    A9        1.78902   0.00403   0.00000   0.00596   0.00480   1.79383
   A10        1.93266   0.00138   0.00000   0.00943   0.00940   1.94206
   A11        1.94452   0.00170   0.00000   0.00715   0.00712   1.95163
   A12        1.90582  -0.00014   0.00000  -0.00445  -0.00444   1.90138
   A13        1.89731  -0.00065   0.00000  -0.00290  -0.00296   1.89435
   A14        1.89321  -0.00114   0.00000  -0.00517  -0.00516   1.88805
   A15        1.88914  -0.00128   0.00000  -0.00468  -0.00467   1.88447
   A16        1.96471   0.02759   0.00000   0.09657   0.08569   2.05041
   A17        2.17648  -0.02521   0.00000  -0.09089  -0.08929   2.08719
   A18        3.01785   0.00891   0.00000   0.12433   0.11929   3.13714
   A19        2.14118  -0.00248   0.00000  -0.00584   0.00398   2.14515
   A20        1.89605   0.00700   0.00000   0.01687   0.01687   1.91292
    D1        2.44325   0.00841   0.00000   0.01900   0.01762   2.46087
    D2       -0.94318  -0.00391   0.00000   0.01185   0.01171  -0.93147
    D3        1.22071  -0.00536   0.00000   0.01071   0.01222   1.23293
    D4       -1.80089   0.00846   0.00000   0.01226   0.01088  -1.79001
    D5        1.09586  -0.00387   0.00000   0.00510   0.00497   1.10083
    D6       -3.02343  -0.00531   0.00000   0.00397   0.00548  -3.01795
    D7       -1.50067  -0.01266   0.00000  -0.03551  -0.04067  -1.54135
    D8        1.86628  -0.00226   0.00000  -0.02802  -0.03404   1.83224
    D9        1.04148  -0.00146   0.00000  -0.01043  -0.01059   1.03089
   D10       -3.12777  -0.00018   0.00000  -0.00278  -0.00290  -3.13067
   D11       -1.04200  -0.00081   0.00000  -0.00702  -0.00717  -1.04916
   D12       -2.24753  -0.01188   0.00000  -0.01562  -0.01641  -2.26394
   D13       -0.13360  -0.01061   0.00000  -0.00797  -0.00872  -0.14232
   D14        1.95218  -0.01123   0.00000  -0.01222  -0.01299   1.93919
   D15       -1.13450   0.00948   0.00000  -0.00482  -0.00392  -1.13842
   D16        0.97943   0.01075   0.00000   0.00283   0.00377   0.98320
   D17        3.06520   0.01013   0.00000  -0.00142  -0.00050   3.06471
   D18       -0.75129  -0.00792   0.00000   0.04077   0.05227  -0.69902
   D19        2.43277  -0.00535   0.00000   0.04449   0.04048   2.47325
   D20        1.47109  -0.00437   0.00000   0.03430   0.04604   1.51713
   D21       -1.62804  -0.00180   0.00000   0.03802   0.03425  -1.59379
   D22        3.12195   0.00602   0.00000   0.04127   0.04822  -3.11301
   D23       -3.10223   0.00167   0.00000  -0.04777  -0.05576   3.12519
   D24       -2.63225  -0.00268   0.00000   0.11840   0.11858  -2.51367
   D25       -0.00212  -0.00150   0.00000  -0.05386  -0.04605  -0.04817
         Item               Value     Threshold  Converged?
 Maximum Force            0.045099     0.000450     NO 
 RMS     Force            0.010597     0.000300     NO 
 Maximum Displacement     0.130259     0.001800     NO 
 RMS     Displacement     0.045286     0.001200     NO 
 Predicted change in Energy=-3.681779D-03
 GradGradGradGradGradGradGradGradGradGradGradGradGradGradGradGradGradGrad

 Leave Link  103 at Sat Apr 16 14:45:13 2016, MaxMem=   33554432 cpu:       1.0
 (Enter c:\G09w02\l202.exe)
                          Input orientation:                          
 ---------------------------------------------------------------------
 Center     Atomic      Atomic             Coordinates (Angstroms)
 Number     Number       Type             X           Y           Z
 ---------------------------------------------------------------------
      1          7           0       -1.169126   -1.219921   -0.309308
      2          1           0       -1.156048   -1.554814    0.652984
      3          6           0       -0.555600    0.110204   -0.393165
      4          1           0        0.401431    1.029720   -1.308751
      5          6           0       -1.149626    1.157153    0.573556
      6          6           0        0.922093    0.008552   -0.173827
      7          1           0       -1.052420    0.835322    1.616978
      8          1           0       -0.666444    2.131803    0.463945
      9          1           0       -2.212518    1.281039    0.352676
     10          8           0        1.346343   -0.831247    0.764460
     11          1           0       -2.147648   -1.154925   -0.574631
     12          8           0        1.683375    0.714840   -0.831726
     13          1           0        2.316586   -0.817460    0.799415
 ---------------------------------------------------------------------
                    Distance matrix (angstroms):
                    1          2          3          4          5
     1  N    0.000000
     2  H    1.018985   0.000000
     3  C    1.467201   2.056028   0.000000
     4  H    2.920004   3.599161   1.612364   0.000000
     5  C    2.535806   2.713137   1.543865   2.442355   0.000000
     6  C    2.429135   2.728809   1.497336   1.613048   2.483925
     7  H    2.819260   2.579297   2.193924   3.272822   1.096245
     8  H    3.476300   3.723787   2.198587   2.344652   1.093354
     9  H    2.789568   3.041114   2.161599   3.107447   1.092645
    10  O    2.762540   2.607285   2.417398   2.941813   3.196880
    11  H    1.015936   1.627950   2.041592   3.436482   2.767685
    12  O    3.486113   3.926578   2.360281   1.403596   3.193173
    13  H    3.679868   3.553071   3.245344   3.394740   3.995590
                    6          7          8          9         10
     6  C    0.000000
     7  H    2.790920   0.000000
     8  H    2.727342   1.777449   0.000000
     9  H    3.423771   1.772837   1.768198   0.000000
    10  O    1.328772   3.042747   3.594619   4.158944   0.000000
    11  H    3.307208   3.156542   3.751691   2.607302   3.755783
    12  O    1.229318   3.673587   3.034501   4.111127   2.247618
    13  H    1.890531   3.840612   4.208225   5.011592   0.970970
                   11         12         13
    11  H    0.000000
    12  O    4.270697   0.000000
    13  H    4.683083   2.325838   0.000000
 Symmetry turned off by external request.
 Stoichiometry    C3H7NO2
 Framework group  C1[X(C3H7NO2)]
 Deg. of freedom    33
 Full point group                 C1      NOp   1
 Rotational constants (GHZ):      4.9656646      2.9632826      2.4288104
 Leave Link  202 at Sat Apr 16 14:45:13 2016, MaxMem=   33554432 cpu:       0.0
 (Enter c:\G09w02\l301.exe)
 Standard basis: 6-311++G(d,p) (5D, 7F)
 Ernie: Thresh=  0.10000D-02 Tol=  0.10000D-05 Strict=F.
 Integral buffers will be    262144 words long.
 Raffenetti 2 integral format.
 Two-electron integral symmetry is turned off.
   181 basis functions,   279 primitive gaussians,   187 cartesian basis functions
    24 alpha electrons       24 beta electrons
       nuclear repulsion energy       249.3456740697 Hartrees.
 IExCor=  402 DFT=T Ex+Corr=B3LYP ExCW=0 ScaHFX=  0.200000
 ScaDFX=  0.800000  0.720000  1.000000  0.810000 ScalE2=  1.000000  1.000000
 IRadAn=      0 IRanWt=     -1 IRanGd=            0 ICorTp=0
 NAtoms=   13 NActive=   13 NUniq=   13 SFac= 1.00D+00 NAtFMM=   50 NAOKFM=F Big=F
 ------------------------------------------------------------------------------
 Polarizable Continuum Model (PCM)
 =================================
 Model                : C-PCM.
 Atomic radii         : UFF (Universal Force Field).
 Polarization charges : Total charges.
 Charge compensation  : None.
 Solution method      : Matrix inversion.
 Cavity type          : Scaled VdW (van der Waals Surface) (Alpha=1.100).
 Cavity algorithm     : GePol (No added spheres)
                        Default sphere list used, NSphG=   13.
                        Lebedev-Laikov grids with approx.  5.0 points / Ang**2.
                        Smoothing algorithm: Karplus/York (Gamma=1.0000).
                        Polarization charges: spherical gaussians, with
                                              point-specific exponents (IZeta= 3).
                        Self-potential: point-specific (ISelfS= 7).
                        Self-field    : sphere-specific E.n sum rule (ISelfD= 2).
 1st derivatives      : Analytical E(r).r(x)/FMM algorithm (CHGder, D1EAlg=3).
                        Cavity 1st derivative terms included.
 Solvent              : Water, Eps=  78.355300 Eps(inf)=   1.777849
 ------------------------------------------------------------------------------
 Spheres list:
 ISph  on   Nord    Re0     Alpha      Xe            Ye            Ze
    1   N      1    1.830   1.100     -1.169126     -1.219921     -0.309308
    2   H      2    1.443   1.100     -1.156048     -1.554814      0.652984
    3   C      3    1.926   1.100     -0.555600      0.110204     -0.393165
    4   H      4    1.443   1.100      0.401431      1.029720     -1.308751
    5   C      5    1.926   1.100     -1.149626      1.157153      0.573556
    6   C      6    1.926   1.100      0.922093      0.008552     -0.173827
    7   H      7    1.443   1.100     -1.052420      0.835322      1.616978
    8   H      8    1.443   1.100     -0.666444      2.131803      0.463945
    9   H      9    1.443   1.100     -2.212518      1.281039      0.352676
   10   O     10    1.750   1.100      1.346343     -0.831247      0.764460
   11   H     11    1.443   1.100     -2.147648     -1.154925     -0.574631
   12   O     12    1.750   1.100      1.683375      0.714840     -0.831726
   13   H     13    1.443   1.100      2.316586     -0.817460      0.799415
 ------------------------------------------------------------------------------
 GePol: Number of generator spheres                  =      13
 GePol: Total number of spheres                      =      13
 GePol: Number of exposed spheres                    =      13 (100.00%)
 GePol: Number of points                             =    1090
 GePol: Average weight of points                     =       0.14
 GePol: Minimum weight of points                     =   0.16D-08
 GePol: Maximum weight of points                     =    0.20577
 GePol: Number of points with low weight             =      54
 GePol: Fraction of low-weight points (<1% of avg)   =       4.95%
 GePol: Cavity surface area                          =    150.240 Ang**2
 GePol: Cavity volume                                =    138.695 Ang**3
 Leave Link  301 at Sat Apr 16 14:45:13 2016, MaxMem=   33554432 cpu:       0.0
 (Enter c:\G09w02\l302.exe)
 NPDir=0 NMtPBC=     1 NCelOv=     1 NCel=       1 NClECP=     1 NCelD=      1
         NCelK=      1 NCelE2=     1 NClLst=     1 CellRange=     0.0.
 One-electron integrals computed using PRISM.
 NBasis=   181 RedAO= T  NBF=   181
 NBsUse=   181 1.00D-06 NBFU=   181
 Precomputing XC quadrature grid using
 IXCGrd= 2 IRadAn=           0 IRanWt=          -1 IRanGd=           0 AccXCQ= 0.00D+00.
 NRdTot=     842 NPtTot=      106912 NUsed=      110844 NTot=      110860
 NSgBfM=   187   187   187   187   187 NAtAll=    13    13.
 Leave Link  302 at Sat Apr 16 14:45:13 2016, MaxMem=   33554432 cpu:       0.0
 (Enter c:\G09w02\l303.exe)
 DipDrv:  MaxL=1.
 Leave Link  303 at Sat Apr 16 14:45:14 2016, MaxMem=   33554432 cpu:       0.0
 (Enter c:\G09w02\l401.exe)
 Initial guess read from the read-write file.
 B after Tr=     0.000000    0.000000    0.000000
         Rot=    1.000000    0.000000    0.000000    0.000000 Ang=   0.00 deg.
 Guess basis will be translated and rotated to current coordinates.
 Generating alternative initial guess.
 Harris functional with IExCor=  402 diagonalized for initial guess.
 ExpMin= 3.60D-02 ExpMax= 8.59D+03 ExpMxC= 1.30D+03 IAcc=3 IRadAn=         0 AccDes= 0.00D+00
 HarFok:  IExCor=  402 AccDes= 0.00D+00 IRadAn=         0 IDoV= 1
 ScaDFX=  1.000000  1.000000  1.000000  1.000000
 FoFCou: FMM=F IPFlag=           0 FMFlag=      100000 FMFlg1=           0
         NFxFlg=           0 DoJE=T BraDBF=F KetDBF=T FulRan=T
         Omega=  0.000000  0.000000  1.000000  0.000000  0.000000 ICntrl=     500 IOpCl=  0
         NMat0=    1 NMatS0=    1 NMatT0=    0 NMatD0=    1 NMtDS0=    0 NMtDT0=    0
         I1Cent=           4 NGrid=           0.
 Symmetry not used in FoFCou.
 Harris En= -323.744219564943    
 Leave Link  401 at Sat Apr 16 14:45:21 2016, MaxMem=   33554432 cpu:       7.0
 (Enter c:\G09w02\l502.exe)
 Closed shell SCF:
 Requested convergence on RMS density matrix=1.00D-08 within 128 cycles.
 Requested convergence on MAX density matrix=1.00D-06.
 Requested convergence on             energy=1.00D-06.
 No special actions if energy rises.
 Using DIIS extrapolation, IDIIS=  1040.
 Two-electron integral symmetry not used.
       110727 words used for storage of precomputed grid.
 IEnd=      235933 IEndB=      235933 NGot=    33554432 MDV=    33370296
 LenX=    33370296 LenY=    33334886
 Fock matrices will be formed incrementally for  20 cycles.

 Cycle   1  Pass 1  IDiag  1:
 FoFCou: FMM=F IPFlag=           0 FMFlag=      100000 FMFlg1=           0
         NFxFlg=           0 DoJE=F BraDBF=F KetDBF=F FulRan=T
         Omega=  0.000000  0.000000  1.000000  0.000000  0.000000 ICntrl=       0 IOpCl=  0
         NMat0=    1 NMatS0=    1 NMatT0=    0 NMatD0=    1 NMtDS0=    0 NMtDT0=    0
         I1Cent=           0 NGrid=           0.
 Symmetry not used in FoFCou.
 E= -323.719309067525    
 DIIS: error= 3.94D-03 at cycle   1 NSaved=   1.
 NSaved= 1 IEnMin= 1 EnMin= -323.719309067525     IErMin= 1 ErrMin= 3.94D-03
 ErrMax= 3.94D-03 EMaxC= 1.00D-01 BMatC= 6.48D-03 BMatP= 6.48D-03
 IDIUse=3 WtCom= 9.61D-01 WtEn= 3.94D-02
 Coeff-Com:  0.100D+01
 Coeff-En:   0.100D+01
 Coeff:      0.100D+01
 Gap=     0.207 Goal=   None    Shift=    0.000
 GapD=    0.207 DampG=1.000 DampE=1.000 DampFc=1.0000 IDamp=-1.
 RMSDP=2.14D-03 MaxDP=1.93D-01              OVMax= 5.09D-02

 Cycle   2  Pass 1  IDiag  1:
 RMSU=  1.28D-03    CP:  9.39D-01
 E= -323.729363501702     Delta-E=       -0.010054434178 Rises=F Damp=F
 DIIS: error= 1.07D-03 at cycle   2 NSaved=   2.
 NSaved= 2 IEnMin= 2 EnMin= -323.729363501702     IErMin= 2 ErrMin= 1.07D-03
 ErrMax= 1.07D-03 EMaxC= 1.00D-01 BMatC= 3.78D-04 BMatP= 6.48D-03
 IDIUse=3 WtCom= 9.89D-01 WtEn= 1.07D-02
 Coeff-Com:  0.117D-01 0.988D+00
 Coeff-En:   0.000D+00 0.100D+01
 Coeff:      0.116D-01 0.988D+00
 Gap=     0.186 Goal=   None    Shift=    0.000
 RMSDP=2.75D-04 MaxDP=5.30D-03 DE=-1.01D-02 OVMax= 1.51D-02

 Cycle   3  Pass 1  IDiag  1:
 RMSU=  1.94D-04    CP:  9.39D-01  1.02D+00
 E= -323.728764929219     Delta-E=        0.000598572483 Rises=F Damp=F
[...]
    D6       -1.34913   0.00000   0.00000   0.00048   0.00048  -1.34865
    D7       -1.96100   0.00000   0.00000   0.00010   0.00010  -1.96090
    D8        1.81739   0.00000   0.00000  -0.00003  -0.00003   1.81737
    D9        0.85404   0.00000   0.00000  -0.00018  -0.00018   0.85386
   D10        2.95617   0.00000   0.00000  -0.00018  -0.00018   2.95599
   D11       -1.22373   0.00000   0.00000  -0.00019  -0.00019  -1.22391
   D12       -2.66818   0.00000   0.00000  -0.00010  -0.00010  -2.66829
   D13       -0.56605   0.00000   0.00000  -0.00010  -0.00010  -0.56615
   D14        1.53724   0.00000   0.00000  -0.00011  -0.00011   1.53713
   D15       -1.55907   0.00000   0.00000  -0.00011  -0.00011  -1.55918
   D16        0.54306   0.00000   0.00000  -0.00011  -0.00011   0.54296
   D17        2.64635   0.00000   0.00000  -0.00011  -0.00011   2.64624
   D18       -0.35049   0.00000   0.00000   0.00002   0.00002  -0.35048
   D19        2.66263   0.00000   0.00000   0.00006   0.00006   2.66269
   D20        2.03037   0.00000   0.00000  -0.00005  -0.00005   2.03032
   D21       -1.23969   0.00000   0.00000  -0.00001  -0.00001  -1.23970
   D22       -2.88389   0.00000   0.00000   0.00004   0.00004  -2.88385
   D23        2.84725   0.00000   0.00000   0.00009   0.00009   2.84734
   D24        0.83743   0.00000   0.00000   0.00011   0.00011   0.83754
   D25       -0.15437   0.00000   0.00000   0.00005   0.00005  -0.15432
         Item               Value     Threshold  Converged?
 Maximum Force            0.000016     0.000450     YES
 RMS     Force            0.000003     0.000300     YES
 Maximum Displacement     0.000720     0.001800     YES
 RMS     Displacement     0.000176     0.001200     YES
 Predicted change in Energy=-2.621555D-09
 Optimization completed.
    -- Stationary point found.
                           ----------------------------
                           !   Optimized Parameters   !
                           ! (Angstroms and Degrees)  !
 --------------------------                            --------------------------
 ! Name  Definition              Value          Derivative Info.                !
 --------------------------------------------------------------------------------
 ! R1    R(1,2)                  1.0133         -DE/DX =    0.0                 !
 ! R2    R(1,3)                  1.4456         -DE/DX =    0.0                 !
 ! R3    R(1,11)                 1.0139         -DE/DX =    0.0                 !
 ! R4    R(3,4)                  1.5715         -DE/DX =    0.0                 !
 ! R5    R(3,5)                  1.5297         -DE/DX =    0.0                 !
 ! R6    R(3,6)                  1.4295         -DE/DX =    0.0                 !
 ! R7    R(4,6)                  1.5913         -DE/DX =    0.0                 !
 ! R8    R(4,12)                 1.2526         -DE/DX =    0.0                 !
 ! R9    R(5,7)                  1.1            -DE/DX =    0.0                 !
 ! R10   R(5,8)                  1.0905         -DE/DX =    0.0                 !
 ! R11   R(5,9)                  1.0932         -DE/DX =    0.0                 !
 ! R12   R(6,10)                 1.3158         -DE/DX =    0.0                 !
 ! R13   R(6,12)                 1.2988         -DE/DX =    0.0                 !
 ! R14   R(10,13)                0.9706         -DE/DX =    0.0                 !
 ! A1    A(2,1,3)              111.2355         -DE/DX =    0.0                 !
 ! A2    A(2,1,11)             107.4914         -DE/DX =    0.0                 !
 ! A3    A(3,1,11)             112.1956         -DE/DX =    0.0                 !
 ! A4    A(1,3,4)              144.75           -DE/DX =    0.0                 !
 ! A5    A(1,3,5)              112.5158         -DE/DX =    0.0                 !
 ! A6    A(1,3,6)              116.8743         -DE/DX =    0.0                 !
 ! A7    A(4,3,5)               95.5455         -DE/DX =    0.0                 !
 ! A8    A(5,3,6)              115.9683         -DE/DX =    0.0                 !
 ! A9    A(3,4,12)             105.2002         -DE/DX =    0.0                 !
 ! A10   A(3,5,7)              110.3103         -DE/DX =    0.0                 !
 ! A11   A(3,5,8)              112.2587         -DE/DX =    0.0                 !
 ! A12   A(3,5,9)              110.4891         -DE/DX =    0.0                 !
 ! A13   A(7,5,8)              107.9567         -DE/DX =    0.0                 !
 ! A14   A(7,5,9)              107.7605         -DE/DX =    0.0                 !
 ! A15   A(8,5,9)              107.9109         -DE/DX =    0.0                 !
 ! A16   A(3,6,10)             127.3283         -DE/DX =    0.0                 !
 ! A17   A(3,6,12)             111.1669         -DE/DX =    0.0                 !
 ! A18   A(4,6,10)             160.9509         -DE/DX =    0.0                 !
 ! A19   A(10,6,12)            121.095          -DE/DX =    0.0                 !
 ! A20   A(6,10,13)            110.2458         -DE/DX =    0.0                 !
 ! D1    D(2,1,3,4)           -115.7655         -DE/DX =    0.0                 !
 ! D2    D(2,1,3,5)             24.3922         -DE/DX =    0.0                 !
 ! D3    D(2,1,3,6)            162.2487         -DE/DX =    0.0                 !
 ! D4    D(11,1,3,4)             4.6861         -DE/DX =    0.0                 !
 ! D5    D(11,1,3,5)           144.8437         -DE/DX =    0.0                 !
 ! D6    D(11,1,3,6)           -77.2997         -DE/DX =    0.0                 !
 ! D7    D(1,3,4,12)          -112.3569         -DE/DX =    0.0                 !
 ! D8    D(5,3,4,12)           104.129          -DE/DX =    0.0                 !
 ! D9    D(1,3,5,7)             48.9327         -DE/DX =    0.0                 !
 ! D10   D(1,3,5,8)            169.3763         -DE/DX =    0.0                 !
 ! D11   D(1,3,5,9)            -70.1143         -DE/DX =    0.0                 !
 ! D12   D(4,3,5,7)           -152.8756         -DE/DX =    0.0                 !
 ! D13   D(4,3,5,8)            -32.432          -DE/DX =    0.0                 !
 ! D14   D(4,3,5,9)             88.0773         -DE/DX =    0.0                 !
 ! D15   D(6,3,5,7)            -89.3283         -DE/DX =    0.0                 !
 ! D16   D(6,3,5,8)             31.1153         -DE/DX =    0.0                 !
 ! D17   D(6,3,5,9)            151.6246         -DE/DX =    0.0                 !
 ! D18   D(1,3,6,10)           -20.0818         -DE/DX =    0.0                 !
 ! D19   D(1,3,6,12)           152.5575         -DE/DX =    0.0                 !
 ! D20   D(5,3,6,10)           116.3314         -DE/DX =    0.0                 !
 ! D21   D(5,3,6,12)           -71.0292         -DE/DX =    0.0                 !
 ! D22   D(3,4,6,12)          -165.2349         -DE/DX =    0.0                 !
 ! D23   D(3,6,10,13)          163.1355         -DE/DX =    0.0                 !
 ! D24   D(4,6,10,13)           47.9815         -DE/DX =    0.0                 !
 ! D25   D(12,6,10,13)          -8.8446         -DE/DX =    0.0                 !
 --------------------------------------------------------------------------------
 GradGradGradGradGradGradGradGradGradGradGradGradGradGradGradGradGradGrad

 Leave Link  103 at Sat Apr 16 17:11:38 2016, MaxMem=   33554432 cpu:       0.0
 (Enter c:\G09w02\l9999.exe)

 Test job not archived.
 1|1|UNPC-WIN-20150318OUM|Freq|RB3LYP|6-311++G(d,p)|C3H7N1O2|ADMINISTRA
 TOR|16-Apr-2016|0||#P Geom=AllCheck Guess=TCheck SCRF=Check Test GenCh
 k RB3LYP/6-311++G(d,p) Freq||Ala-S-opt-freq-cpcm-w-tsa2-6-311++gdp||0,
 1|N,-1.221480233,-1.2051775486,0.1314146098|H,-2.1921023196,-1.0356475
 918,0.3678052206|C,-0.5107940842,0.0350154438,-0.0842501513|H,0.252749
 9581,0.9091366223,-1.1438164183|C,-1.1585805158,1.2152620211,0.6418717
 351|C,0.9167702932,-0.0216764471,-0.0371307728|H,-1.3601107624,0.95393
 02802,1.6911699696|H,-0.5262471187,2.1036743768,0.6321424334|H,-2.1116
 808535,1.4758382876,0.1741455498|O,1.66030177,-0.9516884356,0.52287308
 4|H,-1.2071748518,-1.8023229734,-0.6879161818|O,1.4475580756,0.9117789
 609,-0.7677490166|H,2.5711912321,-0.8978572164,0.1920465785||Version=I
 A32W-G09RevB.01|HF=-323.7420937|RMSD=2.777e-009|RMSF=5.536e-006|ZeroPo
 int=0.1005339|Thermal=0.1074674|Dipole=-0.0654779,-0.2047813,-0.257112
 1|DipoleDeriv=-0.5597768,-0.1421758,-0.0209575,-0.5124051,-1.0361649,0
 .1825695,0.2184292,0.3224493,-0.4932178,0.0786484,-0.0055902,0.0357239
 ,0.0672306,0.1936006,-0.0665306,-0.0380302,-0.0629353,0.3234629,-0.426
 8819,0.5793875,-0.2001365,0.824113,0.2952482,-0.003095,-0.4261627,0.15
 41875,-0.4563014,0.7936347,0.6768785,-0.5848771,0.1930891,0.3505551,-0
 .1275669,-0.0744508,0.0721712,0.0694673,0.2746177,-0.1155112,-0.073867
 7,-0.3856147,0.112286,0.0815799,0.0895667,-0.1194681,0.4318732,2.37708
 47,-0.7153727,0.5561599,-0.3029991,1.1661668,-0.6748807,0.0934236,-0.7
 221233,0.7245025,-0.0264443,0.0674681,0.0902495,0.08114,0.0207357,0.08
 07134,0.2112857,-0.0160661,-0.2755729,0.0121743,-0.1347483,0.0029144,-
 0.0702812,-0.0612867,-0.0217957,0.0256042,0.0031484,0.0868068,-0.16213
 25,0.0919393,-0.0367844,0.057651,0.0631664,-0.0300199,-0.0941007,0.007
 7088,-0.0001228,-1.2454776,0.6768763,-0.4857284,0.7196926,-0.9377267,0
 .3418794,-0.3615094,0.3080451,-0.5311802,0.1444354,-0.1367186,0.044842
 5,-0.0299614,0.2626094,-0.0549743,0.0000467,-0.1478963,0.1379142,-1.73
 36032,-0.7949062,0.6289956,-0.6388051,-0.7847778,0.2046478,0.265376,0.
 1484403,-0.3888754,0.4737212,-0.0475267,0.0434657,-0.0028497,0.3555878
 ,0.0874731,0.0905218,0.0523385,0.3712436|Polar=92.8867549,2.0555813,76
 .1376567,-4.4240059,-9.4810963,68.4173869|PG=C01 [X(C3H7N1O2)]|NImag=1
 ||0.59197044,0.03933812,0.44026444,-0.14058483,0.23113259,0.38678119,-
 0.40114117,0.05340093,0.10594397,0.41588500,0.07396224,-0.06206472,-0.
 04407738,-0.05819355,0.06867132,0.06669251,-0.03233473,-0.03784881,-0.
 10273678,0.03524459,0.05191913,-0.11908307,-0.04745725,0.02210851,-0.0
 1662382,-0.03563673,0.00722109,0.58823716,-0.08023598,-0.18600658,0.00
 525667,0.00653520,0.00039586,0.00528836,0.05724764,0.43042934,0.032867
 32,0.01020819,-0.06315164,-0.00040838,0.01004166,-0.00661512,-0.101130
 82,0.06458812,0.17823094,0.00102912,0.00975402,-0.01520298,-0.00092300
 ,0.00109100,-0.00118164,-0.02926502,0.05758387,-0.05703793,-0.11467681
 ,-0.00030971,-0.00445174,-0.00297693,0.00013467,0.00097354,-0.00128688
 ,-0.00013793,0.00613954,-0.01053233,-0.08326067,0.02868274,0.00068640,
 0.00246783,0.00578890,-0.00008619,-0.00073398,0.00071762,-0.01134401,-
 0.00740696,-0.02837952,0.03285434,-0.02917606,0.09808487,0.00538209,-0
 .01937910,-0.00731855,0.00223252,-0.00161324,-0.00115003,-0.09307333,0
 .03577253,0.03033822,0.00078139,0.00130721,0.00126365,0.54677038,0.009
 14548,-0.03506570,-0.01836192,0.00230335,0.00203885,-0.00169093,0.0125
 2689,-0.12268193,-0.03708129,-0.00455164,0.00096139,-0.00009412,0.0506
 6311,0.51002629,-0.00088763,0.00643320,-0.00029084,-0.00028164,0.00001
 574,0.00249303,0.04139681,-0.07023995,-0.06018178,0.03319816,0.0005854
 6,-0.00756653,0.02700777,-0.03894888,0.48445507,-0.01786395,-0.0038404
 2,0.00192606,0.00051407,-0.00028166,-0.00175461,-0.24617409,-0.0571607
 6,0.09117815,0.11916036,0.04924620,-0.02294137,-0.02636522,0.03376775,
 -0.03062957,0.60657924,-0.03711236,-0.01092178,0.00567995,-0.00290090,
 -0.00583530,-0.00016490,0.04157874,-0.09738110,0.00698085,0.08551607,0
 .00211572,0.02807197,0.02368630,0.00068839,-0.00059905,-0.08646117,0.5
 4485860,0.00808251,-0.00366945,-0.00314426,0.00119533,0.00206466,-0.00
 228123,0.01313247,0.00913129,-0.06783259,-0.07775049,0.02611741,-0.044
 06642,0.01841286,-0.00320791,0.00019662,-0.00126887,-0.22441168,0.3527
 8294,0.00054476,-0.00058757,-0.00194691,0.00025870,-0.00000518,-0.0003
 5221,-0.00840339,0.00177301,0.01544464,-0.00175694,0.00084628,0.000392
 73,-0.05436178,-0.01271166,0.03725245,0.00768624,-0.00017068,0.0016224
 8,0.05644463,0.00075045,0.00376078,0.00067855,-0.00077690,-0.00001309,
 0.00014366,0.01156497,-0.00124816,-0.02319806,0.00272579,-0.00000249,-
 0.00099433,-0.01241617,-0.06247970,0.05809421,-0.00889861,-0.00180297,
 -0.00219456,0.00896916,0.06640461,-0.00108350,0.00054038,0.00182098,-0
 .00054127,-0.00083018,-0.00037593,0.01306556,-0.00498013,-0.01436694,0
 .00093757,-0.00212511,-0.00029647,0.03508590,0.06354549,-0.26351603,-0
 .01012396,-0.00033037,0.00032290,-0.04505146,-0.06337727,0.29053922,-0
 .00063652,0.00257652,0.00142394,0.00005568,0.00037556,0.00010420,0.009
 03521,0.01126746,-0.00137085,0.00006992,0.00056744,0.00033497,-0.13909
 442,-0.12982757,0.00238121,-0.00070948,0.00012871,-0.00032771,-0.00286
 604,-0.00268830,-0.00002375,0.14906821,0.00189610,-0.00313541,-0.00388
 062,0.00067242,0.00037640,-0.00033978,-0.01380292,-0.01604802,0.002340
 54,-0.00185441,-0.00127177,-0.00099788,-0.12599998,-0.22191488,0.00185
 816,-0.00130601,-0.00157231,0.00089792,-0.00390459,-0.00588580,0.00048
 320,0.13853598,0.24125714,0.00152632,-0.00269057,-0.00002367,0.0002639
 0,0.00009336,-0.00081468,-0.01126511,-0.01005094,-0.00167803,-0.001078
 02,-0.00135050,-0.00091102,0.00378513,0.00370904,-0.04487461,0.0005682
 4,-0.00022289,0.00000487,0.01783521,0.02430505,0.00082860,-0.00503176,
 -0.00119194,0.04658815,0.00082591,0.00016112,-0.00027831,0.00037766,0.
 00033316,-0.00007895,-0.01275828,0.00166860,0.00101495,0.00331112,0.00
 015658,-0.00038518,-0.24039053,0.04946628,-0.10074421,-0.00138331,0.00
 174581,0.00107834,0.00550249,-0.00136811,0.00171158,-0.01487804,0.0042
 1488,-0.00756335,0.26229819,0.00020983,0.00172105,0.00040949,-0.000553
 53,-0.00055093,0.00014371,0.02193532,-0.00513397,0.00282305,-0.0046090
 6,-0.00116997,0.00014376,0.04921546,-0.05929394,0.02871640,0.00334777,
 -0.00283420,-0.00038348,0.00771519,-0.00227435,0.00480363,-0.02241143,
 0.00731936,-0.01206481,-0.05853229,0.06340022,-0.00020052,0.00094390,0
 .00002906,-0.00038850,0.00047789,0.00005655,0.01754202,-0.00341161,0.0
 0376868,-0.00253001,-0.00080204,0.00127810,-0.10251750,0.02733155,-0.0
 9747966,0.00237754,-0.00251474,0.00012952,-0.02644328,0.00627732,-0.01
 398541,0.00144664,-0.00053408,-0.00029590,0.10727206,-0.02632788,0.105
 51593,0.00115932,-0.00372901,0.00437892,0.00008251,0.00041730,-0.00102
 657,-0.02253681,0.04863593,-0.03042278,-0.02005462,-0.00597771,-0.0052
 7630,-0.00033262,-0.00687684,-0.00060629,-0.18770092,0.11893566,-0.065
 04044,-0.00131511,0.00119013,0.00296384,0.00039830,0.00028612,-0.00019
 971,-0.00127419,0.00140926,0.00149893,0.62618359,-0.00032536,0.0074581
 7,-0.00377517,-0.00022563,0.00041422,-0.00004595,0.01067954,-0.0140729
 8,0.01749475,0.00176614,-0.00270034,0.01011023,-0.00239187,0.00449788,
 -0.00170066,0.06697929,-0.20980220,0.09716717,0.00109906,-0.00099848,-
 0.00201043,-0.00010972,0.00007801,0.00021600,0.00043302,-0.00014652,-0
 .00025809,-0.10160893,0.28199644,-0.00005250,-0.00251204,0.00113499,0.
 00018597,-0.00003215,0.00012215,-0.01085828,0.00622924,0.00460690,0.00
 777277,0.00206261,0.00434593,0.00133570,-0.00414112,0.00234093,-0.0328
 5511,0.08613337,-0.11473297,-0.00098439,0.00139896,0.00083411,0.000145
 65,-0.00005513,-0.00002444,-0.00011428,-0.00027596,-0.00018328,-0.0901
 9615,-0.17236259,0.20863993,-0.05011555,-0.01864467,0.00765838,-0.0002
 1381,0.02372912,0.03248075,-0.00191499,-0.00809935,-0.01647149,0.00084
 642,-0.00035426,0.00097163,-0.00118982,-0.00047487,0.00070422,0.002540
 90,-0.00405421,-0.00225935,-0.00006684,0.00022986,-0.00020561,0.000312
 83,-0.00008728,0.00009621,0.00033192,-0.00002804,0.00003291,-0.0009053
 2,0.00171513,-0.00048896,0.05254298,-0.00435415,-0.15128866,-0.1723690
 1,0.00004537,-0.00394002,-0.00528586,-0.00097597,-0.02113884,-0.023433
 54,-0.00327562,-0.00033310,0.00055626,-0.00379638,-0.00474269,0.000057
 60,0.00101580,0.00112462,-0.00092113,-0.00023632,0.00028661,0.00029184
 ,0.00069455,-0.00132333,-0.00064958,-0.00003426,0.00021479,0.00006967,
 -0.00011828,-0.00073492,-0.00009158,0.00692873,0.18178026,0.02927673,-
 0.21235371,-0.29719818,-0.00399142,-0.00242672,-0.00942678,-0.00040038
 ,0.01252230,0.00661973,0.00038832,-0.00004780,0.00094527,0.00057845,0.
 00162530,0.00063507,-0.00054238,-0.00098033,0.00093251,-0.00006965,0.0
 0039105,0.00025194,-0.00003607,0.00065441,0.00059412,-0.00001299,-0.00
 006997,-0.00015114,-0.00007648,0.00030003,-0.00047477,-0.02445680,0.20
 057776,0.29772866,-0.01306109,-0.01276252,0.02265866,-0.00054383,-0.00
 412047,0.00158268,-0.05282711,-0.07473680,0.03309924,0.04186386,0.0374
 7874,0.00332619,0.00075629,-0.00467824,-0.00749974,-0.21615360,-0.1469
 1601,0.10044364,-0.00194871,0.00109443,0.00367869,-0.00074920,0.001330
 46,0.00104816,-0.00200879,0.00206229,0.00172485,0.02861164,0.03598930,
 -0.01429462,-0.00230866,0.00416765,-0.00078802,0.21285965,-0.00179230,
 -0.00134547,0.00292869,-0.00037475,-0.00048863,0.00035396,-0.05734692,
 0.03139295,-0.02757287,-0.06767050,-0.03073072,-0.00357715,0.00555986,
 -0.01219268,0.01598855,-0.03427649,-0.21530096,0.10893511,-0.00274334,
 0.00428689,0.00427695,0.00083047,0.00223030,-0.00006140,0.00177355,-0.
 00127382,-0.00122159,-0.00506881,-0.03382877,0.05013245,-0.00104062,0.
 00009759,-0.00021576,0.16653383,0.25396464,0.00355217,0.00150378,0.006
 22250,0.00085648,0.00012232,0.00203695,0.02105267,-0.01020010,0.043631
 26,0.07760173,0.01978604,-0.03007699,-0.00523166,0.00714899,-0.0149111
 9,0.03149526,0.10244131,-0.13001577,0.00228796,-0.00143863,-0.00181095
 ,0.00083002,0.00082102,0.00065063,-0.00163491,0.00171872,0.00103515,0.
 01201656,0.03286964,-0.01950081,0.00181688,0.00119933,-0.00044429,-0.1
 4606968,-0.14907236,0.14668523,0.00098970,0.00116983,-0.00076685,0.000
 03949,-0.00005755,0.00019956,0.00538755,-0.00025136,0.00289972,-0.0003
 8581,0.00030315,0.00020314,-0.00111494,0.00124798,-0.00129152,-0.04013
 026,0.00602405,0.00267923,0.00028199,-0.00037670,-0.00041358,-0.000006
 46,0.00001924,0.00001477,0.00004584,0.00023924,0.00018488,-0.42231577,
 -0.01399999,0.14040422,0.00013993,-0.00006111,0.00013071,0.00550954,-0
 .00438397,0.00142651,0.45155921,-0.00117235,0.00107563,-0.00064492,-0.
 00006667,0.00002250,-0.00002524,-0.00017538,-0.00464611,0.00734093,0.0
 0678501,0.00178721,0.00163043,-0.00060774,0.00015872,-0.00026077,0.037
 86832,-0.00333651,-0.00952535,-0.00004334,-0.00003385,-0.00028798,0.00
 006031,-0.00010968,-0.00004082,-0.00001834,0.00002229,-0.00003029,-0.0
 4749481,-0.03216051,0.03351393,0.00018047,-0.00000232,0.00002345,-0.00
 544267,0.00318870,-0.00690008,0.01012719,0.03403393,0.00012502,0.00033
 064,-0.00012024,-0.00001148,0.00004019,0.00001713,-0.00052051,0.003273
 72,0.00534810,0.00202820,-0.00025386,0.00013625,-0.00158994,0.00016580
 ,-0.00130006,-0.02742938,-0.00008348,0.00770388,0.00001245,-0.00008594
 ,-0.00024602,0.00012352,-0.00005582,-0.00004403,-0.00026476,0.00036332
 ,0.00028240,0.17198648,0.02199506,-0.08710866,0.00012125,-0.00000175,-
 0.00001215,0.00108994,-0.00089459,-0.00350173,-0.14567078,-0.02479330,
 0.07884513||-0.00000575,0.00000581,-0.00000566,-0.00000013,0.00000312,
 0.00000221,0.00000388,-0.00000686,-0.00000193,-0.00000194,0.00000368,0
 .00000308,0.00000353,0.00000047,-0.00000105,-0.00001560,-0.00000615,0.
 00001439,0.00000315,-0.00000062,0.00000200,0.00000239,-0.00000054,0.00
 000175,0.00000078,0.00000125,0.00000309,0.00000596,-0.00000646,-0.0000
 0043,-0.00000239,-0.00000007,-0.00000143,0.00000737,0.00001107,-0.0000
 1238,-0.00000124,-0.00000469,-0.00000364|||@


 We make a living by what we get,
 we make a life by what we give.
                   -- Sir Winston Churchill
 There are more things in heaven and earth, Horatio,
 than are dreamt of in your philosophy.
                   -- Hamlet, Act I, Scene 5
 The chemist is a guest at the physicist's table and
 frequently dines well.
                   -- Richard Bersohn
 Job cpu time:  0 days  0 hours 20 minutes 20.0 seconds.
 File lengths (MBytes):  RWF=     61 Int=      0 D2E=      0 Chk=      8 Scr=      1
 Normal termination of Gaussian 09 at Sat Apr 16 17:11:38 2016.
