 Entering Link 1 = c:\G09w04\l1.exe PID=      5292.
  
 Copyright (c) 1988,1990,1992,1993,1995,1998,2003,2009,2010,
            Gaussian, Inc.  All Rights Reserved.
  
 This is part of the Gaussian(R) 09 program.  It is based on
 the Gaussian(R) 03 system (copyright 2003, Gaussian, Inc.),
 the Gaussian(R) 98 system (copyright 1998, Gaussian, Inc.),
 the Gaussian(R) 94 system (copyright 1995, Gaussian, Inc.),
 the Gaussian 92(TM) system (copyright 1992, Gaussian, Inc.),
 the Gaussian 90(TM) system (copyright 1990, Gaussian, Inc.),
 the Gaussian 88(TM) system (copyright 1988, Gaussian, Inc.),
 the Gaussian 86(TM) system (copyright 1986, Carnegie Mellon
 University), and the Gaussian 82(TM) system (copyright 1983,
 Carnegie Mellon University). Gaussian is a federally registered
 trademark of Gaussian, Inc.
  
 This software contains proprietary and confidential information,
 including trade secrets, belonging to Gaussian, Inc.
  
 This software is provided under written license and may be
 used, copied, transmitted, or stored only in accord with that
 written license.
  
 The following legend is applicable only to US Government
 contracts under FAR:
  
                    RESTRICTED RIGHTS LEGEND
  
 Use, reproduction and disclosure by the US Government is
 subject to restrictions as set forth in subparagraphs (a)
 and (c) of the Commercial Computer Software - Restricted
 Rights clause in FAR 52.227-19.
  
 Gaussian, Inc.
 340 Quinnipiac St., Bldg. 40, Wallingford CT 06492
  
  
 ---------------------------------------------------------------
 Warning -- This program may not be used in any manner that
 competes with the business of Gaussian, Inc. or will provide
 assistance to any competitor of Gaussian, Inc.  The licensee
 of this program is prohibited from giving any competitor of
 Gaussian, Inc. access to this program.  By using this program,
 the user acknowledges that Gaussian, Inc. is engaged in the
 business of creating and licensing software in the field of
 computational chemistry and represents and warrants to the
 licensee that it is not a competitor of Gaussian, Inc. and that
 it will not use this program in any manner prohibited above.
 ---------------------------------------------------------------
  

 Cite this work as:
 Gaussian 09, Revision B.01,
 M. J. Frisch, G. W. Trucks, H. B. Schlegel, G. E. Scuseria, 
 M. A. Robb, J. R. Cheeseman, G. Scalmani, V. Barone, B. Mennucci, 
 G. A. Petersson, H. Nakatsuji, M. Caricato, X. Li, H. P. Hratchian, 
 A. F. Izmaylov, J. Bloino, G. Zheng, J. L. Sonnenberg, M. Hada, 
 M. Ehara, K. Toyota, R. Fukuda, J. Hasegawa, M. Ishida, T. Nakajima, 
 Y. Honda, O. Kitao, H. Nakai, T. Vreven, J. A. Montgomery, Jr., 
 J. E. Peralta, F. Ogliaro, M. Bearpark, J. J. Heyd, E. Brothers, 
 K. N. Kudin, V. N. Staroverov, T. Keith, R. Kobayashi, J. Normand, 
 K. Raghavachari, A. Rendell, J. C. Burant, S. S. Iyengar, J. Tomasi, 
 M. Cossi, N. Rega, J. M. Millam, M. Klene, J. E. Knox, J. B. Cross, 
 V. Bakken, C. Adamo, J. Jaramillo, R. Gomperts, R. E. Stratmann, 
 O. Yazyev, A. J. Austin, R. Cammi, C. Pomelli, J. W. Ochterski, 
 R. L. Martin, K. Morokuma, V. G. Zakrzewski, G. A. Voth, 
 P. Salvador, J. J. Dannenberg, S. Dapprich, A. D. Daniels, 
 O. Farkas, J. B. Foresman, J. V. Ortiz, J. Cioslowski, 
 and D. J. Fox, Gaussian, Inc., Wallingford CT, 2010.
 
 ******************************************
 Gaussian 09:  IA32W-G09RevB.01 12-Aug-2010
                08-Apr-2016 
 ******************************************
 %chk=E:\YangJ\Amiano\Ala\ts1\s\ts1-p\Ala-S-ts1-p-6-311++gdp-cpcm.chk
 ---------------------------------------------------------
 # opt freq rb3lyp/6-311++g(d,p) scrf=(cpcm,solvent=water)
 ---------------------------------------------------------
 1/14=-1,18=20,19=15,26=3,38=1/1,3;
 2/9=110,12=2,17=6,18=5,40=1/2;
 3/5=4,6=6,7=1111,11=2,16=1,25=1,30=1,70=2101,71=1,72=1,74=-5,116=1/1,2,3;
 4//1;
 5/5=2,38=5,53=1/2;
 6/7=2,8=2,9=2,10=2,28=1/1;
 7//1,2,3,16;
 1/14=-1,18=20,19=15/3(2);
 2/9=110/2;
 99//99;
 2/9=110/2;
 3/5=4,6=6,7=1111,11=2,16=1,25=1,30=1,70=2105,71=1,72=1,74=-5,116=1/1,2,3;
 4/5=5,16=3/1;
 5/5=2,38=5,53=1/2;
 7//1,2,3,16;
 1/14=-1,18=20,19=15/3(-5);
 2/9=110/2;
 6/7=2,8=2,9=2,10=2,19=2,28=1/1;
 99/9=1/99;
 ----------------------------------
 Ala-S-opt-freq-ts1-6-311++gdp cpcm
 ----------------------------------
 Symbolic Z-matrix:
 Charge =  0 Multiplicity = 1
 N                    -1.26551  -1.20896  -0.25528 
 H                    -1.28276  -1.51315   0.71476 
 C                    -0.60845   0.09257  -0.37122 
 H                    -0.6702    0.40911  -1.4162 
 C                    -1.19779   1.2185    0.50972 
 C                     0.85578  -0.04122  -0.06611 
 H                    -1.12818   0.95614   1.56845 
 H                    -0.67882   2.16525   0.34574 
 H                    -2.25063   1.35095   0.25357 
 O                     1.40322  -0.98932   0.58953 
 H                    -2.23253  -1.12366  -0.55349 
 O                     1.74491   0.81833  -0.38925 
 H                     2.7967    0.79547  -0.06798 
 

 GradGradGradGradGradGradGradGradGradGradGradGradGradGradGradGradGradGrad
 Berny optimization.
 Initialization pass.
                           ----------------------------
                           !    Initial Parameters    !
                           ! (Angstroms and Degrees)  !
 --------------------------                            --------------------------
 ! Name  Definition              Value          Derivative Info.                !
 --------------------------------------------------------------------------------
 ! R1    R(1,2)                  1.0168         estimate D2E/DX2                !
 ! R2    R(1,3)                  1.4626         estimate D2E/DX2                !
 ! R3    R(1,11)                 1.0155         estimate D2E/DX2                !
 ! R4    R(3,4)                  1.0936         estimate D2E/DX2                !
 ! R5    R(3,5)                  1.5463         estimate D2E/DX2                !
 ! R6    R(3,6)                  1.5017         estimate D2E/DX2                !
 ! R7    R(5,7)                  1.093          estimate D2E/DX2                !
 ! R8    R(5,8)                  1.092          estimate D2E/DX2                !
 ! R9    R(5,9)                  1.0916         estimate D2E/DX2                !
 ! R10   R(6,10)                 1.2761         estimate D2E/DX2                !
 ! R11   R(6,12)                 1.2782         estimate D2E/DX2                !
 ! R12   R(12,13)                1.1            estimate D2E/DX2                !
 ! A1    A(2,1,3)              110.4555         estimate D2E/DX2                !
 ! A2    A(2,1,11)             106.8058         estimate D2E/DX2                !
 ! A3    A(3,1,11)             109.2537         estimate D2E/DX2                !
 ! A4    A(1,3,4)              107.9356         estimate D2E/DX2                !
 ! A5    A(1,3,5)              115.5676         estimate D2E/DX2                !
 ! A6    A(1,3,6)              110.0391         estimate D2E/DX2                !
 ! A7    A(4,3,5)              108.1854         estimate D2E/DX2                !
 ! A8    A(4,3,6)              105.9619         estimate D2E/DX2                !
 ! A9    A(5,3,6)              108.7079         estimate D2E/DX2                !
 ! A10   A(3,5,7)              110.6581         estimate D2E/DX2                !
 ! A11   A(3,5,8)              111.3825         estimate D2E/DX2                !
 ! A12   A(3,5,9)              108.7994         estimate D2E/DX2                !
 ! A13   A(7,5,8)              108.8624         estimate D2E/DX2                !
 ! A14   A(7,5,9)              108.5332         estimate D2E/DX2                !
 ! A15   A(8,5,9)              108.5374         estimate D2E/DX2                !
 ! A16   A(3,6,10)             126.078          estimate D2E/DX2                !
 ! A17   A(3,6,12)             124.5409         estimate D2E/DX2                !
 ! A18   A(10,6,12)            109.3355         estimate D2E/DX2                !
 ! A19   A(6,12,13)            125.2617         estimate D2E/DX2                !
 ! D1    D(2,1,3,4)           -176.3809         estimate D2E/DX2                !
 ! D2    D(2,1,3,5)            -55.1492         estimate D2E/DX2                !
 ! D3    D(2,1,3,6)             68.4222         estimate D2E/DX2                !
 ! D4    D(11,1,3,4)           -59.1772         estimate D2E/DX2                !
 ! D5    D(11,1,3,5)            62.0544         estimate D2E/DX2                !
 ! D6    D(11,1,3,6)          -174.3742         estimate D2E/DX2                !
 ! D7    D(1,3,5,7)             60.6246         estimate D2E/DX2                !
 ! D8    D(1,3,5,8)           -178.1319         estimate D2E/DX2                !
 ! D9    D(1,3,5,9)            -58.5313         estimate D2E/DX2                !
 ! D10   D(4,3,5,7)           -178.2785         estimate D2E/DX2                !
 ! D11   D(4,3,5,8)            -57.035          estimate D2E/DX2                !
 ! D12   D(4,3,5,9)             62.5657         estimate D2E/DX2                !
 ! D13   D(6,3,5,7)            -63.643          estimate D2E/DX2                !
 ! D14   D(6,3,5,8)             57.6005         estimate D2E/DX2                !
 ! D15   D(6,3,5,9)            177.2012         estimate D2E/DX2                !
 ! D16   D(1,3,6,10)           -20.5549         estimate D2E/DX2                !
 ! D17   D(1,3,6,12)           162.1671         estimate D2E/DX2                !
 ! D18   D(4,3,6,10)          -136.9952         estimate D2E/DX2                !
 ! D19   D(4,3,6,12)            45.7268         estimate D2E/DX2                !
 ! D20   D(5,3,6,10)           106.9282         estimate D2E/DX2                !
 ! D21   D(5,3,6,12)           -70.3499         estimate D2E/DX2                !
 ! D22   D(3,6,12,13)          172.1            estimate D2E/DX2                !
 ! D23   D(10,6,12,13)          -5.5688         estimate D2E/DX2                !
 --------------------------------------------------------------------------------
 Trust Radius=3.00D-01 FncErr=1.00D-07 GrdErr=1.00D-06
 Number of steps in this run=     64 maximum allowed number of steps=    100.
 GradGradGradGradGradGradGradGradGradGradGradGradGradGradGradGradGradGrad

                          Input orientation:                          
 ---------------------------------------------------------------------
 Center     Atomic      Atomic             Coordinates (Angstroms)
 Number     Number       Type             X           Y           Z
 ---------------------------------------------------------------------
      1          7           0       -1.265515   -1.208961   -0.255278
      2          1           0       -1.282765   -1.513145    0.714761
      3          6           0       -0.608451    0.092573   -0.371223
      4          1           0       -0.670205    0.409109   -1.416203
      5          6           0       -1.197792    1.218505    0.509717
      6          6           0        0.855782   -0.041215   -0.066107
      7          1           0       -1.128176    0.956141    1.568449
      8          1           0       -0.678825    2.165247    0.345736
      9          1           0       -2.250633    1.350955    0.253571
     10          8           0        1.403222   -0.989322    0.589534
     11          1           0       -2.232533   -1.123655   -0.553490
     12          8           0        1.744913    0.818330   -0.389255
     13          1           0        2.796702    0.795474   -0.067978
 ---------------------------------------------------------------------
                    Distance matrix (angstroms):
                    1          2          3          4          5
     1  N    0.000000
     2  H    1.016760   0.000000
     3  C    1.462589   2.052411   0.000000
     4  H    2.078531   2.934501   1.093614   0.000000
     5  C    2.546055   2.740652   1.546319   2.154678   0.000000
     6  C    2.428851   2.711036   1.501657   2.086669   2.477021
     7  H    2.834168   2.617261   2.185907   3.068734   1.092975
     8  H    3.477169   3.745863   2.194302   2.487674   1.092033
     9  H    2.789723   3.058191   2.161170   2.484547   1.091617
    10  O    2.807865   2.739452   2.477979   3.205884   3.412645
    11  H    1.015545   1.631632   2.037173   2.352554   2.772510
    12  O    3.631878   3.977620   2.462797   2.656102   3.102870
    13  H    4.533701   4.752310   3.490142   3.739843   4.058160
                    6          7          8          9         10
     6  C    0.000000
     7  H    2.757278   0.000000
     8  H    2.719027   1.777324   0.000000
     9  H    3.419085   1.773328   1.772610   0.000000
    10  O    1.276112   3.339323   3.787567   4.352060   0.000000
    11  H    3.308611   3.169823   3.746931   2.602954   3.813563
    12  O    1.278200   3.479402   2.868606   4.081826   2.083839
    13  H    2.113580   4.255393   3.758553   5.087980   2.357881
                   11         12         13
    11  H    0.000000
    12  O    4.429261   0.000000
    13  H    5.404811   1.100000   0.000000
 Stoichiometry    C3H7NO2
 Framework group  C1[X(C3H7NO2)]
 Deg. of freedom    33
 Full point group                 C1      NOp   1
 Largest Abelian subgroup         C1      NOp   1
 Largest concise Abelian subgroup C1      NOp   1
                         Standard orientation:                         
 ---------------------------------------------------------------------
 Center     Atomic      Atomic             Coordinates (Angstroms)
 Number     Number       Type             X           Y           Z
 ---------------------------------------------------------------------
      1          7           0       -1.436606   -1.147694   -0.293383
      2          1           0       -1.481314   -1.450215    0.676299
      3          6           0       -0.706681    0.115095   -0.401725
      4          1           0       -0.739348    0.434343   -1.447195
      5          6           0       -1.241740    1.272381    0.473204
      6          6           0        0.744409   -0.100168   -0.080830
      7          1           0       -1.198348    1.006786    1.532530
      8          1           0       -0.668978    2.188632    0.315202
      9          1           0       -2.282709    1.463350    0.205728
     10          8           0        1.230928   -1.077209    0.580344
     11          1           0       -2.394067   -1.008598   -0.602011
     12          8           0        1.683591    0.708317   -0.394016
     13          1           0        2.728923    0.626845   -0.061384
 ---------------------------------------------------------------------
 Rotational constants (GHZ):      5.2880874      2.9451447      2.2086363
 Standard basis: 6-311++G(d,p) (5D, 7F)
 There are   181 symmetry adapted basis functions of A   symmetry.
 Integral buffers will be    262144 words long.
 Raffenetti 2 integral format.
 Two-electron integral symmetry is turned on.
   181 basis functions,   279 primitive gaussians,   187 cartesian basis functions
    24 alpha electrons       24 beta electrons
       nuclear repulsion energy       247.5609330774 Hartrees.
 NAtoms=   13 NActive=   13 NUniq=   13 SFac= 1.00D+00 NAtFMM=   50 NAOKFM=F Big=F
 ------------------------------------------------------------------------------
 Polarizable Continuum Model (PCM)
 =================================
 Model                : C-PCM.
 Atomic radii         : UFF (Universal Force Field).
 Polarization charges : Total charges.
 Charge compensation  : None.
 Solution method      : Matrix inversion.
 Cavity type          : Scaled VdW (van der Waals Surface) (Alpha=1.100).
 Cavity algorithm     : GePol (No added spheres)
                        Default sphere list used, NSphG=   13.
                        Lebedev-Laikov grids with approx.  5.0 points / Ang**2.
                        Smoothing algorithm: Karplus/York (Gamma=1.0000).
                        Polarization charges: spherical gaussians, with
                                              point-specific exponents (IZeta= 3).
                        Self-potential: point-specific (ISelfS= 7).
                        Self-field    : sphere-specific E.n sum rule (ISelfD= 2).
 1st derivatives      : Analytical E(r).r(x)/FMM algorithm (CHGder, D1EAlg=3).
                        Cavity 1st derivative terms included.
 Solvent              : Water, Eps=  78.355300 Eps(inf)=   1.777849
 ------------------------------------------------------------------------------
 Spheres list:
 ISph  on   Nord    Re0     Alpha      Xe            Ye            Ze
    1   N      1    1.830   1.100     -1.436606     -1.147694     -0.293383
    2   H      2    1.443   1.100     -1.481314     -1.450215      0.676299
    3   C      3    1.926   1.100     -0.706681      0.115095     -0.401725
    4   H      4    1.443   1.100     -0.739348      0.434343     -1.447195
    5   C      5    1.926   1.100     -1.241740      1.272381      0.473204
    6   C      6    1.926   1.100      0.744409     -0.100168     -0.080830
    7   H      7    1.443   1.100     -1.198348      1.006786      1.532530
    8   H      8    1.443   1.100     -0.668978      2.188632      0.315202
    9   H      9    1.443   1.100     -2.282709      1.463350      0.205728
   10   O     10    1.750   1.100      1.230928     -1.077209      0.580344
   11   H     11    1.443   1.100     -2.394067     -1.008598     -0.602011
   12   O     12    1.750   1.100      1.683591      0.708317     -0.394016
   13   H     13    1.443   1.100      2.728923      0.626845     -0.061384
 ------------------------------------------------------------------------------
 One-electron integrals computed using PRISM.
 NBasis=   181 RedAO= T  NBF=   181
 NBsUse=   181 1.00D-06 NBFU=   181
 Harris functional with IExCor=  402 diagonalized for initial guess.
 ExpMin= 3.60D-02 ExpMax= 8.59D+03 ExpMxC= 1.30D+03 IAcc=3 IRadAn=         0 AccDes= 0.00D+00
 HarFok:  IExCor=  402 AccDes= 0.00D+00 IRadAn=         0 IDoV= 1
 ScaDFX=  1.000000  1.000000  1.000000  1.000000
 FoFCou: FMM=F IPFlag=           0 FMFlag=      100000 FMFlg1=           0
         NFxFlg=           0 DoJE=T BraDBF=F KetDBF=T FulRan=T
         Omega=  0.000000  0.000000  1.000000  0.000000  0.000000 ICntrl=     500 IOpCl=  0
         NMat0=    1 NMatS0=    1 NMatT0=    0 NMatD0=    1 NMtDS0=    0 NMtDT0=    0
         I1Cent=           4 NGrid=           0.
 Petite list used in FoFCou.
 Initial guess orbital symmetries:
       Occupied  (A) (A) (A) (A) (A) (A) (A) (A) (A) (A) (A) (A)
                 (A) (A) (A) (A) (A) (A) (A) (A) (A) (A) (A) (A)
       Virtual   (A) (A) (A) (A) (A) (A) (A) (A) (A) (A) (A) (A)
                 (A) (A) (A) (A) (A) (A) (A) (A) (A) (A) (A) (A)
                 (A) (A) (A) (A) (A) (A) (A) (A) (A) (A) (A) (A)
                 (A) (A) (A) (A) (A) (A) (A) (A) (A) (A) (A) (A)
                 (A) (A) (A) (A) (A) (A) (A) (A) (A) (A) (A) (A)
                 (A) (A) (A) (A) (A) (A) (A) (A) (A) (A) (A) (A)
                 (A) (A) (A) (A) (A) (A) (A) (A) (A) (A) (A) (A)
                 (A) (A) (A) (A) (A) (A) (A) (A) (A) (A) (A) (A)
                 (A) (A) (A) (A) (A) (A) (A) (A) (A) (A) (A) (A)
                 (A) (A) (A) (A) (A) (A) (A) (A) (A) (A) (A) (A)
                 (A) (A) (A) (A) (A) (A) (A) (A) (A) (A) (A) (A)
                 (A) (A) (A) (A) (A) (A) (A) (A) (A) (A) (A) (A)
                 (A) (A) (A) (A) (A) (A) (A) (A) (A) (A) (A) (A)
                 (A)
 The electronic state of the initial guess is 1-A.
 Requested convergence on RMS density matrix=1.00D-08 within 128 cycles.
 Requested convergence on MAX density matrix=1.00D-06.
 Requested convergence on             energy=1.00D-06.
 No special actions if energy rises.
 Error on total polarization charges =  0.01232
 SCF Done:  E(RB3LYP) =  -323.822007510     A.U. after   13 cycles
             Convg  =    0.3776D-08             -V/T =  2.0044

 **********************************************************************

            Population analysis using the SCF density.

 **********************************************************************

 Orbital symmetries:
       Occupied  (A) (A) (A) (A) (A) (A) (A) (A) (A) (A) (A) (A)
                 (A) (A) (A) (A) (A) (A) (A) (A) (A) (A) (A) (A)
       Virtual   (A) (A) (A) (A) (A) (A) (A) (A) (A) (A) (A) (A)
                 (A) (A) (A) (A) (A) (A) (A) (A) (A) (A) (A) (A)
                 (A) (A) (A) (A) (A) (A) (A) (A) (A) (A) (A) (A)
                 (A) (A) (A) (A) (A) (A) (A) (A) (A) (A) (A) (A)
                 (A) (A) (A) (A) (A) (A) (A) (A) (A) (A) (A) (A)
                 (A) (A) (A) (A) (A) (A) (A) (A) (A) (A) (A) (A)
                 (A) (A) (A) (A) (A) (A) (A) (A) (A) (A) (A) (A)
                 (A) (A) (A) (A) (A) (A) (A) (A) (A) (A) (A) (A)
                 (A) (A) (A) (A) (A) (A) (A) (A) (A) (A) (A) (A)
                 (A) (A) (A) (A) (A) (A) (A) (A) (A) (A) (A) (A)
                 (A) (A) (A) (A) (A) (A) (A) (A) (A) (A) (A) (A)
                 (A) (A) (A) (A) (A) (A) (A) (A) (A) (A) (A) (A)
                 (A) (A) (A) (A) (A) (A) (A) (A) (A) (A) (A) (A)
                 (A)
 The electronic state is 1-A.
 Alpha  occ. eigenvalues --  -19.18365 -19.10276 -14.31027 -10.31937 -10.23699
 Alpha  occ. eigenvalues --  -10.17569  -1.12576  -0.98331  -0.90792  -0.76751
 Alpha  occ. eigenvalues --   -0.68341  -0.61867  -0.54287  -0.48820  -0.47371
 Alpha  occ. eigenvalues --   -0.46608  -0.44407  -0.42075  -0.40818  -0.38157
 Alpha  occ. eigenvalues --   -0.36156  -0.31264  -0.27197  -0.26525
 Alpha virt. eigenvalues --   -0.02340  -0.01968  -0.00269   0.01787   0.02072
 Alpha virt. eigenvalues --    0.03757   0.05064   0.05961   0.06280   0.07024
 Alpha virt. eigenvalues --    0.08523   0.08692   0.09772   0.10831   0.11704
 Alpha virt. eigenvalues --    0.12609   0.12930   0.13437   0.13998   0.14186
 Alpha virt. eigenvalues --    0.16265   0.16638   0.18004   0.18582   0.19848
 Alpha virt. eigenvalues --    0.20233   0.21587   0.21936   0.22864   0.23567
 Alpha virt. eigenvalues --    0.24669   0.26311   0.27624   0.27947   0.28181
 Alpha virt. eigenvalues --    0.29321   0.30111   0.32051   0.33959   0.35419
 Alpha virt. eigenvalues --    0.36753   0.38333   0.39702   0.43454   0.45748
 Alpha virt. eigenvalues --    0.47209   0.49704   0.53374   0.56063   0.56438
 Alpha virt. eigenvalues --    0.58695   0.62061   0.63950   0.65457   0.66457
 Alpha virt. eigenvalues --    0.68405   0.69323   0.70521   0.73755   0.73939
 Alpha virt. eigenvalues --    0.80794   0.83662   0.84425   0.86929   0.95155
 Alpha virt. eigenvalues --    0.98686   1.01467   1.05539   1.10028   1.13234
 Alpha virt. eigenvalues --    1.14721   1.15691   1.18028   1.20855   1.23507
 Alpha virt. eigenvalues --    1.24847   1.29953   1.33331   1.43710   1.46324
 Alpha virt. eigenvalues --    1.48698   1.49032   1.51595   1.53082   1.55954
 Alpha virt. eigenvalues --    1.58033   1.58358   1.60898   1.62961   1.65632
 Alpha virt. eigenvalues --    1.68767   1.71274   1.74970   1.78516   1.81265
 Alpha virt. eigenvalues --    1.84279   1.89565   1.89999   1.94177   1.99120
 Alpha virt. eigenvalues --    2.02684   2.05878   2.12629   2.13037   2.26613
 Alpha virt. eigenvalues --    2.27884   2.34841   2.46539   2.48007   2.52363
 Alpha virt. eigenvalues --    2.53546   2.55779   2.58733   2.61484   2.64292
 Alpha virt. eigenvalues --    2.66135   2.68081   2.71539   2.76260   2.81455
 Alpha virt. eigenvalues --    2.84088   2.86986   2.88356   2.90481   2.93107
 Alpha virt. eigenvalues --    2.96060   3.01144   3.04704   3.12562   3.18830
 Alpha virt. eigenvalues --    3.22149   3.27017   3.32787   3.44331   3.53064
 Alpha virt. eigenvalues --    3.65169   3.77923   3.80110   3.84922   4.05153
 Alpha virt. eigenvalues --    4.06782   4.12058   4.23493   4.72253   4.84943
 Alpha virt. eigenvalues --    4.95637   5.06517   5.12876   5.28820   5.54472
 Alpha virt. eigenvalues --    5.83212  23.75037  23.80082  23.95663  35.58743
 Alpha virt. eigenvalues --   49.84762  49.98407
          Condensed to atoms (all electrons):
              1          2          3          4          5          6
     1  N    6.703928   0.381416   0.081685  -0.063235  -0.079579  -0.024109
     2  H    0.381416   0.424447  -0.016189   0.007222  -0.002048  -0.008249
     3  C    0.081685  -0.016189   7.057102   0.447479  -0.057584  -0.820095
     4  H   -0.063235   0.007222   0.447479   0.525061  -0.084933  -0.049988
     5  C   -0.079579  -0.002048  -0.057584  -0.084933   5.551770  -0.073569
     6  C   -0.024109  -0.008249  -0.820095  -0.049988  -0.073569   5.945255
     7  H   -0.015905   0.000676   0.017247   0.009569   0.384642  -0.027576
     8  H    0.017768  -0.002068  -0.066074  -0.009982   0.402437   0.013587
     9  H   -0.010962   0.000035  -0.005920  -0.011331   0.405118  -0.018026
    10  O   -0.007674   0.004741  -0.004929  -0.001135  -0.037700   0.473965
    11  H    0.402857  -0.042915  -0.103556  -0.009637   0.008230   0.046138
    12  O   -0.006560   0.001267  -0.168825   0.004634  -0.042918   0.372156
    13  H    0.000750   0.000157  -0.024856   0.001882   0.007688  -0.010117
              7          8          9         10         11         12
     1  N   -0.015905   0.017768  -0.010962  -0.007674   0.402857  -0.006560
     2  H    0.000676  -0.002068   0.000035   0.004741  -0.042915   0.001267
     3  C    0.017247  -0.066074  -0.005920  -0.004929  -0.103556  -0.168825
     4  H    0.009569  -0.009982  -0.011331  -0.001135  -0.009637   0.004634
     5  C    0.384642   0.402437   0.405118  -0.037700   0.008230  -0.042918
     6  C   -0.027576   0.013587  -0.018026   0.473965   0.046138   0.372156
     7  H    0.541817  -0.034314  -0.040452   0.002093   0.002236  -0.003219
     8  H   -0.034314   0.538504  -0.024974   0.000412  -0.000070   0.012097
     9  H   -0.040452  -0.024974   0.540821  -0.002035  -0.000183  -0.003921
    10  O    0.002093   0.000412  -0.002035   8.266858   0.002619  -0.214286
    11  H    0.002236  -0.000070  -0.000183   0.002619   0.435450  -0.000431
    12  O   -0.003219   0.012097  -0.003921  -0.214286  -0.000431   8.007678
    13  H    0.000119  -0.001114  -0.000100  -0.002274   0.000172   0.271234
             13
     1  N    0.000750
     2  H    0.000157
     3  C   -0.024856
     4  H    0.001882
     5  C    0.007688
     6  C   -0.010117
     7  H    0.000119
     8  H   -0.001114
     9  H   -0.000100
    10  O   -0.002274
    11  H    0.000172
    12  O    0.271234
    13  H    0.363885
 Mulliken atomic charges:
              1
     1  N   -0.380381
     2  H    0.251508
     3  C   -0.335485
     4  H    0.234396
     5  C   -0.381554
     6  C    0.180627
     7  H    0.163065
     8  H    0.153791
     9  H    0.171928
    10  O   -0.480653
    11  H    0.259092
    12  O   -0.228908
    13  H    0.392573
 Sum of Mulliken atomic charges =   0.00000
 Mulliken charges with hydrogens summed into heavy atoms:
              1
     1  N    0.130218
     3  C   -0.101088
     5  C    0.107230
     6  C    0.180627
    10  O   -0.480653
    12  O    0.163665
 Sum of Mulliken charges with hydrogens summed into heavy atoms =   0.00000
 Electronic spatial extent (au):  <R**2>=            593.7272
 Charge=              0.0000 electrons
 Dipole moment (field-independent basis, Debye):
    X=             -1.6566    Y=              4.1486    Z=             -0.3796  Tot=              4.4832
 Quadrupole moment (field-independent basis, Debye-Ang):
   XX=            -25.0693   YY=            -43.7080   ZZ=            -37.4403
   XY=              4.2264   XZ=             -1.2120   YZ=              0.5149
 Traceless Quadrupole moment (field-independent basis, Debye-Ang):
   XX=             10.3366   YY=             -8.3021   ZZ=             -2.0344
   XY=              4.2264   XZ=             -1.2120   YZ=              0.5149
 Octapole moment (field-independent basis, Debye-Ang**2):
  XXX=             22.3640  YYY=             10.9069  ZZZ=             -0.9477  XYY=             -2.3679
  XXY=              7.8751  XXZ=             -2.8196  XZZ=             -1.9214  YZZ=              1.5181
  YYZ=              2.8764  XYZ=              6.8372
 Hexadecapole moment (field-independent basis, Debye-Ang**3):
 XXXX=           -274.9465 YYYY=           -266.0887 ZZZZ=            -91.1569 XXXY=             44.9233
 XXXZ=              6.7517 YYYX=              6.3190 YYYZ=             -8.1004 ZZZX=             -1.0215
 ZZZY=             -3.6077 XXYY=           -111.4311 XXZZ=            -86.9962 YYZZ=            -61.3621
 XXYZ=              2.8506 YYXZ=             -6.8067 ZZXY=              2.5825
 N-N= 2.475609330774D+02 E-N=-1.253885624287D+03  KE= 3.224060411026D+02
 D1PCM: C-PCM CHGder 1st derivatives, ID1Alg=3 FixD1E=F DoIter=F DoCFld=F I1PDM=0.
 Calling FoFJK, ICntrl=      2127 FMM=F ISym2X=0 I1Cent= 0 IOpClX= 0 NMat=1 NMatS=1 NMatT=0.
 ***** Axes restored to original set *****
 -------------------------------------------------------------------
 Center     Atomic                   Forces (Hartrees/Bohr)
 Number     Number              X              Y              Z
 -------------------------------------------------------------------
      1        7           0.002435334    0.001006919    0.000584529
      2        1           0.001268674    0.000113695   -0.000427179
      3        6          -0.000036543    0.009766161   -0.006287718
      4        1          -0.001881141    0.000464632   -0.000862085
      5        6          -0.000500776   -0.000446727   -0.000517636
      6        6           0.077120839   -0.096616384    0.072184978
      7        1           0.000163466   -0.000155497   -0.000019560
      8        1           0.000023574    0.000223353    0.000014880
      9        1          -0.000026731    0.000307148    0.000174051
     10        8          -0.058010528    0.005556278   -0.013340408
     11        1           0.000298104    0.001169854   -0.000352612
     12        8           0.065978612    0.096779222   -0.036519825
     13        1          -0.086832884   -0.018168654   -0.014631416
 -------------------------------------------------------------------
 Cartesian Forces:  Max     0.096779222 RMS     0.034845936

 GradGradGradGradGradGradGradGradGradGradGradGradGradGradGradGradGradGrad
 Berny optimization.
 Internal  Forces:  Max     0.087911227 RMS     0.021920065
 Search for a local minimum.
 Step number   1 out of a maximum of   64
 All quantities printed in internal units (Hartrees-Bohrs-Radians)
 Mixed Optimization -- RFO/linear search
 Second derivative matrix not updated -- first step.
 ITU=  0
     Eigenvalues ---    0.00230   0.00744   0.00864   0.01252   0.03303
     Eigenvalues ---    0.04129   0.04407   0.05103   0.05423   0.05701
     Eigenvalues ---    0.06853   0.16000   0.16000   0.16000   0.16000
     Eigenvalues ---    0.16000   0.16000   0.17706   0.18900   0.24991
     Eigenvalues ---    0.25000   0.27966   0.32204   0.33682   0.34398
     Eigenvalues ---    0.34471   0.34579   0.34626   0.36642   0.44859
     Eigenvalues ---    0.45057   0.73630   0.74289
 RFO step:  Lambda=-7.12462613D-02 EMin= 2.30000000D-03
 Linear search not attempted -- first point.
 Maximum step size (   0.300) exceeded in Quadratic search.
    -- Step size scaled by   0.651
 Iteration  1 RMS(Cart)=  0.05609679 RMS(Int)=  0.00203416
 Iteration  2 RMS(Cart)=  0.00257616 RMS(Int)=  0.00003745
 Iteration  3 RMS(Cart)=  0.00000317 RMS(Int)=  0.00003737
 Iteration  4 RMS(Cart)=  0.00000000 RMS(Int)=  0.00003737
 Variable       Old X    -DE/DX   Delta X   Delta X   Delta X     New X
                                 (Linear)    (Quad)   (Total)
    R1        1.92140  -0.00047   0.00000  -0.00059  -0.00059   1.92081
    R2        2.76389  -0.00386   0.00000  -0.00574  -0.00574   2.75815
    R3        1.91910  -0.00008   0.00000  -0.00010  -0.00010   1.91900
    R4        2.06663   0.00107   0.00000   0.00167   0.00167   2.06830
    R5        2.92212  -0.00012   0.00000  -0.00022  -0.00022   2.92190
    R6        2.83772   0.00098   0.00000   0.00162   0.00162   2.83934
    R7        2.06542   0.00003   0.00000   0.00005   0.00005   2.06547
    R8        2.06364   0.00020   0.00000   0.00031   0.00031   2.06396
    R9        2.06286   0.00002   0.00000   0.00003   0.00003   2.06289
   R10        2.41150  -0.03587   0.00000  -0.02869  -0.02869   2.38281
   R11        2.41545   0.05128   0.00000   0.04136   0.04136   2.45681
   R12        2.07870  -0.08692   0.00000  -0.13873  -0.13873   1.93997
    A1        1.92781  -0.00052   0.00000  -0.00139  -0.00139   1.92642
    A2        1.86411   0.00122   0.00000   0.00359   0.00359   1.86770
    A3        1.90684  -0.00180   0.00000  -0.00499  -0.00500   1.90184
    A4        1.88383  -0.00004   0.00000  -0.00052  -0.00050   1.88333
    A5        2.01703   0.00151   0.00000   0.00267   0.00267   2.01970
    A6        1.92054  -0.00288   0.00000  -0.00852  -0.00852   1.91203
    A7        1.88819  -0.00099   0.00000  -0.00179  -0.00180   1.88639
    A8        1.84938   0.00174   0.00000   0.00743   0.00743   1.85682
    A9        1.89731   0.00075   0.00000   0.00136   0.00136   1.89867
   A10        1.93135  -0.00042   0.00000  -0.00126  -0.00126   1.93009
   A11        1.94399   0.00010   0.00000   0.00024   0.00024   1.94423
   A12        1.89891   0.00056   0.00000   0.00169   0.00169   1.90059
   A13        1.90001   0.00006   0.00000  -0.00005  -0.00005   1.89996
   A14        1.89426  -0.00003   0.00000   0.00001   0.00001   1.89427
   A15        1.89433  -0.00027   0.00000  -0.00062  -0.00063   1.89371
   A16        2.20048  -0.02741   0.00000  -0.05557  -0.05556   2.14491
   A17        2.17365  -0.06054   0.00000  -0.12270  -0.12270   2.05095
   A18        1.90826   0.08791   0.00000   0.17829   0.17829   2.08655
   A19        2.18623  -0.04772   0.00000  -0.13440  -0.13440   2.05183
    D1       -3.07843  -0.00006   0.00000  -0.00097  -0.00097  -3.07940
    D2       -0.96254  -0.00037   0.00000  -0.00190  -0.00190  -0.96444
    D3        1.19419  -0.00058   0.00000  -0.00501  -0.00501   1.18918
    D4       -1.03284   0.00004   0.00000  -0.00040  -0.00040  -1.03323
    D5        1.08305  -0.00027   0.00000  -0.00133  -0.00133   1.08172
    D6       -3.04340  -0.00048   0.00000  -0.00444  -0.00444  -3.04784
    D7        1.05810  -0.00070   0.00000  -0.00230  -0.00230   1.05580
    D8       -3.10899  -0.00085   0.00000  -0.00306  -0.00306  -3.11205
    D9       -1.02156  -0.00076   0.00000  -0.00260  -0.00260  -1.02417
   D10       -3.11155  -0.00050   0.00000  -0.00253  -0.00253  -3.11407
   D11       -0.99545  -0.00064   0.00000  -0.00329  -0.00329  -0.99874
   D12        1.09198  -0.00055   0.00000  -0.00284  -0.00283   1.08914
   D13       -1.11078   0.00141   0.00000   0.00597   0.00597  -1.10481
   D14        1.00532   0.00127   0.00000   0.00521   0.00521   1.01053
   D15        3.09274   0.00135   0.00000   0.00566   0.00566   3.09841
   D16       -0.35875  -0.00019   0.00000  -0.00012  -0.00008  -0.35883
   D17        2.83035  -0.00114   0.00000  -0.00499  -0.00506   2.82529
   D18       -2.39102   0.00035   0.00000   0.00067   0.00074  -2.39028
   D19        0.79808  -0.00060   0.00000  -0.00420  -0.00424   0.79384
   D20        1.86625   0.00024   0.00000  -0.00175  -0.00169   1.86455
   D21       -1.22784  -0.00071   0.00000  -0.00662  -0.00668  -1.23451
   D22        3.00371   0.00051   0.00000   0.00713   0.00696   3.01067
   D23       -0.09719   0.00177   0.00000   0.00715   0.00732  -0.08987
         Item               Value     Threshold  Converged?
 Maximum Force            0.087911     0.000450     NO 
 RMS     Force            0.021920     0.000300     NO 
 Maximum Displacement     0.261519     0.001800     NO 
 RMS     Displacement     0.056970     0.001200     NO 
 Predicted change in Energy=-3.451122D-02
 GradGradGradGradGradGradGradGradGradGradGradGradGradGradGradGradGradGrad

                          Input orientation:                          
 ---------------------------------------------------------------------
 Center     Atomic      Atomic             Coordinates (Angstroms)
 Number     Number       Type             X           Y           Z
 ---------------------------------------------------------------------
      1          7           0       -1.245480   -1.209026   -0.256927
      2          1           0       -1.273097   -1.513843    0.712347
      3          6           0       -0.579497    0.085320   -0.363825
      4          1           0       -0.628861    0.403811   -1.409796
      5          6           0       -1.167574    1.216796    0.510628
      6          6           0        0.878610   -0.070911   -0.036632
      7          1           0       -1.112615    0.952070    1.569661
      8          1           0       -0.636573    2.158294    0.354036
      9          1           0       -2.215960    1.361735    0.243144
     10          8           0        1.331610   -1.044386    0.624487
     11          1           0       -2.208110   -1.111378   -0.565201
     12          8           0        1.684961    0.873537   -0.421397
     13          1           0        2.658311    0.828012   -0.098288
 ---------------------------------------------------------------------
                    Distance matrix (angstroms):
                    1          2          3          4          5
     1  N    0.000000
     2  H    1.016448   0.000000
     3  C    1.459553   2.048549   0.000000
     4  H    2.076192   2.931881   1.094499   0.000000
     5  C    2.545550   2.740112   1.546202   2.153877   0.000000
     6  C    2.419834   2.696825   1.502512   2.093659   2.478821
     7  H    2.832740   2.615620   2.184911   3.067861   1.093001
     8  H    3.476045   3.744080   2.194493   2.487845   1.092200
     9  H    2.792976   3.062367   2.162327   2.483689   1.091635
    10  O    2.728624   2.648133   2.430088   3.174749   3.372215
    11  H    1.015493   1.633511   2.031014   2.345883   2.767764
    12  O    3.598834   3.966745   2.398410   2.559560   3.020505
    13  H    4.406164   4.647299   3.332492   3.564478   3.893499
                    6          7          8          9         10
     6  C    0.000000
     7  H    2.755294   0.000000
     8  H    2.723556   1.777452   0.000000
     9  H    3.421566   1.773370   1.772361   0.000000
    10  O    1.260929   3.294454   3.768826   4.303498   0.000000
    11  H    3.299970   3.164738   3.742389   2.601879   3.734898
    12  O    1.300088   3.434662   2.764311   3.987121   2.212953
    13  H    1.994793   4.125206   3.581970   4.915278   2.405913
                   11         12         13
    11  H    0.000000
    12  O    4.372250   0.000000
    13  H    5.259401   1.026589   0.000000
 Stoichiometry    C3H7NO2
 Framework group  C1[X(C3H7NO2)]
 Deg. of freedom    33
 Full point group                 C1      NOp   1
 Largest Abelian subgroup         C1      NOp   1
 Largest concise Abelian subgroup C1      NOp   1
                         Standard orientation:                         
 ---------------------------------------------------------------------
 Center     Atomic      Atomic             Coordinates (Angstroms)
 Number     Number       Type             X           Y           Z
 ---------------------------------------------------------------------
      1          7           0       -1.429866   -1.107872   -0.334967
      2          1           0       -1.494908   -1.435640    0.624983
      3          6           0       -0.665918    0.134225   -0.397195
      4          1           0       -0.675451    0.483565   -1.434402
      5          6           0       -1.179162    1.283394    0.500988
      6          6           0        0.771096   -0.141672   -0.056002
      7          1           0       -1.160156    0.986863    1.552824
      8          1           0       -0.575876    2.185448    0.377517
      9          1           0       -2.209426    1.515133    0.224363
     10          8           0        1.138961   -1.164330    0.583363
     11          1           0       -2.377623   -0.928722   -0.652595
     12          8           0        1.652504    0.748425   -0.403958
     13          1           0        2.614692    0.620009   -0.069910
 ---------------------------------------------------------------------
 Rotational constants (GHZ):      5.0701436      3.0858685      2.2623426
 Standard basis: 6-311++G(d,p) (5D, 7F)
 There are   181 symmetry adapted basis functions of A   symmetry.
 Integral buffers will be    262144 words long.
 Raffenetti 2 integral format.
 Two-electron integral symmetry is turned on.
   181 basis functions,   279 primitive gaussians,   187 cartesian basis functions
    24 alpha electrons       24 beta electrons
       nuclear repulsion energy       248.5093866559 Hartrees.
 NAtoms=   13 NActive=   13 NUniq=   13 SFac= 1.00D+00 NAtFMM=   50 NAOKFM=F Big=F
 ------------------------------------------------------------------------------
 Polarizable Continuum Model (PCM)
 =================================
 Model                : C-PCM.
 Atomic radii         : UFF (Universal Force Field).
 Polarization charges : Total charges.
 Charge compensation  : None.
 Solution method      : Matrix inversion.
 Cavity type          : Scaled VdW (van der Waals Surface) (Alpha=1.100).
 Cavity algorithm     : GePol (No added spheres)
                        Default sphere list used, NSphG=   13.
                        Lebedev-Laikov grids with approx.  5.0 points / Ang**2.
                        Smoothing algorithm: Karplus/York (Gamma=1.0000).
                        Polarization charges: spherical gaussians, with
                                              point-specific exponents (IZeta= 3).
                        Self-potential: point-specific (ISelfS= 7).
                        Self-field    : sphere-specific E.n sum rule (ISelfD= 2).
 1st derivatives      : Analytical E(r).r(x)/FMM algorithm (CHGder, D1EAlg=3).
                        Cavity 1st derivative terms included.
 Solvent              : Water, Eps=  78.355300 Eps(inf)=   1.777849
 ------------------------------------------------------------------------------
 Spheres list:
 ISph  on   Nord    Re0     Alpha      Xe            Ye            Ze
    1   N      1    1.830   1.100     -1.429866     -1.107872     -0.334967
    2   H      2    1.443   1.100     -1.494908     -1.435640      0.624983
    3   C      3    1.926   1.100     -0.665918      0.134225     -0.397195
    4   H      4    1.443   1.100     -0.675451      0.483565     -1.434402
    5   C      5    1.926   1.100     -1.179162      1.283394      0.500988
    6   C      6    1.926   1.100      0.771096     -0.141672     -0.056002
    7   H      7    1.443   1.100     -1.160156      0.986863      1.552824
    8   H      8    1.443   1.100     -0.575876      2.185448      0.377517
    9   H      9    1.443   1.100     -2.209426      1.515133      0.224363
   10   O     10    1.750   1.100      1.138961     -1.164330      0.583363
   11   H     11    1.443   1.100     -2.377623     -0.928722     -0.652595
   12   O     12    1.750   1.100      1.652504      0.748425     -0.403958
   13   H     13    1.443   1.100      2.614692      0.620009     -0.069910
 ------------------------------------------------------------------------------
 One-electron integrals computed using PRISM.
 NBasis=   181 RedAO= T  NBF=   181
 NBsUse=   181 1.00D-06 NBFU=   181
 Initial guess read from the read-write file.
 B after Tr=     0.000000    0.000000    0.000000
         Rot=    1.000000    0.000000    0.000000    0.000000 Ang=   0.00 deg.
 Initial guess orbital symmetries:
       Occupied  (A) (A) (A) (A) (A) (A) (A) (A) (A) (A) (A) (A)
                 (A) (A) (A) (A) (A) (A) (A) (A) (A) (A) (A) (A)
       Virtual   (A) (A) (A) (A) (A) (A) (A) (A) (A) (A) (A) (A)
                 (A) (A) (A) (A) (A) (A) (A) (A) (A) (A) (A) (A)
                 (A) (A) (A) (A) (A) (A) (A) (A) (A) (A) (A) (A)
                 (A) (A) (A) (A) (A) (A) (A) (A) (A) (A) (A) (A)
                 (A) (A) (A) (A) (A) (A) (A) (A) (A) (A) (A) (A)
                 (A) (A) (A) (A) (A) (A) (A) (A) (A) (A) (A) (A)
                 (A) (A) (A) (A) (A) (A) (A) (A) (A) (A) (A) (A)
                 (A) (A) (A) (A) (A) (A) (A) (A) (A) (A) (A) (A)
                 (A) (A) (A) (A) (A) (A) (A) (A) (A) (A) (A) (A)
                 (A) (A) (A) (A) (A) (A) (A) (A) (A) (A) (A) (A)
                 (A) (A) (A) (A) (A) (A) (A) (A) (A) (A) (A) (A)
                 (A) (A) (A) (A) (A) (A) (A) (A) (A) (A) (A) (A)
                 (A) (A) (A) (A) (A) (A) (A) (A) (A) (A) (A) (A)
                 (A)
 Harris functional with IExCor=  402 diagonalized for initial guess.
 ExpMin= 3.60D-02 ExpMax= 8.59D+03 ExpMxC= 1.30D+03 IAcc=3 IRadAn=         0 AccDes= 0.00D+00
 HarFok:  IExCor=  402 AccDes= 0.00D+00 IRadAn=         0 IDoV= 1
 ScaDFX=  1.000000  1.000000  1.000000  1.000000
 FoFCou: FMM=F IPFlag=           0 FMFlag=      100000 FMFlg1=           0
         NFxFlg=           0 DoJE=T BraDBF=F KetDBF=T FulRan=T
         Omega=  0.000000  0.000000  1.000000  0.000000  0.000000 ICntrl=     500 IOpCl=  0
         NMat0=    1 NMatS0=    1 NMatT0=    0 NMatD0=    1 NMtDS0=    0 NMtDT0=    0
         I1Cent=           4 NGrid=           0.
 Petite list used in FoFCou.
 Requested convergence on RMS density matrix=1.00D-08 within 128 cycles.
 Requested convergence on MAX density matrix=1.00D-06.
 Requested convergence on             energy=1.00D-06.
 No special actions if energy rises.
 Error on total polarization charges =  0.01213
 SCF Done:  E(RB3LYP) =  -323.854234783     A.U. after   11 cycles
             Convg  =    0.7258D-08             -V/T =  2.0043
 D1PCM: C-PCM CHGder 1st derivatives, ID1Alg=3 FixD1E=F DoIter=F DoCFld=F I1PDM=0.
 Calling FoFJK, ICntrl=      2127 FMM=F ISym2X=0 I1Cent= 0 IOpClX= 0 NMat=1 NMatS=1 NMatT=0.
 ***** Axes restored to original set *****
 -------------------------------------------------------------------
 Center     Atomic                   Forces (Hartrees/Bohr)
 Number     Number              X              Y              Z
 -------------------------------------------------------------------
      1        7          -0.001583023    0.000571544   -0.000494949
      2        1           0.000908129   -0.000212560   -0.000336843
      3        6          -0.000807629    0.007490111   -0.006326602
      4        1          -0.001526817    0.000259282   -0.000321369
      5        6          -0.001020770   -0.000614157   -0.000646509
      6        6           0.034337892   -0.072312030    0.050534867
      7        1           0.000029353   -0.000089339    0.000236372
      8        1          -0.000076312   -0.000006659    0.000025619
      9        1          -0.000232959    0.000361151    0.000343947
     10        8          -0.023609194    0.034823765   -0.023910630
     11        1          -0.000213293    0.000232130    0.000379516
     12        8           0.040703607    0.039501207   -0.010243191
     13        1          -0.046908985   -0.010004444   -0.009240228
 -------------------------------------------------------------------
 Cartesian Forces:  Max     0.072312030 RMS     0.020950169

 GradGradGradGradGradGradGradGradGradGradGradGradGradGradGradGradGradGrad
 Berny optimization.
 Using GEDIIS/GDIIS optimizer.
 Internal  Forces:  Max     0.047903848 RMS     0.011075010
 Search for a local minimum.
 Step number   2 out of a maximum of   64
 All quantities printed in internal units (Hartrees-Bohrs-Radians)
 Mixed Optimization -- RFO/linear search
 Update second derivatives using D2CorX and points    1    2
 DE= -3.22D-02 DEPred=-3.45D-02 R= 9.34D-01
 SS=  1.41D+00  RLast= 3.01D-01 DXNew= 5.0454D-01 9.0190D-01
 Trust test= 9.34D-01 RLast= 3.01D-01 DXMaxT set to 5.05D-01
 ITU=  1  0
 Use linear search instead of GDIIS.
     Eigenvalues ---    0.00230   0.00744   0.00864   0.01356   0.03302
     Eigenvalues ---    0.04149   0.04435   0.05090   0.05426   0.05694
     Eigenvalues ---    0.06861   0.15248   0.16000   0.16000   0.16000
     Eigenvalues ---    0.16000   0.16007   0.17718   0.18845   0.23968
     Eigenvalues ---    0.27966   0.29670   0.31849   0.34398   0.34470
     Eigenvalues ---    0.34578   0.34626   0.36214   0.37285   0.44859
     Eigenvalues ---    0.45057   0.70153   0.78391
 RFO step:  Lambda=-1.19433636D-02 EMin= 2.29999889D-03
 Quartic linear search produced a step of  0.68500.
 Iteration  1 RMS(Cart)=  0.05260315 RMS(Int)=  0.00283360
 Iteration  2 RMS(Cart)=  0.00314349 RMS(Int)=  0.00005175
 Iteration  3 RMS(Cart)=  0.00002300 RMS(Int)=  0.00004819
 Iteration  4 RMS(Cart)=  0.00000000 RMS(Int)=  0.00004819
 Variable       Old X    -DE/DX   Delta X   Delta X   Delta X     New X
                                 (Linear)    (Quad)   (Total)
    R1        1.92081  -0.00029  -0.00040  -0.00051  -0.00091   1.91989
    R2        2.75815  -0.00015  -0.00393   0.00466   0.00073   2.75888
    R3        1.91900   0.00011  -0.00007   0.00050   0.00043   1.91943
    R4        2.06830   0.00045   0.00115   0.00056   0.00170   2.07001
    R5        2.92190   0.00022  -0.00015   0.00148   0.00133   2.92323
    R6        2.83934   0.00677   0.00111   0.03247   0.03358   2.87292
    R7        2.06547   0.00026   0.00003   0.00116   0.00119   2.06666
    R8        2.06396  -0.00005   0.00022  -0.00052  -0.00030   2.06366
    R9        2.06289   0.00019   0.00002   0.00084   0.00086   2.06375
   R10        2.38281  -0.04790  -0.01965  -0.08173  -0.10138   2.28143
   R11        2.45681   0.02334   0.02833   0.01672   0.04505   2.50186
   R12        1.93997  -0.04694  -0.09503  -0.09471  -0.18974   1.75023
    A1        1.92642  -0.00018  -0.00095   0.00041  -0.00054   1.92588
    A2        1.86770   0.00026   0.00246  -0.00007   0.00238   1.87009
    A3        1.90184  -0.00012  -0.00342   0.00505   0.00163   1.90347
    A4        1.88333  -0.00029  -0.00035  -0.00837  -0.00890   1.87443
    A5        2.01970  -0.00080   0.00183  -0.01387  -0.01210   2.00760
    A6        1.91203   0.00053  -0.00583   0.01537   0.00955   1.92157
    A7        1.88639  -0.00008  -0.00124  -0.00437  -0.00575   1.88063
    A8        1.85682   0.00083   0.00509   0.01321   0.01832   1.87513
    A9        1.89867  -0.00006   0.00093  -0.00002   0.00095   1.89962
   A10        1.93009  -0.00021  -0.00086  -0.00113  -0.00199   1.92809
   A11        1.94423  -0.00002   0.00016  -0.00054  -0.00039   1.94384
   A12        1.90059   0.00078   0.00116   0.00632   0.00747   1.90807
   A13        1.89996   0.00001  -0.00003  -0.00103  -0.00106   1.89890
   A14        1.89427  -0.00027   0.00001  -0.00243  -0.00242   1.89186
   A15        1.89371  -0.00030  -0.00043  -0.00127  -0.00170   1.89201
   A16        2.14491   0.00279  -0.03806   0.07322   0.03516   2.18007
   A17        2.05095  -0.02179  -0.08405  -0.01721  -0.10126   1.94969
   A18        2.08655   0.01899   0.12213  -0.05591   0.06622   2.15277
   A19        2.05183  -0.02606  -0.09206  -0.10569  -0.19775   1.85409
    D1       -3.07940   0.00016  -0.00066  -0.01436  -0.01508  -3.09448
    D2       -0.96444  -0.00069  -0.00130  -0.03565  -0.03690  -1.00134
    D3        1.18918  -0.00094  -0.00343  -0.03352  -0.03695   1.15223
    D4       -1.03323   0.00030  -0.00027  -0.01120  -0.01153  -1.04477
    D5        1.08172  -0.00055  -0.00091  -0.03250  -0.03335   1.04837
    D6       -3.04784  -0.00080  -0.00304  -0.03037  -0.03340  -3.08125
    D7        1.05580   0.00042  -0.00158   0.01416   0.01256   1.06836
    D8       -3.11205   0.00028  -0.00210   0.01171   0.00959  -3.10246
    D9       -1.02417   0.00039  -0.00178   0.01388   0.01208  -1.01209
   D10       -3.11407  -0.00055  -0.00173  -0.00934  -0.01104  -3.12512
   D11       -0.99874  -0.00069  -0.00225  -0.01178  -0.01401  -1.01275
   D12        1.08914  -0.00058  -0.00194  -0.00961  -0.01152   1.07762
   D13       -1.10481   0.00035   0.00409   0.00389   0.00797  -1.09684
   D14        1.01053   0.00021   0.00357   0.00145   0.00501   1.01553
   D15        3.09841   0.00032   0.00388   0.00362   0.00750   3.10591
   D16       -0.35883   0.00002  -0.00005  -0.02579  -0.02576  -0.38459
   D17        2.82529  -0.00025  -0.00347  -0.02690  -0.03038   2.79491
   D18       -2.39028  -0.00036   0.00051  -0.03087  -0.03035  -2.42063
   D19        0.79384  -0.00063  -0.00291  -0.03199  -0.03496   0.75888
   D20        1.86455  -0.00067  -0.00116  -0.03268  -0.03381   1.83074
   D21       -1.23451  -0.00094  -0.00457  -0.03380  -0.03842  -1.27293
   D22        3.01067   0.00118   0.00477   0.03379   0.03844   3.04911
   D23       -0.08987   0.00129   0.00502   0.02947   0.03461  -0.05526
         Item               Value     Threshold  Converged?
 Maximum Force            0.047904     0.000450     NO 
 RMS     Force            0.011075     0.000300     NO 
 Maximum Displacement     0.285758     0.001800     NO 
 RMS     Displacement     0.053733     0.001200     NO 
 Predicted change in Energy=-1.203457D-02
 GradGradGradGradGradGradGradGradGradGradGradGradGradGradGradGradGradGrad

                          Input orientation:                          
 ---------------------------------------------------------------------
 Center     Atomic      Atomic             Coordinates (Angstroms)
 Number     Number       Type             X           Y           Z
 ---------------------------------------------------------------------
      1          7           0       -1.244346   -1.201975   -0.269082
      2          1           0       -1.268836   -1.523866    0.694230
      3          6           0       -0.552238    0.080384   -0.358303
      4          1           0       -0.596389    0.404335   -1.403773
      5          6           0       -1.152772    1.210036    0.511277
      6          6           0        0.914258   -0.091147    0.003942
      7          1           0       -1.115288    0.938713    1.570054
      8          1           0       -0.615101    2.149925    0.369605
      9          1           0       -2.197129    1.364757    0.231920
     10          8           0        1.361308   -0.997358    0.664587
     11          1           0       -2.207206   -1.080802   -0.568917
     12          8           0        1.652369    0.906882   -0.456395
     13          1           0        2.507095    0.770148   -0.126907
 ---------------------------------------------------------------------
                    Distance matrix (angstroms):
                    1          2          3          4          5
     1  N    0.000000
     2  H    1.015964   0.000000
     3  C    1.459938   2.048160   0.000000
     4  H    2.070653   2.927757   1.095400   0.000000
     5  C    2.536759   2.742474   1.546908   2.150845   0.000000
     6  C    2.442959   2.700941   1.520281   2.123492   2.494610
     7  H    2.825176   2.618194   2.184562   3.065691   1.093631
     8  H    3.469741   3.745596   2.194721   2.488434   1.092040
     9  H    2.783328   3.069137   2.168788   2.481989   1.092090
    10  O    2.775434   2.682489   2.422703   3.174182   3.349133
    11  H    1.015719   1.634743   2.032641   2.344642   2.743463
    12  O    3.587941   3.970632   2.356483   2.491384   2.982802
    13  H    4.240612   4.493821   3.144652   3.375769   3.741044
                    6          7          8          9         10
     6  C    0.000000
     7  H    2.762675   0.000000
     8  H    2.737710   1.777161   0.000000
     9  H    3.442725   1.772708   1.771513   0.000000
    10  O    1.207279   3.271356   3.728083   4.292931   0.000000
    11  H    3.324323   3.137821   3.721991   2.573363   3.776611
    12  O    1.323926   3.430369   2.714563   3.937266   2.228777
    13  H    1.815512   4.003717   3.449408   4.755212   2.250193
                   11         12         13
    11  H    0.000000
    12  O    4.342795   0.000000
    13  H    5.083899   0.926183   0.000000
 Stoichiometry    C3H7NO2
 Framework group  C1[X(C3H7NO2)]
 Deg. of freedom    33
 Full point group                 C1      NOp   1
 Largest Abelian subgroup         C1      NOp   1
 Largest concise Abelian subgroup C1      NOp   1
                         Standard orientation:                         
 ---------------------------------------------------------------------
 Center     Atomic      Atomic             Coordinates (Angstroms)
 Number     Number       Type             X           Y           Z
 ---------------------------------------------------------------------
      1          7           0       -1.444729   -1.095527   -0.360039
      2          1           0       -1.504599   -1.454428    0.588533
      3          6           0       -0.649110    0.128190   -0.390454
      4          1           0       -0.656703    0.498232   -1.421431
      5          6           0       -1.163295    1.265932    0.522826
      6          6           0        0.794924   -0.178385   -0.027090
      7          1           0       -1.158161    0.948283    1.569297
      8          1           0       -0.549140    2.163539    0.424507
      9          1           0       -2.188786    1.517581    0.244078
     10          8           0        1.159993   -1.145192    0.597036
     11          1           0       -2.391556   -0.883124   -0.660188
     12          8           0        1.616609    0.773996   -0.440107
     13          1           0        2.454115    0.553748   -0.111641
 ---------------------------------------------------------------------
 Rotational constants (GHZ):      5.0666603      3.0946102      2.2908354
 Standard basis: 6-311++G(d,p) (5D, 7F)
 There are   181 symmetry adapted basis functions of A   symmetry.
 Integral buffers will be    262144 words long.
 Raffenetti 2 integral format.
 Two-electron integral symmetry is turned on.
   181 basis functions,   279 primitive gaussians,   187 cartesian basis functions
    24 alpha electrons       24 beta electrons
       nuclear repulsion energy       249.8403284551 Hartrees.
 NAtoms=   13 NActive=   13 NUniq=   13 SFac= 1.00D+00 NAtFMM=   50 NAOKFM=F Big=F
 ------------------------------------------------------------------------------
 Polarizable Continuum Model (PCM)
 =================================
 Model                : C-PCM.
 Atomic radii         : UFF (Universal Force Field).
 Polarization charges : Total charges.
 Charge compensation  : None.
 Solution method      : Matrix inversion.
 Cavity type          : Scaled VdW (van der Waals Surface) (Alpha=1.100).
 Cavity algorithm     : GePol (No added spheres)
                        Default sphere list used, NSphG=   13.
                        Lebedev-Laikov grids with approx.  5.0 points / Ang**2.
                        Smoothing algorithm: Karplus/York (Gamma=1.0000).
                        Polarization charges: spherical gaussians, with
                                              point-specific exponents (IZeta= 3).
                        Self-potential: point-specific (ISelfS= 7).
                        Self-field    : sphere-specific E.n sum rule (ISelfD= 2).
 1st derivatives      : Analytical E(r).r(x)/FMM algorithm (CHGder, D1EAlg=3).
                        Cavity 1st derivative terms included.
 Solvent              : Water, Eps=  78.355300 Eps(inf)=   1.777849
 ------------------------------------------------------------------------------
 Spheres list:
 ISph  on   Nord    Re0     Alpha      Xe            Ye            Ze
    1   N      1    1.830   1.100     -1.444729     -1.095527     -0.360039
    2   H      2    1.443   1.100     -1.504599     -1.454428      0.588533
    3   C      3    1.926   1.100     -0.649110      0.128190     -0.390454
    4   H      4    1.443   1.100     -0.656703      0.498232     -1.421431
    5   C      5    1.926   1.100     -1.163295      1.265932      0.522826
    6   C      6    1.926   1.100      0.794924     -0.178385     -0.027090
    7   H      7    1.443   1.100     -1.158161      0.948283      1.569297
    8   H      8    1.443   1.100     -0.549140      2.163539      0.424507
    9   H      9    1.443   1.100     -2.188786      1.517581      0.244078
   10   O     10    1.750   1.100      1.159993     -1.145192      0.597036
   11   H     11    1.443   1.100     -2.391556     -0.883124     -0.660188
   12   O     12    1.750   1.100      1.616609      0.773996     -0.440107
   13   H     13    1.443   1.100      2.454115      0.553748     -0.111641
 ------------------------------------------------------------------------------
 One-electron integrals computed using PRISM.
 NBasis=   181 RedAO= T  NBF=   181
 NBsUse=   181 1.00D-06 NBFU=   181
 Initial guess read from the read-write file.
 B after Tr=     0.000000    0.000000    0.000000
         Rot=    1.000000    0.000000    0.000000    0.000000 Ang=   0.00 deg.
 Initial guess orbital symmetries:
       Occupied  (A) (A) (A) (A) (A) (A) (A) (A) (A) (A) (A) (A)
                 (A) (A) (A) (A) (A) (A) (A) (A) (A) (A) (A) (A)
       Virtual   (A) (A) (A) (A) (A) (A) (A) (A) (A) (A) (A) (A)
                 (A) (A) (A) (A) (A) (A) (A) (A) (A) (A) (A) (A)
                 (A) (A) (A) (A) (A) (A) (A) (A) (A) (A) (A) (A)
                 (A) (A) (A) (A) (A) (A) (A) (A) (A) (A) (A) (A)
                 (A) (A) (A) (A) (A) (A) (A) (A) (A) (A) (A) (A)
                 (A) (A) (A) (A) (A) (A) (A) (A) (A) (A) (A) (A)
                 (A) (A) (A) (A) (A) (A) (A) (A) (A) (A) (A) (A)
                 (A) (A) (A) (A) (A) (A) (A) (A) (A) (A) (A) (A)
                 (A) (A) (A) (A) (A) (A) (A) (A) (A) (A) (A) (A)
                 (A) (A) (A) (A) (A) (A) (A) (A) (A) (A) (A) (A)
                 (A) (A) (A) (A) (A) (A) (A) (A) (A) (A) (A) (A)
                 (A) (A) (A) (A) (A) (A) (A) (A) (A) (A) (A) (A)
                 (A) (A) (A) (A) (A) (A) (A) (A) (A) (A) (A) (A)
                 (A)
 Harris functional with IExCor=  402 diagonalized for initial guess.
 ExpMin= 3.60D-02 ExpMax= 8.59D+03 ExpMxC= 1.30D+03 IAcc=3 IRadAn=         0 AccDes= 0.00D+00
 HarFok:  IExCor=  402 AccDes= 0.00D+00 IRadAn=         0 IDoV= 1
 ScaDFX=  1.000000  1.000000  1.000000  1.000000
 FoFCou: FMM=F IPFlag=           0 FMFlag=      100000 FMFlg1=           0
         NFxFlg=           0 DoJE=T BraDBF=F KetDBF=T FulRan=T
         Omega=  0.000000  0.000000  1.000000  0.000000  0.000000 ICntrl=     500 IOpCl=  0
         NMat0=    1 NMatS0=    1 NMatT0=    0 NMatD0=    1 NMtDS0=    0 NMtDT0=    0
         I1Cent=           4 NGrid=           0.
 Petite list used in FoFCou.
 Requested convergence on RMS density matrix=1.00D-08 within 128 cycles.
 Requested convergence on MAX density matrix=1.00D-06.
 Requested convergence on             energy=1.00D-06.
 No special actions if energy rises.
 Error on total polarization charges =  0.01192
 SCF Done:  E(RB3LYP) =  -323.861726990     A.U. after   11 cycles
             Convg  =    0.4799D-08             -V/T =  2.0034
 D1PCM: C-PCM CHGder 1st derivatives, ID1Alg=3 FixD1E=F DoIter=F DoCFld=F I1PDM=0.
 Calling FoFJK, ICntrl=      2127 FMM=F ISym2X=0 I1Cent= 0 IOpClX= 0 NMat=1 NMatS=1 NMatT=0.
 ***** Axes restored to original set *****
 -------------------------------------------------------------------
 Center     Atomic                   Forces (Hartrees/Bohr)
 Number     Number              X              Y              Z
 -------------------------------------------------------------------
      1        7           0.000146604   -0.000877691   -0.000213641
      2        1          -0.000086730   -0.000381114    0.000336910
      3        6          -0.002304092    0.002654158   -0.002298121
      4        1           0.001402508   -0.000246083    0.000868702
      5        6           0.000289195   -0.000685320    0.000173299
      6        6          -0.021502858   -0.009078468    0.000101391
      7        1          -0.000105870    0.000152779    0.000181100
      8        1          -0.000073687    0.000191141    0.000135331
      9        1          -0.000003333   -0.000098410   -0.000029479
     10        8           0.004480903   -0.004731863    0.004358144
     11        1           0.000100621   -0.000373354    0.000792251
     12        8          -0.031540166    0.016124951   -0.018940795
     13        1           0.049196906   -0.002650727    0.014534908
 -------------------------------------------------------------------
 Cartesian Forces:  Max     0.049196906 RMS     0.011187744

 GradGradGradGradGradGradGradGradGradGradGradGradGradGradGradGradGradGrad
 Berny optimization.
 Using GEDIIS/GDIIS optimizer.
 Internal  Forces:  Max     0.050966295 RMS     0.007790785
 Search for a local minimum.
 Step number   3 out of a maximum of   64
 All quantities printed in internal units (Hartrees-Bohrs-Radians)
 Mixed Optimization -- RFO/linear search
 Update second derivatives using D2CorX and points    2    3
 DE= -7.49D-03 DEPred=-1.20D-02 R= 6.23D-01
 SS=  1.41D+00  RLast= 3.47D-01 DXNew= 8.4853D-01 1.0415D+00
 Trust test= 6.23D-01 RLast= 3.47D-01 DXMaxT set to 8.49D-01
 ITU=  1  1  0
 Use linear search instead of GDIIS.
     Eigenvalues ---    0.00230   0.00745   0.00864   0.01371   0.03293
     Eigenvalues ---    0.04211   0.04420   0.05159   0.05432   0.05653
     Eigenvalues ---    0.06735   0.15859   0.16000   0.16000   0.16000
     Eigenvalues ---    0.16001   0.16077   0.17710   0.18832   0.23779
     Eigenvalues ---    0.27966   0.31105   0.34396   0.34466   0.34577
     Eigenvalues ---    0.34623   0.35130   0.36778   0.44853   0.45052
     Eigenvalues ---    0.46562   0.66870   0.80843
 RFO step:  Lambda=-2.98092228D-03 EMin= 2.30005152D-03
 Quartic linear search produced a step of -0.28345.
 Iteration  1 RMS(Cart)=  0.03903483 RMS(Int)=  0.00084184
 Iteration  2 RMS(Cart)=  0.00115581 RMS(Int)=  0.00001549
 Iteration  3 RMS(Cart)=  0.00000125 RMS(Int)=  0.00001547
 Iteration  4 RMS(Cart)=  0.00000000 RMS(Int)=  0.00001547
 Variable       Old X    -DE/DX   Delta X   Delta X   Delta X     New X
                                 (Linear)    (Quad)   (Total)
    R1        1.91989   0.00044   0.00026   0.00041   0.00067   1.92056
    R2        2.75888   0.00141  -0.00021   0.00274   0.00254   2.76142
    R3        1.91943  -0.00038  -0.00012  -0.00047  -0.00059   1.91884
    R4        2.07001  -0.00096  -0.00048  -0.00138  -0.00186   2.06814
    R5        2.92323  -0.00011  -0.00038   0.00014  -0.00024   2.92299
    R6        2.87292   0.00067  -0.00952   0.01202   0.00251   2.87542
    R7        2.06666   0.00013  -0.00034   0.00064   0.00030   2.06696
    R8        2.06366   0.00011   0.00009   0.00014   0.00023   2.06389
    R9        2.06375   0.00000  -0.00024   0.00027   0.00002   2.06377
   R10        2.28143   0.00760   0.02874  -0.02217   0.00656   2.28799
   R11        2.50186   0.02153  -0.01277   0.03458   0.02181   2.52367
   R12        1.75023   0.05097   0.05378   0.04277   0.09656   1.84679
    A1        1.92588   0.00025   0.00015   0.00088   0.00103   1.92691
    A2        1.87009  -0.00051  -0.00068  -0.00099  -0.00167   1.86842
    A3        1.90347   0.00067  -0.00046   0.00324   0.00277   1.90624
    A4        1.87443   0.00070   0.00252   0.00099   0.00358   1.87800
    A5        2.00760  -0.00005   0.00343  -0.00625  -0.00282   2.00478
    A6        1.92157  -0.00134  -0.00271  -0.00550  -0.00821   1.91336
    A7        1.88063   0.00012   0.00163   0.00209   0.00375   1.88439
    A8        1.87513  -0.00039  -0.00519   0.00796   0.00276   1.87789
    A9        1.89962   0.00096  -0.00027   0.00190   0.00159   1.90121
   A10        1.92809   0.00030   0.00057   0.00042   0.00099   1.92908
   A11        1.94384   0.00030   0.00011   0.00135   0.00146   1.94530
   A12        1.90807  -0.00026  -0.00212   0.00161  -0.00050   1.90756
   A13        1.89890  -0.00024   0.00030  -0.00130  -0.00100   1.89790
   A14        1.89186  -0.00008   0.00068  -0.00151  -0.00082   1.89103
   A15        1.89201  -0.00004   0.00048  -0.00068  -0.00020   1.89181
   A16        2.18007   0.00075  -0.00997   0.01103   0.00105   2.18112
   A17        1.94969   0.00285   0.02870  -0.03087  -0.00219   1.94749
   A18        2.15277  -0.00359  -0.01877   0.02030   0.00150   2.15427
   A19        1.85409   0.01117   0.05605  -0.03209   0.02396   1.87805
    D1       -3.09448  -0.00064   0.00427  -0.05996  -0.05567   3.13303
    D2       -1.00134  -0.00002   0.01046  -0.06054  -0.05011  -1.05145
    D3        1.15223   0.00014   0.01047  -0.06707  -0.05658   1.09564
    D4       -1.04477  -0.00071   0.00327  -0.05872  -0.05544  -1.10020
    D5        1.04837  -0.00009   0.00945  -0.05930  -0.04987   0.99850
    D6       -3.08125   0.00007   0.00947  -0.06583  -0.05635  -3.13759
    D7        1.06836  -0.00072  -0.00356   0.00435   0.00079   1.06915
    D8       -3.10246  -0.00062  -0.00272   0.00389   0.00117  -3.10129
    D9       -1.01209  -0.00065  -0.00342   0.00494   0.00151  -1.01057
   D10       -3.12512   0.00023   0.00313   0.00313   0.00625  -3.11886
   D11       -1.01275   0.00033   0.00397   0.00268   0.00664  -1.00611
   D12        1.07762   0.00030   0.00327   0.00373   0.00698   1.08460
   D13       -1.09684   0.00033  -0.00226   0.01465   0.01239  -1.08444
   D14        1.01553   0.00044  -0.00142   0.01419   0.01278   1.02831
   D15        3.10591   0.00040  -0.00213   0.01524   0.01312   3.11903
   D16       -0.38459   0.00000   0.00730  -0.06012  -0.05284  -0.43743
   D17        2.79491  -0.00011   0.00861  -0.07374  -0.06514   2.72977
   D18       -2.42063   0.00010   0.00860  -0.06287  -0.05426  -2.47489
   D19        0.75888  -0.00001   0.00991  -0.07649  -0.06656   0.69231
   D20        1.83074  -0.00032   0.00958  -0.07060  -0.06101   1.76973
   D21       -1.27293  -0.00044   0.01089  -0.08421  -0.07332  -1.34625
   D22        3.04911   0.00075  -0.01089   0.04751   0.03662   3.08573
   D23       -0.05526   0.00053  -0.00981   0.03436   0.02455  -0.03072
         Item               Value     Threshold  Converged?
 Maximum Force            0.050966     0.000450     NO 
 RMS     Force            0.007791     0.000300     NO 
 Maximum Displacement     0.140174     0.001800     NO 
 RMS     Displacement     0.039385     0.001200     NO 
 Predicted change in Energy=-3.025630D-03
 GradGradGradGradGradGradGradGradGradGradGradGradGradGradGradGradGradGrad

                          Input orientation:                          
 ---------------------------------------------------------------------
 Center     Atomic      Atomic             Coordinates (Angstroms)
 Number     Number       Type             X           Y           Z
 ---------------------------------------------------------------------
      1          7           0       -1.243337   -1.194285   -0.286956
      2          1           0       -1.232214   -1.548095    0.665721
      3          6           0       -0.556440    0.093405   -0.360234
      4          1           0       -0.587747    0.426366   -1.402299
      5          6           0       -1.171848    1.209633    0.516031
      6          6           0        0.905563   -0.084703    0.022013
      7          1           0       -1.140491    0.928902    1.572715
      8          1           0       -0.641506    2.155822    0.388434
      9          1           0       -2.215462    1.358352    0.230654
     10          8           0        1.335574   -0.970092    0.727065
     11          1           0       -2.216929   -1.069043   -0.546736
     12          8           0        1.669290    0.882233   -0.492991
     13          1           0        2.581272    0.741535   -0.171178
 ---------------------------------------------------------------------
                    Distance matrix (angstroms):
                    1          2          3          4          5
     1  N    0.000000
     2  H    1.016317   0.000000
     3  C    1.461281   2.050311   0.000000
     4  H    2.073716   2.930963   1.094414   0.000000
     5  C    2.535492   2.762447   1.546782   2.152828   0.000000
     6  C    2.438115   2.669451   1.521607   2.125989   2.496998
     7  H    2.824336   2.639425   2.185283   3.067373   1.093789
     8  H    3.470096   3.760961   2.195747   2.490107   1.092162
     9  H    2.780090   3.098951   2.168316   2.486884   1.092102
    10  O    2.780159   2.632753   2.427543   3.191152   3.329100
    11  H    1.015408   1.633771   2.035508   2.371175   2.722872
    12  O    3.582983   3.958261   2.365111   2.475656   3.032719
    13  H    4.288174   4.526089   3.209525   3.414333   3.844124
                    6          7          8          9         10
     6  C    0.000000
     7  H    2.760147   0.000000
     8  H    2.747297   1.776750   0.000000
     9  H    3.444813   1.772319   1.771494   0.000000
    10  O    1.210753   3.232987   3.714143   4.275270   0.000000
    11  H    3.323005   3.105250   3.708943   2.548840   3.775267
    12  O    1.335467   3.487720   2.781855   3.980157   2.242992
    13  H    1.878295   4.114340   3.563661   4.852895   2.299624
                   11         12         13
    11  H    0.000000
    12  O    4.348915   0.000000
    13  H    5.142176   0.977278   0.000000
 Stoichiometry    C3H7NO2
 Framework group  C1[X(C3H7NO2)]
 Deg. of freedom    33
 Full point group                 C1      NOp   1
 Largest Abelian subgroup         C1      NOp   1
 Largest concise Abelian subgroup C1      NOp   1
                         Standard orientation:                         
 ---------------------------------------------------------------------
 Center     Atomic      Atomic             Coordinates (Angstroms)
 Number     Number       Type             X           Y           Z
 ---------------------------------------------------------------------
      1          7           0       -1.432338   -1.091812   -0.401659
      2          1           0       -1.458322   -1.500829    0.528357
      3          6           0       -0.648199    0.141237   -0.394191
      4          1           0       -0.642995    0.536313   -1.414794
      5          6           0       -1.185564    1.248080    0.543184
      6          6           0        0.791797   -0.171081   -0.014510
      7          1           0       -1.186875    0.904125    1.581484
      8          1           0       -0.583071    2.156484    0.475203
      9          1           0       -2.211686    1.493236    0.260944
     10          8           0        1.145377   -1.126871    0.639225
     11          1           0       -2.390712   -0.876919   -0.659326
     12          8           0        1.632633    0.762779   -0.466585
     13          1           0        2.527747    0.533598   -0.148280
 ---------------------------------------------------------------------
 Rotational constants (GHZ):      5.0492053      3.0436797      2.2995265
 Standard basis: 6-311++G(d,p) (5D, 7F)
 There are   181 symmetry adapted basis functions of A   symmetry.
 Integral buffers will be    262144 words long.
 Raffenetti 2 integral format.
 Two-electron integral symmetry is turned on.
   181 basis functions,   279 primitive gaussians,   187 cartesian basis functions
    24 alpha electrons       24 beta electrons
       nuclear repulsion energy       248.9339007587 Hartrees.
 NAtoms=   13 NActive=   13 NUniq=   13 SFac= 1.00D+00 NAtFMM=   50 NAOKFM=F Big=F
 ------------------------------------------------------------------------------
 Polarizable Continuum Model (PCM)
 =================================
 Model                : C-PCM.
 Atomic radii         : UFF (Universal Force Field).
 Polarization charges : Total charges.
 Charge compensation  : None.
 Solution method      : Matrix inversion.
 Cavity type          : Scaled VdW (van der Waals Surface) (Alpha=1.100).
 Cavity algorithm     : GePol (No added spheres)
                        Default sphere list used, NSphG=   13.
                        Lebedev-Laikov grids with approx.  5.0 points / Ang**2.
                        Smoothing algorithm: Karplus/York (Gamma=1.0000).
                        Polarization charges: spherical gaussians, with
                                              point-specific exponents (IZeta= 3).
                        Self-potential: point-specific (ISelfS= 7).
                        Self-field    : sphere-specific E.n sum rule (ISelfD= 2).
 1st derivatives      : Analytical E(r).r(x)/FMM algorithm (CHGder, D1EAlg=3).
                        Cavity 1st derivative terms included.
 Solvent              : Water, Eps=  78.355300 Eps(inf)=   1.777849
 ------------------------------------------------------------------------------
 Spheres list:
 ISph  on   Nord    Re0     Alpha      Xe            Ye            Ze
    1   N      1    1.830   1.100     -1.432338     -1.091812     -0.401659
    2   H      2    1.443   1.100     -1.458322     -1.500829      0.528357
    3   C      3    1.925   1.100     -0.648199      0.141237     -0.394191
    4   H      4    1.443   1.100     -0.642995      0.536313     -1.414794
    5   C      5    1.925   1.100     -1.185564      1.248080      0.543184
    6   C      6    1.925   1.100      0.791797     -0.171081     -0.014510
    7   H      7    1.443   1.100     -1.186875      0.904125      1.581484
    8   H      8    1.443   1.100     -0.583071      2.156484      0.475203
    9   H      9    1.443   1.100     -2.211686      1.493236      0.260944
   10   O     10    1.750   1.100      1.145377     -1.126871      0.639225
   11   H     11    1.443   1.100     -2.390712     -0.876919     -0.659326
   12   O     12    1.750   1.100      1.632633      0.762779     -0.466585
   13   H     13    1.443   1.100      2.527747      0.533598     -0.148280
 ------------------------------------------------------------------------------
 One-electron integrals computed using PRISM.
 NBasis=   181 RedAO= T  NBF=   181
 NBsUse=   181 1.00D-06 NBFU=   181
 Initial guess read from the read-write file.
 B after Tr=     0.000000    0.000000    0.000000
         Rot=    1.000000    0.000000    0.000000    0.000000 Ang=   0.00 deg.
 Initial guess orbital symmetries:
       Occupied  (A) (A) (A) (A) (A) (A) (A) (A) (A) (A) (A) (A)
                 (A) (A) (A) (A) (A) (A) (A) (A) (A) (A) (A) (A)
       Virtual   (A) (A) (A) (A) (A) (A) (A) (A) (A) (A) (A) (A)
                 (A) (A) (A) (A) (A) (A) (A) (A) (A) (A) (A) (A)
                 (A) (A) (A) (A) (A) (A) (A) (A) (A) (A) (A) (A)
                 (A) (A) (A) (A) (A) (A) (A) (A) (A) (A) (A) (A)
                 (A) (A) (A) (A) (A) (A) (A) (A) (A) (A) (A) (A)
                 (A) (A) (A) (A) (A) (A) (A) (A) (A) (A) (A) (A)
                 (A) (A) (A) (A) (A) (A) (A) (A) (A) (A) (A) (A)
                 (A) (A) (A) (A) (A) (A) (A) (A) (A) (A) (A) (A)
                 (A) (A) (A) (A) (A) (A) (A) (A) (A) (A) (A) (A)
                 (A) (A) (A) (A) (A) (A) (A) (A) (A) (A) (A) (A)
                 (A) (A) (A) (A) (A) (A) (A) (A) (A) (A) (A) (A)
                 (A) (A) (A) (A) (A) (A) (A) (A) (A) (A) (A) (A)
                 (A) (A) (A) (A) (A) (A) (A) (A) (A) (A) (A) (A)
                 (A)
 Harris functional with IExCor=  402 diagonalized for initial guess.
 ExpMin= 3.60D-02 ExpMax= 8.59D+03 ExpMxC= 1.30D+03 IAcc=3 IRadAn=         0 AccDes= 0.00D+00
 HarFok:  IExCor=  402 AccDes= 0.00D+00 IRadAn=         0 IDoV= 1
 ScaDFX=  1.000000  1.000000  1.000000  1.000000
 FoFCou: FMM=F IPFlag=           0 FMFlag=      100000 FMFlg1=           0
         NFxFlg=           0 DoJE=T BraDBF=F KetDBF=T FulRan=T
         Omega=  0.000000  0.000000  1.000000  0.000000  0.000000 ICntrl=     500 IOpCl=  0
         NMat0=    1 NMatS0=    1 NMatT0=    0 NMatD0=    1 NMtDS0=    0 NMtDT0=    0
         I1Cent=           4 NGrid=           0.
 Petite list used in FoFCou.
[...]
   A13        1.89916   0.00000   0.00000  -0.00001  -0.00001   1.89915
   A14        1.89187   0.00000   0.00000  -0.00003  -0.00003   1.89184
   A15        1.89003   0.00000   0.00000  -0.00001  -0.00001   1.89002
   A16        2.18569   0.00000   0.00000   0.00002   0.00002   2.18571
   A17        1.95300  -0.00001   0.00000  -0.00005  -0.00005   1.95295
   A18        2.14385   0.00001   0.00000   0.00003   0.00003   2.14388
   A19        1.89388   0.00000   0.00000   0.00002   0.00002   1.89390
    D1        3.06314   0.00000   0.00000  -0.00016  -0.00016   3.06299
    D2       -1.10330   0.00000   0.00000  -0.00010  -0.00010  -1.10340
    D3        1.03390   0.00000   0.00000  -0.00003  -0.00003   1.03387
    D4       -1.17478   0.00000   0.00000  -0.00009  -0.00009  -1.17488
    D5        0.94196   0.00000   0.00000  -0.00004  -0.00004   0.94192
    D6        3.07916   0.00000   0.00000   0.00004   0.00004   3.07919
    D7        1.05175   0.00000   0.00000   0.00007   0.00007   1.05182
    D8       -3.11620   0.00000   0.00000   0.00007   0.00007  -3.11613
    D9       -1.02851   0.00000   0.00000   0.00008   0.00008  -1.02843
   D10       -3.11678   0.00000   0.00000   0.00011   0.00011  -3.11667
   D11       -1.00153   0.00000   0.00000   0.00010   0.00010  -1.00143
   D12        1.08615   0.00000   0.00000   0.00012   0.00012   1.08627
   D13       -1.08570   0.00000   0.00000   0.00004   0.00004  -1.08566
   D14        1.02954   0.00000   0.00000   0.00004   0.00004   1.02958
   D15        3.11723   0.00000   0.00000   0.00006   0.00006   3.11728
   D16       -0.45174   0.00000   0.00000   0.00066   0.00066  -0.45108
   D17        2.72774   0.00000   0.00000   0.00065   0.00065   2.72839
   D18       -2.49086   0.00000   0.00000   0.00074   0.00074  -2.49012
   D19        0.68862   0.00000   0.00000   0.00073   0.00073   0.68935
   D20        1.74895   0.00000   0.00000   0.00073   0.00073   1.74968
   D21       -1.35475   0.00000   0.00000   0.00072   0.00072  -1.35403
   D22        3.07381   0.00001   0.00000   0.00053   0.00053   3.07434
   D23       -0.03095   0.00001   0.00000   0.00052   0.00052  -0.03043
         Item               Value     Threshold  Converged?
 Maximum Force            0.000019     0.000450     YES
 RMS     Force            0.000006     0.000300     YES
 Maximum Displacement     0.001061     0.001800     YES
 RMS     Displacement     0.000276     0.001200     YES
 Predicted change in Energy=-9.987072D-09
 Optimization completed.
    -- Stationary point found.
                           ----------------------------
                           !   Optimized Parameters   !
                           ! (Angstroms and Degrees)  !
 --------------------------                            --------------------------
 ! Name  Definition              Value          Derivative Info.                !
 --------------------------------------------------------------------------------
 ! R1    R(1,2)                  1.0166         -DE/DX =    0.0                 !
 ! R2    R(1,3)                  1.4636         -DE/DX =    0.0                 !
 ! R3    R(1,11)                 1.0156         -DE/DX =    0.0                 !
 ! R4    R(3,4)                  1.0932         -DE/DX =    0.0                 !
 ! R5    R(3,5)                  1.5453         -DE/DX =    0.0                 !
 ! R6    R(3,6)                  1.5191         -DE/DX =    0.0                 !
 ! R7    R(5,7)                  1.0935         -DE/DX =    0.0                 !
 ! R8    R(5,8)                  1.0925         -DE/DX =    0.0                 !
 ! R9    R(5,9)                  1.0923         -DE/DX =    0.0                 !
 ! R10   R(6,10)                 1.2101         -DE/DX =    0.0                 !
 ! R11   R(6,12)                 1.3474         -DE/DX =    0.0                 !
 ! R12   R(12,13)                0.9708         -DE/DX =    0.0                 !
 ! A1    A(2,1,3)              109.9449         -DE/DX =    0.0                 !
 ! A2    A(2,1,11)             106.9628         -DE/DX =    0.0                 !
 ! A3    A(3,1,11)             109.4024         -DE/DX =    0.0                 !
 ! A4    A(1,3,4)              108.1611         -DE/DX =    0.0                 !
 ! A5    A(1,3,5)              115.0116         -DE/DX =    0.0                 !
 ! A6    A(1,3,6)              108.8859         -DE/DX =    0.0                 !
 ! A7    A(4,3,5)              108.3795         -DE/DX =    0.0                 !
 ! A8    A(4,3,6)              107.2766         -DE/DX =    0.0                 !
 ! A9    A(5,3,6)              108.8593         -DE/DX =    0.0                 !
 ! A10   A(3,5,7)              110.5793         -DE/DX =    0.0                 !
 ! A11   A(3,5,8)              111.4809         -DE/DX =    0.0                 !
 ! A12   A(3,5,9)              109.2009         -DE/DX =    0.0                 !
 ! A13   A(7,5,8)              108.8138         -DE/DX =    0.0                 !
 ! A14   A(7,5,9)              108.3961         -DE/DX =    0.0                 !
 ! A15   A(8,5,9)              108.2907         -DE/DX =    0.0                 !
 ! A16   A(3,6,10)             125.2306         -DE/DX =    0.0                 !
 ! A17   A(3,6,12)             111.8986         -DE/DX =    0.0                 !
 ! A18   A(10,6,12)            122.8337         -DE/DX =    0.0                 !
 ! A19   A(6,12,13)            108.5113         -DE/DX =    0.0                 !
 ! D1    D(2,1,3,4)            175.5051         -DE/DX =    0.0                 !
 ! D2    D(2,1,3,5)            -63.2146         -DE/DX =    0.0                 !
 ! D3    D(2,1,3,6)             59.2379         -DE/DX =    0.0                 !
 ! D4    D(11,1,3,4)           -67.3101         -DE/DX =    0.0                 !
 ! D5    D(11,1,3,5)            53.9702         -DE/DX =    0.0                 !
 ! D6    D(11,1,3,6)           176.4227         -DE/DX =    0.0                 !
 ! D7    D(1,3,5,7)             60.2607         -DE/DX =    0.0                 !
 ! D8    D(1,3,5,8)           -178.545          -DE/DX =    0.0                 !
 ! D9    D(1,3,5,9)            -58.9294         -DE/DX =    0.0                 !
 ! D10   D(4,3,5,7)           -178.5781         -DE/DX =    0.0                 !
 ! D11   D(4,3,5,8)            -57.3837         -DE/DX =    0.0                 !
 ! D12   D(4,3,5,9)             62.2319         -DE/DX =    0.0                 !
 ! D13   D(6,3,5,7)            -62.2061         -DE/DX =    0.0                 !
 ! D14   D(6,3,5,8)             58.9883         -DE/DX =    0.0                 !
 ! D15   D(6,3,5,9)            178.6038         -DE/DX =    0.0                 !
 ! D16   D(1,3,6,10)           -25.883          -DE/DX =    0.0                 !
 ! D17   D(1,3,6,12)           156.2879         -DE/DX =    0.0                 !
 ! D18   D(4,3,6,10)          -142.7158         -DE/DX =    0.0                 !
 ! D19   D(4,3,6,12)            39.4551         -DE/DX =    0.0                 !
 ! D20   D(5,3,6,10)           100.2076         -DE/DX =    0.0                 !
 ! D21   D(5,3,6,12)           -77.6214         -DE/DX =    0.0                 !
 ! D22   D(3,6,12,13)          176.1164         -DE/DX =    0.0                 !
 ! D23   D(10,6,12,13)          -1.7732         -DE/DX =    0.0                 !
 --------------------------------------------------------------------------------
 GradGradGradGradGradGradGradGradGradGradGradGradGradGradGradGradGradGrad

 1|1|UNPC-WIN-20150318OUM|Freq|RB3LYP|6-311++G(d,p)|C3H7N1O2|ADMINISTRA
 TOR|08-Apr-2016|0||#N Geom=AllCheck Guess=TCheck SCRF=Check GenChk RB3
 LYP/6-311++G(d,p) Freq||Ala-S-opt-freq-ts1-6-311++gdp cpcm||0,1|N,-1.2
 458052011,-1.1930031318,-0.2967123392|H,-1.18127268,-1.566542661,0.646
 5815586|C,-0.5634546373,0.0996972416,-0.3695338983|H,-0.5803291017,0.4
 357811241,-1.40964381|C,-1.1750537684,1.211869199,0.5118600155|C,0.892
 6479989,-0.0902719874,0.0196452775|H,-1.1529286524,0.9225496885,1.5661
 651731|H,-0.6382483419,2.1560946516,0.3942844469|H,-2.2155026846,1.370
 3755098,0.2196748186|O,1.3147797532,-0.96954161,0.7358466296|H,-2.2329
 998661,-1.065204116,-0.4978885564|O,1.6799429438,0.8755752842,-0.49294
 8762|H,2.5839489875,0.7426518875,-0.1650914837||Version=IA32W-G09RevB.
 01|State=1-A|HF=-323.8646708|RMSD=7.954e-009|RMSF=1.000e-005|ZeroPoint
 =0.1072333|Thermal=0.1141898|Dipole=-0.5790281,1.1750489,0.0191352|Dip
 oleDeriv=-0.4840095,-0.1378129,0.045432,-0.0614441,-0.8808028,-0.19487
 99,0.0418645,-0.1503971,-0.4581038,0.2485983,-0.079774,-0.0179534,-0.0
 721511,0.2865281,-0.0090699,-0.0009748,0.0872474,0.0537477,0.0899524,0
 .3150041,-0.0424117,0.2930451,0.604345,0.1799389,-0.0877581,0.0078198,
 0.2757332,0.0383475,-0.0000235,0.0172683,-0.0433603,0.0057607,0.027674
 8,0.009197,0.0629354,-0.1092317,0.0020532,0.0305524,0.0047439,-0.08555
 86,-0.0544866,-0.0987289,-0.0659143,-0.065012,0.0797911,1.6985507,0.17
 35822,-0.0317932,0.2409365,1.7144798,-0.9365583,0.0878942,-0.9986749,0
 .9675223,0.0825739,0.0313161,-0.0133088,0.0167659,0.0344673,0.0992029,
 0.0235963,0.0269534,-0.1449964,0.0389642,-0.116574,0.0249091,-0.082125
 ,-0.1516761,-0.0223624,0.0306113,0.0077403,0.0742003,-0.1544165,0.0582
 569,-0.0507469,0.0411033,0.0636832,-0.0175628,-0.0559513,-0.0227492,0.
 0536307,-0.9293375,0.3155679,-0.2550531,0.0552713,-1.155761,0.4673302,
 -0.1487416,0.5920439,-0.8387211,0.0454917,0.0033364,-0.0233691,0.07560
 11,0.2259969,0.0855649,0.0383798,0.1001414,0.3085934,-1.0359416,-0.636
 2251,0.3931804,-0.4351232,-1.048592,0.3608446,0.1950832,0.2910101,-0.6
 193553,0.3591731,0.0427935,-0.0508975,0.0570392,0.3560576,0.0586059,-0
 .0672862,0.0609415,0.3571897|Polar=70.5235965,-0.0494013,71.4281278,0.
 7117407,-5.0355258,60.3637982|PG=C01 [X(C3H7N1O2)]|NImag=0||0.59049702
 ,0.04370836,0.35637912,0.11632049,-0.18316715,0.49508427,-0.05218574,-
 0.01119886,-0.01966681,0.05369620,-0.00619246,-0.07446889,0.10929629,0
 .00566979,0.09735591,-0.04116154,0.15137585,-0.37038543,0.03647980,-0.
 14684289,0.37858966,-0.10783216,-0.03354873,-0.00611027,0.00103473,0.0
 0096810,0.00278598,0.47952682,-0.06778526,-0.17361537,0.03843557,-0.00
 535292,-0.01827349,-0.00362220,0.02905765,0.45835440,-0.02411281,0.005
 62305,-0.08645959,0.02036138,0.03447794,-0.00310421,0.01799039,-0.0821
 2013,0.57170827,0.00111956,-0.01100519,0.01732585,-0.00215342,-0.00284
 687,0.00054357,-0.05161189,0.00069953,-0.01083666,0.05616540,-0.000309
 46,-0.01870628,0.03013832,-0.00429381,-0.00384212,0.00081317,-0.000117
 52,-0.06569193,0.07050106,0.00071565,0.08628081,0.00151140,0.00272244,
 0.00213351,0.00027372,-0.00070249,0.00170614,-0.01062560,0.07506085,-0
 .28362964,0.00714079,-0.08014790,0.30598674,0.00590006,-0.01943546,-0.
 00973624,0.00001566,0.00064851,-0.00069130,-0.09450450,0.03213778,0.02
 961493,0.00114835,0.00032283,0.00001247,0.55092126,0.00433953,-0.03958
 054,-0.01908339,0.00038249,0.00137058,-0.00097839,0.01695708,-0.103612
 66,-0.03086485,-0.00208749,0.00501896,0.00208865,0.04134825,0.50015625
 ,-0.00208401,-0.00057218,0.00415926,-0.00054617,0.00124309,0.00201916,
 0.01926408,-0.03067295,-0.10765679,0.01584423,-0.02449036,-0.01967379,
 0.02871571,-0.05719425,0.52283284,-0.02335950,-0.00752284,-0.00343048,
 0.00003207,-0.00024770,-0.00108442,-0.16790096,0.00025487,-0.02542853,
 0.00243649,0.00268693,0.00103634,-0.01573978,0.01970122,0.00723044,0.6
 2445688,-0.03426306,-0.00236524,-0.00976574,-0.00379582,0.00009681,0.0
 0134072,0.00877768,-0.07250404,-0.00239218,0.00892199,-0.00311689,0.00
 371304,0.02651193,-0.00681569,0.00449113,-0.08171669,0.63331424,-0.001
 79588,0.00023108,0.00024569,0.00355807,0.00114271,-0.00066099,-0.02230
 610,-0.00778142,-0.09398678,-0.03309309,0.00555341,-0.00949717,0.02229
 731,-0.00000093,0.00807221,0.14197445,-0.29570664,0.47307013,0.0000076
 4,-0.00068003,-0.00120468,0.00028013,0.00019677,-0.00033135,-0.0017195
 3,-0.00398617,0.01450412,-0.00042170,0.00226657,0.00156884,-0.04728323
 ,0.00204119,-0.00787985,0.00087774,-0.00089838,0.00187163,0.04733620,0
 .00002689,0.00294453,0.00081610,-0.00003237,-0.00048016,0.00045251,0.0
 0037377,0.00471168,-0.02451500,0.00220981,-0.00294098,-0.00291450,0.00
 113066,-0.06724059,0.07088095,-0.00124009,0.00112607,-0.00087118,-0.00
 433902,0.07016036,-0.00054783,0.00026278,0.00231128,-0.00027107,-0.000
 77734,0.00007494,0.00168278,0.00514643,-0.01872786,0.00196626,-0.00298
 251,-0.00065073,-0.00760418,0.06921285,-0.28734982,-0.00231245,0.00095
 365,-0.00110565,0.00572128,-0.07376077,0.31346191,0.00036570,0.0028999
 6,0.00162888,-0.00005670,-0.00014047,0.00005687,0.00625618,0.01127208,
 -0.00322447,0.00048326,-0.00049474,-0.00026067,-0.11250365,-0.11404449
 ,0.01540894,-0.00008315,0.00056653,-0.00064213,0.00037703,0.00239091,-
 0.00003659,0.11882467,0.00152535,-0.00592548,-0.00418376,-0.00014131,0
 .00070121,-0.00029262,-0.01110886,-0.01604031,0.00553249,-0.00007816,0
 .00074084,-0.00017670,-0.11161228,-0.24150593,0.02536678,-0.00176363,-
 0.00158833,0.00046232,-0.00326042,-0.00620474,0.00058121,0.12320621,0.
 26250474,0.00126183,-0.00491193,-0.00120129,0.00004745,-0.00043941,-0.
 00024712,-0.01102440,-0.01358324,0.00251164,-0.00051205,0.00070729,0.0
 0042830,0.01594143,0.02679913,-0.05142104,-0.00024078,0.00003480,0.000
 46823,0.01569528,0.02624620,-0.00148937,-0.01763822,-0.02694534,0.0503
 4355,0.00198983,-0.00080348,-0.00021204,-0.00000212,0.00002099,-0.0000
 2600,-0.01416067,0.00161944,-0.00289912,0.00055391,-0.00033314,0.00020
 709,-0.28586496,0.03458731,-0.07047203,0.00248890,0.00082749,0.0030524
 0,0.00071100,-0.00020895,-0.00000742,-0.01349989,0.00237251,-0.0040154
 5,0.30917918,0.00006958,0.00273921,0.00090953,0.00011493,-0.00012451,0
 .00006527,0.02515983,-0.00720787,0.00422787,-0.00101385,0.00091478,0.0
 0049673,0.03304453,-0.04980069,0.01146747,-0.00194729,-0.00371319,-0.0
 0411805,0.00841644,-0.00195955,0.00207267,-0.02625527,0.00530523,-0.00
 835717,-0.03924104,0.05378340,0.00001383,0.00212249,0.00044929,-0.0000
 4639,-0.00017242,-0.00004435,0.02176180,-0.00526515,0.00317145,-0.0001
 8201,0.00095202,0.00118841,-0.07183953,0.01115970,-0.06621309,-0.00145
 616,-0.00302517,-0.00343253,-0.02949605,0.00343954,-0.00743729,0.00400
 500,-0.00086825,0.00034388,0.07545839,-0.00826315,0.06991603,-0.001362
 44,0.00179272,-0.00083045,0.00147902,0.00036520,-0.00053175,-0.0063084
 9,0.02920480,-0.02880211,-0.00778865,0.00110835,-0.00197615,-0.0022033
 8,-0.00247516,-0.00359483,-0.19992379,0.15017011,-0.13157103,0.0001720
 8,-0.00020564,0.00079618,0.00012767,0.00045787,0.00006644,-0.00084769,
 0.00138029,0.00139204,0.17767764,-0.00384605,0.00095666,-0.00099430,0.
 00192817,0.00038877,-0.00141889,0.01015005,-0.00849450,0.02053480,0.00
 359077,0.00082125,-0.00035594,-0.00146379,0.00280219,0.00171007,0.1677
 8626,-0.38948861,0.25802721,0.00006570,-0.00012760,-0.00074766,-0.0000
 6521,0.00017771,0.00000263,0.00051888,-0.00020206,-0.00051968,-0.16596
 761,0.46262855,0.00268216,0.00056901,0.00020348,-0.00122884,-0.0008743
 4,0.00011766,-0.01230133,0.02390745,0.00507392,-0.00017988,-0.00005889
 ,0.00019806,-0.00478577,-0.00207031,-0.00467352,-0.14616516,0.25311638
 ,-0.28741760,-0.00025159,0.00022335,0.00089498,0.00027171,-0.00012882,
 0.00003152,-0.00092725,0.00156305,0.00192233,0.14991168,-0.34032605,0.
 30331120,-0.40441513,0.03446731,-0.09082972,-0.00249605,0.00130516,0.0
 0377209,-0.01744352,0.00582758,-0.00146412,0.00020259,0.00006866,0.000
 24845,0.00202986,0.00148545,-0.00025988,0.00052933,-0.00235604,0.00120
 600,0.00004096,-0.00015273,-0.00007695,0.00008413,0.00041875,0.0003912
 5,0.00031381,-0.00049944,-0.00047793,0.00002160,-0.00039466,0.00014602
 ,0.42257440,0.06432727,-0.04857254,0.03848133,0.01548949,-0.00304289,-
 0.00082191,-0.03869219,-0.00083589,-0.01020028,0.00044735,0.00081921,0
 .00038090,-0.00092273,0.00202325,-0.00033259,-0.00023159,-0.00689354,0
 .00171372,0.00013881,-0.00010576,-0.00005103,0.00033081,0.00038498,0.0
 0046681,0.00078893,-0.00103106,-0.00019413,0.00072146,0.00162167,-0.00
 010161,-0.03973683,0.05562115,-0.05211718,0.02704891,-0.04787082,-0.03
 798872,0.00390652,-0.00823543,0.00165192,-0.00356190,-0.00029026,0.000
 13212,-0.00018707,-0.00000924,-0.00013432,0.00093093,-0.00015744,-0.00
 057631,0.00166942,-0.00031301,-0.00006281,-0.00009659,0.00000435,0.000
 23240,0.00047252,0.00026529,0.00003237,-0.00048127,-0.00003761,0.00004
 828,-0.00063078,0.00057171,0.08758679,-0.02924846,0.05583543,-0.009756
 50,0.00095616,-0.00310923,0.00060321,0.00029935,0.00019557,-0.02705126
 ,-0.02806549,0.01270996,-0.00083638,-0.00182170,0.00105000,-0.00227637
 ,-0.00251646,-0.00177681,-0.18502720,-0.06828865,0.02203151,-0.0003519
 5,0.00005223,0.00070990,-0.00027528,-0.00020673,-0.00004135,-0.0010128
 0,0.00075391,0.00098238,0.03398691,-0.01987408,0.01613701,-0.00140296,
 -0.00230076,0.00093844,0.60916621,-0.00089226,0.00020985,-0.00071058,0
 .00128011,0.00031604,-0.00009015,-0.00593161,0.00442130,0.00539988,0.0
 0023222,0.00001483,-0.00024689,-0.00115063,-0.00271454,-0.00166546,-0.
 05581447,-0.15385988,0.05334759,-0.00003452,0.00007973,0.00010610,0.00
 036548,0.00118309,-0.00011931,-0.00010074,0.00109721,0.00058109,-0.022
 23183,-0.07121696,0.06648756,-0.00027117,0.00019361,0.00011378,0.03855
 587,0.26793019,-0.00108262,-0.00097532,0.00058223,-0.00086951,-0.00017
 074,0.00014573,-0.00274264,-0.00033887,0.00981148,0.00158803,-0.000420
 84,0.00131721,-0.00113502,0.00000080,0.00028031,0.01043194,0.04869073,
 -0.09502893,-0.00020291,0.00013325,0.00003266,0.00015896,0.00008439,-0
 .00004324,-0.00014799,0.00023384,0.00011193,0.01673108,0.06665232,-0.0
 1604029,-0.00034932,-0.00039371,0.00027464,0.11274089,-0.15861107,0.18
 051001,-0.00096833,0.00037008,-0.00014530,-0.00024698,-0.00004638,-0.0
 0000751,0.00171525,-0.00488390,0.00158704,0.00070248,0.00020137,-0.000
 18667,0.00036069,0.00028108,0.00015020,-0.03878704,-0.00445710,-0.0065
 8312,-0.00002636,-0.00000545,-0.00001991,-0.00009999,0.00019070,0.0000
 6857,0.00015150,0.00001738,-0.00011537,0.00496952,0.00757158,-0.003308
 76,-0.00003901,-0.00036002,0.00025701,-0.41576565,0.04599355,-0.135120
 86,0.44803391,-0.00070843,0.00000495,-0.00017223,-0.00004990,0.0000027
 4,0.00001954,-0.00204524,-0.00121131,0.00379535,0.00021425,-0.00031249
 ,0.00008181,-0.00055962,-0.00010060,-0.00023169,-0.03994499,0.00580828
 ,-0.01199981,0.00007307,0.00003701,-0.00001637,-0.00003179,0.00026699,
 0.00009955,-0.00004820,0.00019909,0.00005311,0.00567943,0.00013292,-0.
 00230677,-0.00016203,-0.00018220,0.00006399,0.08245634,-0.04765447,0.0
 4511523,-0.04487289,0.04300909,0.00111216,-0.00032903,0.00074813,-0.00
 010290,-0.00008691,0.00002424,-0.00002660,0.00439557,0.00157838,0.0002
 6283,-0.00037769,0.00050219,-0.00065548,0.00000007,-0.00021830,0.02002
 112,-0.00312014,0.00958641,0.00006810,-0.00003388,-0.00001939,0.000039
 33,0.00009579,0.00000965,-0.00004294,0.00018322,0.00006156,-0.00163937
 ,-0.00193372,-0.00419346,0.00010732,0.00030096,-0.00003761,-0.16256827
 ,0.03540747,-0.08195374,0.14342470,-0.03450171,0.07391194||-0.00000842
 ,-0.00001232,-0.00000314,-0.00000124,-0.00000050,0.00000357,0.00003650
 ,-0.00000072,-0.00000037,-0.00000300,0.00000286,0.00000098,-0.00000554
 ,0.00000688,0.00000620,-0.00003487,0.00000657,0.00000002,0.00000013,0.
 00000078,0.00000026,0.00000047,-0.00000093,-0.00000057,0.00000160,-0.0
 0000158,-0.00000230,0.00000500,-0.00000418,0.00000049,-0.00000383,-0.0
 0000118,0.00000093,-0.00000217,0.00000129,-0.00002013,0.00001536,0.000
 00303,0.00001406|||@


 THE ONLY EXISTING THINGS ARE ATOMS AND EMPTY SPACE;
 ALL ELSE IS MERE OPINION. -- DEMOCRITUS OF ABDERA D. 370 B.C.
 EXPERIMENTS ARE THE ONLY MEANS OF KNOWLEDGE AT OUR DISPOSAL
 THE REST IS POETRY, IMAGINATION. -- MAX PLANCK
 Job cpu time:  0 days  0 hours 19 minutes  6.0 seconds.
 File lengths (MBytes):  RWF=     59 Int=      0 D2E=      0 Chk=      6 Scr=      1
 Normal termination of Gaussian 09 at Fri Apr 08 10:42:05 2016.
