 Entering Link 1 = c:\G09w04\l1.exe PID=      2320.
  
 Copyright (c) 1988,1990,1992,1993,1995,1998,2003,2009,2010,
            Gaussian, Inc.  All Rights Reserved.
  
 This is part of the Gaussian(R) 09 program.  It is based on
 the Gaussian(R) 03 system (copyright 2003, Gaussian, Inc.),
 the Gaussian(R) 98 system (copyright 1998, Gaussian, Inc.),
 the Gaussian(R) 94 system (copyright 1995, Gaussian, Inc.),
 the Gaussian 92(TM) system (copyright 1992, Gaussian, Inc.),
 the Gaussian 90(TM) system (copyright 1990, Gaussian, Inc.),
 the Gaussian 88(TM) system (copyright 1988, Gaussian, Inc.),
 the Gaussian 86(TM) system (copyright 1986, Carnegie Mellon
 University), and the Gaussian 82(TM) system (copyright 1983,
 Carnegie Mellon University). Gaussian is a federally registered
 trademark of Gaussian, Inc.
  
 This software contains proprietary and confidential information,
 including trade secrets, belonging to Gaussian, Inc.
  
 This software is provided under written license and may be
 used, copied, transmitted, or stored only in accord with that
 written license.
  
 The following legend is applicable only to US Government
 contracts under FAR:
  
                    RESTRICTED RIGHTS LEGEND
  
 Use, reproduction and disclosure by the US Government is
 subject to restrictions as set forth in subparagraphs (a)
 and (c) of the Commercial Computer Software - Restricted
 Rights clause in FAR 52.227-19.
  
 Gaussian, Inc.
 340 Quinnipiac St., Bldg. 40, Wallingford CT 06492
  
  
 ---------------------------------------------------------------
 Warning -- This program may not be used in any manner that
 competes with the business of Gaussian, Inc. or will provide
 assistance to any competitor of Gaussian, Inc.  The licensee
 of this program is prohibited from giving any competitor of
 Gaussian, Inc. access to this program.  By using this program,
 the user acknowledges that Gaussian, Inc. is engaged in the
 business of creating and licensing software in the field of
 computational chemistry and represents and warrants to the
 licensee that it is not a competitor of Gaussian, Inc. and that
 it will not use this program in any manner prohibited above.
 ---------------------------------------------------------------
  

 Cite this work as:
 Gaussian 09, Revision B.01,
 M. J. Frisch, G. W. Trucks, H. B. Schlegel, G. E. Scuseria, 
 M. A. Robb, J. R. Cheeseman, G. Scalmani, V. Barone, B. Mennucci, 
 G. A. Petersson, H. Nakatsuji, M. Caricato, X. Li, H. P. Hratchian, 
 A. F. Izmaylov, J. Bloino, G. Zheng, J. L. Sonnenberg, M. Hada, 
 M. Ehara, K. Toyota, R. Fukuda, J. Hasegawa, M. Ishida, T. Nakajima, 
 Y. Honda, O. Kitao, H. Nakai, T. Vreven, J. A. Montgomery, Jr., 
 J. E. Peralta, F. Ogliaro, M. Bearpark, J. J. Heyd, E. Brothers, 
 K. N. Kudin, V. N. Staroverov, T. Keith, R. Kobayashi, J. Normand, 
 K. Raghavachari, A. Rendell, J. C. Burant, S. S. Iyengar, J. Tomasi, 
 M. Cossi, N. Rega, J. M. Millam, M. Klene, J. E. Knox, J. B. Cross, 
 V. Bakken, C. Adamo, J. Jaramillo, R. Gomperts, R. E. Stratmann, 
 O. Yazyev, A. J. Austin, R. Cammi, C. Pomelli, J. W. Ochterski, 
 R. L. Martin, K. Morokuma, V. G. Zakrzewski, G. A. Voth, 
 P. Salvador, J. J. Dannenberg, S. Dapprich, A. D. Daniels, 
 O. Farkas, J. B. Foresman, J. V. Ortiz, J. Cioslowski, 
 and D. J. Fox, Gaussian, Inc., Wallingford CT, 2010.
 
 ******************************************
 Gaussian 09:  IA32W-G09RevB.01 12-Aug-2010
                07-Apr-2016 
 ******************************************
 %chk=E:\YangJ\Amiano\ser\ts1\s\ts1-p\Ser-S-ts1-p-6-311++gdp-cpcm.chk
 ---------------------------------------------------------
 # opt freq rb3lyp/6-311++g(d,p) scrf=(cpcm,solvent=water)
 ---------------------------------------------------------
 1/14=-1,18=20,19=15,26=3,38=1/1,3;
 2/9=110,12=2,17=6,18=5,40=1/2;
 3/5=4,6=6,7=1111,11=2,16=1,25=1,30=1,70=2101,71=1,72=1,74=-5,116=1/1,2,3;
 4//1;
 5/5=2,38=5,53=1/2;
 6/7=2,8=2,9=2,10=2,28=1/1;
 7//1,2,3,16;
 1/14=-1,18=20,19=15/3(2);
 2/9=110/2;
 99//99;
 2/9=110/2;
 3/5=4,6=6,7=1111,11=2,16=1,25=1,30=1,70=2105,71=1,72=1,74=-5,116=1/1,2,3;
 4/5=5,16=3/1;
 5/5=2,38=5,53=1/2;
 7//1,2,3,16;
 1/14=-1,18=20,19=15/3(-5);
 2/9=110/2;
 6/7=2,8=2,9=2,10=2,19=2,28=1/1;
 99/9=1/99;
 ----------------------
 Ser-S-ts1-p-6-311++gdp
 ----------------------
 Symbolic Z-matrix:
 Charge =  0 Multiplicity = 1
 N                     0.20213   2.02273  -0.10283 
 H                    -0.04323   2.14799   0.87512 
 C                     0.31703   0.60577  -0.4416 
 H                     0.42438   0.51332  -1.52326 
 C                     1.55959   0.01816   0.23267 
 C                    -0.90719  -0.18986  -0.04412 
 H                     2.43283   0.56562  -0.13398 
 H                     1.4874    0.15351   1.31772 
 O                     1.62814  -1.36659  -0.10528 
 O                    -1.37406  -0.26595   1.14321 
 H                     2.34635  -1.77187   0.39217 
 H                    -0.51628   2.47375  -0.65956 
 O                    -1.65452  -0.8536   -0.83708 
 H                    -2.28062  -0.91743   1.36059 
 

 GradGradGradGradGradGradGradGradGradGradGradGradGradGradGradGradGradGrad
 Berny optimization.
 Initialization pass.
                           ----------------------------
                           !    Initial Parameters    !
                           ! (Angstroms and Degrees)  !
 --------------------------                            --------------------------
 ! Name  Definition              Value          Derivative Info.                !
 --------------------------------------------------------------------------------
 ! R1    R(1,2)                  1.016          estimate D2E/DX2                !
 ! R2    R(1,3)                  1.4614         estimate D2E/DX2                !
 ! R3    R(1,12)                 1.0146         estimate D2E/DX2                !
 ! R4    R(3,4)                  1.0909         estimate D2E/DX2                !
 ! R5    R(3,5)                  1.531          estimate D2E/DX2                !
 ! R6    R(3,6)                  1.5132         estimate D2E/DX2                !
 ! R7    R(5,7)                  1.0939         estimate D2E/DX2                !
 ! R8    R(5,8)                  1.0958         estimate D2E/DX2                !
 ! R9    R(5,9)                  1.427          estimate D2E/DX2                !
 ! R10   R(6,10)                 1.2781         estimate D2E/DX2                !
 ! R11   R(6,13)                 1.2759         estimate D2E/DX2                !
 ! R12   R(9,11)                 0.9631         estimate D2E/DX2                !
 ! R13   R(10,14)                1.1373         estimate D2E/DX2                !
 ! A1    A(2,1,3)              111.2015         estimate D2E/DX2                !
 ! A2    A(2,1,12)             107.5995         estimate D2E/DX2                !
 ! A3    A(3,1,12)             111.0675         estimate D2E/DX2                !
 ! A4    A(1,3,4)              108.648          estimate D2E/DX2                !
 ! A5    A(1,3,5)              109.5028         estimate D2E/DX2                !
 ! A6    A(1,3,6)              112.6623         estimate D2E/DX2                !
 ! A7    A(4,3,5)              108.9226         estimate D2E/DX2                !
 ! A8    A(4,3,6)              107.188          estimate D2E/DX2                !
 ! A9    A(5,3,6)              109.8242         estimate D2E/DX2                !
 ! A10   A(3,5,7)              107.9501         estimate D2E/DX2                !
 ! A11   A(3,5,8)              109.5855         estimate D2E/DX2                !
 ! A12   A(3,5,9)              107.8862         estimate D2E/DX2                !
 ! A13   A(7,5,8)              108.8229         estimate D2E/DX2                !
 ! A14   A(7,5,9)              111.5863         estimate D2E/DX2                !
 ! A15   A(8,5,9)              110.9462         estimate D2E/DX2                !
 ! A16   A(3,6,10)             124.8102         estimate D2E/DX2                !
 ! A17   A(3,6,13)             125.7442         estimate D2E/DX2                !
 ! A18   A(10,6,13)            109.4165         estimate D2E/DX2                !
 ! A19   A(5,9,11)             108.775          estimate D2E/DX2                !
 ! A20   A(6,10,14)            120.1874         estimate D2E/DX2                !
 ! D1    D(2,1,3,4)            171.1971         estimate D2E/DX2                !
 ! D2    D(2,1,3,5)            -69.9466         estimate D2E/DX2                !
 ! D3    D(2,1,3,6)             52.5847         estimate D2E/DX2                !
 ! D4    D(12,1,3,4)            51.3974         estimate D2E/DX2                !
 ! D5    D(12,1,3,5)           170.2537         estimate D2E/DX2                !
 ! D6    D(12,1,3,6)           -67.215          estimate D2E/DX2                !
 ! D7    D(1,3,5,7)            -60.0526         estimate D2E/DX2                !
 ! D8    D(1,3,5,8)             58.3226         estimate D2E/DX2                !
 ! D9    D(1,3,5,9)            179.2225         estimate D2E/DX2                !
 ! D10   D(4,3,5,7)             58.6335         estimate D2E/DX2                !
 ! D11   D(4,3,5,8)            177.0088         estimate D2E/DX2                !
 ! D12   D(4,3,5,9)            -62.0913         estimate D2E/DX2                !
 ! D13   D(6,3,5,7)            175.7407         estimate D2E/DX2                !
 ! D14   D(6,3,5,8)            -65.884          estimate D2E/DX2                !
 ! D15   D(6,3,5,9)             55.0158         estimate D2E/DX2                !
 ! D16   D(1,3,6,10)           -57.5709         estimate D2E/DX2                !
 ! D17   D(1,3,6,13)           120.2527         estimate D2E/DX2                !
 ! D18   D(4,3,6,10)          -177.0337         estimate D2E/DX2                !
 ! D19   D(4,3,6,13)             0.7899         estimate D2E/DX2                !
 ! D20   D(5,3,6,10)            64.7796         estimate D2E/DX2                !
 ! D21   D(5,3,6,13)          -117.3967         estimate D2E/DX2                !
 ! D22   D(3,5,9,11)          -173.5917         estimate D2E/DX2                !
 ! D23   D(7,5,9,11)            67.9868         estimate D2E/DX2                !
 ! D24   D(8,5,9,11)           -53.5457         estimate D2E/DX2                !
 ! D25   D(3,6,10,14)         -177.8857         estimate D2E/DX2                !
 ! D26   D(13,6,10,14)           3.9871         estimate D2E/DX2                !
 --------------------------------------------------------------------------------
 Trust Radius=3.00D-01 FncErr=1.00D-07 GrdErr=1.00D-06
 Number of steps in this run=     69 maximum allowed number of steps=    100.
 GradGradGradGradGradGradGradGradGradGradGradGradGradGradGradGradGradGrad

                          Input orientation:                          
 ---------------------------------------------------------------------
 Center     Atomic      Atomic             Coordinates (Angstroms)
 Number     Number       Type             X           Y           Z
 ---------------------------------------------------------------------
      1          7           0        0.202125    2.022728   -0.102829
      2          1           0       -0.043225    2.147987    0.875118
      3          6           0        0.317026    0.605766   -0.441601
      4          1           0        0.424379    0.513315   -1.523263
      5          6           0        1.559591    0.018163    0.232666
      6          6           0       -0.907191   -0.189855   -0.044123
      7          1           0        2.432825    0.565617   -0.133981
      8          1           0        1.487401    0.153505    1.317724
      9          8           0        1.628140   -1.366592   -0.105276
     10          8           0       -1.374063   -0.265946    1.143209
     11          1           0        2.346347   -1.771873    0.392169
     12          1           0       -0.516282    2.473746   -0.659556
     13          8           0       -1.654521   -0.853597   -0.837077
     14          1           0       -2.280624   -0.917433    1.360592
 ---------------------------------------------------------------------
                    Distance matrix (angstroms):
                    1          2          3          4          5
     1  N    0.000000
     2  H    1.016005   0.000000
     3  C    1.461421   2.059606   0.000000
     4  H    2.084552   2.939904   1.090901   0.000000
     5  C    2.444085   2.741881   1.530974   2.148760   0.000000
     6  C    2.475793   2.656491   1.513178   2.110778   2.490963
     7  H    2.664614   3.106928   2.138422   2.442682   1.093926
     8  H    2.676546   2.552778   2.160912   3.054617   1.095847
     9  O    3.677093   4.013340   2.392139   2.644575   1.427042
    10  O    3.045490   2.769490   2.476143   3.309337   3.084823
    11  H    4.386537   4.616124   3.235194   3.547524   1.961799
    12  H    1.014628   1.638635   2.057002   2.339684   3.336944
    13  O    3.501357   3.812793   2.484580   2.580916   3.497832
    14  H    4.117061   3.826022   3.509390   4.204843   4.110329
                    6          7          8          9         10
     6  C    0.000000
     7  H    3.425568   0.000000
     8  H    2.776075   1.780761   0.000000
     9  O    2.795774   2.093269   2.086967   0.000000
    10  O    1.278091   4.100623   2.897304   3.432690   0.000000
    11  H    3.643987   2.397535   2.302503   0.963081   4.083299
    12  H    2.761583   3.551678   3.647999   4.433280   3.389935
    13  O    1.275865   4.383481   3.940697   3.402140   2.084592
    14  H    2.094973   5.162343   3.917494   4.198684   1.137341
                   11         12         13         14
    11  H    0.000000
    12  H    5.227433   0.000000
    13  O    4.285000   3.521124   0.000000
    14  H    4.803829   4.323656   2.286007   0.000000
 Stoichiometry    C3H7NO3
 Framework group  C1[X(C3H7NO3)]
 Deg. of freedom    36
 Full point group                 C1      NOp   1
 Largest Abelian subgroup         C1      NOp   1
 Largest concise Abelian subgroup C1      NOp   1
                         Standard orientation:                         
 ---------------------------------------------------------------------
 Center     Atomic      Atomic             Coordinates (Angstroms)
 Number     Number       Type             X           Y           Z
 ---------------------------------------------------------------------
      1          7           0        0.211696    2.023596   -0.071572
      2          1           0       -0.064346    2.128945    0.900523
      3          6           0        0.334715    0.613762   -0.436244
      4          1           0        0.476182    0.543729   -1.515663
      5          6           0        1.554179    0.009074    0.264571
      6          6           0       -0.902948   -0.186968   -0.094585
      7          1           0        2.439606    0.561918   -0.062621
      8          1           0        1.447827    0.121830    1.349401
      9          8           0        1.630902   -1.368462   -0.100063
     10          8           0       -1.407413   -0.286760    1.075489
     11          1           0        2.332217   -1.785861    0.411269
     12          1           0       -0.487854    2.487964   -0.641188
     13          8           0       -1.625936   -0.832090   -0.924608
     14          1           0       -2.321602   -0.940404    1.250282
 ---------------------------------------------------------------------
 Rotational constants (GHZ):      3.1045984      2.3041970      1.7029984
 Standard basis: 6-311++G(d,p) (5D, 7F)
 There are   203 symmetry adapted basis functions of A   symmetry.
 Integral buffers will be    262144 words long.
 Raffenetti 2 integral format.
 Two-electron integral symmetry is turned on.
   203 basis functions,   315 primitive gaussians,   210 cartesian basis functions
    28 alpha electrons       28 beta electrons
       nuclear repulsion energy       322.8997445402 Hartrees.
 NAtoms=   14 NActive=   14 NUniq=   14 SFac= 1.00D+00 NAtFMM=   50 NAOKFM=F Big=F
 ------------------------------------------------------------------------------
 Polarizable Continuum Model (PCM)
 =================================
 Model                : C-PCM.
 Atomic radii         : UFF (Universal Force Field).
 Polarization charges : Total charges.
 Charge compensation  : None.
 Solution method      : Matrix inversion.
 Cavity type          : Scaled VdW (van der Waals Surface) (Alpha=1.100).
 Cavity algorithm     : GePol (No added spheres)
                        Default sphere list used, NSphG=   14.
                        Lebedev-Laikov grids with approx.  5.0 points / Ang**2.
                        Smoothing algorithm: Karplus/York (Gamma=1.0000).
                        Polarization charges: spherical gaussians, with
                                              point-specific exponents (IZeta= 3).
                        Self-potential: point-specific (ISelfS= 7).
                        Self-field    : sphere-specific E.n sum rule (ISelfD= 2).
 1st derivatives      : Analytical E(r).r(x)/FMM algorithm (CHGder, D1EAlg=3).
                        Cavity 1st derivative terms included.
 Solvent              : Water, Eps=  78.355300 Eps(inf)=   1.777849
 ------------------------------------------------------------------------------
 Spheres list:
 ISph  on   Nord    Re0     Alpha      Xe            Ye            Ze
    1   N      1    1.830   1.100      0.211696      2.023596     -0.071572
    2   H      2    1.443   1.100     -0.064346      2.128945      0.900523
    3   C      3    1.926   1.100      0.334715      0.613762     -0.436244
    4   H      4    1.443   1.100      0.476182      0.543729     -1.515663
    5   C      5    1.926   1.100      1.554179      0.009074      0.264571
    6   C      6    1.926   1.100     -0.902948     -0.186968     -0.094585
    7   H      7    1.443   1.100      2.439606      0.561918     -0.062621
    8   H      8    1.443   1.100      1.447827      0.121830      1.349401
    9   O      9    1.750   1.100      1.630902     -1.368462     -0.100063
   10   O     10    1.750   1.100     -1.407413     -0.286760      1.075489
   11   H     11    1.443   1.100      2.332217     -1.785861      0.411269
   12   H     12    1.443   1.100     -0.487854      2.487964     -0.641188
   13   O     13    1.750   1.100     -1.625936     -0.832090     -0.924608
   14   H     14    1.443   1.100     -2.321602     -0.940404      1.250282
 ------------------------------------------------------------------------------
 One-electron integrals computed using PRISM.
 NBasis=   203 RedAO= T  NBF=   203
 NBsUse=   203 1.00D-06 NBFU=   203
 Harris functional with IExCor=  402 diagonalized for initial guess.
 ExpMin= 3.60D-02 ExpMax= 8.59D+03 ExpMxC= 1.30D+03 IAcc=3 IRadAn=         0 AccDes= 0.00D+00
 HarFok:  IExCor=  402 AccDes= 0.00D+00 IRadAn=         0 IDoV= 1
 ScaDFX=  1.000000  1.000000  1.000000  1.000000
 FoFCou: FMM=F IPFlag=           0 FMFlag=      100000 FMFlg1=           0
         NFxFlg=           0 DoJE=T BraDBF=F KetDBF=T FulRan=T
         Omega=  0.000000  0.000000  1.000000  0.000000  0.000000 ICntrl=     500 IOpCl=  0
         NMat0=    1 NMatS0=    1 NMatT0=    0 NMatD0=    1 NMtDS0=    0 NMtDT0=    0
         I1Cent=           4 NGrid=           0.
 Petite list used in FoFCou.
 Initial guess orbital symmetries:
       Occupied  (A) (A) (A) (A) (A) (A) (A) (A) (A) (A) (A) (A)
                 (A) (A) (A) (A) (A) (A) (A) (A) (A) (A) (A) (A)
                 (A) (A) (A) (A)
       Virtual   (A) (A) (A) (A) (A) (A) (A) (A) (A) (A) (A) (A)
                 (A) (A) (A) (A) (A) (A) (A) (A) (A) (A) (A) (A)
                 (A) (A) (A) (A) (A) (A) (A) (A) (A) (A) (A) (A)
                 (A) (A) (A) (A) (A) (A) (A) (A) (A) (A) (A) (A)
                 (A) (A) (A) (A) (A) (A) (A) (A) (A) (A) (A) (A)
                 (A) (A) (A) (A) (A) (A) (A) (A) (A) (A) (A) (A)
                 (A) (A) (A) (A) (A) (A) (A) (A) (A) (A) (A) (A)
                 (A) (A) (A) (A) (A) (A) (A) (A) (A) (A) (A) (A)
                 (A) (A) (A) (A) (A) (A) (A) (A) (A) (A) (A) (A)
                 (A) (A) (A) (A) (A) (A) (A) (A) (A) (A) (A) (A)
                 (A) (A) (A) (A) (A) (A) (A) (A) (A) (A) (A) (A)
                 (A) (A) (A) (A) (A) (A) (A) (A) (A) (A) (A) (A)
                 (A) (A) (A) (A) (A) (A) (A) (A) (A) (A) (A) (A)
                 (A) (A) (A) (A) (A) (A) (A) (A) (A) (A) (A) (A)
                 (A) (A) (A) (A) (A) (A) (A)
 The electronic state of the initial guess is 1-A.
 Requested convergence on RMS density matrix=1.00D-08 within 128 cycles.
 Requested convergence on MAX density matrix=1.00D-06.
 Requested convergence on             energy=1.00D-06.
 No special actions if energy rises.
 Error on total polarization charges =  0.01215
 SCF Done:  E(RB3LYP) =  -399.060924335     A.U. after   13 cycles
             Convg  =    0.7285D-08             -V/T =  2.0041

 **********************************************************************

            Population analysis using the SCF density.

 **********************************************************************

 Orbital symmetries:
       Occupied  (A) (A) (A) (A) (A) (A) (A) (A) (A) (A) (A) (A)
                 (A) (A) (A) (A) (A) (A) (A) (A) (A) (A) (A) (A)
                 (A) (A) (A) (A)
       Virtual   (A) (A) (A) (A) (A) (A) (A) (A) (A) (A) (A) (A)
                 (A) (A) (A) (A) (A) (A) (A) (A) (A) (A) (A) (A)
                 (A) (A) (A) (A) (A) (A) (A) (A) (A) (A) (A) (A)
                 (A) (A) (A) (A) (A) (A) (A) (A) (A) (A) (A) (A)
                 (A) (A) (A) (A) (A) (A) (A) (A) (A) (A) (A) (A)
                 (A) (A) (A) (A) (A) (A) (A) (A) (A) (A) (A) (A)
                 (A) (A) (A) (A) (A) (A) (A) (A) (A) (A) (A) (A)
                 (A) (A) (A) (A) (A) (A) (A) (A) (A) (A) (A) (A)
                 (A) (A) (A) (A) (A) (A) (A) (A) (A) (A) (A) (A)
                 (A) (A) (A) (A) (A) (A) (A) (A) (A) (A) (A) (A)
                 (A) (A) (A) (A) (A) (A) (A) (A) (A) (A) (A) (A)
                 (A) (A) (A) (A) (A) (A) (A) (A) (A) (A) (A) (A)
                 (A) (A) (A) (A) (A) (A) (A) (A) (A) (A) (A) (A)
                 (A) (A) (A) (A) (A) (A) (A) (A) (A) (A) (A) (A)
                 (A) (A) (A) (A) (A) (A) (A)
 The electronic state is 1-A.
 Alpha  occ. eigenvalues --  -19.18735 -19.14127 -19.10496 -14.32007 -10.31765
 Alpha  occ. eigenvalues --  -10.23916 -10.23445  -1.12637  -1.04204  -0.98262
 Alpha  occ. eigenvalues --   -0.91717  -0.76187  -0.67293  -0.61878  -0.54610
 Alpha  occ. eigenvalues --   -0.53079  -0.50390  -0.48225  -0.47136  -0.46103
 Alpha  occ. eigenvalues --   -0.42003  -0.40407  -0.39260  -0.35796  -0.31418
 Alpha  occ. eigenvalues --   -0.30030  -0.28980  -0.26140
 Alpha virt. eigenvalues --   -0.03063  -0.02498  -0.00071   0.00391   0.01613
 Alpha virt. eigenvalues --    0.03083   0.04743   0.05608   0.05800   0.07674
 Alpha virt. eigenvalues --    0.07843   0.08582   0.09051   0.10766   0.11045
 Alpha virt. eigenvalues --    0.11853   0.12347   0.12887   0.13584   0.14643
 Alpha virt. eigenvalues --    0.15092   0.15988   0.16893   0.17643   0.18162
 Alpha virt. eigenvalues --    0.19373   0.20579   0.21155   0.22118   0.22668
 Alpha virt. eigenvalues --    0.23864   0.24760   0.25524   0.26381   0.27294
 Alpha virt. eigenvalues --    0.28300   0.28931   0.29028   0.30589   0.31387
 Alpha virt. eigenvalues --    0.31550   0.34053   0.34643   0.36529   0.37094
 Alpha virt. eigenvalues --    0.37978   0.39193   0.41032   0.44555   0.46301
 Alpha virt. eigenvalues --    0.48930   0.53442   0.54086   0.55782   0.57868
 Alpha virt. eigenvalues --    0.60662   0.61238   0.63047   0.64525   0.67008
 Alpha virt. eigenvalues --    0.68232   0.69454   0.70142   0.73195   0.75068
 Alpha virt. eigenvalues --    0.80736   0.82475   0.85804   0.87289   0.93323
 Alpha virt. eigenvalues --    0.98945   1.02044   1.05592   1.07284   1.09508
 Alpha virt. eigenvalues --    1.10944   1.13293   1.15330   1.16223   1.18963
 Alpha virt. eigenvalues --    1.20462   1.25343   1.26450   1.30428   1.31770
 Alpha virt. eigenvalues --    1.35525   1.41254   1.45884   1.47373   1.48857
 Alpha virt. eigenvalues --    1.52622   1.53868   1.56085   1.57096   1.58506
 Alpha virt. eigenvalues --    1.59405   1.61977   1.64483   1.67281   1.69965
 Alpha virt. eigenvalues --    1.72122   1.75741   1.76098   1.77906   1.82137
 Alpha virt. eigenvalues --    1.83146   1.86057   1.89134   1.93427   2.01318
 Alpha virt. eigenvalues --    2.03742   2.07014   2.08515   2.17200   2.21422
 Alpha virt. eigenvalues --    2.27689   2.33558   2.42083   2.49815   2.51003
 Alpha virt. eigenvalues --    2.54440   2.56148   2.57677   2.61180   2.62910
 Alpha virt. eigenvalues --    2.69767   2.70721   2.76598   2.78433   2.81732
 Alpha virt. eigenvalues --    2.84298   2.86575   2.90901   2.93895   2.94337
 Alpha virt. eigenvalues --    2.98950   3.00420   3.01619   3.10786   3.11160
 Alpha virt. eigenvalues --    3.18045   3.20276   3.21846   3.24560   3.30321
 Alpha virt. eigenvalues --    3.32743   3.47969   3.55809   3.63265   3.76991
 Alpha virt. eigenvalues --    3.81587   3.87250   3.97876   4.05665   4.09898
 Alpha virt. eigenvalues --    4.12215   4.25856   4.71950   4.83235   4.96077
 Alpha virt. eigenvalues --    5.04096   5.08011   5.12456   5.28217   5.38620
 Alpha virt. eigenvalues --    5.51438   5.64689   5.81385  23.75275  23.79988
 Alpha virt. eigenvalues --   23.84431  35.58560  49.84451  49.90124  49.99191
          Condensed to atoms (all electrons):
              1          2          3          4          5          6
     1  N    6.698748   0.396482  -0.156965  -0.059181   0.036680   0.002060
     2  H    0.396482   0.431842  -0.067242   0.005160   0.009546  -0.010643
     3  C   -0.156965  -0.067242   7.995496   0.583335  -0.501432  -0.911933
     4  H   -0.059181   0.005160   0.583335   0.505652  -0.128236  -0.172087
     5  C    0.036680   0.009546  -0.501432  -0.128236   5.787437   0.108276
     6  C    0.002060  -0.010643  -0.911933  -0.172087   0.108276   6.074381
     7  H    0.026062   0.004388  -0.160183  -0.034914   0.481772   0.026888
     8  H   -0.020085  -0.002562   0.102784   0.026673   0.289563  -0.068734
     9  O    0.009695   0.001764  -0.141195   0.000227   0.203628   0.035412
    10  O   -0.015518   0.006745  -0.120412   0.012694  -0.057435   0.330423
    11  H    0.000115   0.000142  -0.009189   0.001429   0.017884  -0.001491
    12  H    0.386909  -0.040353  -0.048871  -0.011755   0.003057   0.018166
    13  O   -0.003081  -0.001178   0.018913   0.003905  -0.030180   0.403821
    14  H    0.003124   0.001231  -0.047788  -0.002401   0.008747   0.013698
              7          8          9         10         11         12
     1  N    0.026062  -0.020085   0.009695  -0.015518   0.000115   0.386909
     2  H    0.004388  -0.002562   0.001764   0.006745   0.000142  -0.040353
     3  C   -0.160183   0.102784  -0.141195  -0.120412  -0.009189  -0.048871
     4  H   -0.034914   0.026673   0.000227   0.012694   0.001429  -0.011755
     5  C    0.481772   0.289563   0.203628  -0.057435   0.017884   0.003057
     6  C    0.026888  -0.068734   0.035412   0.330423  -0.001491   0.018166
     7  H    0.596122  -0.071751  -0.055930  -0.001858   0.001195  -0.001091
     8  H   -0.071751   0.604019  -0.058349   0.004269  -0.009771   0.000495
     9  O   -0.055930  -0.058349   8.095822  -0.003720   0.244435  -0.000328
    10  O   -0.001858   0.004269  -0.003720   8.017519   0.000581  -0.002730
    11  H    0.001195  -0.009771   0.244435   0.000581   0.456613  -0.000232
    12  H   -0.001091   0.000495  -0.000328  -0.002730  -0.000232   0.417130
    13  O   -0.000180  -0.000124  -0.002755  -0.225883   0.000024  -0.000940
    14  H   -0.000425  -0.000091   0.000150   0.260968   0.000262   0.000420
             13         14
     1  N   -0.003081   0.003124
     2  H   -0.001178   0.001231
     3  C    0.018913  -0.047788
     4  H    0.003905  -0.002401
     5  C   -0.030180   0.008747
     6  C    0.403821   0.013698
     7  H   -0.000180  -0.000425
     8  H   -0.000124  -0.000091
     9  O   -0.002755   0.000150
    10  O   -0.225883   0.260968
    11  H    0.000024   0.000262
    12  H   -0.000940   0.000420
    13  O    8.285255  -0.003990
    14  H   -0.003990   0.375950
 Mulliken atomic charges:
              1
     1  N   -0.305044
     2  H    0.264677
     3  C   -0.535317
     4  H    0.269497
     5  C   -0.229307
     6  C    0.151762
     7  H    0.189904
     8  H    0.203662
     9  O   -0.328857
    10  O   -0.205642
    11  H    0.298003
    12  H    0.280123
    13  O   -0.443608
    14  H    0.390147
 Sum of Mulliken atomic charges =   0.00000
 Mulliken charges with hydrogens summed into heavy atoms:
              1
     1  N    0.239756
     3  C   -0.265820
     5  C    0.164259
     6  C    0.151762
     9  O   -0.030854
    10  O    0.184505
    13  O   -0.443608
 Sum of Mulliken charges with hydrogens summed into heavy atoms =   0.00000
 Electronic spatial extent (au):  <R**2>=            770.8017
 Charge=              0.0000 electrons
 Dipole moment (field-independent basis, Debye):
    X=              1.2284    Y=              1.7139    Z=              4.1643  Tot=              4.6678
 Quadrupole moment (field-independent basis, Debye-Ang):
   XX=            -35.5971   YY=            -42.9430   ZZ=            -42.5931
   XY=             -5.5237   XZ=             -3.8954   YZ=             -6.5089
 Traceless Quadrupole moment (field-independent basis, Debye-Ang):
   XX=              4.7806   YY=             -2.5653   ZZ=             -2.2153
   XY=             -5.5237   XZ=             -3.8954   YZ=             -6.5089
 Octapole moment (field-independent basis, Debye-Ang**2):
  XXX=              4.9538  YYY=             -6.9117  ZZZ=              7.3900  XYY=             -8.5487
  XXY=            -15.3063  XXZ=             25.4977  XZZ=              1.4369  YZZ=              2.7464
  YYZ=             10.4805  XYZ=              5.7282
 Hexadecapole moment (field-independent basis, Debye-Ang**3):
 XXXX=           -382.7539 YYYY=           -339.0613 ZZZZ=           -149.0456 XXXY=            -21.3497
 XXXZ=            -32.3733 YYYX=            -50.3090 YYYZ=            -11.5811 ZZZX=            -14.1771
 ZZZY=             -9.8484 XXYY=           -117.0880 XXZZ=            -95.3640 YYZZ=            -73.4827
 XXYZ=            -34.0042 YYXZ=              1.4016 ZZXY=             -0.2339
 N-N= 3.228997445402D+02 E-N=-1.582876828056D+03  KE= 3.974293327320D+02
 D1PCM: C-PCM CHGder 1st derivatives, ID1Alg=3 FixD1E=F DoIter=F DoCFld=F I1PDM=0.
 Calling FoFJK, ICntrl=      2127 FMM=F ISym2X=0 I1Cent= 0 IOpClX= 0 NMat=1 NMatS=1 NMatT=0.
 ***** Axes restored to original set *****
 -------------------------------------------------------------------
 Center     Atomic                   Forces (Hartrees/Bohr)
 Number     Number              X              Y              Z
 -------------------------------------------------------------------
      1        7           0.001216887    0.001641489    0.000176717
      2        1           0.000337111    0.000473942   -0.000221683
      3        6           0.001491564    0.003961243    0.012947535
      4        1          -0.003275464   -0.002073203    0.001144007
      5        6           0.000831966    0.000570364   -0.000028154
      6        6          -0.088511921   -0.074994029   -0.072968006
      7        1           0.000271514   -0.000030293    0.000093741
      8        1           0.000380092    0.000021264    0.000051164
      9        8           0.000345785   -0.000132804    0.000181938
     10        8          -0.036908319   -0.009969931    0.110659160
     11        1           0.000082931    0.000159587    0.000015320
     12        1          -0.000081119   -0.000280944    0.000051474
     13        8           0.048573676    0.029194381   -0.015383257
     14        1           0.075245298    0.051458934   -0.036719959
 -------------------------------------------------------------------
 Cartesian Forces:  Max     0.110659160 RMS     0.033023975

 GradGradGradGradGradGradGradGradGradGradGradGradGradGradGradGradGradGrad
 Berny optimization.
 Internal  Forces:  Max     0.096468560 RMS     0.021272156
 Search for a local minimum.
 Step number   1 out of a maximum of   69
 All quantities printed in internal units (Hartrees-Bohrs-Radians)
 Mixed Optimization -- RFO/linear search
 Second derivative matrix not updated -- first step.
 ITU=  0
     Eigenvalues ---    0.00356   0.00592   0.00879   0.01132   0.01334
     Eigenvalues ---    0.03304   0.04079   0.04568   0.05353   0.05371
     Eigenvalues ---    0.06069   0.06300   0.10922   0.13584   0.16000
     Eigenvalues ---    0.16000   0.16000   0.16000   0.17099   0.18732
     Eigenvalues ---    0.22024   0.24994   0.25000   0.29334   0.29869
     Eigenvalues ---    0.31033   0.34146   0.34363   0.34709   0.36787
     Eigenvalues ---    0.41417   0.44982   0.45206   0.54816   0.73664
     Eigenvalues ---    0.74368
 RFO step:  Lambda=-7.35935061D-02 EMin= 3.56222252D-03
 Linear search not attempted -- first point.
 Maximum step size (   0.300) exceeded in Quadratic search.
    -- Step size scaled by   0.645
 Iteration  1 RMS(Cart)=  0.05616429 RMS(Int)=  0.00176372
 Iteration  2 RMS(Cart)=  0.00227085 RMS(Int)=  0.00001674
 Iteration  3 RMS(Cart)=  0.00000322 RMS(Int)=  0.00001660
 Iteration  4 RMS(Cart)=  0.00000000 RMS(Int)=  0.00001660
 Variable       Old X    -DE/DX   Delta X   Delta X   Delta X     New X
                                 (Linear)    (Quad)   (Total)
    R1        1.91997  -0.00023   0.00000  -0.00028  -0.00028   1.91969
    R2        2.76168   0.00167   0.00000   0.00244   0.00244   2.76412
    R3        1.91737  -0.00010   0.00000  -0.00012  -0.00012   1.91725
    R4        2.06150  -0.00128   0.00000  -0.00197  -0.00197   2.05954
    R5        2.89312   0.00147   0.00000   0.00258   0.00258   2.89570
    R6        2.85949  -0.00023   0.00000  -0.00038  -0.00038   2.85911
    R7        2.06722   0.00017   0.00000   0.00026   0.00026   2.06748
    R8        2.07085   0.00003   0.00000   0.00005   0.00005   2.07090
    R9        2.69672  -0.00005   0.00000  -0.00007  -0.00007   2.69665
   R10        2.41524   0.05220   0.00000   0.04155   0.04155   2.45679
   R11        2.41104  -0.03408   0.00000  -0.02689  -0.02689   2.38415
   R12        1.81996   0.00000   0.00000   0.00000   0.00000   1.81996
   R13        2.14926  -0.09647   0.00000  -0.16710  -0.16710   1.98216
    A1        1.94083   0.00090   0.00000   0.00258   0.00258   1.94341
    A2        1.87796  -0.00011   0.00000  -0.00010  -0.00010   1.87786
    A3        1.93849  -0.00050   0.00000  -0.00128  -0.00128   1.93722
    A4        1.89627   0.00087   0.00000   0.00165   0.00166   1.89793
    A5        1.91118  -0.00293   0.00000  -0.00491  -0.00494   1.90625
    A6        1.96633   0.00194   0.00000   0.00632   0.00632   1.97265
    A7        1.90106   0.00109   0.00000   0.00306   0.00308   1.90414
    A8        1.87078  -0.00353   0.00000  -0.01372  -0.01371   1.85707
    A9        1.91679   0.00257   0.00000   0.00740   0.00740   1.92419
   A10        1.88409  -0.00011   0.00000  -0.00010  -0.00010   1.88398
   A11        1.91263   0.00011   0.00000   0.00073   0.00073   1.91335
   A12        1.88297   0.00093   0.00000   0.00221   0.00221   1.88518
   A13        1.89932  -0.00014   0.00000  -0.00091  -0.00091   1.89841
   A14        1.94755  -0.00040   0.00000  -0.00112  -0.00112   1.94643
   A15        1.93638  -0.00037   0.00000  -0.00074  -0.00074   1.93564
   A16        2.17835  -0.05874   0.00000  -0.11703  -0.11703   2.06132
   A17        2.19465  -0.02829   0.00000  -0.05637  -0.05637   2.13828
   A18        1.90968   0.08701   0.00000   0.17345   0.17345   2.08313
   A19        1.89848  -0.00030   0.00000  -0.00082  -0.00082   1.89766
   A20        2.09767  -0.04019   0.00000  -0.11095  -0.11095   1.98671
    D1        2.98795  -0.00073   0.00000  -0.00326  -0.00326   2.98470
    D2       -1.22080  -0.00060   0.00000  -0.00143  -0.00142  -1.22222
    D3        0.91778   0.00191   0.00000   0.00886   0.00886   0.92664
    D4        0.89705  -0.00086   0.00000  -0.00400  -0.00400   0.89306
    D5        2.97149  -0.00073   0.00000  -0.00217  -0.00216   2.96933
    D6       -1.17312   0.00178   0.00000   0.00813   0.00812  -1.16500
    D7       -1.04812   0.00077   0.00000   0.00299   0.00299  -1.04513
    D8        1.01792   0.00061   0.00000   0.00224   0.00224   1.02016
    D9        3.12802   0.00079   0.00000   0.00312   0.00312   3.13114
   D10        1.02335   0.00075   0.00000   0.00393   0.00393   1.02727
   D11        3.08939   0.00059   0.00000   0.00318   0.00318   3.09256
   D12       -1.08370   0.00077   0.00000   0.00406   0.00406  -1.07964
   D13        3.06725  -0.00141   0.00000  -0.00662  -0.00662   3.06064
   D14       -1.14989  -0.00158   0.00000  -0.00737  -0.00737  -1.15726
   D15        0.96021  -0.00140   0.00000  -0.00649  -0.00649   0.95372
   D16       -1.00480  -0.00055   0.00000  -0.00671  -0.00675  -1.01155
   D17        2.09881   0.00040   0.00000  -0.00147  -0.00147   2.09733
   D18       -3.08982  -0.00045   0.00000  -0.00350  -0.00353  -3.09335
   D19        0.01379   0.00050   0.00000   0.00173   0.00175   0.01554
   D20        1.13062  -0.00112   0.00000  -0.00330  -0.00329   1.12732
   D21       -2.04896  -0.00017   0.00000   0.00194   0.00199  -2.04697
   D22       -3.02975  -0.00014   0.00000  -0.00074  -0.00074  -3.03048
   D23        1.18659  -0.00035   0.00000  -0.00135  -0.00135   1.18525
   D24       -0.93455   0.00036   0.00000   0.00111   0.00111  -0.93344
   D25       -3.10469  -0.00179   0.00000  -0.00764  -0.00771  -3.11240
   D26        0.06959  -0.00093   0.00000  -0.00882  -0.00876   0.06083
         Item               Value     Threshold  Converged?
 Maximum Force            0.096469     0.000450     NO 
 RMS     Force            0.021272     0.000300     NO 
 Maximum Displacement     0.250568     0.001800     NO 
 RMS     Displacement     0.056895     0.001200     NO 
 Predicted change in Energy=-3.548948D-02
 GradGradGradGradGradGradGradGradGradGradGradGradGradGradGradGradGradGrad

                          Input orientation:                          
 ---------------------------------------------------------------------
 Center     Atomic      Atomic             Coordinates (Angstroms)
 Number     Number       Type             X           Y           Z
 ---------------------------------------------------------------------
      1          7           0        0.176052    2.006331   -0.090007
      2          1           0       -0.075535    2.126742    0.886808
      3          6           0        0.294560    0.590762   -0.438778
      4          1           0        0.405481    0.504465   -1.519539
      5          6           0        1.537145    0.006056    0.241048
      6          6           0       -0.932034   -0.214368   -0.069545
      7          1           0        2.409442    0.561876   -0.115517
      8          1           0        1.457257    0.133669    1.326529
      9          8           0        1.619973   -1.376025   -0.104402
     10          8           0       -1.308265   -0.221397    1.174883
     11          1           0        2.338240   -1.777361    0.396147
     12          1           0       -0.538968    2.459794   -0.648987
     13          8           0       -1.613392   -0.843101   -0.925216
     14          1           0       -2.148029   -0.821912    1.360347
 ---------------------------------------------------------------------
                    Distance matrix (angstroms):
                    1          2          3          4          5
     1  N    0.000000
     2  H    1.015855   0.000000
     3  C    1.462710   2.062373   0.000000
     4  H    2.086098   2.941712   1.089860   0.000000
     5  C    2.441982   2.741360   1.532339   2.151452   0.000000
     6  C    2.481890   2.670018   1.512977   2.099560   2.498380
     7  H    2.659912   3.102994   2.139640   2.447537   1.094064
     8  H    2.674868   2.552478   2.162662   3.056767   1.095872
     9  O    3.677696   4.015797   2.395158   2.648367   1.427005
    10  O    2.960729   2.667652   2.415067   3.274708   3.003354
    11  H    4.384944   4.616176   3.237551   3.551358   1.961220
    12  H    1.014565   1.638402   2.057240   2.339478   3.335152
    13  O    3.466835   3.803736   2.435747   2.499000   3.465129
    14  H    3.937492   3.635111   3.346452   4.071048   3.939400
                    6          7          8          9         10
     6  C    0.000000
     7  H    3.430762   0.000000
     8  H    2.789061   1.780313   0.000000
     9  O    2.804176   2.092569   2.086437   0.000000
    10  O    1.300077   4.012479   2.792343   3.397692   0.000000
    11  H    3.654383   2.395600   2.300822   0.963082   4.040353
    12  H    2.764308   3.546802   3.646702   4.435212   3.332732
    13  O    1.261637   4.337368   3.931071   3.378223   2.211343
    14  H    1.972902   4.986340   3.729928   4.080487   1.048914
                   11         12         13         14
    11  H    0.000000
    12  H    5.227248   0.000000
    13  O    4.270157   3.484222   0.000000
    14  H    4.687129   4.170863   2.347357   0.000000
 Stoichiometry    C3H7NO3
 Framework group  C1[X(C3H7NO3)]
 Deg. of freedom    36
 Full point group                 C1      NOp   1
 Largest Abelian subgroup         C1      NOp   1
 Largest concise Abelian subgroup C1      NOp   1
                         Standard orientation:                         
 ---------------------------------------------------------------------
 Center     Atomic      Atomic             Coordinates (Angstroms)
 Number     Number       Type             X           Y           Z
 ---------------------------------------------------------------------
      1          7           0        0.030581    2.012715   -0.118505
      2          1           0       -0.238947    2.123269    0.854682
      3          6           0        0.254531    0.606384   -0.452575
      4          1           0        0.382359    0.518761   -1.531361
      5          6           0        1.529128    0.119092    0.244570
      6          6           0       -0.914408   -0.282019   -0.087305
      7          1           0        2.362587    0.733344   -0.109008
      8          1           0        1.429219    0.250207    1.327973
      9          8           0        1.715042   -1.256389   -0.086838
     10          8           0       -1.301762   -0.305207    1.153509
     11          1           0        2.455297   -1.600294    0.424319
     12          1           0       -0.709606    2.408325   -0.688556
     13          8           0       -1.539865   -0.965925   -0.943345
     14          1           0       -2.097810   -0.963199    1.336738
 ---------------------------------------------------------------------
 Rotational constants (GHZ):      3.0636126      2.3379815      1.7522535
 Standard basis: 6-311++G(d,p) (5D, 7F)
 There are   203 symmetry adapted basis functions of A   symmetry.
 Integral buffers will be    262144 words long.
 Raffenetti 2 integral format.
 Two-electron integral symmetry is turned on.
   203 basis functions,   315 primitive gaussians,   210 cartesian basis functions
    28 alpha electrons       28 beta electrons
       nuclear repulsion energy       323.8398248766 Hartrees.
 NAtoms=   14 NActive=   14 NUniq=   14 SFac= 1.00D+00 NAtFMM=   50 NAOKFM=F Big=F
 ------------------------------------------------------------------------------
 Polarizable Continuum Model (PCM)
 =================================
 Model                : C-PCM.
 Atomic radii         : UFF (Universal Force Field).
 Polarization charges : Total charges.
 Charge compensation  : None.
 Solution method      : Matrix inversion.
 Cavity type          : Scaled VdW (van der Waals Surface) (Alpha=1.100).
 Cavity algorithm     : GePol (No added spheres)
                        Default sphere list used, NSphG=   14.
                        Lebedev-Laikov grids with approx.  5.0 points / Ang**2.
                        Smoothing algorithm: Karplus/York (Gamma=1.0000).
                        Polarization charges: spherical gaussians, with
                                              point-specific exponents (IZeta= 3).
                        Self-potential: point-specific (ISelfS= 7).
                        Self-field    : sphere-specific E.n sum rule (ISelfD= 2).
 1st derivatives      : Analytical E(r).r(x)/FMM algorithm (CHGder, D1EAlg=3).
                        Cavity 1st derivative terms included.
 Solvent              : Water, Eps=  78.355300 Eps(inf)=   1.777849
 ------------------------------------------------------------------------------
 Spheres list:
 ISph  on   Nord    Re0     Alpha      Xe            Ye            Ze
    1   N      1    1.830   1.100      0.030581      2.012715     -0.118505
    2   H      2    1.443   1.100     -0.238947      2.123269      0.854682
    3   C      3    1.926   1.100      0.254531      0.606384     -0.452575
    4   H      4    1.443   1.100      0.382359      0.518761     -1.531361
    5   C      5    1.926   1.100      1.529128      0.119092      0.244570
    6   C      6    1.926   1.100     -0.914408     -0.282019     -0.087305
    7   H      7    1.443   1.100      2.362587      0.733344     -0.109008
    8   H      8    1.443   1.100      1.429219      0.250207      1.327973
    9   O      9    1.750   1.100      1.715042     -1.256389     -0.086838
   10   O     10    1.750   1.100     -1.301762     -0.305207      1.153509
   11   H     11    1.443   1.100      2.455297     -1.600294      0.424319
   12   H     12    1.443   1.100     -0.709606      2.408325     -0.688556
   13   O     13    1.750   1.100     -1.539865     -0.965925     -0.943345
   14   H     14    1.443   1.100     -2.097810     -0.963199      1.336738
 ------------------------------------------------------------------------------
 One-electron integrals computed using PRISM.
 NBasis=   203 RedAO= T  NBF=   203
 NBsUse=   203 1.00D-06 NBFU=   203
 Initial guess read from the read-write file.
 B after Tr=     0.000000    0.000000    0.000000
         Rot=    1.000000    0.000000    0.000000    0.000000 Ang=   0.00 deg.
 Initial guess orbital symmetries:
       Occupied  (A) (A) (A) (A) (A) (A) (A) (A) (A) (A) (A) (A)
                 (A) (A) (A) (A) (A) (A) (A) (A) (A) (A) (A) (A)
                 (A) (A) (A) (A)
       Virtual   (A) (A) (A) (A) (A) (A) (A) (A) (A) (A) (A) (A)
                 (A) (A) (A) (A) (A) (A) (A) (A) (A) (A) (A) (A)
                 (A) (A) (A) (A) (A) (A) (A) (A) (A) (A) (A) (A)
                 (A) (A) (A) (A) (A) (A) (A) (A) (A) (A) (A) (A)
                 (A) (A) (A) (A) (A) (A) (A) (A) (A) (A) (A) (A)
                 (A) (A) (A) (A) (A) (A) (A) (A) (A) (A) (A) (A)
                 (A) (A) (A) (A) (A) (A) (A) (A) (A) (A) (A) (A)
                 (A) (A) (A) (A) (A) (A) (A) (A) (A) (A) (A) (A)
                 (A) (A) (A) (A) (A) (A) (A) (A) (A) (A) (A) (A)
                 (A) (A) (A) (A) (A) (A) (A) (A) (A) (A) (A) (A)
                 (A) (A) (A) (A) (A) (A) (A) (A) (A) (A) (A) (A)
                 (A) (A) (A) (A) (A) (A) (A) (A) (A) (A) (A) (A)
                 (A) (A) (A) (A) (A) (A) (A) (A) (A) (A) (A) (A)
                 (A) (A) (A) (A) (A) (A) (A) (A) (A) (A) (A) (A)
                 (A) (A) (A) (A) (A) (A) (A)
 Harris functional with IExCor=  402 diagonalized for initial guess.
 ExpMin= 3.60D-02 ExpMax= 8.59D+03 ExpMxC= 1.30D+03 IAcc=3 IRadAn=         0 AccDes= 0.00D+00
 HarFok:  IExCor=  402 AccDes= 0.00D+00 IRadAn=         0 IDoV= 1
 ScaDFX=  1.000000  1.000000  1.000000  1.000000
 FoFCou: FMM=F IPFlag=           0 FMFlag=      100000 FMFlg1=           0
         NFxFlg=           0 DoJE=T BraDBF=F KetDBF=T FulRan=T
         Omega=  0.000000  0.000000  1.000000  0.000000  0.000000 ICntrl=     500 IOpCl=  0
         NMat0=    1 NMatS0=    1 NMatT0=    0 NMatD0=    1 NMtDS0=    0 NMtDT0=    0
         I1Cent=           4 NGrid=           0.
 Petite list used in FoFCou.
 Requested convergence on RMS density matrix=1.00D-08 within 128 cycles.
 Requested convergence on MAX density matrix=1.00D-06.
 Requested convergence on             energy=1.00D-06.
 No special actions if energy rises.
 Error on total polarization charges =  0.01196
 SCF Done:  E(RB3LYP) =  -399.094647102     A.U. after   12 cycles
             Convg  =    0.3936D-08             -V/T =  2.0041
 D1PCM: C-PCM CHGder 1st derivatives, ID1Alg=3 FixD1E=F DoIter=F DoCFld=F I1PDM=0.
 Calling FoFJK, ICntrl=      2127 FMM=F ISym2X=0 I1Cent= 0 IOpClX= 0 NMat=1 NMatS=1 NMatT=0.
 ***** Axes restored to original set *****
 -------------------------------------------------------------------
 Center     Atomic                   Forces (Hartrees/Bohr)
 Number     Number              X              Y              Z
 -------------------------------------------------------------------
      1        7           0.001399930    0.001945794   -0.000338290
      2        1           0.000129519   -0.000016119   -0.000189438
      3        6           0.003559135    0.003418048    0.009246614
      4        1          -0.000932747   -0.000601684    0.000265010
      5        6           0.000206934    0.001551350   -0.000765524
      6        6          -0.047447639   -0.043875309   -0.063773639
      7        1           0.000393895   -0.000098586    0.000125192
      8        1           0.000169908    0.000040541    0.000048784
      9        8           0.000225649   -0.000581995    0.000179575
     10        8          -0.034059924   -0.019078554    0.048083649
     11        1           0.000034489    0.000081201   -0.000072802
     12        1          -0.000189315   -0.000202728    0.000140961
     13        8           0.030645665    0.025019105    0.026267486
     14        1           0.045864499    0.032398937   -0.019217579
 -------------------------------------------------------------------
 Cartesian Forces:  Max     0.063773639 RMS     0.020689314

 GradGradGradGradGradGradGradGradGradGradGradGradGradGradGradGradGradGrad
 Berny optimization.
 Using GEDIIS/GDIIS optimizer.
 Internal  Forces:  Max     0.058668896 RMS     0.011209902
 Search for a local minimum.
 Step number   2 out of a maximum of   69
 All quantities printed in internal units (Hartrees-Bohrs-Radians)
 Mixed Optimization -- RFO/linear search
 Update second derivatives using D2CorX and points    1    2
 DE= -3.37D-02 DEPred=-3.55D-02 R= 9.50D-01
 SS=  1.41D+00  RLast= 3.01D-01 DXNew= 5.0454D-01 9.0297D-01
 Trust test= 9.50D-01 RLast= 3.01D-01 DXMaxT set to 5.05D-01
 ITU=  1  0
 Use linear search instead of GDIIS.
     Eigenvalues ---    0.00356   0.00592   0.00879   0.01240   0.01334
     Eigenvalues ---    0.03304   0.04071   0.04508   0.05354   0.05357
     Eigenvalues ---    0.06064   0.06324   0.10941   0.13595   0.15984
     Eigenvalues ---    0.16000   0.16000   0.16033   0.17140   0.18789
     Eigenvalues ---    0.22021   0.22511   0.25844   0.29332   0.30852
     Eigenvalues ---    0.34146   0.34362   0.34703   0.36635   0.36913
     Eigenvalues ---    0.41423   0.44982   0.45206   0.54816   0.70297
     Eigenvalues ---    0.78502
 RFO step:  Lambda=-1.29467350D-02 EMin= 3.56220757D-03
 Quartic linear search produced a step of  0.72668.
 Iteration  1 RMS(Cart)=  0.04080480 RMS(Int)=  0.00929046
 Iteration  2 RMS(Cart)=  0.00944410 RMS(Int)=  0.00005547
 Iteration  3 RMS(Cart)=  0.00003975 RMS(Int)=  0.00004809
 Iteration  4 RMS(Cart)=  0.00000000 RMS(Int)=  0.00004809
 Variable       Old X    -DE/DX   Delta X   Delta X   Delta X     New X
                                 (Linear)    (Quad)   (Total)
    R1        1.91969  -0.00022  -0.00021  -0.00054  -0.00074   1.91894
    R2        2.76412   0.00147   0.00177   0.00415   0.00593   2.77005
    R3        1.91725  -0.00004  -0.00009  -0.00003  -0.00012   1.91713
    R4        2.05954  -0.00031  -0.00143   0.00055  -0.00088   2.05866
    R5        2.89570   0.00025   0.00187  -0.00137   0.00051   2.89621
    R6        2.85911   0.00488  -0.00028   0.02634   0.02606   2.88518
    R7        2.06748   0.00022   0.00019   0.00078   0.00097   2.06845
    R8        2.07090   0.00004   0.00004   0.00015   0.00019   2.07108
    R9        2.69665   0.00049  -0.00005   0.00204   0.00199   2.69863
   R10        2.45679   0.02414   0.03019   0.01677   0.04696   2.50375
   R11        2.38415  -0.04684  -0.01954  -0.08140  -0.10094   2.28321
   R12        1.81996  -0.00005   0.00000  -0.00015  -0.00015   1.81982
   R13        1.98216  -0.05867  -0.12143  -0.14596  -0.26739   1.71477
    A1        1.94341   0.00003   0.00188  -0.00376  -0.00188   1.94153
    A2        1.87786   0.00002  -0.00007  -0.00129  -0.00137   1.87649
    A3        1.93722  -0.00026  -0.00093  -0.00184  -0.00277   1.93445
    A4        1.89793   0.00025   0.00121  -0.00660  -0.00538   1.89255
    A5        1.90625  -0.00195  -0.00359  -0.00605  -0.00986   1.89639
    A6        1.97265   0.00141   0.00459   0.01089   0.01549   1.98814
    A7        1.90414   0.00037   0.00224  -0.00497  -0.00272   1.90142
    A8        1.85707  -0.00169  -0.00996  -0.00393  -0.01383   1.84325
    A9        1.92419   0.00162   0.00538   0.01001   0.01537   1.93956
   A10        1.88398   0.00023  -0.00007   0.00400   0.00392   1.88790
   A11        1.91335  -0.00004   0.00053  -0.00093  -0.00040   1.91296
   A12        1.88518   0.00047   0.00161   0.00134   0.00294   1.88812
   A13        1.89841  -0.00013  -0.00066  -0.00130  -0.00197   1.89644
   A14        1.94643  -0.00030  -0.00081  -0.00107  -0.00189   1.94454
   A15        1.93564  -0.00022  -0.00054  -0.00186  -0.00240   1.93323
   A16        2.06132  -0.02101  -0.08504  -0.00793  -0.09299   1.96833
   A17        2.13828   0.00118  -0.04096   0.07007   0.02909   2.16737
   A18        2.08313   0.01983   0.12604  -0.06188   0.06415   2.14728
   A19        1.89766  -0.00007  -0.00060   0.00036  -0.00024   1.89741
   A20        1.98671  -0.01763  -0.08063  -0.03697  -0.11760   1.86912
    D1        2.98470  -0.00014  -0.00237   0.00492   0.00253   2.98722
    D2       -1.22222  -0.00068  -0.00103  -0.00847  -0.00946  -1.23168
    D3        0.92664   0.00095   0.00644   0.00754   0.01396   0.94060
    D4        0.89306  -0.00002  -0.00290   0.01028   0.00735   0.90041
    D5        2.96933  -0.00056  -0.00157  -0.00311  -0.00464   2.96469
    D6       -1.16500   0.00107   0.00590   0.01291   0.01879  -1.14622
    D7       -1.04513   0.00070   0.00217   0.00614   0.00828  -1.03684
    D8        1.02016   0.00066   0.00163   0.00638   0.00797   1.02813
    D9        3.13114   0.00066   0.00227   0.00438   0.00661   3.13775
   D10        1.02727   0.00007   0.00285  -0.00831  -0.00545   1.02182
   D11        3.09256   0.00003   0.00231  -0.00808  -0.00576   3.08680
   D12       -1.07964   0.00003   0.00295  -0.01008  -0.00713  -1.08677
   D13        3.06064  -0.00084  -0.00481  -0.01027  -0.01505   3.04559
   D14       -1.15726  -0.00088  -0.00535  -0.01003  -0.01536  -1.17262
   D15        0.95372  -0.00088  -0.00471  -0.01203  -0.01672   0.93700
   D16       -1.01155  -0.00026  -0.00491  -0.01386  -0.01889  -1.03044
   D17        2.09733   0.00016  -0.00107  -0.00611  -0.00731   2.09002
   D18       -3.09335  -0.00027  -0.00256  -0.00945  -0.01202  -3.10537
   D19        0.01554   0.00015   0.00127  -0.00170  -0.00044   0.01509
   D20        1.12732  -0.00059  -0.00239  -0.00658  -0.00883   1.11849
   D21       -2.04697  -0.00017   0.00144   0.00117   0.00274  -2.04423
   D22       -3.03048   0.00004  -0.00054   0.00026  -0.00028  -3.03076
   D23        1.18525  -0.00035  -0.00098  -0.00484  -0.00581   1.17944
   D24       -0.93344   0.00017   0.00080  -0.00115  -0.00035  -0.93379
   D25       -3.11240  -0.00115  -0.00560  -0.01960  -0.02519  -3.13760
   D26        0.06083  -0.00122  -0.00636  -0.02961  -0.03598   0.02485
         Item               Value     Threshold  Converged?
 Maximum Force            0.058669     0.000450     NO 
 RMS     Force            0.011210     0.000300     NO 
 Maximum Displacement     0.254447     0.001800     NO 
 RMS     Displacement     0.049101     0.001200     NO 
 Predicted change in Energy=-1.401748D-02
 GradGradGradGradGradGradGradGradGradGradGradGradGradGradGradGradGradGrad

                          Input orientation:                          
 ---------------------------------------------------------------------
 Center     Atomic      Atomic             Coordinates (Angstroms)
 Number     Number       Type             X           Y           Z
 ---------------------------------------------------------------------
      1          7           0        0.162643    1.995711   -0.078382
      2          1           0       -0.095802    2.110608    0.896896
      3          6           0        0.275973    0.578260   -0.434319
      4          1           0        0.397114    0.502889   -1.514332
      5          6           0        1.520609   -0.000415    0.247520
      6          6           0       -0.966397   -0.244539   -0.101841
      7          1           0        2.392834    0.562275   -0.099908
      8          1           0        1.434919    0.120827    1.333388
      9          8           0        1.618341   -1.381691   -0.101574
     10          8           0       -1.272425   -0.213513    1.186884
     11          1           0        2.338475   -1.777147    0.400821
     12          1           0       -0.549001    2.452681   -0.638701
     13          8           0       -1.621972   -0.844882   -0.920135
     14          1           0       -2.013381   -0.725534    1.297455
 ---------------------------------------------------------------------
                    Distance matrix (angstroms):
                    1          2          3          4          5
     1  N    0.000000
     2  H    1.015461   0.000000
     3  C    1.465846   2.063599   0.000000
     4  H    2.084573   2.939684   1.089396   0.000000
     5  C    2.436145   2.736949   1.532608   2.149344   0.000000
     6  C    2.508785   2.702245   1.526769   2.100701   2.523262
     7  H    2.651217   3.095845   2.143171   2.446838   1.094578
     8  H    2.669639   2.548109   2.162681   3.054917   1.095970
     9  O    3.677832   4.016389   2.398766   2.653097   1.428056
    10  O    2.922498   2.621083   2.377550   3.255328   2.954464
    11  H    4.381591   4.613722   3.240264   3.554611   1.961934
    12  H    1.014502   1.637211   2.058108   2.337424   3.329617
    13  O    3.458666   3.790213   2.421476   2.499253   3.457219
    14  H    3.746089   3.446920   3.152786   3.902006   3.757292
                    6          7          8          9         10
     6  C    0.000000
     7  H    3.454763   0.000000
     8  H    2.821293   1.779555   0.000000
     9  O    2.823825   2.092570   2.085743   0.000000
    10  O    1.324926   3.961288   2.731842   3.373617   0.000000
    11  H    3.677463   2.393028   2.299652   0.963005   4.012661
    12  H    2.781624   3.538124   3.641787   4.437148   3.311298
    13  O    1.208220   4.332612   3.918615   3.384943   2.227182
    14  H    1.812611   4.798521   3.550830   3.946800   0.907417
                   11         12         13         14
    11  H    0.000000
    12  H    5.225856   0.000000
    13  O    4.277755   3.479137   0.000000
    14  H    4.566015   3.999269   2.255028   0.000000
 Stoichiometry    C3H7NO3
 Framework group  C1[X(C3H7NO3)]
 Deg. of freedom    36
 Full point group                 C1      NOp   1
 Largest Abelian subgroup         C1      NOp   1
 Largest concise Abelian subgroup C1      NOp   1
                         Standard orientation:                         
 ---------------------------------------------------------------------
 Center     Atomic      Atomic             Coordinates (Angstroms)
 Number     Number       Type             X           Y           Z
 ---------------------------------------------------------------------
      1          7           0       -0.030889    2.005154   -0.137211
      2          1           0       -0.296971    2.116613    0.836411
      3          6           0        0.219720    0.597769   -0.461505
      4          1           0        0.345035    0.509807   -1.540088
      5          6           0        1.516651    0.159362    0.227448
      6          6           0       -0.935377   -0.334685   -0.104706
      7          1           0        2.328792    0.796494   -0.136685
      8          1           0        1.422142    0.296564    1.310682
      9          8           0        1.748213   -1.213398   -0.090751
     10          8           0       -1.239847   -0.304123    1.184399
     11          1           0        2.504799   -1.524911    0.417104
     12          1           0       -0.785185    2.377369   -0.704405
     13          8           0       -1.531050   -1.014884   -0.906142
     14          1           0       -1.926881   -0.883450    1.309979
 ---------------------------------------------------------------------
 Rotational constants (GHZ):      3.0746519      2.3564978      1.7673679
 Standard basis: 6-311++G(d,p) (5D, 7F)
 There are   203 symmetry adapted basis functions of A   symmetry.
 Integral buffers will be    262144 words long.
 Raffenetti 2 integral format.
 Two-electron integral symmetry is turned on.
   203 basis functions,   315 primitive gaussians,   210 cartesian basis functions
    28 alpha electrons       28 beta electrons
       nuclear repulsion energy       325.5801126115 Hartrees.
 NAtoms=   14 NActive=   14 NUniq=   14 SFac= 1.00D+00 NAtFMM=   50 NAOKFM=F Big=F
 ------------------------------------------------------------------------------
 Polarizable Continuum Model (PCM)
 =================================
 Model                : C-PCM.
 Atomic radii         : UFF (Universal Force Field).
 Polarization charges : Total charges.
 Charge compensation  : None.
 Solution method      : Matrix inversion.
 Cavity type          : Scaled VdW (van der Waals Surface) (Alpha=1.100).
 Cavity algorithm     : GePol (No added spheres)
                        Default sphere list used, NSphG=   14.
                        Lebedev-Laikov grids with approx.  5.0 points / Ang**2.
                        Smoothing algorithm: Karplus/York (Gamma=1.0000).
                        Polarization charges: spherical gaussians, with
                                              point-specific exponents (IZeta= 3).
                        Self-potential: point-specific (ISelfS= 7).
                        Self-field    : sphere-specific E.n sum rule (ISelfD= 2).
 1st derivatives      : Analytical E(r).r(x)/FMM algorithm (CHGder, D1EAlg=3).
                        Cavity 1st derivative terms included.
 Solvent              : Water, Eps=  78.355300 Eps(inf)=   1.777849
 ------------------------------------------------------------------------------
 Spheres list:
 ISph  on   Nord    Re0     Alpha      Xe            Ye            Ze
    1   N      1    1.830   1.100     -0.030889      2.005154     -0.137211
    2   H      2    1.443   1.100     -0.296971      2.116613      0.836411
    3   C      3    1.926   1.100      0.219720      0.597769     -0.461505
    4   H      4    1.443   1.100      0.345035      0.509807     -1.540088
    5   C      5    1.926   1.100      1.516651      0.159362      0.227448
    6   C      6    1.926   1.100     -0.935377     -0.334685     -0.104706
    7   H      7    1.443   1.100      2.328792      0.796494     -0.136685
    8   H      8    1.443   1.100      1.422142      0.296564      1.310682
    9   O      9    1.750   1.100      1.748213     -1.213398     -0.090751
   10   O     10    1.750   1.100     -1.239847     -0.304123      1.184399
   11   H     11    1.443   1.100      2.504799     -1.524911      0.417104
   12   H     12    1.443   1.100     -0.785185      2.377369     -0.704405
   13   O     13    1.750   1.100     -1.531050     -1.014884     -0.906142
   14   H     14    1.443   1.100     -1.926881     -0.883450      1.309979
 ------------------------------------------------------------------------------
 One-electron integrals computed using PRISM.
 NBasis=   203 RedAO= T  NBF=   203
 NBsUse=   203 1.00D-06 NBFU=   203
 Initial guess read from the read-write file.
 B after Tr=     0.000000    0.000000    0.000000
         Rot=    1.000000    0.000000    0.000000    0.000000 Ang=   0.00 deg.
 Initial guess orbital symmetries:
       Occupied  (A) (A) (A) (A) (A) (A) (A) (A) (A) (A) (A) (A)
                 (A) (A) (A) (A) (A) (A) (A) (A) (A) (A) (A) (A)
                 (A) (A) (A) (A)
       Virtual   (A) (A) (A) (A) (A) (A) (A) (A) (A) (A) (A) (A)
                 (A) (A) (A) (A) (A) (A) (A) (A) (A) (A) (A) (A)
                 (A) (A) (A) (A) (A) (A) (A) (A) (A) (A) (A) (A)
                 (A) (A) (A) (A) (A) (A) (A) (A) (A) (A) (A) (A)
                 (A) (A) (A) (A) (A) (A) (A) (A) (A) (A) (A) (A)
                 (A) (A) (A) (A) (A) (A) (A) (A) (A) (A) (A) (A)
                 (A) (A) (A) (A) (A) (A) (A) (A) (A) (A) (A) (A)
                 (A) (A) (A) (A) (A) (A) (A) (A) (A) (A) (A) (A)
                 (A) (A) (A) (A) (A) (A) (A) (A) (A) (A) (A) (A)
                 (A) (A) (A) (A) (A) (A) (A) (A) (A) (A) (A) (A)
                 (A) (A) (A) (A) (A) (A) (A) (A) (A) (A) (A) (A)
                 (A) (A) (A) (A) (A) (A) (A) (A) (A) (A) (A) (A)
                 (A) (A) (A) (A) (A) (A) (A) (A) (A) (A) (A) (A)
                 (A) (A) (A) (A) (A) (A) (A) (A) (A) (A) (A) (A)
                 (A) (A) (A) (A) (A) (A) (A)
 Harris functional with IExCor=  402 diagonalized for initial guess.
 ExpMin= 3.60D-02 ExpMax= 8.59D+03 ExpMxC= 1.30D+03 IAcc=3 IRadAn=         0 AccDes= 0.00D+00
 HarFok:  IExCor=  402 AccDes= 0.00D+00 IRadAn=         0 IDoV= 1
 ScaDFX=  1.000000  1.000000  1.000000  1.000000
 FoFCou: FMM=F IPFlag=           0 FMFlag=      100000 FMFlg1=           0
         NFxFlg=           0 DoJE=T BraDBF=F KetDBF=T FulRan=T
         Omega=  0.000000  0.000000  1.000000  0.000000  0.000000 ICntrl=     500 IOpCl=  0
         NMat0=    1 NMatS0=    1 NMatT0=    0 NMatD0=    1 NMtDS0=    0 NMtDT0=    0
         I1Cent=           4 NGrid=           0.
 Petite list used in FoFCou.
 Requested convergence on RMS density matrix=1.00D-08 within 128 cycles.
 Requested convergence on MAX density matrix=1.00D-06.
 Requested convergence on             energy=1.00D-06.
 No special actions if energy rises.
 Error on total polarization charges =  0.01166
 SCF Done:  E(RB3LYP) =  -399.100782231     A.U. after   12 cycles
             Convg  =    0.3968D-08             -V/T =  2.0032
 D1PCM: C-PCM CHGder 1st derivatives, ID1Alg=3 FixD1E=F DoIter=F DoCFld=F I1PDM=0.
 Calling FoFJK, ICntrl=      2127 FMM=F ISym2X=0 I1Cent= 0 IOpClX= 0 NMat=1 NMatS=1 NMatT=0.
 ***** Axes restored to original set *****
 -------------------------------------------------------------------
 Center     Atomic                   Forces (Hartrees/Bohr)
 Number     Number              X              Y              Z
 -------------------------------------------------------------------
      1        7          -0.000037241   -0.000573576   -0.000839502
      2        1          -0.000172655   -0.000195237    0.000190711
      3        6           0.002545820    0.001940471    0.001539681
      4        1           0.000753899    0.000309151   -0.001053704
      5        6          -0.001235641    0.000427348   -0.000276032
      6        6           0.011829834    0.005203997   -0.014313244
      7        1          -0.000224763   -0.000106014   -0.000110793
      8        1           0.000094414    0.000067874    0.000005680
      9        8          -0.000057719   -0.000483611   -0.000025491
     10        8           0.054341329    0.038999619    0.004190863
     11        1           0.000010243    0.000010794   -0.000075913
     12        1          -0.000271904    0.000089341    0.000147714
     13        8          -0.005039311   -0.004351404   -0.003999068
     14        1          -0.062536305   -0.041338753    0.014619099
 -------------------------------------------------------------------
 Cartesian Forces:  Max     0.062536305 RMS     0.016017017

 GradGradGradGradGradGradGradGradGradGradGradGradGradGradGradGradGradGrad
 Berny optimization.
 Using GEDIIS/GDIIS optimizer.
 Internal  Forces:  Max     0.076169485 RMS     0.010394336
 Search for a local minimum.
 Step number   3 out of a maximum of   69
 All quantities printed in internal units (Hartrees-Bohrs-Radians)
 Mixed Optimization -- RFO/linear search
 Update second derivatives using D2CorX and points    2    3
 DE= -6.14D-03 DEPred=-1.40D-02 R= 4.38D-01
 Trust test= 4.38D-01 RLast= 3.42D-01 DXMaxT set to 5.05D-01
 ITU=  0  1  0
 Use linear search instead of GDIIS.
     Eigenvalues ---    0.00356   0.00592   0.00879   0.01258   0.01334
     Eigenvalues ---    0.03298   0.04107   0.04361   0.05331   0.05401
     Eigenvalues ---    0.06043   0.06339   0.10978   0.13612   0.15997
     Eigenvalues ---    0.16000   0.16000   0.16268   0.17247   0.19027
     Eigenvalues ---    0.22021   0.23670   0.29323   0.30394   0.34146
     Eigenvalues ---    0.34362   0.34676   0.35199   0.36804   0.41416
     Eigenvalues ---    0.44981   0.45206   0.48149   0.54816   0.67386
     Eigenvalues ---    0.80078
 RFO step:  Lambda=-3.59699683D-03 EMin= 3.56221972D-03
 Quartic linear search produced a step of -0.34856.
 Iteration  1 RMS(Cart)=  0.02812816 RMS(Int)=  0.00066172
 Iteration  2 RMS(Cart)=  0.00057077 RMS(Int)=  0.00002606
 Iteration  3 RMS(Cart)=  0.00000128 RMS(Int)=  0.00002603
 Iteration  4 RMS(Cart)=  0.00000000 RMS(Int)=  0.00002603
 Variable       Old X    -DE/DX   Delta X   Delta X   Delta X     New X
                                 (Linear)    (Quad)   (Total)
    R1        1.91894   0.00020   0.00026  -0.00003   0.00023   1.91918
    R2        2.77005  -0.00074  -0.00207   0.00134  -0.00072   2.76932
    R3        1.91713   0.00015   0.00004   0.00016   0.00020   1.91733
    R4        2.05866   0.00111   0.00031   0.00164   0.00195   2.06061
    R5        2.89621  -0.00133  -0.00018  -0.00263  -0.00281   2.89340
    R6        2.88518   0.00205  -0.00908   0.01628   0.00720   2.89237
    R7        2.06845  -0.00020  -0.00034   0.00007  -0.00027   2.06818
    R8        2.07108   0.00001  -0.00006   0.00009   0.00003   2.07111
    R9        2.69863   0.00048  -0.00069   0.00161   0.00091   2.69955
   R10        2.50375   0.02014  -0.01637   0.03567   0.01931   2.52305
   R11        2.28321   0.00760   0.03518  -0.03248   0.00271   2.28591
   R12        1.81982  -0.00004   0.00005  -0.00010  -0.00005   1.81976
   R13        1.71477   0.07617   0.09320   0.03655   0.12974   1.84452
    A1        1.94153  -0.00043   0.00066  -0.00406  -0.00341   1.93812
    A2        1.87649  -0.00003   0.00048  -0.00357  -0.00311   1.87338
    A3        1.93445   0.00017   0.00097  -0.00239  -0.00143   1.93302
    A4        1.89255  -0.00028   0.00188  -0.00929  -0.00739   1.88516
    A5        1.89639   0.00100   0.00344   0.00206   0.00550   1.90189
    A6        1.98814  -0.00042  -0.00540   0.01208   0.00662   1.99476
    A7        1.90142  -0.00026   0.00095  -0.00683  -0.00586   1.89556
    A8        1.84325   0.00066   0.00482  -0.01013  -0.00531   1.83793
    A9        1.93956  -0.00071  -0.00536   0.01043   0.00501   1.94457
   A10        1.88790  -0.00016  -0.00137   0.00191   0.00054   1.88844
   A11        1.91296   0.00015   0.00014   0.00059   0.00072   1.91368
   A12        1.88812  -0.00012  -0.00103   0.00136   0.00034   1.88846
   A13        1.89644   0.00002   0.00069  -0.00149  -0.00080   1.89564
   A14        1.94454   0.00009   0.00066  -0.00067   0.00000   1.94454
   A15        1.93323   0.00001   0.00084  -0.00158  -0.00074   1.93249
   A16        1.96833   0.00010   0.03241  -0.04794  -0.01561   1.95272
   A17        2.16737   0.00174  -0.01014   0.01765   0.00742   2.17479
   A18        2.14728  -0.00184  -0.02236   0.03084   0.00839   2.15567
   A19        1.89741   0.00004   0.00008  -0.00001   0.00008   1.89749
   A20        1.86912   0.00953   0.04099  -0.03523   0.00576   1.87488
    D1        2.98722   0.00003  -0.00088   0.01572   0.01485   3.00207
    D2       -1.23168   0.00012   0.00330   0.00349   0.00676  -1.22492
    D3        0.94060  -0.00034  -0.00487   0.02732   0.02248   0.96308
    D4        0.90041   0.00025  -0.00256   0.02448   0.02192   0.92233
    D5        2.96469   0.00033   0.00162   0.01225   0.01383   2.97852
    D6       -1.14622  -0.00013  -0.00655   0.03608   0.02955  -1.11667
    D7       -1.03684  -0.00022  -0.00289  -0.02083  -0.02370  -1.06054
    D8        1.02813  -0.00020  -0.00278  -0.02118  -0.02394   1.00420
    D9        3.13775  -0.00017  -0.00230  -0.02192  -0.02420   3.11355
   D10        1.02182  -0.00014   0.00190  -0.03464  -0.03275   0.98907
   D11        3.08680  -0.00012   0.00201  -0.03499  -0.03299   3.05381
   D12       -1.08677  -0.00009   0.00248  -0.03573  -0.03325  -1.12002
   D13        3.04559   0.00009   0.00524  -0.04508  -0.03985   3.00574
   D14       -1.17262   0.00011   0.00535  -0.04543  -0.04009  -1.21271
   D15        0.93700   0.00014   0.00583  -0.04617  -0.04036   0.89665
   D16       -1.03044  -0.00015   0.00658  -0.06178  -0.05518  -1.08562
   D17        2.09002  -0.00030   0.00255  -0.03298  -0.03040   2.05962
   D18       -3.10537   0.00000   0.00419  -0.05047  -0.04628   3.13153
   D19        0.01509  -0.00015   0.00015  -0.02167  -0.02150  -0.00641
   D20        1.11849   0.00031   0.00308  -0.04183  -0.03878   1.07971
   D21       -2.04423   0.00016  -0.00096  -0.01303  -0.01400  -2.05823
   D22       -3.03076  -0.00015   0.00010  -0.00653  -0.00643  -3.03719
   D23        1.17944   0.00007   0.00203  -0.00932  -0.00730   1.17214
   D24       -0.93379  -0.00003   0.00012  -0.00590  -0.00577  -0.93957
   D25       -3.13760  -0.00061   0.00878  -0.04127  -0.03251   3.11308
   D26        0.02485  -0.00051   0.01254  -0.06953  -0.05696  -0.03212
         Item               Value     Threshold  Converged?
 Maximum Force            0.076169     0.000450     NO 
 RMS     Force            0.010394     0.000300     NO 
 Maximum Displacement     0.088247     0.001800     NO 
 RMS     Displacement     0.028105     0.001200     NO 
 Predicted change in Energy=-5.731123D-03
 GradGradGradGradGradGradGradGradGradGradGradGradGradGradGradGradGradGrad

                          Input orientation:                          
 ---------------------------------------------------------------------
 Center     Atomic      Atomic             Coordinates (Angstroms)
 Number     Number       Type             X           Y           Z
 ---------------------------------------------------------------------
      1          7           0        0.166901    2.005573   -0.084061
      2          1           0       -0.082933    2.122021    0.893403
      3          6           0        0.280272    0.586745   -0.432854
      4          1           0        0.406696    0.514253   -1.513498
      5          6           0        1.524252    0.005507    0.244644
      6          6           0       -0.967278   -0.241276   -0.115573
      7          1           0        2.399918    0.547691   -0.125533
      8          1           0        1.455309    0.150945    1.328747
      9          8           0        1.598027   -1.384813   -0.075191
     10          8           0       -1.238330   -0.251792    1.191724
     11          1           0        2.322777   -1.778275    0.422054
     12          1           0       -0.555826    2.454966   -0.636460
     13          8           0       -1.633301   -0.823781   -0.940412
     14          1           0       -2.054556   -0.772232    1.316782
 ---------------------------------------------------------------------
                    Distance matrix (angstroms):
                    1          2          3          4          5
     1  N    0.000000
     2  H    1.015585   0.000000
     3  C    1.465463   2.061055   0.000000
     4  H    2.079622   2.935613   1.090426   0.000000
     5  C    2.439409   2.735610   1.531120   2.144485   0.000000
     6  C    2.517079   2.717586   1.530578   2.100672   2.529502
     7  H    2.667116   3.111478   2.142165   2.429094   1.094434
     8  H    2.663769   2.537883   2.161914   3.051219   1.095986
     9  O    3.680071   4.007703   2.398217   2.663541   1.428540
    10  O    2.949237   2.656863   2.376668   3.257477   2.931727
    11  H    4.384229   4.606725   3.239755   3.559973   1.962395
    12  H    1.014610   1.635531   2.056882   2.337095   3.332105
    13  O    3.461114   3.800561   2.430836   2.506062   3.473070
    14  H    3.822752   3.527499   3.218613   3.965261   3.816049
                    6          7          8          9         10
     6  C    0.000000
     7  H    3.458407   0.000000
     8  H    2.847600   1.778939   0.000000
     9  O    2.808932   2.092878   2.085657   0.000000
    10  O    1.335142   3.951100   2.727025   3.306619   0.000000
    11  H    3.670949   2.390799   2.301409   0.962978   3.950193
    12  H    2.776750   3.554598   3.635274   4.438244   3.336856
    13  O    1.209652   4.337259   3.954578   3.391879   2.242583
    14  H    1.875028   4.864650   3.629263   3.956540   0.976076
                   11         12         13         14
    11  H    0.000000
    12  H    5.227536   0.000000
    13  O    4.291611   3.464610   0.000000
    14  H    4.579706   4.059083   2.296746   0.000000
 Stoichiometry    C3H7NO3
 Framework group  C1[X(C3H7NO3)]
 Deg. of freedom    36
 Full point group                 C1      NOp   1
 Largest Abelian subgroup         C1      NOp   1
 Largest concise Abelian subgroup C1      NOp   1
                         Standard orientation:                         
 ---------------------------------------------------------------------
 Center     Atomic      Atomic             Coordinates (Angstroms)
 Number     Number       Type             X           Y           Z
 ---------------------------------------------------------------------
      1          7           0        0.009961    2.017654   -0.102411
      2          1           0       -0.230586    2.117191    0.879242
      3          6           0        0.227168    0.610927   -0.451013
      4          1           0        0.339425    0.545304   -1.533658
      5          6           0        1.524590    0.130251    0.204712
      6          6           0       -0.946231   -0.310721   -0.109885
      7          1           0        2.348597    0.737836   -0.182119
      8          1           0        1.464013    0.273081    1.289662
      9          8           0        1.700628   -1.251050   -0.114262
     10          8           0       -1.192121   -0.338440    1.202127
     11          1           0        2.462623   -1.585455    0.370365
     12          1           0       -0.755363    2.407815   -0.642306
     13          8           0       -1.579586   -0.945716   -0.921611
     14          1           0       -1.962973   -0.920445    1.342769
 ---------------------------------------------------------------------
 Rotational constants (GHZ):      3.0473474      2.3630794      1.7725017
 Standard basis: 6-311++G(d,p) (5D, 7F)
 There are   203 symmetry adapted basis functions of A   symmetry.
 Integral buffers will be    262144 words long.
 Raffenetti 2 integral format.
 Two-electron integral symmetry is turned on.
   203 basis functions,   315 primitive gaussians,   210 cartesian basis functions
    28 alpha electrons       28 beta electrons
[...]
 -------------------------------------------------------------------
 Cartesian Forces:  Max     0.000037054 RMS     0.000010217

 GradGradGradGradGradGradGradGradGradGradGradGradGradGradGradGradGradGrad
 Berny optimization.
 Internal  Forces:  Max     0.000019497 RMS     0.000005291
 Search for a local minimum.
 Step number   1 out of a maximum of    2
 All quantities printed in internal units (Hartrees-Bohrs-Radians)
 Second derivative matrix not updated -- analytic derivatives used.
 ITU=  0
     Eigenvalues ---    0.00147   0.00187   0.00290   0.00399   0.01713
     Eigenvalues ---    0.02903   0.04430   0.04749   0.04858   0.05084
     Eigenvalues ---    0.05535   0.06432   0.09892   0.12361   0.14120
     Eigenvalues ---    0.14336   0.14929   0.15322   0.15842   0.17707
     Eigenvalues ---    0.19918   0.22138   0.24468   0.28380   0.31586
     Eigenvalues ---    0.32229   0.32557   0.33572   0.35262   0.37808
     Eigenvalues ---    0.38687   0.44737   0.45036   0.50752   0.52940
     Eigenvalues ---    0.83822
 Angle between quadratic step and forces=  75.89 degrees.
 Linear search not attempted -- first point.
 Iteration  1 RMS(Cart)=  0.00060608 RMS(Int)=  0.00000040
 Iteration  2 RMS(Cart)=  0.00000041 RMS(Int)=  0.00000000
 Variable       Old X    -DE/DX   Delta X   Delta X   Delta X     New X
                                 (Linear)    (Quad)   (Total)
    R1        1.91954   0.00000   0.00000   0.00001   0.00001   1.91955
    R2        2.76646  -0.00001   0.00000  -0.00009  -0.00009   2.76637
    R3        1.91757   0.00000   0.00000   0.00001   0.00001   1.91758
    R4        2.06216   0.00000   0.00000   0.00000   0.00000   2.06216
    R5        2.89028   0.00000   0.00000   0.00002   0.00002   2.89030
    R6        2.89158   0.00002   0.00000   0.00013   0.00013   2.89171
    R7        2.06799   0.00000   0.00000   0.00000   0.00000   2.06798
    R8        2.07072   0.00000   0.00000   0.00002   0.00002   2.07074
    R9        2.70036   0.00001   0.00000   0.00001   0.00001   2.70037
   R10        2.54758  -0.00001   0.00000  -0.00004  -0.00004   2.54753
   R11        2.28743  -0.00001   0.00000  -0.00002  -0.00002   2.28742
   R12        1.81977   0.00000   0.00000   0.00000   0.00000   1.81978
   R13        1.83386  -0.00002   0.00000  -0.00003  -0.00003   1.83383
    A1        1.93735   0.00000   0.00000  -0.00002  -0.00002   1.93732
    A2        1.87449   0.00000   0.00000  -0.00005  -0.00005   1.87444
    A3        1.93504   0.00000   0.00000   0.00003   0.00003   1.93508
    A4        1.89172   0.00000   0.00000   0.00005   0.00005   1.89177
    A5        1.90417   0.00000   0.00000  -0.00002  -0.00002   1.90415
    A6        1.98162   0.00001   0.00000   0.00021   0.00021   1.98183
    A7        1.89946   0.00000   0.00000   0.00004   0.00004   1.89950
    A8        1.84691   0.00000   0.00000  -0.00008  -0.00008   1.84683
    A9        1.93728  -0.00001   0.00000  -0.00020  -0.00020   1.93709
   A10        1.88782   0.00000   0.00000   0.00004   0.00004   1.88786
   A11        1.91565   0.00000   0.00000  -0.00006  -0.00006   1.91559
   A12        1.88558   0.00001   0.00000   0.00007   0.00007   1.88564
   A13        1.89713   0.00000   0.00000  -0.00002  -0.00002   1.89711
   A14        1.94325   0.00000   0.00000  -0.00002  -0.00002   1.94323
   A15        1.93382   0.00000   0.00000  -0.00001  -0.00001   1.93381
   A16        1.95630   0.00000   0.00000  -0.00002  -0.00002   1.95628
   A17        2.18301   0.00000   0.00000   0.00000   0.00000   2.18301
   A18        2.14349   0.00000   0.00000   0.00002   0.00002   2.14352
   A19        1.89707   0.00000   0.00000  -0.00002  -0.00002   1.89705
   A20        1.89829   0.00000   0.00000   0.00001   0.00001   1.89830
    D1        2.99210   0.00000   0.00000   0.00064   0.00064   2.99274
    D2       -1.22524   0.00001   0.00000   0.00070   0.00070  -1.22454
    D3        0.94538   0.00000   0.00000   0.00057   0.00057   0.94595
    D4        0.91014   0.00000   0.00000   0.00070   0.00070   0.91084
    D5        2.97599   0.00001   0.00000   0.00076   0.00076   2.97675
    D6       -1.13658   0.00000   0.00000   0.00063   0.00063  -1.13595
    D7       -1.05657   0.00000   0.00000  -0.00023  -0.00023  -1.05680
    D8        1.01072   0.00000   0.00000  -0.00026  -0.00026   1.01046
    D9        3.12109   0.00000   0.00000  -0.00027  -0.00027   3.12083
   D10        1.00442   0.00000   0.00000  -0.00016  -0.00016   1.00426
   D11        3.07171   0.00000   0.00000  -0.00019  -0.00019   3.07152
   D12       -1.10110   0.00000   0.00000  -0.00020  -0.00020  -1.10130
   D13        3.03017   0.00000   0.00000  -0.00034  -0.00034   3.02983
   D14       -1.18572   0.00000   0.00000  -0.00037  -0.00037  -1.18610
   D15        0.92465   0.00000   0.00000  -0.00038  -0.00038   0.92427
   D16       -1.05366   0.00000   0.00000   0.00112   0.00112  -1.05254
   D17        2.05881   0.00000   0.00000   0.00126   0.00126   2.06006
   D18       -3.12630   0.00000   0.00000   0.00099   0.00099  -3.12531
   D19       -0.01384   0.00000   0.00000   0.00113   0.00113  -0.01271
   D20        1.09894   0.00000   0.00000   0.00109   0.00109   1.10003
   D21       -2.07178   0.00000   0.00000   0.00123   0.00123  -2.07056
   D22       -3.05874   0.00000   0.00000  -0.00171  -0.00171  -3.06045
   D23        1.15392  -0.00001   0.00000  -0.00179  -0.00179   1.15213
   D24       -0.95971   0.00000   0.00000  -0.00175  -0.00175  -0.96146
   D25        3.10691   0.00000   0.00000   0.00021   0.00021   3.10712
   D26       -0.00632   0.00000   0.00000   0.00007   0.00007  -0.00625
         Item               Value     Threshold  Converged?
 Maximum Force            0.000019     0.000450     YES
 RMS     Force            0.000005     0.000300     YES
 Maximum Displacement     0.002192     0.001800     NO 
 RMS     Displacement     0.000606     0.001200     YES
 Predicted change in Energy=-2.245489D-08
 GradGradGradGradGradGradGradGradGradGradGradGradGradGradGradGradGradGrad

 1|1|UNPC-WIN-20150318OUM|Freq|RB3LYP|6-311++G(d,p)|C3H7N1O3|ADMINISTRA
 TOR|07-Apr-2016|0||#N Geom=AllCheck Guess=TCheck SCRF=Check GenChk RB3
 LYP/6-311++G(d,p) Freq||Ser-S-ts1-p-6-311++gdp||0,1|N,0.1603700984,1.9
 966531334,-0.0823418477|H,-0.1048944898,2.1028139439,0.8924208898|C,0.
 2885800735,0.5829288876,-0.4402375643|H,0.4218633614,0.5121670422,-1.5
 210006261|C,1.5245430682,0.0023387426,0.2486665627|C,-0.9578337352,-0.
 2443414692,-0.118589819|H,2.4015919198,0.5553402584,-0.1013873876|H,1.
 4384555497,0.1304528858,1.3335200338|O,1.6122489114,-1.3823124309,-0.0
 933956109|O,-1.2519288409,-0.2273774976,1.1969504901|H,2.3437210755,-1
 .7750383763,0.3945069401|H,-0.5553874735,2.447883946,-0.6424908263|O,-
 1.6351696021,-0.8277960667,-0.9346809342|H,-2.0642319364,-0.7381822492
 ,1.3418315696||Version=IA32W-G09RevB.01|State=1-A|HF=-399.1056489|RMSD
 =2.577e-009|RMSF=1.022e-005|ZeroPoint=0.1124064|Thermal=0.1204955|Dipo
 le=0.3454667,0.5833464,1.3182707|DipoleDeriv=-0.6392706,-0.1294199,0.0
 473337,-0.1266807,-0.8353957,-0.0107431,0.0430845,-0.035917,-0.3443453
 ,0.2960709,0.096195,0.1027821,0.0602806,0.2234338,0.0713443,0.0578283,
 0.0077977,0.1099351,0.1805554,-0.1217548,-0.0533759,-0.0854334,0.53862
 83,0.0110076,-0.0929833,0.0925589,0.2242683,0.0376385,-0.0084222,-0.00
 10677,-0.0008052,0.0263942,-0.0133867,0.0157958,-0.0277786,-0.1168187,
 0.3944785,-0.1402686,-0.0989613,-0.1382971,0.9957461,0.1083002,-0.0419
 827,0.1229071,0.42287,1.226673,0.6686141,0.0831471,0.6358581,0.6890803
 ,0.3687273,0.0483198,0.3598442,2.3067084,-0.1356886,-0.1197299,0.03828
 06,-0.0621007,-0.0850914,0.0203014,0.0701805,0.0352542,0.0447292,0.053
 8903,0.0340114,0.0411494,0.0349851,-0.0402387,-0.0356758,-0.0016107,-0
 .0776808,-0.1810368,-0.6001302,0.1800984,0.1378931,0.179553,-1.2096875
 ,-0.0499975,0.1270879,-0.0391234,-0.5637311,-0.6125364,-0.0625831,0.42
 71667,-0.0851259,-0.4841653,0.0971436,0.2043051,-0.0302055,-1.6069649,
 0.3105502,0.0080504,-0.0975238,-0.0131943,0.3297321,-0.0408088,-0.0970
 816,-0.0289959,0.3387163,0.1433947,0.1422687,-0.114199,0.0535523,0.235
 6777,-0.0608765,-0.0727503,-0.0611489,0.2012422,-0.9924,-0.4873493,-0.
 4643838,-0.3898561,-0.7543712,-0.4272083,-0.194965,-0.2720068,-1.21620
 08,0.3367743,-0.0597102,-0.0482412,-0.0627358,0.3702572,-0.0381277,-0.
 0652282,-0.0455051,0.3806281|Polar=72.2396679,6.5328566,73.081672,2.20
 80306,3.4467169,71.9334316|PG=C01 [X(C3H7N1O3)]|NImag=0||0.34169964,-0
 .19210532,0.42691108,0.06396295,-0.01091519,0.66979623,-0.05553348,0.0
 3600453,0.12208215,0.05308332,0.02462597,-0.05154785,-0.01228620,-0.02
 748555,0.06119499,0.07913872,-0.03541052,-0.39477430,-0.09293090,0.037
 47769,0.41967941,-0.06194287,0.00334794,-0.00805053,-0.00384437,0.0095
 1377,0.00359829,0.45145873,0.03495403,-0.19521335,-0.03286621,-0.00676
 717,-0.00712924,-0.00034723,-0.00918446,0.44863900,0.00042662,-0.01947
 634,-0.10833755,0.00166338,-0.04023361,-0.00801727,-0.01295806,0.01409
 197,0.64320469,0.00032378,0.00186170,0.00372371,0.00054767,0.00087859,
 0.00012746,-0.05410344,0.00055777,0.03025141,0.06179937,0.00430173,-0.
 00902101,-0.03882506,0.00103352,-0.00626282,-0.00156325,0.00075249,-0.
 04966067,-0.00811520,0.00003987,0.06187139,0.00074235,-0.00419437,-0.0
 0620279,0.00017441,-0.00077522,0.00170813,0.03639918,-0.01099065,-0.30
 772249,-0.03567835,0.01627105,0.33248750,0.00074246,0.00522105,0.00065
 892,0.00014443,-0.00052939,0.00011713,-0.15111940,0.02169787,-0.045042
 27,0.00127384,-0.00147873,-0.00036685,0.54138664,0.02805397,-0.0251436
 0,0.01587873,0.00052671,0.00079564,0.00002814,0.01801061,-0.07260464,0
 .01809513,-0.00112443,0.00058900,-0.00029981,0.04693191,0.46306254,0.0
 0817635,-0.00602193,0.00530489,0.00213511,-0.00142968,0.00103629,-0.04
 138771,0.01642464,-0.11060327,-0.02988118,0.01289816,-0.01551989,-0.02
 665277,-0.01436354,0.57769609,0.01243977,0.00502772,-0.00449079,-0.000
 14604,-0.00083641,-0.00092222,-0.14411134,-0.03148870,0.02546353,-0.00
 455745,-0.00206344,-0.00124087,-0.03693064,-0.00767833,0.00092780,0.60
 102333,-0.02140482,-0.03609223,-0.00005246,-0.00048624,0.00008819,0.00
 032745,-0.01929389,-0.09317624,0.01961357,-0.00025795,0.00135710,-0.00
 145432,0.00576629,0.01939379,-0.00997983,0.26066599,0.42348656,-0.0065
 0397,-0.00687043,0.00182430,-0.00266176,-0.00402915,-0.00039405,0.0217
 8718,0.01996449,-0.08917880,0.02903205,0.01760678,-0.01056562,-0.01363
 357,-0.01155485,0.00709709,0.11744586,0.15045349,0.67613680,0.00232758
 ,-0.00056650,0.00034238,-0.00001401,-0.00009204,-0.00007597,-0.0259479
 9,-0.01189761,0.00913603,0.00141824,-0.00039935,-0.00011073,-0.2188870
 2,-0.09638252,0.07098312,0.00007630,0.00532597,-0.00326917,0.23277069,
 0.00017527,0.00116675,-0.00005937,0.00015480,-0.00003658,0.00007483,0.
 01026876,0.00559678,-0.00370298,-0.00051159,0.00043253,-0.00012272,-0.
 09480406,-0.09981832,0.04128987,0.00117797,-0.00319294,0.00116613,0.10
 716336,0.12496491,0.00106102,-0.00091682,0.00027956,-0.00003750,0.0001
 7675,-0.00002499,-0.01726177,-0.00570426,0.00396608,0.00031555,-0.0008
 1185,0.00106645,0.07479182,0.04153538,-0.08447017,-0.00164437,0.003129
 86,-0.00210297,-0.07439458,-0.04283975,0.08309234,0.00137817,-0.001617
 09,0.00092304,-0.00020848,0.00062713,0.00038686,0.00052912,-0.00128218
 ,-0.02937132,-0.00386431,0.00217879,-0.00215123,-0.05559388,-0.0002042
 0,0.02308567,0.00205343,-0.00006943,-0.00152026,-0.00073074,0.00081638
 ,0.02621550,0.05404644,-0.00070627,0.00120977,0.00011718,0.00044140,-0
 .00022504,-0.00012911,-0.00114720,0.00141072,0.01284552,0.00277385,-0.
 00078392,0.00076982,0.00094309,-0.04947906,-0.01219425,-0.00056062,-0.
 00006950,-0.00030489,-0.00092123,0.00403055,0.01390032,-0.00408985,0.0
 6436181,0.00024251,-0.00008486,0.00131933,-0.00054794,0.00094372,0.000
 06995,0.00060956,-0.00065428,-0.01628945,-0.00244075,0.00084499,0.0002
 2895,0.02053903,-0.01695394,-0.29673418,0.00129920,0.00068223,-0.00167
 186,0.00072954,0.00026320,-0.00960010,-0.02156253,0.02622367,0.3216405
 8,-0.00613090,0.00531081,-0.00465076,-0.00008783,-0.00021293,-0.000215
 45,0.00196190,0.03269611,0.01003746,0.00129059,-0.00052780,0.00050715,
 -0.08189490,0.02049804,-0.01067467,0.00314427,-0.00104812,0.00137817,0
 .01000570,-0.02397181,-0.00921672,0.00252090,0.00452826,0.00145847,0.3
 7793127,0.00585841,-0.00369172,0.00385703,-0.00006371,0.00027180,0.000
 25465,0.00388752,-0.02677306,-0.00657471,-0.00120728,0.00107690,0.0001
 9481,-0.01114430,-0.19933749,-0.05012334,-0.00345976,-0.00251735,0.000
 54068,0.00103744,-0.03612137,-0.00742355,0.00380003,-0.02254500,-0.010
 51139,-0.16781316,0.39735861,-0.00361367,0.00320716,-0.00148399,-0.000
 59112,0.00051843,-0.00009505,0.00153494,0.01526460,0.00725695,0.001578
 12,-0.00032211,0.00121313,-0.02092919,-0.02291564,-0.08494292,0.000885
 17,-0.00024088,-0.00079493,-0.00290793,0.00479031,0.00677780,0.0022051
 3,-0.04048337,-0.00220229,0.22573119,-0.03370633,0.22100110,-0.0019111
 8,-0.00334864,0.00048947,0.00056187,0.00054997,0.00046339,-0.00461568,
 -0.00252036,0.03549455,-0.00563646,-0.00420165,0.00209652,0.00097249,-
 0.00164100,0.00115518,-0.12103367,-0.03251703,0.05040293,-0.00054143,0
 .00034876,0.00028708,-0.00040431,0.00018118,0.00061205,-0.00121257,0.0
 0101567,0.00009772,0.44997685,-0.00127019,0.00032109,0.00098578,0.0003
 0158,0.00057679,0.00104976,-0.01065961,0.00538327,0.01929188,-0.003769
 35,-0.00183314,0.00120600,-0.00075236,-0.00259394,0.00178043,-0.032133
 06,-0.08247665,0.00795281,-0.00072795,0.00056356,-0.00031706,0.0000630
 5,0.00006146,-0.00001071,0.00065884,0.00080251,-0.00038830,0.25853264,
 0.20809750,0.00201408,0.00159093,-0.00000393,-0.00016894,0.00036667,0.
 00019868,0.00820652,0.00040779,-0.01707142,0.00227529,0.00156094,0.000
 02720,-0.00074977,0.00271378,-0.00261376,0.03759659,0.00032317,-0.2229
 5314,0.00077167,-0.00046116,0.00080542,0.00034702,-0.00019362,0.001045
 47,0.00037738,-0.00093061,0.00047440,-0.08907456,-0.00230504,0.3949913
 4,0.00004234,-0.00033002,-0.00052412,-0.00005491,0.00000614,0.00000232
 ,0.00044495,0.00117066,0.00098426,0.00005532,-0.00012097,0.00000922,-0
 .00154209,-0.00418411,-0.00084706,0.00026820,-0.00059651,-0.00017277,0
 .00073891,-0.00106441,0.00000508,0.00032167,-0.00143225,-0.00056754,-0
 .30576705,0.16533898,-0.20280394,0.00011465,0.00002289,-0.00004958,0.3
 0511397,0.00163331,-0.00095478,0.00112004,0.00006429,-0.00005065,-0.00
 000154,-0.00219422,-0.00552239,-0.00305042,-0.00037757,0.00015361,-0.0
 0003133,0.03303970,-0.02092471,0.02120809,0.00021675,-0.00041756,-0.00
 035216,-0.00018713,0.00097720,0.00082362,0.00024282,0.00183747,-0.0004
 2335,0.12681573,-0.10912624,0.07274829,-0.00007054,0.00007659,0.000053
 27,-0.15928189,0.13421106,0.00047946,-0.00069662,0.00086864,-0.0000557
 4,0.00015373,0.00002328,0.00025911,-0.00174984,-0.00084114,0.00014778,
 -0.00011517,0.00037576,0.01076445,-0.00956053,0.00368663,-0.00048560,-
 0.00021543,-0.00019330,-0.00055649,-0.00058455,-0.00005374,0.00066999,
 -0.00049177,0.00085240,-0.21529775,0.10519768,-0.14810188,0.00011075,-
 0.00000666,-0.00000503,0.20374195,-0.09182249,0.14330376,-0.22540636,0
 .15117781,-0.17406485,0.00506991,-0.00740665,0.00990170,-0.00468550,-0
 .00726055,-0.00004939,0.00006582,-0.00004598,0.00012960,0.00065457,0.0
 0152060,0.00130723,0.00130404,-0.00154947,0.00073011,0.00042265,-0.000
 15900,0.00015219,0.00008930,-0.00018393,-0.00008777,-0.00058281,0.0007
 8655,-0.00063835,-0.00019904,0.00007219,-0.00003219,0.00015420,0.00025
 035,0.00005219,0.22289122,0.11547725,-0.10758822,0.07236827,-0.0040157
 0,0.00193102,-0.00192403,0.02603471,-0.01990737,0.02061160,-0.00019296
 ,0.00156079,-0.00033438,-0.00259474,-0.00452779,-0.00308107,0.00054698
 ,-0.00058605,0.00139677,0.00015777,0.00013186,-0.00012036,-0.00027214,
 0.00002384,0.00002835,0.00194613,-0.00095904,0.00095806,-0.00009750,0.
 00015862,-0.00014162,0.00011292,-0.00044334,-0.00026589,-0.13771945,0.
 13012855,-0.14388687,0.08187280,-0.17060498,-0.02976517,0.01718167,-0.
 02005480,0.00972464,-0.00640830,0.00730306,0.00042286,0.00007661,0.000
 55425,-0.00058167,-0.00187980,-0.00064526,0.00102094,0.00054909,-0.000
 12434,-0.00017665,-0.00003385,-0.00014103,0.00017491,0.00001202,0.0004
 2217,0.00095686,-0.00134003,0.00067594,-0.00005578,-0.00010176,0.00008
 927,0.00003884,-0.00032175,-0.00004358,0.16281411,-0.08944149,0.182847
 12,-0.00830765,-0.00978913,0.00027569,0.00060479,0.00058103,0.00067777
 ,-0.00717778,-0.02103717,-0.02808948,0.00158815,0.00079853,-0.00056631
 ,0.00036058,-0.00439145,0.00192831,-0.30196248,-0.18699491,-0.20547881
 ,-0.00177699,0.00047435,-0.00033376,-0.00019431,0.00014449,-0.00029663
 ,-0.00139393,0.00194349,-0.00056714,0.03035683,-0.00174073,-0.02424724
 ,0.00008875,-0.00020553,0.00018954,0.00019455,0.00063737,-0.00071764,0
 .28901503,-0.00027838,-0.00146975,0.00039077,0.00021970,0.00017613,0.0
 0022755,-0.02811796,0.00596165,-0.02283803,0.00141267,0.00031525,-0.00
 012723,-0.00199398,-0.00929719,0.00361475,-0.18803909,-0.22856030,-0.1
 8122325,-0.00250284,0.00131310,-0.00122430,-0.00008110,0.00019544,-0.0
 0024121,0.00107210,0.00154617,0.00059107,-0.00185458,0.02020317,-0.038
 39935,0.00037513,0.00019061,0.00015552,0.00053482,0.00015892,-0.000251
 79,0.21801138,0.21384757,-0.00162391,-0.00163372,0.00145188,0.00065237
 ,0.00129080,0.00053789,-0.00264846,-0.00522108,0.00305395,-0.00116992,
 -0.00028035,0.00258864,0.00138620,-0.00056251,0.00099824,-0.22454494,-
 0.19239572,-0.34261328,-0.00040221,0.00019476,0.00015967,0.00031901,-0
 .00003889,0.00052855,-0.00019946,0.00043933,0.00011734,-0.02676068,-0.
 03957148,-0.10577305,0.00016962,0.00010481,0.00011985,-0.00018332,-0.0
 0014360,-0.00031118,0.26219528,0.24057917,0.43197350,0.00027870,-0.000
 19487,-0.00067725,-0.00012288,-0.00021966,-0.00026911,0.00315366,0.000
 36176,0.00205328,-0.00020113,-0.00026701,0.00005589,0.00043294,0.00006
 420,-0.00025538,-0.01156774,-0.00753987,0.01246402,0.00013811,-0.00006
 877,0.00006045,0.00005699,0.00002906,0.00001279,0.00021535,0.00002011,
 0.00001906,-0.34642834,-0.20859794,0.06273373,0.00002107,0.00005392,-0
 .00001966,0.00002744,-0.00002064,0.00003062,-0.00139553,0.00124211,-0.
 00718958,0.35539136,0.00068504,0.00111382,0.00028670,0.00007185,0.0002
 1762,-0.00006439,-0.00121848,0.00299555,-0.00055838,-0.00008331,0.0002
 0499,-0.00011164,-0.00030236,-0.00011425,-0.00002231,-0.00137602,0.002
 76318,0.00525358,-0.00000738,-0.00000803,-0.00020798,-0.00011222,-0.00
 002853,-0.00010643,0.00004778,0.00001528,-0.00002129,-0.21437692,-0.14
 934081,0.03541485,-0.00001657,-0.00000686,0.00000201,-0.00001728,-0.00
 008179,0.00008658,0.00156827,-0.00458077,-0.00276151,0.21513759,0.1468
 5062,-0.00061564,-0.00045007,0.00056270,0.00005165,0.00064441,0.000106
 83,0.00018712,-0.00221165,-0.00672334,0.00129595,0.00077446,-0.0002392
 2,-0.00030145,-0.00016055,-0.00028979,0.04868970,0.02925978,-0.0144659
 1,-0.00006903,0.00002528,0.00024569,0.00027819,-0.00003262,0.00039048,
 -0.00019188,0.00012579,0.00010440,0.02468136,0.01043433,-0.04921146,0.
 00001372,-0.00005507,0.00000835,-0.00003127,0.00008940,0.00003336,-0.0
 0496957,-0.00125367,0.00716800,-0.06901885,-0.03718981,0.06230991||-0.
 00000349,0.00000957,0.00000917,0.00000422,0.00000105,-0.00000480,-0.00
 002042,-0.00003705,-0.00000466,0.00000220,-0.00000048,-0.00000064,0.00
 001346,-0.00000216,0.00000072,0.00001914,0.00002726,-0.00000480,-0.000
 00270,-0.00000213,-0.00000599,0.00000341,-0.00000350,-0.00000265,-0.00
 000528,0.00000569,-0.00000382,0.00001049,0.00000924,0.00001406,-0.0000
 0694,-0.00000292,0.00000208,0.00000817,-0.00000183,-0.00000434,-0.0000
 0964,-0.00000045,-0.00000212,-0.00001261,-0.00000228,0.00000777|||@


 In the race for quality, there is no finish line.
                               -- David T. Kearns
 Job cpu time:  0 days  0 hours 27 minutes 21.0 seconds.
 File lengths (MBytes):  RWF=     77 Int=      0 D2E=      0 Chk=      7 Scr=      1
 Normal termination of Gaussian 09 at Thu Apr 07 15:28:34 2016.
