 Entering Gaussian System, Link 0=g09
 Input=/root/gau/amiano/Phe/opt-rs/r/Phe-R-opt-freq-6-311gdp.com
 Output=/root/gau/amiano/Phe/opt-rs/r/Phe-R-opt-freq-6-311gdp.log
 Initial command:
 /usr/local/gau/g09/l1.exe "/tmp/Gau-3579.inp" -scrdir="/tmp/"
 Entering Link 1 = /usr/local/gau/g09/l1.exe PID=      3582.
  
 Copyright (c) 1988,1990,1992,1993,1995,1998,2003,2009,2013,
            Gaussian, Inc.  All Rights Reserved.
  
 This is part of the Gaussian(R) 09 program.  It is based on
 the Gaussian(R) 03 system (copyright 2003, Gaussian, Inc.),
 the Gaussian(R) 98 system (copyright 1998, Gaussian, Inc.),
 the Gaussian(R) 94 system (copyright 1995, Gaussian, Inc.),
 the Gaussian 92(TM) system (copyright 1992, Gaussian, Inc.),
 the Gaussian 90(TM) system (copyright 1990, Gaussian, Inc.),
 the Gaussian 88(TM) system (copyright 1988, Gaussian, Inc.),
 the Gaussian 86(TM) system (copyright 1986, Carnegie Mellon
 University), and the Gaussian 82(TM) system (copyright 1983,
 Carnegie Mellon University). Gaussian is a federally registered
 trademark of Gaussian, Inc.
  
 This software contains proprietary and confidential information,
 including trade secrets, belonging to Gaussian, Inc.
  
 This software is provided under written license and may be
 used, copied, transmitted, or stored only in accord with that
 written license.
  
 The following legend is applicable only to US Government
 contracts under FAR:
  
                    RESTRICTED RIGHTS LEGEND
  
 Use, reproduction and disclosure by the US Government is
 subject to restrictions as set forth in subparagraphs (a)
 and (c) of the Commercial Computer Software - Restricted
 Rights clause in FAR 52.227-19.
  
 Gaussian, Inc.
 340 Quinnipiac St., Bldg. 40, Wallingford CT 06492
  
  
 ---------------------------------------------------------------
 Warning -- This program may not be used in any manner that
 competes with the business of Gaussian, Inc. or will provide
 assistance to any competitor of Gaussian, Inc.  The licensee
 of this program is prohibited from giving any competitor of
 Gaussian, Inc. access to this program.  By using this program,
 the user acknowledges that Gaussian, Inc. is engaged in the
 business of creating and licensing software in the field of
 computational chemistry and represents and warrants to the
 licensee that it is not a competitor of Gaussian, Inc. and that
 it will not use this program in any manner prohibited above.
 ---------------------------------------------------------------
  

 Cite this work as:
 Gaussian 09, Revision D.01,
 M. J. Frisch, G. W. Trucks, H. B. Schlegel, G. E. Scuseria, 
 M. A. Robb, J. R. Cheeseman, G. Scalmani, V. Barone, B. Mennucci, 
 G. A. Petersson, H. Nakatsuji, M. Caricato, X. Li, H. P. Hratchian, 
 A. F. Izmaylov, J. Bloino, G. Zheng, J. L. Sonnenberg, M. Hada, 
 M. Ehara, K. Toyota, R. Fukuda, J. Hasegawa, M. Ishida, T. Nakajima, 
 Y. Honda, O. Kitao, H. Nakai, T. Vreven, J. A. Montgomery, Jr., 
 J. E. Peralta, F. Ogliaro, M. Bearpark, J. J. Heyd, E. Brothers, 
 K. N. Kudin, V. N. Staroverov, T. Keith, R. Kobayashi, J. Normand, 
 K. Raghavachari, A. Rendell, J. C. Burant, S. S. Iyengar, J. Tomasi, 
 M. Cossi, N. Rega, J. M. Millam, M. Klene, J. E. Knox, J. B. Cross, 
 V. Bakken, C. Adamo, J. Jaramillo, R. Gomperts, R. E. Stratmann, 
 O. Yazyev, A. J. Austin, R. Cammi, C. Pomelli, J. W. Ochterski, 
 R. L. Martin, K. Morokuma, V. G. Zakrzewski, G. A. Voth, 
 P. Salvador, J. J. Dannenberg, S. Dapprich, A. D. Daniels, 
 O. Farkas, J. B. Foresman, J. V. Ortiz, J. Cioslowski, 
 and D. J. Fox, Gaussian, Inc., Wallingford CT, 2013.
 
 ******************************************
 Gaussian 09:  ES64L-G09RevD.01 24-Apr-2013
                29-Mar-2016 
 ******************************************
 %chk=Phe-R-opt-freq-6-311gdp.chk
 ------------------------------
 # opt freq b3lyp/6-311++g(d,p)
 ------------------------------
 1/14=-1,18=20,19=15,26=3,38=1/1,3;
 2/9=110,12=2,17=6,18=5,40=1/2;
 3/5=4,6=6,7=1111,11=2,16=1,25=1,30=1,71=1,74=-5/1,2,3;
 4//1;
 5/5=2,38=5/2;
 6/7=2,8=2,9=2,10=2,28=1/1;
 7//1,2,3,16;
 1/14=-1,18=20,19=15,26=3/3(2);
 2/9=110/2;
 99//99;
 2/9=110/2;
 3/5=4,6=6,7=1111,11=2,16=1,25=1,30=1,71=1,74=-5/1,2,3;
 4/5=5,16=3,69=1/1;
 5/5=2,38=5/2;
 7//1,2,3,16;
 1/14=-1,18=20,19=15,26=3/3(-5);
 2/9=110/2;
 6/7=2,8=2,9=2,10=2,19=2,28=1/1;
 99/9=1/99;
 -----------------------------
 Phe-R-opt-freq--6-311++g(d,p)
 -----------------------------
 Symbolic Z-matrix:
 Charge =  0 Multiplicity = 1
 C                     1.37087  -0.12147   0.44953 
 H                     1.03165   0.51079   1.27216 
 C                     2.77721   0.37226   0.10946 
 O                     3.24652   1.43196   0.44124 
 O                     3.46331  -0.52015  -0.65278 
 H                     4.32816  -0.12873  -0.84748 
 C                     0.44619   0.13073  -0.77352 
 H                     0.69705   1.10525  -1.20286 
 H                     0.6755   -0.62137  -1.53495 
 C                    -1.02457   0.10479  -0.42534 
 C                    -1.74216  -1.09527  -0.38096 
 C                    -1.69684   1.29503  -0.12492 
 C                    -3.09419  -1.10514  -0.04419 
 H                    -1.23515  -2.02683  -0.60262 
 C                    -3.04881   1.28907   0.21376 
 H                    -1.15818   2.23717  -0.16122 
 C                    -3.75229   0.08676   0.25535 
 H                    -3.6342   -2.04522  -0.01574 
 H                    -3.55217   2.22277   0.43941 
 H                    -4.80487   0.07904   0.51545 
 N                     1.29524  -1.51438   0.8775 
 H                     1.77688  -2.122     0.22254 
 H                     1.7175   -1.64518   1.79012 
 

 GradGradGradGradGradGradGradGradGradGradGradGradGradGradGradGradGradGrad
 Berny optimization.
 Initialization pass.
                           ----------------------------
                           !    Initial Parameters    !
                           ! (Angstroms and Degrees)  !
 --------------------------                            --------------------------
 ! Name  Definition              Value          Derivative Info.                !
 --------------------------------------------------------------------------------
 ! R1    R(1,2)                  1.0916         estimate D2E/DX2                !
 ! R2    R(1,3)                  1.5288         estimate D2E/DX2                !
 ! R3    R(1,7)                  1.5539         estimate D2E/DX2                !
 ! R4    R(1,21)                 1.4591         estimate D2E/DX2                !
 ! R5    R(3,4)                  1.2055         estimate D2E/DX2                !
 ! R6    R(3,5)                  1.3595         estimate D2E/DX2                !
 ! R7    R(5,6)                  0.9691         estimate D2E/DX2                !
 ! R8    R(7,8)                  1.094          estimate D2E/DX2                !
 ! R9    R(7,9)                  1.0945         estimate D2E/DX2                !
 ! R10   R(7,10)                 1.5116         estimate D2E/DX2                !
 ! R11   R(10,11)                1.399          estimate D2E/DX2                !
 ! R12   R(10,12)                1.3996         estimate D2E/DX2                !
 ! R13   R(11,13)                1.3934         estimate D2E/DX2                !
 ! R14   R(11,14)                1.0835         estimate D2E/DX2                !
 ! R15   R(12,15)                1.3938         estimate D2E/DX2                !
 ! R16   R(12,16)                1.0859         estimate D2E/DX2                !
 ! R17   R(13,17)                1.3941         estimate D2E/DX2                !
 ! R18   R(13,18)                1.0845         estimate D2E/DX2                !
 ! R19   R(15,17)                1.3936         estimate D2E/DX2                !
 ! R20   R(15,19)                1.0845         estimate D2E/DX2                !
 ! R21   R(17,20)                1.0843         estimate D2E/DX2                !
 ! R22   R(21,22)                1.015          estimate D2E/DX2                !
 ! R23   R(21,23)                1.014          estimate D2E/DX2                !
 ! A1    A(2,1,3)              105.4534         estimate D2E/DX2                !
 ! A2    A(2,1,7)              108.3143         estimate D2E/DX2                !
 ! A3    A(2,1,21)             108.4077         estimate D2E/DX2                !
 ! A4    A(3,1,7)              108.6577         estimate D2E/DX2                !
 ! A5    A(3,1,21)             114.9119         estimate D2E/DX2                !
 ! A6    A(7,1,21)             110.7906         estimate D2E/DX2                !
 ! A7    A(1,3,4)              125.5055         estimate D2E/DX2                !
 ! A8    A(1,3,5)              112.1471         estimate D2E/DX2                !
 ! A9    A(4,3,5)              122.3354         estimate D2E/DX2                !
 ! A10   A(3,5,6)              107.3324         estimate D2E/DX2                !
 ! A11   A(1,7,8)              108.4821         estimate D2E/DX2                !
 ! A12   A(1,7,9)              108.1408         estimate D2E/DX2                !
 ! A13   A(1,7,10)             113.2604         estimate D2E/DX2                !
 ! A14   A(8,7,9)              106.92           estimate D2E/DX2                !
 ! A15   A(8,7,10)             109.1941         estimate D2E/DX2                !
 ! A16   A(9,7,10)             110.627          estimate D2E/DX2                !
 ! A17   A(7,10,11)            121.4067         estimate D2E/DX2                !
 ! A18   A(7,10,12)            120.1451         estimate D2E/DX2                !
 ! A19   A(11,10,12)           118.4451         estimate D2E/DX2                !
 ! A20   A(10,11,13)           120.762          estimate D2E/DX2                !
 ! A21   A(10,11,14)           119.4068         estimate D2E/DX2                !
 ! A22   A(13,11,14)           119.8287         estimate D2E/DX2                !
 ! A23   A(10,12,15)           120.9609         estimate D2E/DX2                !
 ! A24   A(10,12,16)           119.4984         estimate D2E/DX2                !
 ! A25   A(15,12,16)           119.5399         estimate D2E/DX2                !
 ! A26   A(11,13,17)           120.261          estimate D2E/DX2                !
 ! A27   A(11,13,18)           119.7117         estimate D2E/DX2                !
 ! A28   A(17,13,18)           120.0273         estimate D2E/DX2                !
 ! A29   A(12,15,17)           120.0394         estimate D2E/DX2                !
 ! A30   A(12,15,19)           119.8094         estimate D2E/DX2                !
 ! A31   A(17,15,19)           120.1504         estimate D2E/DX2                !
 ! A32   A(13,17,15)           119.5315         estimate D2E/DX2                !
 ! A33   A(13,17,20)           120.247          estimate D2E/DX2                !
 ! A34   A(15,17,20)           120.2212         estimate D2E/DX2                !
 ! A35   A(1,21,22)            110.9539         estimate D2E/DX2                !
 ! A36   A(1,21,23)            111.4392         estimate D2E/DX2                !
 ! A37   A(22,21,23)           107.8146         estimate D2E/DX2                !
 ! D1    D(2,1,3,4)            -17.0038         estimate D2E/DX2                !
 ! D2    D(2,1,3,5)            164.2358         estimate D2E/DX2                !
 ! D3    D(7,1,3,4)             98.9372         estimate D2E/DX2                !
 ! D4    D(7,1,3,5)            -79.8232         estimate D2E/DX2                !
 ! D5    D(21,1,3,4)          -136.3197         estimate D2E/DX2                !
 ! D6    D(21,1,3,5)            44.9199         estimate D2E/DX2                !
 ! D7    D(2,1,7,8)             73.9756         estimate D2E/DX2                !
 ! D8    D(2,1,7,9)           -170.4028         estimate D2E/DX2                !
 ! D9    D(2,1,7,10)           -47.4233         estimate D2E/DX2                !
 ! D10   D(3,1,7,8)            -40.1039         estimate D2E/DX2                !
 ! D11   D(3,1,7,9)             75.5177         estimate D2E/DX2                !
 ! D12   D(3,1,7,10)          -161.5027         estimate D2E/DX2                !
 ! D13   D(21,1,7,8)          -167.2433         estimate D2E/DX2                !
 ! D14   D(21,1,7,9)           -51.6217         estimate D2E/DX2                !
 ! D15   D(21,1,7,10)           71.3579         estimate D2E/DX2                !
 ! D16   D(2,1,21,22)         -168.2784         estimate D2E/DX2                !
 ! D17   D(2,1,21,23)          -48.124          estimate D2E/DX2                !
 ! D18   D(3,1,21,22)          -50.6199         estimate D2E/DX2                !
 ! D19   D(3,1,21,23)           69.5344         estimate D2E/DX2                !
 ! D20   D(7,1,21,22)           72.997          estimate D2E/DX2                !
 ! D21   D(7,1,21,23)         -166.8487         estimate D2E/DX2                !
 ! D22   D(1,3,5,6)            178.3709         estimate D2E/DX2                !
 ! D23   D(4,3,5,6)             -0.4348         estimate D2E/DX2                !
 ! D24   D(1,7,10,11)          -85.2637         estimate D2E/DX2                !
 ! D25   D(1,7,10,12)           94.0853         estimate D2E/DX2                !
 ! D26   D(8,7,10,11)          153.7386         estimate D2E/DX2                !
 ! D27   D(8,7,10,12)          -26.9124         estimate D2E/DX2                !
 ! D28   D(9,7,10,11)           36.3313         estimate D2E/DX2                !
 ! D29   D(9,7,10,12)         -144.3197         estimate D2E/DX2                !
 ! D30   D(7,10,11,13)         179.2955         estimate D2E/DX2                !
 ! D31   D(7,10,11,14)          -0.1307         estimate D2E/DX2                !
 ! D32   D(12,10,11,13)         -0.0642         estimate D2E/DX2                !
 ! D33   D(12,10,11,14)       -179.4905         estimate D2E/DX2                !
 ! D34   D(7,10,12,15)        -179.2352         estimate D2E/DX2                !
 ! D35   D(7,10,12,16)           1.0769         estimate D2E/DX2                !
 ! D36   D(11,10,12,15)          0.1329         estimate D2E/DX2                !
 ! D37   D(11,10,12,16)       -179.555          estimate D2E/DX2                !
 ! D38   D(10,11,13,17)         -0.0479         estimate D2E/DX2                !
 ! D39   D(10,11,13,18)        179.954          estimate D2E/DX2                !
 ! D40   D(14,11,13,17)        179.3759         estimate D2E/DX2                !
 ! D41   D(14,11,13,18)         -0.6222         estimate D2E/DX2                !
 ! D42   D(10,12,15,17)         -0.0894         estimate D2E/DX2                !
 ! D43   D(10,12,15,19)       -179.7661         estimate D2E/DX2                !
 ! D44   D(16,12,15,17)        179.5983         estimate D2E/DX2                !
 ! D45   D(16,12,15,19)         -0.0783         estimate D2E/DX2                !
 ! D46   D(11,13,17,15)          0.0929         estimate D2E/DX2                !
 ! D47   D(11,13,17,20)        179.8776         estimate D2E/DX2                !
 ! D48   D(18,13,17,15)       -179.909          estimate D2E/DX2                !
 ! D49   D(18,13,17,20)         -0.1243         estimate D2E/DX2                !
 ! D50   D(12,15,17,13)         -0.0249         estimate D2E/DX2                !
 ! D51   D(12,15,17,20)       -179.8096         estimate D2E/DX2                !
 ! D52   D(19,15,17,13)        179.6506         estimate D2E/DX2                !
 ! D53   D(19,15,17,20)         -0.1341         estimate D2E/DX2                !
 --------------------------------------------------------------------------------
 Trust Radius=3.00D-01 FncErr=1.00D-07 GrdErr=1.00D-06
 Number of steps in this run=    123 maximum allowed number of steps=    138.
 GradGradGradGradGradGradGradGradGradGradGradGradGradGradGradGradGradGrad

                          Input orientation:                          
 ---------------------------------------------------------------------
 Center     Atomic      Atomic             Coordinates (Angstroms)
 Number     Number       Type             X           Y           Z
 ---------------------------------------------------------------------
      1          6           0        1.370873   -0.121471    0.449530
      2          1           0        1.031649    0.510785    1.272159
      3          6           0        2.777210    0.372255    0.109456
      4          8           0        3.246523    1.431957    0.441243
      5          8           0        3.463309   -0.520150   -0.652783
      6          1           0        4.328156   -0.128730   -0.847482
      7          6           0        0.446191    0.130734   -0.773521
      8          1           0        0.697048    1.105252   -1.202857
      9          1           0        0.675502   -0.621374   -1.534948
     10          6           0       -1.024566    0.104792   -0.425337
     11          6           0       -1.742160   -1.095273   -0.380958
     12          6           0       -1.696838    1.295030   -0.124918
     13          6           0       -3.094189   -1.105141   -0.044190
     14          1           0       -1.235146   -2.026826   -0.602618
     15          6           0       -3.048809    1.289071    0.213755
     16          1           0       -1.158175    2.237168   -0.161220
     17          6           0       -3.752291    0.086759    0.255349
     18          1           0       -3.634203   -2.045219   -0.015737
     19          1           0       -3.552168    2.222766    0.439412
     20          1           0       -4.804874    0.079037    0.515450
     21          7           0        1.295236   -1.514383    0.877501
     22          1           0        1.776877   -2.121998    0.222538
     23          1           0        1.717501   -1.645181    1.790121
 ---------------------------------------------------------------------
                    Distance matrix (angstroms):
                    1          2          3          4          5
     1  C    0.000000
     2  H    1.091576   0.000000
     3  C    1.528790   2.101916   0.000000
     4  O    2.435420   2.538631   1.205531   0.000000
     5  O    2.398401   3.268210   1.359458   2.248246   0.000000
     6  H    3.229213   3.970997   1.890013   2.294883   0.969060
     7  C    1.553865   2.161482   2.504322   3.318236   3.088888
     8  H    2.165473   2.567305   2.566422   3.051168   3.255259
     9  H    2.161388   3.047700   2.847550   3.838183   2.925804
    10  C    2.560218   2.697099   3.848511   4.555714   4.536883
    11  C    3.365854   3.606416   4.776908   5.652421   5.244193
    12  C    3.427436   3.164096   4.574227   4.977560   5.495511
    13  C    4.598711   4.622394   6.056371   6.846688   6.611609
    14  H    3.395398   3.884922   4.728810   5.756577   4.934376
    15  C    4.645300   4.286734   5.898638   6.301061   6.814092
    16  H    3.511734   3.135331   4.363304   4.518041   5.403938
    17  C    5.131070   4.909153   6.537368   7.129342   7.297803
    18  H    5.382199   5.473756   6.853180   7.722951   7.287410
    19  H    5.452695   4.963439   6.602597   6.844529   7.611399
    20  H    6.179353   5.901188   7.598606   8.164612   8.371777
    21  N    1.459138   2.080033   2.519036   3.560725   2.833868
    22  H    2.053892   2.930634   2.689749   3.852050   2.485187
    23  H    2.058890   2.320963   2.831548   3.691363   3.206450
                    6          7          8          9         10
     6  H    0.000000
     7  C    3.891329   0.000000
     8  H    3.851487   1.094049   0.000000
     9  H    3.749292   1.094541   1.758404   0.000000
    10  C    5.374418   1.511632   2.137618   2.156104   0.000000
    11  C    6.164462   2.538913   3.386379   2.720545   1.398952
    12  C    6.232956   2.523657   2.632234   3.359879   1.399596
    13  C    7.529267   3.820157   4.538923   4.082519   2.427458
    14  H    5.883286   2.740651   3.728750   2.548551   2.149318
    15  C    7.586567   3.812018   4.008993   4.536326   2.430744
    16  H    6.014005   2.717714   2.409999   3.663436   2.152821
    17  C    8.158204   4.322934   4.791692   4.828247   2.811431
    18  H    8.231883   4.686003   5.485841   4.786324   3.405954
    19  H    8.323769   4.672759   4.690599   5.464469   3.409161
    20  H    9.236503   5.407199   5.854643   5.893151   3.895699
    21  N    3.754225   2.480557   3.398265   2.646024   3.114578
    22  H    3.409851   2.799582   3.689570   2.560011   3.636814
    23  H    4.009001   3.367843   4.190957   3.631808   3.935682
                   11         12         13         14         15
    11  C    0.000000
    12  C    2.404404   0.000000
    13  C    1.393374   2.778476   0.000000
    14  H    1.083507   3.387637   2.148810   0.000000
    15  C    2.783184   1.393758   2.408495   3.866654   0.000000
    16  H    3.390352   1.085864   3.864308   4.287470   2.148020
    17  C    2.417170   2.414417   1.394076   3.396965   1.393618
    18  H    2.148397   3.862974   1.084514   2.469867   3.393058
    19  H    3.867624   2.149747   3.393903   4.951106   1.084471
    20  H    3.400407   3.398323   2.154511   4.292749   2.153826
    21  N    3.314385   4.224944   4.503781   2.975934   5.212546
    22  H    3.715103   4.885028   4.983214   3.124456   5.909544
    23  H    4.121315   4.895909   5.177712   3.819552   5.814850
                   16         17         18         19         20
    16  H    0.000000
    17  C    3.395177   0.000000
    18  H    4.948810   2.152385   0.000000
    19  H    2.468232   2.153243   4.292969   0.000000
    20  H    4.291133   1.084271   2.482961   2.484075   0.000000
    21  N    4.601337   5.331816   5.037760   6.136410   6.315173
    22  H    5.269168   5.954106   5.416868   6.879152   6.946208
    23  H    5.210554   5.939172   5.662322   6.674941   6.865791
                   21         22         23
    21  N    0.000000
    22  H    1.014963   0.000000
    23  H    1.014047   1.639572   0.000000
 Stoichiometry    C9H11NO2
 Framework group  C1[X(C9H11NO2)]
 Deg. of freedom    63
 Full point group                 C1      NOp   1
 Largest Abelian subgroup         C1      NOp   1
 Largest concise Abelian subgroup C1      NOp   1
                         Standard orientation:                         
 ---------------------------------------------------------------------
 Center     Atomic      Atomic             Coordinates (Angstroms)
 Number     Number       Type             X           Y           Z
 ---------------------------------------------------------------------
      1          6           0        1.370873   -0.121471    0.449530
      2          1           0        1.031649    0.510785    1.272159
      3          6           0        2.777210    0.372255    0.109456
      4          8           0        3.246523    1.431957    0.441243
      5          8           0        3.463309   -0.520150   -0.652783
      6          1           0        4.328156   -0.128730   -0.847482
      7          6           0        0.446191    0.130734   -0.773521
      8          1           0        0.697048    1.105252   -1.202857
      9          1           0        0.675502   -0.621374   -1.534948
     10          6           0       -1.024566    0.104792   -0.425337
     11          6           0       -1.742160   -1.095273   -0.380958
     12          6           0       -1.696838    1.295030   -0.124918
     13          6           0       -3.094189   -1.105141   -0.044190
     14          1           0       -1.235146   -2.026826   -0.602618
     15          6           0       -3.048809    1.289071    0.213755
     16          1           0       -1.158175    2.237168   -0.161220
     17          6           0       -3.752291    0.086759    0.255349
     18          1           0       -3.634203   -2.045219   -0.015737
     19          1           0       -3.552168    2.222766    0.439412
     20          1           0       -4.804874    0.079037    0.515450
     21          7           0        1.295236   -1.514383    0.877501
     22          1           0        1.776877   -2.121998    0.222538
     23          1           0        1.717501   -1.645181    1.790121
 ---------------------------------------------------------------------
 Rotational constants (GHZ):      2.3582077      0.4570245      0.4116528
 Standard basis: 6-311++G(d,p) (5D, 7F)
 There are   353 symmetry adapted cartesian basis functions of A   symmetry.
 There are   341 symmetry adapted basis functions of A   symmetry.
   341 basis functions,   531 primitive gaussians,   353 cartesian basis functions
    44 alpha electrons       44 beta electrons
       nuclear repulsion energy       664.8752430284 Hartrees.
 NAtoms=   23 NActive=   23 NUniq=   23 SFac= 1.00D+00 NAtFMM=   60 NAOKFM=F Big=F
 Integral buffers will be    131072 words long.
 Raffenetti 2 integral format.
 Two-electron integral symmetry is turned on.
 One-electron integrals computed using PRISM.
 NBasis=   341 RedAO= T EigKep=  2.51D-06  NBF=   341
 NBsUse=   340 1.00D-06 EigRej=  6.80D-07 NBFU=   340
 ExpMin= 3.60D-02 ExpMax= 8.59D+03 ExpMxC= 1.30D+03 IAcc=3 IRadAn=         5 AccDes= 0.00D+00
 Harris functional with IExCor=  402 and IRadAn=       5 diagonalized for initial guess.
 HarFok:  IExCor=  402 AccDes= 0.00D+00 IRadAn=         5 IDoV= 1 UseB2=F ITyADJ=14
 ICtDFT=  3500011 ScaDFX=  1.000000  1.000000  1.000000  1.000000
 FoFCou: FMM=F IPFlag=           0 FMFlag=      100000 FMFlg1=           0
         NFxFlg=           0 DoJE=T BraDBF=F KetDBF=T FulRan=T
         wScrn=  0.000000 ICntrl=     500 IOpCl=  0 I1Cent=   200000004 NGrid=           0
         NMat0=    1 NMatS0=      1 NMatT0=    0 NMatD0=    1 NMtDS0=    0 NMtDT0=    0
 Petite list used in FoFCou.
 Requested convergence on RMS density matrix=1.00D-08 within 128 cycles.
 Requested convergence on MAX density matrix=1.00D-06.
 Requested convergence on             energy=1.00D-06.
 No special actions if energy rises.
 SCF Done:  E(RB3LYP) =  -554.958483886     A.U. after   15 cycles
            NFock= 15  Conv=0.30D-08     -V/T= 2.0041

 **********************************************************************

            Population analysis using the SCF density.

 **********************************************************************

 Orbital symmetries:
       Occupied  (A) (A) (A) (A) (A) (A) (A) (A) (A) (A) (A) (A)
                 (A) (A) (A) (A) (A) (A) (A) (A) (A) (A) (A) (A)
                 (A) (A) (A) (A) (A) (A) (A) (A) (A) (A) (A) (A)
                 (A) (A) (A) (A) (A) (A) (A) (A)
       Virtual   (A) (A) (A) (A) (A) (A) (A) (A) (A) (A) (A) (A)
                 (A) (A) (A) (A) (A) (A) (A) (A) (A) (A) (A) (A)
                 (A) (A) (A) (A) (A) (A) (A) (A) (A) (A) (A) (A)
                 (A) (A) (A) (A) (A) (A) (A) (A) (A) (A) (A) (A)
                 (A) (A) (A) (A) (A) (A) (A) (A) (A) (A) (A) (A)
                 (A) (A) (A) (A) (A) (A) (A) (A) (A) (A) (A) (A)
                 (A) (A) (A) (A) (A) (A) (A) (A) (A) (A) (A) (A)
                 (A) (A) (A) (A) (A) (A) (A) (A) (A) (A) (A) (A)
                 (A) (A) (A) (A) (A) (A) (A) (A) (A) (A) (A) (A)
                 (A) (A) (A) (A) (A) (A) (A) (A) (A) (A) (A) (A)
                 (A) (A) (A) (A) (A) (A) (A) (A) (A) (A) (A) (A)
                 (A) (A) (A) (A) (A) (A) (A) (A) (A) (A) (A) (A)
                 (A) (A) (A) (A) (A) (A) (A) (A) (A) (A) (A) (A)
                 (A) (A) (A) (A) (A) (A) (A) (A) (A) (A) (A) (A)
                 (A) (A) (A) (A) (A) (A) (A) (A) (A) (A) (A) (A)
                 (A) (A) (A) (A) (A) (A) (A) (A) (A) (A) (A) (A)
                 (A) (A) (A) (A) (A) (A) (A) (A) (A) (A) (A) (A)
                 (A) (A) (A) (A) (A) (A) (A) (A) (A) (A) (A) (A)
                 (A) (A) (A) (A) (A) (A) (A) (A) (A) (A) (A) (A)
                 (A) (A) (A) (A) (A) (A) (A) (A) (A) (A) (A) (A)
                 (A) (A) (A) (A) (A) (A) (A) (A) (A) (A) (A) (A)
                 (A) (A) (A) (A) (A) (A) (A) (A) (A) (A) (A) (A)
                 (A) (A) (A) (A) (A) (A) (A) (A) (A) (A) (A) (A)
                 (A) (A) (A) (A) (A) (A) (A) (A) (A) (A) (A) (A)
                 (A) (A) (A) (A) (A) (A) (A) (A)
 The electronic state is 1-A.
 Alpha  occ. eigenvalues --  -19.18678 -19.12950 -14.31140 -10.31562 -10.22942
 Alpha  occ. eigenvalues --  -10.18871 -10.18548 -10.17594 -10.17521 -10.17506
 Alpha  occ. eigenvalues --  -10.17446 -10.17294  -1.12652  -1.03747  -0.91138
 Alpha  occ. eigenvalues --   -0.86105  -0.78942  -0.74844  -0.73686  -0.67549
 Alpha  occ. eigenvalues --   -0.62041  -0.60952  -0.58760  -0.52525  -0.51993
 Alpha  occ. eigenvalues --   -0.50840  -0.49486  -0.47337  -0.46464  -0.45615
 Alpha  occ. eigenvalues --   -0.43843  -0.42709  -0.42336  -0.40478  -0.39063
 Alpha  occ. eigenvalues --   -0.37873  -0.36014  -0.34714  -0.34501  -0.34084
 Alpha  occ. eigenvalues --   -0.31541  -0.26125  -0.25330  -0.24838
 Alpha virt. eigenvalues --   -0.02787  -0.01703  -0.01463  -0.00847  -0.00207
 Alpha virt. eigenvalues --    0.00615   0.00987   0.01570   0.02542   0.03372
 Alpha virt. eigenvalues --    0.04079   0.04775   0.05514   0.06090   0.06453
 Alpha virt. eigenvalues --    0.07423   0.07849   0.08617   0.08663   0.09662
 Alpha virt. eigenvalues --    0.10089   0.10630   0.10946   0.11297   0.11855
 Alpha virt. eigenvalues --    0.12054   0.12230   0.12263   0.12840   0.13260
 Alpha virt. eigenvalues --    0.13863   0.13978   0.14547   0.14913   0.15261
 Alpha virt. eigenvalues --    0.15983   0.16436   0.16700   0.17219   0.17307
 Alpha virt. eigenvalues --    0.17975   0.18577   0.19225   0.19563   0.20083
 Alpha virt. eigenvalues --    0.20185   0.20585   0.21624   0.21935   0.22769
 Alpha virt. eigenvalues --    0.23637   0.24109   0.24954   0.25085   0.25605
 Alpha virt. eigenvalues --    0.25888   0.26609   0.26888   0.27183   0.27297
 Alpha virt. eigenvalues --    0.27984   0.28591   0.28861   0.29469   0.30186
 Alpha virt. eigenvalues --    0.30303   0.31062   0.31507   0.32168   0.32544
 Alpha virt. eigenvalues --    0.33523   0.34006   0.35317   0.35542   0.36616
 Alpha virt. eigenvalues --    0.37233   0.37425   0.37822   0.38790   0.39338
 Alpha virt. eigenvalues --    0.40465   0.42326   0.48106   0.48766   0.52260
 Alpha virt. eigenvalues --    0.53283   0.53706   0.54012   0.54866   0.56017
 Alpha virt. eigenvalues --    0.56325   0.56932   0.57159   0.57486   0.58630
 Alpha virt. eigenvalues --    0.59158   0.59870   0.61449   0.62286   0.62760
 Alpha virt. eigenvalues --    0.63618   0.66327   0.68031   0.68582   0.69521
 Alpha virt. eigenvalues --    0.70306   0.70790   0.71480   0.72048   0.72624
 Alpha virt. eigenvalues --    0.73416   0.75123   0.76098   0.77174   0.77713
 Alpha virt. eigenvalues --    0.78552   0.80083   0.82980   0.84114   0.85049
 Alpha virt. eigenvalues --    0.85619   0.86394   0.86928   0.88465   0.90006
 Alpha virt. eigenvalues --    0.91095   0.92003   0.94300   0.94875   0.96456
 Alpha virt. eigenvalues --    1.00744   1.02601   1.02960   1.03575   1.04555
 Alpha virt. eigenvalues --    1.06729   1.09071   1.09504   1.10520   1.11994
 Alpha virt. eigenvalues --    1.13555   1.14775   1.15685   1.18763   1.23049
 Alpha virt. eigenvalues --    1.23942   1.26030   1.27980   1.28513   1.31296
 Alpha virt. eigenvalues --    1.32731   1.36696   1.41023   1.44954   1.47785
 Alpha virt. eigenvalues --    1.48556   1.50568   1.51940   1.52600   1.53896
 Alpha virt. eigenvalues --    1.54598   1.55897   1.56940   1.57571   1.57960
 Alpha virt. eigenvalues --    1.59226   1.61751   1.63202   1.64826   1.65377
 Alpha virt. eigenvalues --    1.66499   1.67022   1.70771   1.71322   1.72922
 Alpha virt. eigenvalues --    1.74473   1.74682   1.77819   1.78510   1.79782
 Alpha virt. eigenvalues --    1.80372   1.83072   1.85829   1.86624   1.89567
 Alpha virt. eigenvalues --    1.92085   1.92998   1.93669   1.94856   1.95448
 Alpha virt. eigenvalues --    1.96631   1.97050   1.97989   1.98717   2.02120
 Alpha virt. eigenvalues --    2.03922   2.05091   2.07762   2.09051   2.12889
 Alpha virt. eigenvalues --    2.15391   2.19832   2.21628   2.26487   2.28214
 Alpha virt. eigenvalues --    2.32259   2.34044   2.39282   2.41477   2.44065
 Alpha virt. eigenvalues --    2.46200   2.47331   2.49417   2.51041   2.55458
 Alpha virt. eigenvalues --    2.56535   2.59613   2.63694   2.64815   2.66177
 Alpha virt. eigenvalues --    2.67125   2.68036   2.69046   2.70896   2.71496
 Alpha virt. eigenvalues --    2.72678   2.73878   2.74226   2.75809   2.78073
 Alpha virt. eigenvalues --    2.80391   2.81656   2.82532   2.83968   2.84946
 Alpha virt. eigenvalues --    2.86789   2.88582   2.91429   2.92618   2.94107
 Alpha virt. eigenvalues --    2.95212   2.96959   2.97980   3.00077   3.01396
 Alpha virt. eigenvalues --    3.05101   3.09025   3.09956   3.13099   3.16105
 Alpha virt. eigenvalues --    3.20163   3.23357   3.24962   3.29352   3.35856
 Alpha virt. eigenvalues --    3.37255   3.38771   3.50080   3.54368   3.55339
 Alpha virt. eigenvalues --    3.61546   3.63546   3.68790   3.71524   3.79276
 Alpha virt. eigenvalues --    3.85051   4.00246   4.02999   4.04575   4.08371
 Alpha virt. eigenvalues --    4.13451   4.15708   4.16549   4.24673   4.34769
 Alpha virt. eigenvalues --    4.73417   4.84791   4.85089   4.98744   5.05942
 Alpha virt. eigenvalues --    5.16913   5.39333   5.58423   5.83653  23.62404
 Alpha virt. eigenvalues --   23.79663  23.82255  23.90660  23.97373  23.98236
 Alpha virt. eigenvalues --   24.09075  24.10283  24.19650  35.60634  49.86596
 Alpha virt. eigenvalues --   50.00138
          Condensed to atoms (all electrons):
               1          2          3          4          5          6
     1  C    9.478929   0.505855  -1.465691   0.080184   0.151200  -0.127626
     2  H    0.505855   0.512282  -0.197766   0.008764   0.019941  -0.006192
     3  C   -1.465691  -0.197766   7.055852   0.360722   0.088416   0.117170
     4  O    0.080184   0.008764   0.360722   8.021568  -0.152012  -0.006577
     5  O    0.151200   0.019941   0.088416  -0.152012   8.067252   0.220981
     6  H   -0.127626  -0.006192   0.117170  -0.006577   0.220981   0.475262
     7  C   -1.769931  -0.106481   0.930051  -0.100888  -0.184914   0.029462
     8  H   -0.047582  -0.006478   0.036302  -0.009172  -0.002399   0.000926
     9  H   -0.052751   0.017271  -0.043117   0.001460   0.005499  -0.001979
    10  C   -0.000251   0.078760  -0.670887   0.031692   0.000179  -0.006229
    11  C   -0.805374  -0.015933   0.349513   0.000072   0.036022   0.003786
    12  C    1.067112   0.026653  -0.468520  -0.002004  -0.027247  -0.004315
    13  C   -0.064137  -0.012900   0.049063  -0.000899   0.002447   0.000549
    14  H    0.000631  -0.000665  -0.002578  -0.000083   0.000573  -0.000037
    15  C    0.013197  -0.036061   0.070019  -0.002162  -0.001539   0.000005
    16  H   -0.001036   0.002616  -0.018957  -0.000760  -0.000431  -0.000138
    17  C    0.064896   0.006155  -0.020089   0.000214  -0.000146  -0.000079
    18  H   -0.005076   0.000359  -0.000537   0.000009   0.000001  -0.000007
    19  H   -0.003178  -0.000048   0.001018   0.000034   0.000039   0.000011
    20  H   -0.000248   0.000204  -0.000541   0.000005  -0.000005  -0.000002
    21  N   -0.322063  -0.034937  -0.018011   0.016672  -0.062099   0.012839
    22  H   -0.028956   0.013251  -0.022490  -0.001056   0.003530   0.001225
    23  H   -0.089364  -0.018498   0.029845   0.000741  -0.000187   0.000993
               7          8          9         10         11         12
     1  C   -1.769931  -0.047582  -0.052751  -0.000251  -0.805374   1.067112
     2  H   -0.106481  -0.006478   0.017271   0.078760  -0.015933   0.026653
     3  C    0.930051   0.036302  -0.043117  -0.670887   0.349513  -0.468520
     4  O   -0.100888  -0.009172   0.001460   0.031692   0.000072  -0.002004
     5  O   -0.184914  -0.002399   0.005499   0.000179   0.036022  -0.027247
     6  H    0.029462   0.000926  -0.001979  -0.006229   0.003786  -0.004315
     7  C   14.574785   0.581704   0.449123  -4.531703  -0.930827  -2.547370
     8  H    0.581704   0.570722  -0.038876  -0.233095  -0.095228   0.077942
     9  H    0.449123  -0.038876   0.547813  -0.047812   0.052221  -0.059286
    10  C   -4.531703  -0.233095  -0.047812  11.399603  -0.289510   0.361994
    11  C   -0.930827  -0.095228   0.052221  -0.289510   9.804479  -2.987730
    12  C   -2.547370   0.077942  -0.059286   0.361994  -2.987730  10.903450
    13  C    0.380848  -0.025359   0.035610  -0.682921   0.108072   0.252956
    14  H    0.003248   0.005160  -0.010446  -0.068346   0.463221  -0.037948
    15  C   -0.190998   0.036275  -0.038387  -0.468721   0.646122  -0.349054
    16  H   -0.021825  -0.005715   0.005207  -0.011814   0.006956   0.423262
    17  C   -0.242778  -0.005405  -0.013112  -0.175637  -0.139369  -0.122405
    18  H    0.007014  -0.000122   0.002047   0.032246  -0.093144   0.016315
    19  H    0.006255   0.000658   0.000488   0.042308   0.014646  -0.088658
    20  H   -0.013511  -0.000336  -0.000342   0.024084   0.008071  -0.000532
    21  N    0.284930  -0.008435  -0.005488  -0.044288   0.019809  -0.095973
    22  H    0.000734   0.001200   0.001779  -0.008125   0.005254  -0.005158
    23  H    0.015782  -0.000466  -0.001493   0.011888   0.007052  -0.004677
              13         14         15         16         17         18
     1  C   -0.064137   0.000631   0.013197  -0.001036   0.064896  -0.005076
     2  H   -0.012900  -0.000665  -0.036061   0.002616   0.006155   0.000359
     3  C    0.049063  -0.002578   0.070019  -0.018957  -0.020089  -0.000537
     4  O   -0.000899  -0.000083  -0.002162  -0.000760   0.000214   0.000009
     5  O    0.002447   0.000573  -0.001539  -0.000431  -0.000146   0.000001
     6  H    0.000549  -0.000037   0.000005  -0.000138  -0.000079  -0.000007
     7  C    0.380848   0.003248  -0.190998  -0.021825  -0.242778   0.007014
     8  H   -0.025359   0.005160   0.036275  -0.005715  -0.005405  -0.000122
     9  H    0.035610  -0.010446  -0.038387   0.005207  -0.013112   0.002047
    10  C   -0.682921  -0.068346  -0.468721  -0.011814  -0.175637   0.032246
    11  C    0.108072   0.463221   0.646122   0.006956  -0.139369  -0.093144
    12  C    0.252956  -0.037948  -0.349054   0.423262  -0.122405   0.016315
    13  C    5.762104  -0.089940  -0.236777   0.017135   0.440856   0.419721
    14  H   -0.089940   0.547910   0.022382  -0.003289   0.026286  -0.019232
    15  C   -0.236777   0.022382   6.036088  -0.091031   0.552174   0.001281
    16  H    0.017135  -0.003289  -0.091031   0.552207   0.003148   0.001084
    17  C    0.440856   0.026286   0.552174   0.003148   5.637945  -0.066101
    18  H    0.419721  -0.019232   0.001281   0.001084  -0.066101   0.549600
    19  H    0.003925   0.000490   0.412247  -0.017017  -0.072628  -0.000379
    20  H   -0.067752   0.001069  -0.056287  -0.000127   0.435946  -0.015882
    21  N    0.005469   0.001047   0.005018  -0.000552  -0.004946  -0.001115
    22  H    0.002093  -0.000161  -0.000567  -0.000352   0.000049   0.000027
    23  H   -0.001890   0.001379   0.001956  -0.000141  -0.001360   0.000055
              19         20         21         22         23
     1  C   -0.003178  -0.000248  -0.322063  -0.028956  -0.089364
     2  H   -0.000048   0.000204  -0.034937   0.013251  -0.018498
     3  C    0.001018  -0.000541  -0.018011  -0.022490   0.029845
     4  O    0.000034   0.000005   0.016672  -0.001056   0.000741
     5  O    0.000039  -0.000005  -0.062099   0.003530  -0.000187
     6  H    0.000011  -0.000002   0.012839   0.001225   0.000993
     7  C    0.006255  -0.013511   0.284930   0.000734   0.015782
     8  H    0.000658  -0.000336  -0.008435   0.001200  -0.000466
     9  H    0.000488  -0.000342  -0.005488   0.001779  -0.001493
    10  C    0.042308   0.024084  -0.044288  -0.008125   0.011888
    11  C    0.014646   0.008071   0.019809   0.005254   0.007052
    12  C   -0.088658  -0.000532  -0.095973  -0.005158  -0.004677
    13  C    0.003925  -0.067752   0.005469   0.002093  -0.001890
    14  H    0.000490   0.001069   0.001047  -0.000161   0.001379
    15  C    0.412247  -0.056287   0.005018  -0.000567   0.001956
    16  H   -0.017017  -0.000127  -0.000552  -0.000352  -0.000141
    17  C   -0.072628   0.435946  -0.004946   0.000049  -0.001360
    18  H   -0.000379  -0.015882  -0.001115   0.000027   0.000055
    19  H    0.549132  -0.015305   0.000037   0.000040   0.000073
    20  H   -0.015305   0.550132  -0.000095  -0.000018  -0.000037
    21  N    0.000037  -0.000095   6.715981   0.389010   0.399112
    22  H    0.000040  -0.000018   0.389010   0.456634  -0.047364
    23  H    0.000073  -0.000037   0.399112  -0.047364   0.451009
 Mulliken charges:
               1
     1  C   -0.578741
     2  H    0.243849
     3  C   -0.158786
     4  O   -0.246524
     5  O   -0.165100
     6  H    0.289972
     7  C   -0.622706
     8  H    0.167780
     9  H    0.194570
    10  C    1.256586
    11  C   -0.168178
    12  C   -0.328808
    13  C   -0.298273
    14  H    0.159327
    15  C   -0.325178
    16  H    0.161570
    17  C   -0.303614
    18  H    0.171837
    19  H    0.165813
    20  H    0.151510
    21  N   -0.251922
    22  H    0.239424
    23  H    0.245593
 Sum of Mulliken charges =   0.00000
 Mulliken charges with hydrogens summed into heavy atoms:
               1
     1  C   -0.334892
     3  C   -0.158786
     4  O   -0.246524
     5  O    0.124872
     7  C   -0.260356
    10  C    1.256586
    11  C   -0.008851
    12  C   -0.167239
    13  C   -0.126436
    15  C   -0.159365
    17  C   -0.152104
    21  N    0.233095
 Electronic spatial extent (au):  <R**2>=           2636.4896
 Charge=              0.0000 electrons
 Dipole moment (field-independent basis, Debye):
    X=              0.7363    Y=             -1.4613    Z=             -0.5194  Tot=              1.7168
 Quadrupole moment (field-independent basis, Debye-Ang):
   XX=            -65.1818   YY=            -71.7976   ZZ=            -72.2994
   XY=             -7.3668   XZ=             -4.1481   YZ=             -1.2661
 Traceless Quadrupole moment (field-independent basis, Debye-Ang):
   XX=              4.5778   YY=             -2.0380   ZZ=             -2.5398
   XY=             -7.3668   XZ=             -4.1481   YZ=             -1.2661
 Octapole moment (field-independent basis, Debye-Ang**2):
  XXX=             44.3092  YYY=             -9.3399  ZZZ=              6.1977  XYY=             -7.9456
  XXY=            -25.1602  XXZ=             -7.3754  XZZ=             27.3380  YZZ=             -3.0189
  YYZ=             -2.7051  XYZ=            -11.8351
 Hexadecapole moment (field-independent basis, Debye-Ang**3):
 XXXX=          -2424.0837 YYYY=           -512.6811 ZZZZ=           -201.7420 XXXY=            -68.4778
 XXXZ=           -137.4721 YYYX=            -34.8889 YYYZ=              1.6642 ZZZX=              4.8628
 ZZZY=             -8.2168 XXYY=           -569.1129 XXZZ=           -504.4397 YYZZ=           -126.4714
 XXYZ=            -21.5144 YYXZ=             -6.4906 ZZXY=             -6.4729
 N-N= 6.648752430284D+02 E-N=-2.624477930543D+03  KE= 5.526825808245D+02
 Calling FoFJK, ICntrl=      2127 FMM=F ISym2X=0 I1Cent= 0 IOpClX= 0 NMat=1 NMatS=1 NMatT=0.
 ***** Axes restored to original set *****
 -------------------------------------------------------------------
 Center     Atomic                   Forces (Hartrees/Bohr)
 Number     Number              X              Y              Z
 -------------------------------------------------------------------
      1        6           0.000009506    0.000003996    0.000000212
      2        1          -0.000007184   -0.000001337   -0.000000007
      3        6          -0.000002012   -0.000008023    0.000010520
      4        8          -0.000002187    0.000012202    0.000007787
      5        8          -0.000002971    0.000007609    0.000005745
      6        1          -0.000000401    0.000005420    0.000004721
      7        6           0.000006145    0.000001195   -0.000010120
      8        1           0.000002060    0.000001644    0.000005163
      9        1           0.000000598    0.000004465    0.000000750
     10        6          -0.000003384    0.000003916    0.000006141
     11        6          -0.000002636   -0.000002761   -0.000003804
     12        6           0.000003001   -0.000004417   -0.000003083
     13        6           0.000004272   -0.000004855   -0.000005030
     14        1           0.000004116   -0.000001097   -0.000003798
     15        6          -0.000005223   -0.000005654   -0.000001656
     16        1          -0.000002683   -0.000000664    0.000002256
     17        6          -0.000000688   -0.000001535   -0.000005418
     18        1           0.000001275   -0.000003794   -0.000006338
     19        1          -0.000003004   -0.000004520   -0.000001191
     20        1          -0.000001185   -0.000006756   -0.000005038
     21        7           0.000003863    0.000001464    0.000007542
     22        1          -0.000004812    0.000002571   -0.000003199
     23        1           0.000003534    0.000000930   -0.000002155
 -------------------------------------------------------------------
 Cartesian Forces:  Max     0.000012202 RMS     0.000004710

 GradGradGradGradGradGradGradGradGradGradGradGradGradGradGradGradGradGrad
 Berny optimization.
 FormGI is forming the generalized inverse of G from B-inverse, IUseBI=4.
 Internal  Forces:  Max     0.000008662 RMS     0.000002058
 Search for a local minimum.
 Step number   1 out of a maximum of  123
 All quantities printed in internal units (Hartrees-Bohrs-Radians)
 Mixed Optimization -- En-DIIS/RFO-DIIS
 Second derivative matrix not updated -- first step.
 ITU=  0
     Eigenvalues ---    0.00230   0.00385   0.00612   0.00822   0.00909
     Eigenvalues ---    0.01493   0.02107   0.02131   0.02140   0.02158
     Eigenvalues ---    0.02170   0.02171   0.02172   0.02173   0.02228
     Eigenvalues ---    0.03979   0.04074   0.04205   0.05400   0.05406
     Eigenvalues ---    0.06237   0.09376   0.12885   0.15999   0.16000
     Eigenvalues ---    0.16000   0.16000   0.16000   0.16000   0.16000
     Eigenvalues ---    0.16000   0.17191   0.19222   0.21969   0.22000
     Eigenvalues ---    0.22000   0.23473   0.24997   0.24998   0.25000
     Eigenvalues ---    0.27325   0.29535   0.31187   0.34293   0.34349
     Eigenvalues ---    0.34631   0.35295   0.35454   0.35459   0.35483
     Eigenvalues ---    0.35574   0.37072   0.42062   0.42142   0.45151
     Eigenvalues ---    0.45302   0.45929   0.46241   0.46662   0.46709
     Eigenvalues ---    0.53057   0.53569   1.02092
 RFO step:  Lambda=-1.24334729D-08 EMin= 2.30000000D-03
 Linear search not attempted -- first point.
 Iteration  1 RMS(Cart)=  0.00011495 RMS(Int)=  0.00000002
 Iteration  2 RMS(Cart)=  0.00000002 RMS(Int)=  0.00000000
 Variable       Old X    -DE/DX   Delta X   Delta X   Delta X     New X
                                 (Linear)    (Quad)   (Total)
    R1        2.06278   0.00000   0.00000   0.00000   0.00000   2.06278
    R2        2.88899  -0.00001   0.00000  -0.00003  -0.00003   2.88897
    R3        2.93638   0.00000   0.00000   0.00001   0.00001   2.93639
    R4        2.75737   0.00000   0.00000   0.00000   0.00000   2.75737
    R5        2.27812   0.00001   0.00000   0.00001   0.00001   2.27813
    R6        2.56900   0.00000   0.00000  -0.00001  -0.00001   2.56900
    R7        1.83126   0.00000   0.00000   0.00000   0.00000   1.83126
    R8        2.06745   0.00000   0.00000   0.00000   0.00000   2.06745
    R9        2.06838   0.00000   0.00000   0.00000   0.00000   2.06838
   R10        2.85657   0.00000   0.00000   0.00002   0.00002   2.85659
   R11        2.64364   0.00000   0.00000   0.00001   0.00001   2.64364
   R12        2.64485   0.00000   0.00000  -0.00001  -0.00001   2.64484
   R13        2.63310   0.00000   0.00000   0.00000   0.00000   2.63309
   R14        2.04753   0.00000   0.00000   0.00000   0.00000   2.04753
   R15        2.63382   0.00000   0.00000   0.00001   0.00001   2.63383
   R16        2.05198   0.00000   0.00000   0.00000   0.00000   2.05199
   R17        2.63442   0.00000   0.00000   0.00000   0.00000   2.63442
   R18        2.04944   0.00000   0.00000   0.00000   0.00000   2.04944
   R19        2.63356   0.00000   0.00000   0.00000   0.00000   2.63355
   R20        2.04935   0.00000   0.00000   0.00000   0.00000   2.04935
   R21        2.04897   0.00000   0.00000   0.00000   0.00000   2.04898
   R22        1.91800   0.00000   0.00000   0.00000   0.00000   1.91800
   R23        1.91627   0.00000   0.00000   0.00000   0.00000   1.91627
    A1        1.84051   0.00000   0.00000   0.00001   0.00001   1.84052
    A2        1.89044   0.00000   0.00000  -0.00001  -0.00001   1.89043
    A3        1.89207   0.00000   0.00000  -0.00001  -0.00001   1.89207
    A4        1.89643   0.00000   0.00000   0.00000   0.00000   1.89644
    A5        2.00559   0.00000   0.00000   0.00000   0.00000   2.00559
    A6        1.93366   0.00000   0.00000   0.00000   0.00000   1.93367
    A7        2.19048   0.00000   0.00000   0.00000   0.00000   2.19048
    A8        1.95734  -0.00001   0.00000  -0.00003  -0.00003   1.95731
    A9        2.13516   0.00001   0.00000   0.00002   0.00002   2.13518
   A10        1.87330   0.00000   0.00000   0.00001   0.00001   1.87332
   A11        1.89337   0.00000   0.00000  -0.00002  -0.00002   1.89335
   A12        1.88741   0.00000   0.00000   0.00002   0.00002   1.88744
   A13        1.97677   0.00000   0.00000  -0.00002  -0.00002   1.97675
   A14        1.86611   0.00000   0.00000   0.00001   0.00001   1.86611
   A15        1.90580   0.00000   0.00000   0.00001   0.00001   1.90581
   A16        1.93080   0.00000   0.00000   0.00000   0.00000   1.93080
   A17        2.11895   0.00000   0.00000   0.00000   0.00000   2.11895
   A18        2.09693   0.00000   0.00000   0.00000   0.00000   2.09693
   A19        2.06726   0.00000   0.00000   0.00000   0.00000   2.06726
   A20        2.10769   0.00000   0.00000   0.00000   0.00000   2.10769
   A21        2.08404   0.00000   0.00000   0.00000   0.00000   2.08404
   A22        2.09141   0.00000   0.00000   0.00000   0.00000   2.09141
   A23        2.11117   0.00000   0.00000   0.00000   0.00000   2.11117
   A24        2.08564   0.00000   0.00000   0.00000   0.00000   2.08564
   A25        2.08636   0.00000   0.00000   0.00000   0.00000   2.08636
   A26        2.09895   0.00000   0.00000   0.00000   0.00000   2.09895
   A27        2.08936   0.00000   0.00000   0.00001   0.00001   2.08937
   A28        2.09487   0.00000   0.00000  -0.00001  -0.00001   2.09487
   A29        2.09508   0.00000   0.00000   0.00000   0.00000   2.09508
   A30        2.09107   0.00000   0.00000   0.00000   0.00000   2.09107
   A31        2.09702   0.00000   0.00000   0.00000   0.00000   2.09702
   A32        2.08622   0.00000   0.00000   0.00000   0.00000   2.08622
   A33        2.09871   0.00000   0.00000   0.00000   0.00000   2.09870
   A34        2.09826   0.00000   0.00000   0.00000   0.00000   2.09826
   A35        1.93651   0.00000   0.00000   0.00000   0.00000   1.93651
   A36        1.94498   0.00000   0.00000  -0.00001  -0.00001   1.94497
   A37        1.88172   0.00000   0.00000   0.00002   0.00002   1.88174
    D1       -0.29677   0.00000   0.00000  -0.00014  -0.00014  -0.29691
    D2        2.86646   0.00000   0.00000   0.00022   0.00022   2.86668
    D3        1.72678   0.00000   0.00000  -0.00014  -0.00014   1.72663
    D4       -1.39318   0.00000   0.00000   0.00022   0.00022  -1.39296
    D5       -2.37923   0.00000   0.00000  -0.00014  -0.00014  -2.37937
    D6        0.78400   0.00000   0.00000   0.00022   0.00022   0.78422
    D7        1.29112   0.00000   0.00000   0.00002   0.00002   1.29114
    D8       -2.97409   0.00000   0.00000   0.00003   0.00003  -2.97406
    D9       -0.82769   0.00000   0.00000   0.00003   0.00003  -0.82766
   D10       -0.69995   0.00000   0.00000   0.00001   0.00001  -0.69993
   D11        1.31803   0.00000   0.00000   0.00002   0.00002   1.31805
   D12       -2.81875   0.00000   0.00000   0.00002   0.00002  -2.81873
   D13       -2.91895   0.00000   0.00000   0.00001   0.00001  -2.91894
   D14       -0.90097   0.00000   0.00000   0.00002   0.00002  -0.90095
   D15        1.24543   0.00000   0.00000   0.00002   0.00002   1.24545
   D16       -2.93701   0.00000   0.00000  -0.00042  -0.00042  -2.93743
   D17       -0.83992   0.00000   0.00000  -0.00040  -0.00040  -0.84032
   D18       -0.88348   0.00000   0.00000  -0.00041  -0.00041  -0.88389
   D19        1.21360   0.00000   0.00000  -0.00039  -0.00039   1.21322
   D20        1.27404   0.00000   0.00000  -0.00040  -0.00040   1.27364
   D21       -2.91206   0.00000   0.00000  -0.00038  -0.00038  -2.91244
   D22        3.11316   0.00000   0.00000  -0.00022  -0.00022   3.11294
   D23       -0.00759   0.00000   0.00000   0.00013   0.00013  -0.00745
   D24       -1.48813   0.00000   0.00000   0.00000   0.00000  -1.48813
   D25        1.64210   0.00000   0.00000   0.00004   0.00004   1.64214
   D26        2.68324   0.00000   0.00000   0.00003   0.00003   2.68328
   D27       -0.46971   0.00000   0.00000   0.00007   0.00007  -0.46964
   D28        0.63410   0.00000   0.00000   0.00002   0.00002   0.63412
   D29       -2.51885   0.00000   0.00000   0.00006   0.00006  -2.51880
   D30        3.12930   0.00000   0.00000   0.00001   0.00001   3.12931
   D31       -0.00228   0.00000   0.00000   0.00003   0.00003  -0.00225
   D32       -0.00112   0.00000   0.00000  -0.00002  -0.00002  -0.00115
   D33       -3.13270   0.00000   0.00000  -0.00001  -0.00001  -3.13271
   D34       -3.12824   0.00000   0.00000  -0.00002  -0.00002  -3.12827
   D35        0.01880   0.00000   0.00000  -0.00003  -0.00003   0.01876
   D36        0.00232   0.00000   0.00000   0.00001   0.00001   0.00233
   D37       -3.13383   0.00000   0.00000   0.00000   0.00000  -3.13382
   D38       -0.00084   0.00000   0.00000   0.00002   0.00002  -0.00081
   D39        3.14079   0.00000   0.00000   0.00002   0.00002   3.14081
   D40        3.13070   0.00000   0.00000   0.00001   0.00001   3.13071
   D41       -0.01086   0.00000   0.00000   0.00000   0.00000  -0.01086
   D42       -0.00156   0.00000   0.00000   0.00000   0.00000  -0.00156
   D43       -3.13751   0.00000   0.00000  -0.00001  -0.00001  -3.13752
   D44        3.13458   0.00000   0.00000   0.00001   0.00001   3.13459
   D45       -0.00137   0.00000   0.00000   0.00000   0.00000  -0.00137
   D46        0.00162   0.00000   0.00000  -0.00001  -0.00001   0.00161
   D47        3.13946   0.00000   0.00000   0.00001   0.00001   3.13946
   D48       -3.14000   0.00000   0.00000  -0.00001  -0.00001  -3.14001
   D49       -0.00217   0.00000   0.00000   0.00001   0.00001  -0.00216
   D50       -0.00043   0.00000   0.00000   0.00000   0.00000  -0.00043
   D51       -3.13827   0.00000   0.00000  -0.00002  -0.00002  -3.13829
   D52        3.13550   0.00000   0.00000   0.00001   0.00001   3.13551
   D53       -0.00234   0.00000   0.00000  -0.00001  -0.00001  -0.00235
         Item               Value     Threshold  Converged?
 Maximum Force            0.000009     0.000450     YES
 RMS     Force            0.000002     0.000300     YES
 Maximum Displacement     0.000562     0.001800     YES
 RMS     Displacement     0.000115     0.001200     YES
 Predicted change in Energy=-6.216691D-09
 Optimization completed.
    -- Stationary point found.
                           ----------------------------
                           !   Optimized Parameters   !
                           ! (Angstroms and Degrees)  !
 --------------------------                            --------------------------
 ! Name  Definition              Value          Derivative Info.                !
 --------------------------------------------------------------------------------
 ! R1    R(1,2)                  1.0916         -DE/DX =    0.0                 !
 ! R2    R(1,3)                  1.5288         -DE/DX =    0.0                 !
 ! R3    R(1,7)                  1.5539         -DE/DX =    0.0                 !
 ! R4    R(1,21)                 1.4591         -DE/DX =    0.0                 !
 ! R5    R(3,4)                  1.2055         -DE/DX =    0.0                 !
 ! R6    R(3,5)                  1.3595         -DE/DX =    0.0                 !
 ! R7    R(5,6)                  0.9691         -DE/DX =    0.0                 !
 ! R8    R(7,8)                  1.094          -DE/DX =    0.0                 !
 ! R9    R(7,9)                  1.0945         -DE/DX =    0.0                 !
 ! R10   R(7,10)                 1.5116         -DE/DX =    0.0                 !
 ! R11   R(10,11)                1.399          -DE/DX =    0.0                 !
 ! R12   R(10,12)                1.3996         -DE/DX =    0.0                 !
 ! R13   R(11,13)                1.3934         -DE/DX =    0.0                 !
 ! R14   R(11,14)                1.0835         -DE/DX =    0.0                 !
 ! R15   R(12,15)                1.3938         -DE/DX =    0.0                 !
 ! R16   R(12,16)                1.0859         -DE/DX =    0.0                 !
 ! R17   R(13,17)                1.3941         -DE/DX =    0.0                 !
 ! R18   R(13,18)                1.0845         -DE/DX =    0.0                 !
 ! R19   R(15,17)                1.3936         -DE/DX =    0.0                 !
 ! R20   R(15,19)                1.0845         -DE/DX =    0.0                 !
 ! R21   R(17,20)                1.0843         -DE/DX =    0.0                 !
 ! R22   R(21,22)                1.015          -DE/DX =    0.0                 !
 ! R23   R(21,23)                1.014          -DE/DX =    0.0                 !
 ! A1    A(2,1,3)              105.4534         -DE/DX =    0.0                 !
 ! A2    A(2,1,7)              108.3143         -DE/DX =    0.0                 !
 ! A3    A(2,1,21)             108.4077         -DE/DX =    0.0                 !
 ! A4    A(3,1,7)              108.6577         -DE/DX =    0.0                 !
 ! A5    A(3,1,21)             114.9119         -DE/DX =    0.0                 !
 ! A6    A(7,1,21)             110.7906         -DE/DX =    0.0                 !
 ! A7    A(1,3,4)              125.5055         -DE/DX =    0.0                 !
 ! A8    A(1,3,5)              112.1471         -DE/DX =    0.0                 !
 ! A9    A(4,3,5)              122.3354         -DE/DX =    0.0                 !
 ! A10   A(3,5,6)              107.3324         -DE/DX =    0.0                 !
 ! A11   A(1,7,8)              108.4821         -DE/DX =    0.0                 !
 ! A12   A(1,7,9)              108.1408         -DE/DX =    0.0                 !
 ! A13   A(1,7,10)             113.2604         -DE/DX =    0.0                 !
 ! A14   A(8,7,9)              106.92           -DE/DX =    0.0                 !
 ! A15   A(8,7,10)             109.1941         -DE/DX =    0.0                 !
 ! A16   A(9,7,10)             110.627          -DE/DX =    0.0                 !
 ! A17   A(7,10,11)            121.4067         -DE/DX =    0.0                 !
 ! A18   A(7,10,12)            120.1451         -DE/DX =    0.0                 !
 ! A19   A(11,10,12)           118.4451         -DE/DX =    0.0                 !
 ! A20   A(10,11,13)           120.762          -DE/DX =    0.0                 !
 ! A21   A(10,11,14)           119.4068         -DE/DX =    0.0                 !
 ! A22   A(13,11,14)           119.8287         -DE/DX =    0.0                 !
 ! A23   A(10,12,15)           120.9609         -DE/DX =    0.0                 !
 ! A24   A(10,12,16)           119.4984         -DE/DX =    0.0                 !
 ! A25   A(15,12,16)           119.5399         -DE/DX =    0.0                 !
 ! A26   A(11,13,17)           120.261          -DE/DX =    0.0                 !
 ! A27   A(11,13,18)           119.7117         -DE/DX =    0.0                 !
 ! A28   A(17,13,18)           120.0273         -DE/DX =    0.0                 !
 ! A29   A(12,15,17)           120.0394         -DE/DX =    0.0                 !
 ! A30   A(12,15,19)           119.8094         -DE/DX =    0.0                 !
 ! A31   A(17,15,19)           120.1504         -DE/DX =    0.0                 !
 ! A32   A(13,17,15)           119.5315         -DE/DX =    0.0                 !
 ! A33   A(13,17,20)           120.247          -DE/DX =    0.0                 !
 ! A34   A(15,17,20)           120.2212         -DE/DX =    0.0                 !
 ! A35   A(1,21,22)            110.9539         -DE/DX =    0.0                 !
 ! A36   A(1,21,23)            111.4392         -DE/DX =    0.0                 !
 ! A37   A(22,21,23)           107.8146         -DE/DX =    0.0                 !
 ! D1    D(2,1,3,4)            -17.0038         -DE/DX =    0.0                 !
 ! D2    D(2,1,3,5)            164.2358         -DE/DX =    0.0                 !
 ! D3    D(7,1,3,4)             98.9372         -DE/DX =    0.0                 !
 ! D4    D(7,1,3,5)            -79.8232         -DE/DX =    0.0                 !
 ! D5    D(21,1,3,4)          -136.3197         -DE/DX =    0.0                 !
 ! D6    D(21,1,3,5)            44.9199         -DE/DX =    0.0                 !
 ! D7    D(2,1,7,8)             73.9756         -DE/DX =    0.0                 !
 ! D8    D(2,1,7,9)           -170.4028         -DE/DX =    0.0                 !
 ! D9    D(2,1,7,10)           -47.4233         -DE/DX =    0.0                 !
 ! D10   D(3,1,7,8)            -40.1039         -DE/DX =    0.0                 !
 ! D11   D(3,1,7,9)             75.5177         -DE/DX =    0.0                 !
 ! D12   D(3,1,7,10)          -161.5027         -DE/DX =    0.0                 !
 ! D13   D(21,1,7,8)          -167.2433         -DE/DX =    0.0                 !
 ! D14   D(21,1,7,9)           -51.6217         -DE/DX =    0.0                 !
 ! D15   D(21,1,7,10)           71.3579         -DE/DX =    0.0                 !
 ! D16   D(2,1,21,22)         -168.2784         -DE/DX =    0.0                 !
 ! D17   D(2,1,21,23)          -48.124          -DE/DX =    0.0                 !
 ! D18   D(3,1,21,22)          -50.6199         -DE/DX =    0.0                 !
 ! D19   D(3,1,21,23)           69.5344         -DE/DX =    0.0                 !
 ! D20   D(7,1,21,22)           72.997          -DE/DX =    0.0                 !
 ! D21   D(7,1,21,23)         -166.8487         -DE/DX =    0.0                 !
 ! D22   D(1,3,5,6)            178.3709         -DE/DX =    0.0                 !
 ! D23   D(4,3,5,6)             -0.4348         -DE/DX =    0.0                 !
 ! D24   D(1,7,10,11)          -85.2637         -DE/DX =    0.0                 !
 ! D25   D(1,7,10,12)           94.0853         -DE/DX =    0.0                 !
 ! D26   D(8,7,10,11)          153.7386         -DE/DX =    0.0                 !
 ! D27   D(8,7,10,12)          -26.9124         -DE/DX =    0.0                 !
 ! D28   D(9,7,10,11)           36.3313         -DE/DX =    0.0                 !
 ! D29   D(9,7,10,12)         -144.3197         -DE/DX =    0.0                 !
 ! D30   D(7,10,11,13)         179.2955         -DE/DX =    0.0                 !
 ! D31   D(7,10,11,14)          -0.1307         -DE/DX =    0.0                 !
 ! D32   D(12,10,11,13)         -0.0642         -DE/DX =    0.0                 !
 ! D33   D(12,10,11,14)       -179.4905         -DE/DX =    0.0                 !
 ! D34   D(7,10,12,15)        -179.2352         -DE/DX =    0.0                 !
 ! D35   D(7,10,12,16)           1.0769         -DE/DX =    0.0                 !
 ! D36   D(11,10,12,15)          0.1329         -DE/DX =    0.0                 !
 ! D37   D(11,10,12,16)       -179.555          -DE/DX =    0.0                 !
 ! D38   D(10,11,13,17)         -0.0479         -DE/DX =    0.0                 !
 ! D39   D(10,11,13,18)        179.954          -DE/DX =    0.0                 !
 ! D40   D(14,11,13,17)        179.3759         -DE/DX =    0.0                 !
 ! D41   D(14,11,13,18)         -0.6222         -DE/DX =    0.0                 !
 ! D42   D(10,12,15,17)         -0.0894         -DE/DX =    0.0                 !
 ! D43   D(10,12,15,19)       -179.7661         -DE/DX =    0.0                 !
 ! D44   D(16,12,15,17)        179.5983         -DE/DX =    0.0                 !
 ! D45   D(16,12,15,19)         -0.0783         -DE/DX =    0.0                 !
 ! D46   D(11,13,17,15)          0.0929         -DE/DX =    0.0                 !
 ! D47   D(11,13,17,20)        179.8776         -DE/DX =    0.0                 !
 ! D48   D(18,13,17,15)       -179.909          -DE/DX =    0.0                 !
 ! D49   D(18,13,17,20)         -0.1243         -DE/DX =    0.0                 !
 ! D50   D(12,15,17,13)         -0.0249         -DE/DX =    0.0                 !
 ! D51   D(12,15,17,20)       -179.8096         -DE/DX =    0.0                 !
 ! D52   D(19,15,17,13)        179.6506         -DE/DX =    0.0                 !
 ! D53   D(19,15,17,20)         -0.1341         -DE/DX =    0.0                 !
 --------------------------------------------------------------------------------
 GradGradGradGradGradGradGradGradGradGradGradGradGradGradGradGradGradGrad

                          Input orientation:                          
 ---------------------------------------------------------------------
 Center     Atomic      Atomic             Coordinates (Angstroms)
 Number     Number       Type             X           Y           Z
 ---------------------------------------------------------------------
      1          6           0        1.370873   -0.121471    0.449530
      2          1           0        1.031649    0.510785    1.272159
      3          6           0        2.777210    0.372255    0.109456
      4          8           0        3.246523    1.431957    0.441243
      5          8           0        3.463309   -0.520150   -0.652783
      6          1           0        4.328156   -0.128730   -0.847482
      7          6           0        0.446191    0.130734   -0.773521
      8          1           0        0.697048    1.105252   -1.202857
      9          1           0        0.675502   -0.621374   -1.534948
     10          6           0       -1.024566    0.104792   -0.425337
     11          6           0       -1.742160   -1.095273   -0.380958
     12          6           0       -1.696838    1.295030   -0.124918
     13          6           0       -3.094189   -1.105141   -0.044190
     14          1           0       -1.235146   -2.026826   -0.602618
     15          6           0       -3.048809    1.289071    0.213755
     16          1           0       -1.158175    2.237168   -0.161220
     17          6           0       -3.752291    0.086759    0.255349
     18          1           0       -3.634203   -2.045219   -0.015737
     19          1           0       -3.552168    2.222766    0.439412
     20          1           0       -4.804874    0.079037    0.515450
     21          7           0        1.295236   -1.514383    0.877501
     22          1           0        1.776877   -2.121998    0.222538
     23          1           0        1.717501   -1.645181    1.790121
 ---------------------------------------------------------------------
                    Distance matrix (angstroms):
                    1          2          3          4          5
     1  C    0.000000
     2  H    1.091576   0.000000
     3  C    1.528790   2.101916   0.000000
     4  O    2.435420   2.538631   1.205531   0.000000
     5  O    2.398401   3.268210   1.359458   2.248246   0.000000
     6  H    3.229213   3.970997   1.890013   2.294883   0.969060
     7  C    1.553865   2.161482   2.504322   3.318236   3.088888
     8  H    2.165473   2.567305   2.566422   3.051168   3.255259
     9  H    2.161388   3.047700   2.847550   3.838183   2.925804
    10  C    2.560218   2.697099   3.848511   4.555714   4.536883
    11  C    3.365854   3.606416   4.776908   5.652421   5.244193
    12  C    3.427436   3.164096   4.574227   4.977560   5.495511
    13  C    4.598711   4.622394   6.056371   6.846688   6.611609
    14  H    3.395398   3.884922   4.728810   5.756577   4.934376
    15  C    4.645300   4.286734   5.898638   6.301061   6.814092
    16  H    3.511734   3.135331   4.363304   4.518041   5.403938
    17  C    5.131070   4.909153   6.537368   7.129342   7.297803
    18  H    5.382199   5.473756   6.853180   7.722951   7.287410
    19  H    5.452695   4.963439   6.602597   6.844529   7.611399
    20  H    6.179353   5.901188   7.598606   8.164612   8.371777
    21  N    1.459138   2.080033   2.519036   3.560725   2.833868
    22  H    2.053892   2.930634   2.689749   3.852050   2.485187
    23  H    2.058890   2.320963   2.831548   3.691363   3.206450
                    6          7          8          9         10
     6  H    0.000000
     7  C    3.891329   0.000000
     8  H    3.851487   1.094049   0.000000
     9  H    3.749292   1.094541   1.758404   0.000000
    10  C    5.374418   1.511632   2.137618   2.156104   0.000000
    11  C    6.164462   2.538913   3.386379   2.720545   1.398952
    12  C    6.232956   2.523657   2.632234   3.359879   1.399596
    13  C    7.529267   3.820157   4.538923   4.082519   2.427458
    14  H    5.883286   2.740651   3.728750   2.548551   2.149318
    15  C    7.586567   3.812018   4.008993   4.536326   2.430744
    16  H    6.014005   2.717714   2.409999   3.663436   2.152821
    17  C    8.158204   4.322934   4.791692   4.828247   2.811431
    18  H    8.231883   4.686003   5.485841   4.786324   3.405954
    19  H    8.323769   4.672759   4.690599   5.464469   3.409161
    20  H    9.236503   5.407199   5.854643   5.893151   3.895699
    21  N    3.754225   2.480557   3.398265   2.646024   3.114578
    22  H    3.409851   2.799582   3.689570   2.560011   3.636814
    23  H    4.009001   3.367843   4.190957   3.631808   3.935682
                   11         12         13         14         15
    11  C    0.000000
    12  C    2.404404   0.000000
    13  C    1.393374   2.778476   0.000000
    14  H    1.083507   3.387637   2.148810   0.000000
    15  C    2.783184   1.393758   2.408495   3.866654   0.000000
    16  H    3.390352   1.085864   3.864308   4.287470   2.148020
    17  C    2.417170   2.414417   1.394076   3.396965   1.393618
    18  H    2.148397   3.862974   1.084514   2.469867   3.393058
    19  H    3.867624   2.149747   3.393903   4.951106   1.084471
    20  H    3.400407   3.398323   2.154511   4.292749   2.153826
    21  N    3.314385   4.224944   4.503781   2.975934   5.212546
    22  H    3.715103   4.885028   4.983214   3.124456   5.909544
    23  H    4.121315   4.895909   5.177712   3.819552   5.814850
                   16         17         18         19         20
    16  H    0.000000
    17  C    3.395177   0.000000
    18  H    4.948810   2.152385   0.000000
    19  H    2.468232   2.153243   4.292969   0.000000
    20  H    4.291133   1.084271   2.482961   2.484075   0.000000
    21  N    4.601337   5.331816   5.037760   6.136410   6.315173
    22  H    5.269168   5.954106   5.416868   6.879152   6.946208
    23  H    5.210554   5.939172   5.662322   6.674941   6.865791
                   21         22         23
    21  N    0.000000
    22  H    1.014963   0.000000
    23  H    1.014047   1.639572   0.000000
 Stoichiometry    C9H11NO2
 Framework group  C1[X(C9H11NO2)]
 Deg. of freedom    63
 Full point group                 C1      NOp   1
 Largest Abelian subgroup         C1      NOp   1
 Largest concise Abelian subgroup C1      NOp   1
                         Standard orientation:                         
 ---------------------------------------------------------------------
 Center     Atomic      Atomic             Coordinates (Angstroms)
 Number     Number       Type             X           Y           Z
 ---------------------------------------------------------------------
      1          6           0        1.370873   -0.121471    0.449530
      2          1           0        1.031649    0.510785    1.272159
      3          6           0        2.777210    0.372255    0.109456
      4          8           0        3.246523    1.431957    0.441243
      5          8           0        3.463309   -0.520150   -0.652783
      6          1           0        4.328156   -0.128730   -0.847482
      7          6           0        0.446191    0.130734   -0.773521
      8          1           0        0.697048    1.105252   -1.202857
      9          1           0        0.675502   -0.621374   -1.534948
     10          6           0       -1.024566    0.104792   -0.425337
     11          6           0       -1.742160   -1.095273   -0.380958
     12          6           0       -1.696838    1.295030   -0.124918
     13          6           0       -3.094189   -1.105141   -0.044190
     14          1           0       -1.235146   -2.026826   -0.602618
     15          6           0       -3.048809    1.289071    0.213755
     16          1           0       -1.158175    2.237168   -0.161220
     17          6           0       -3.752291    0.086759    0.255349
     18          1           0       -3.634203   -2.045219   -0.015737
     19          1           0       -3.552168    2.222766    0.439412
     20          1           0       -4.804874    0.079037    0.515450
     21          7           0        1.295236   -1.514383    0.877501
     22          1           0        1.776877   -2.121998    0.222538
     23          1           0        1.717501   -1.645181    1.790121
 ---------------------------------------------------------------------
 Rotational constants (GHZ):      2.3582077      0.4570245      0.4116528
 1\1\GINC-KALI\FOpt\RB3LYP\6-311++G(d,p)\C9H11N1O2\ROOT\29-Mar-2016\0\\
 # opt freq b3lyp/6-311++g(d,p)\\Phe-R-opt-freq--6-311++g(d,p)\\0,1\C,1
 .370873,-0.121471,0.44953\H,1.031649,0.510785,1.272159\C,2.77721,0.372
 255,0.109456\O,3.246523,1.431957,0.441243\O,3.463309,-0.52015,-0.65278
 3\H,4.328156,-0.12873,-0.847482\C,0.446191,0.130734,-0.773521\H,0.6970
 48,1.105252,-1.202857\H,0.675502,-0.621374,-1.534948\C,-1.024566,0.104
 792,-0.425337\C,-1.74216,-1.095273,-0.380958\C,-1.696838,1.29503,-0.12
 4918\C,-3.094189,-1.105141,-0.04419\H,-1.235146,-2.026826,-0.602618\C,
 -3.048809,1.289071,0.213755\H,-1.158175,2.237168,-0.16122\C,-3.752291,
 0.086759,0.255349\H,-3.634203,-2.045219,-0.015737\H,-3.552168,2.222766
 ,0.439412\H,-4.804874,0.079037,0.51545\N,1.295236,-1.514383,0.877501\H
 ,1.776877,-2.121998,0.222538\H,1.717501,-1.645181,1.790121\\Version=ES
 64L-G09RevD.01\State=1-A\HF=-554.9584839\RMSD=3.007e-09\RMSF=4.710e-06
 \Dipole=0.2896846,-0.5749224,-0.2043451\Quadrupole=3.4034947,-1.51521,
 -1.8882846,-5.4770551,-3.0839883,-0.9413205\PG=C01 [X(C9H11N1O2)]\\@


 GOORD'S AXIOM:  A MEETING IS AN EVENT AT WHICH
 THE MINUTES ARE KEPT AND THE HOURS ARE LOST.
 Job cpu time:       0 days  0 hours 18 minutes  7.7 seconds.
 File lengths (MBytes):  RWF=     63 Int=      0 D2E=      0 Chk=      8 Scr=      1
 Normal termination of Gaussian 09 at Tue Mar 29 22:12:42 2016.
 Link1:  Proceeding to internal job step number  2.
 ----------------------------------------------------------------------
 #N Geom=AllCheck Guess=TCheck SCRF=Check GenChk RB3LYP/6-311++G(d,p) F
 req
 ----------------------------------------------------------------------
 1/10=4,29=7,30=1,38=1,40=1/1,3;
 2/12=2,40=1/2;
 3/5=4,6=6,7=1111,11=2,14=-4,16=1,25=1,30=1,70=2,71=2,74=-5,116=1,140=1/1,2,3;
 4/5=101/1;
 5/5=2,98=1/2;
 8/6=4,10=90,11=11/1;
 11/6=1,8=1,9=11,15=111,16=1/1,2,10;
 10/6=1/2;
 6/7=2,8=2,9=2,10=2,18=1,28=1/1;
 7/8=1,10=1,25=1/1,2,3,16;
 1/10=4,30=1/3;
 99//99;
 Structure from the checkpoint file:  "Phe-R-opt-freq-6-311gdp.chk"
 -----------------------------
 Phe-R-opt-freq--6-311++g(d,p)
 -----------------------------
 Charge =  0 Multiplicity = 1
 Redundant internal coordinates found in file.
 C,0,1.370873,-0.121471,0.44953
 H,0,1.031649,0.510785,1.272159
 C,0,2.77721,0.372255,0.109456
 O,0,3.246523,1.431957,0.441243
 O,0,3.463309,-0.52015,-0.652783
 H,0,4.328156,-0.12873,-0.847482
 C,0,0.446191,0.130734,-0.773521
 H,0,0.697048,1.105252,-1.202857
 H,0,0.675502,-0.621374,-1.534948
 C,0,-1.024566,0.104792,-0.425337
 C,0,-1.74216,-1.095273,-0.380958
 C,0,-1.696838,1.29503,-0.124918
 C,0,-3.094189,-1.105141,-0.04419
 H,0,-1.235146,-2.026826,-0.602618
 C,0,-3.048809,1.289071,0.213755
 H,0,-1.158175,2.237168,-0.16122
 C,0,-3.752291,0.086759,0.255349
 H,0,-3.634203,-2.045219,-0.015737
 H,0,-3.552168,2.222766,0.439412
 H,0,-4.804874,0.079037,0.51545
 N,0,1.295236,-1.514383,0.877501
 H,0,1.776877,-2.121998,0.222538
 H,0,1.717501,-1.645181,1.790121
 Recover connectivity data from disk.

 GradGradGradGradGradGradGradGradGradGradGradGradGradGradGradGradGradGrad
 Berny optimization.
 Initialization pass.
                           ----------------------------
                           !    Initial Parameters    !
                           ! (Angstroms and Degrees)  !
 --------------------------                            --------------------------
 ! Name  Definition              Value          Derivative Info.                !
 --------------------------------------------------------------------------------
 ! R1    R(1,2)                  1.0916         calculate D2E/DX2 analytically  !
 ! R2    R(1,3)                  1.5288         calculate D2E/DX2 analytically  !
 ! R3    R(1,7)                  1.5539         calculate D2E/DX2 analytically  !
 ! R4    R(1,21)                 1.4591         calculate D2E/DX2 analytically  !
 ! R5    R(3,4)                  1.2055         calculate D2E/DX2 analytically  !
 ! R6    R(3,5)                  1.3595         calculate D2E/DX2 analytically  !
 ! R7    R(5,6)                  0.9691         calculate D2E/DX2 analytically  !
 ! R8    R(7,8)                  1.094          calculate D2E/DX2 analytically  !
 ! R9    R(7,9)                  1.0945         calculate D2E/DX2 analytically  !
 ! R10   R(7,10)                 1.5116         calculate D2E/DX2 analytically  !
 ! R11   R(10,11)                1.399          calculate D2E/DX2 analytically  !
 ! R12   R(10,12)                1.3996         calculate D2E/DX2 analytically  !
 ! R13   R(11,13)                1.3934         calculate D2E/DX2 analytically  !
 ! R14   R(11,14)                1.0835         calculate D2E/DX2 analytically  !
 ! R15   R(12,15)                1.3938         calculate D2E/DX2 analytically  !
 ! R16   R(12,16)                1.0859         calculate D2E/DX2 analytically  !
 ! R17   R(13,17)                1.3941         calculate D2E/DX2 analytically  !
 ! R18   R(13,18)                1.0845         calculate D2E/DX2 analytically  !
 ! R19   R(15,17)                1.3936         calculate D2E/DX2 analytically  !
 ! R20   R(15,19)                1.0845         calculate D2E/DX2 analytically  !
 ! R21   R(17,20)                1.0843         calculate D2E/DX2 analytically  !
 ! R22   R(21,22)                1.015          calculate D2E/DX2 analytically  !
 ! R23   R(21,23)                1.014          calculate D2E/DX2 analytically  !
 ! A1    A(2,1,3)              105.4534         calculate D2E/DX2 analytically  !
 ! A2    A(2,1,7)              108.3143         calculate D2E/DX2 analytically  !
 ! A3    A(2,1,21)             108.4077         calculate D2E/DX2 analytically  !
 ! A4    A(3,1,7)              108.6577         calculate D2E/DX2 analytically  !
 ! A5    A(3,1,21)             114.9119         calculate D2E/DX2 analytically  !
 ! A6    A(7,1,21)             110.7906         calculate D2E/DX2 analytically  !
 ! A7    A(1,3,4)              125.5055         calculate D2E/DX2 analytically  !
 ! A8    A(1,3,5)              112.1471         calculate D2E/DX2 analytically  !
[...]
 489,0.00596770,0.12236058,-0.00041953,-0.00053306,0.00005414,0.0001092
 2,0.00002546,0.00009806,-0.00013680,-0.00007088,-0.00016870,0.00012456
 ,0.00015679,0.00006052,0.00002723,0.00007301,0.00003188,-0.00001678,0.
 00000275,0.00001769,0.00153066,0.00078380,-0.00040232,0.00006848,0.000
 28614,0.00024606,-0.00095266,0.00027791,0.00054869,0.01478676,-0.01945
 230,-0.00624380,0.11008803,-0.26420659,-0.05138206,-0.00407631,-0.0029
 7988,0.00000905,-0.00239691,0.00405169,0.00084180,-0.11924021,0.279359
 69,-0.00062407,-0.00112314,0.00052848,-0.00000461,0.00002663,-0.000002
 61,-0.00020502,0.00015912,-0.00031570,0.00005982,-0.00004895,0.0000803
 5,0.00003575,0.00001998,-0.00002122,-0.00000907,0.00000145,0.00003151,
 -0.00185870,0.00119722,-0.00287024,0.00027014,-0.00001146,-0.00002074,
 0.00019431,-0.00047026,-0.00017755,0.00081700,0.00081299,0.00336103,0.
 03172071,-0.05001000,-0.04959294,0.00109984,-0.00006988,0.00635462,0.0
 0303542,-0.00736223,0.00189488,-0.03684630,0.05550698,0.03944010,-0.00
 012659,0.00007358,-0.00103244,-0.00031716,-0.00001439,-0.00046838,0.00
 015951,0.00005759,-0.00002075,0.00003134,-0.00009697,-0.00002125,0.000
 12312,-0.00003477,-0.00004097,0.00002435,-0.00002389,-0.00001299,0.003
 69449,0.00245249,0.00284867,-0.00016516,-0.00069158,0.00014465,-0.0006
 6720,-0.00016664,-0.00061577,-0.02323233,0.07420645,0.01632984,-0.0498
 5756,-0.02852328,0.00844955,-0.31573883,-0.03321390,0.05961867,0.06082
 264,-0.02333780,-0.01609317,-0.00069269,-0.00079325,-0.00011415,0.6412
 9382,-0.00041987,-0.00023596,-0.00062734,-0.00004546,-0.00003976,0.000
 05647,0.00011198,-0.00019786,-0.00031116,-0.00000143,0.00017108,0.0000
 6679,-0.00001822,0.00014304,0.00014969,0.00000137,-0.00002247,0.000019
 85,0.00195738,-0.00424866,-0.00147151,-0.00001581,0.00021893,-0.000029
 11,0.00113714,-0.00006829,-0.00052916,0.02830291,0.03444927,-0.0029018
 7,-0.02927684,-0.01807670,0.00582920,0.02852984,-0.12676628,-0.0145898
 8,0.02185010,-0.05821842,-0.01308915,-0.00066092,0.00016281,0.00042827
 ,-0.01704653,0.70966252,0.00147790,-0.00032108,-0.00034976,0.00013566,
 0.00002060,0.00010641,-0.00004792,-0.00020340,0.00047021,0.00006245,0.
 00021521,-0.00004403,-0.00001432,-0.00000097,-0.00006613,-0.00000374,0
 .00000732,-0.00002701,0.00144657,-0.00074658,0.00609054,-0.00017642,-0
 .00035655,-0.00004736,-0.00076285,0.00011635,0.00025334,0.01008695,-0.
 01578820,0.00172224,0.00779796,0.00593981,-0.00711719,0.06664417,0.001
 02488,-0.07836594,-0.01078247,-0.00157908,0.01035043,-0.00010117,0.000
 31011,-0.00094309,-0.12877814,0.06753838,0.17248347,-0.00010462,0.0002
 1599,0.00001907,-0.00005972,0.00001437,-0.00011179,-0.00018160,0.00005
 597,0.00006241,0.00009828,-0.00003129,0.00000159,0.00009422,-0.0000536
 7,-0.00006888,-0.00001976,0.00000927,0.00000839,0.00060765,0.00113356,
 -0.00118430,0.00011074,0.00005982,0.00020812,0.00013245,-0.00015311,-0
 .00003722,0.00951607,0.01254454,-0.00001596,-0.00035271,0.00303299,0.0
 0209278,-0.12328691,-0.11680381,0.00990728,-0.00064615,0.00071680,-0.0
 0001827,0.00047632,0.00071922,-0.00001949,-0.01064580,-0.02826517,0.00
 025963,0.12897069,0.00050200,-0.00022906,-0.00004201,0.00013754,-0.000
 10250,0.00022826,0.00014780,-0.00030607,0.00000503,-0.00004434,0.00022
 500,0.00002260,-0.00009333,0.00011270,0.00007932,0.00001383,-0.0000090
 8,-0.00001401,-0.00166094,0.00050430,0.00115327,0.00101752,0.00047293,
 -0.00056316,-0.00005188,0.00044932,-0.00012749,-0.01582984,-0.01942878
 ,0.00159750,0.00375428,-0.00290397,-0.00194313,-0.11658556,-0.26287249
 ,0.00547657,0.00090478,0.00016412,-0.00008378,-0.00081896,-0.00106729,
 0.00000155,0.00198703,0.00310453,-0.00054688,0.12659799,0.27889838,-0.
 00048613,0.00028480,0.00041957,-0.00015143,0.00003928,-0.00017883,-0.0
 0000249,0.00018110,-0.00013839,-0.00000462,-0.00015782,-0.00003734,0.0
 0006745,-0.00005333,-0.00006142,0.00001040,-0.00000957,0.00002529,-0.0
 0192124,-0.00058586,-0.00290331,0.00035772,0.00054372,-0.00007674,0.00
 035642,-0.00005633,-0.00000012,-0.00239347,-0.00569891,0.00330698,0.00
 208416,-0.00200227,0.00586267,0.00980993,0.00605896,-0.03807515,0.0001
 0907,-0.00006887,-0.00103448,-0.00021511,-0.00030966,0.00024047,0.0035
 3007,0.00703182,0.00292055,-0.01297715,-0.00523870,0.02791071,-0.00030
 364,-0.00030451,0.00073509,0.00005936,-0.00004212,0.00005492,0.0004230
 0,0.00035783,-0.00039824,-0.00023070,-0.00023486,0.00005688,-0.0002161
 6,0.00003659,0.00012143,0.00002305,-0.00001644,0.00000419,-0.00076131,
 0.00016596,-0.00077193,0.00000884,0.00015380,0.00002982,-0.00006530,-0
 .00013752,0.00001502,0.00100006,-0.00165524,-0.00159161,-0.02377446,0.
 02900156,0.01089957,-0.02811320,-0.02817495,0.00587440,-0.16987674,0.1
 1079312,0.03931355,-0.00474309,-0.00070236,0.00319856,-0.17618410,-0.1
 2107635,0.01478895,-0.00478657,0.00021831,0.00303365,0.70249097,-0.000
 01467,0.00016864,0.00062671,0.00021147,-0.00000313,0.00040310,-0.00024
 676,-0.00007636,0.00013054,0.00000225,0.00006425,-0.00001175,-0.000044
 00,-0.00000563,0.00000215,-0.00002266,0.00001690,0.00000561,-0.0006391
 5,-0.00148437,-0.00066483,0.00010133,0.00037942,-0.00034249,0.00006568
 ,0.00038578,0.00050625,-0.00092414,-0.06920023,-0.00739709,0.07393760,
 0.03469655,-0.01600498,-0.07343234,0.03211479,0.02176964,0.04934195,-0
 .27546780,-0.03623383,-0.00152701,0.00184599,-0.00023146,-0.05974566,-
 0.27864458,-0.00906461,0.00123985,0.00201635,-0.00079244,0.01458893,0.
 64788568,-0.00015136,-0.00001338,0.00003324,-0.00001241,0.00000741,0.0
 0000761,-0.00014374,-0.00007057,-0.00000681,0.00006369,0.00003449,0.00
 000716,0.00006686,0.00001369,-0.00001179,-0.00001452,0.00001135,-0.000
 00394,-0.00000148,-0.00007666,-0.00110394,0.00014171,-0.00001681,-0.00
 009395,0.00017524,0.00011845,-0.00002377,-0.00219482,-0.00663012,-0.00
 648067,0.01634570,-0.00438141,0.00280078,0.00090129,0.00960036,0.00852
 840,0.03224707,-0.05160460,-0.07643277,0.00269615,-0.00028405,0.006536
 09,0.02136606,0.00597930,-0.06701063,0.00317426,-0.00058452,0.00645642
 ,-0.14044521,0.05431174,0.17302697,-0.00003388,-0.00016358,0.00017917,
 0.00001033,0.00000259,-0.00000476,0.00015939,0.00007709,-0.00013187,-0
 .00006974,-0.00004330,0.00001698,-0.00008516,0.00003728,0.00004341,0.0
 0001794,-0.00001182,0.00000306,-0.00019530,-0.00134711,0.00001185,-0.0
 0045417,-0.00005819,0.00007097,0.00002671,0.00004425,0.00000257,-0.004
 54686,0.00109615,0.00299342,-0.01048998,-0.02811809,0.00025583,-0.0008
 0228,0.00091015,0.00007295,-0.12576966,-0.11917984,0.00888188,0.000732
 43,0.00048079,-0.00112425,-0.00014887,0.00286782,0.00214578,-0.0000207
 3,-0.00007715,-0.00026582,0.01106130,0.01422089,-0.00037007,0.12976183
 ,-0.00002957,-0.00004519,0.00003767,0.00000762,-0.00000084,0.00000719,
 0.00010565,0.00004836,-0.00007315,-0.00005516,-0.00003315,0.00001249,-
 0.00006144,0.00001655,0.00003536,0.00001059,-0.00000609,-0.00000236,0.
 00024886,-0.00000892,-0.00005359,-0.00001893,-0.00000174,-0.00000580,-
 0.00003372,0.00001163,0.00000004,0.00036580,0.00198014,-0.00067261,0.0
 0199993,0.00313984,-0.00047900,0.00084179,0.00027861,-0.00007978,-0.11
 925422,-0.26541502,0.00381757,-0.00024029,0.00073475,0.00060997,0.0037
 2277,-0.00292818,-0.00206548,-0.00006438,-0.00004464,0.00012909,-0.015
 95357,-0.01830704,0.00155823,0.12880618,0.28066974,0.00003965,-0.00003
 281,0.00004096,0.00000726,-0.00001997,-0.00000852,-0.00005569,-0.00002
 764,0.00003696,0.00003073,0.00002907,-0.00001104,0.00003408,-0.0000105
 9,-0.00002992,-0.00000311,0.00000280,0.00000411,-0.00011585,0.00036260
 ,0.00014413,0.00000712,0.00003194,-0.00008290,0.00000406,-0.00004470,-
 0.00003709,0.00324528,-0.00080783,0.00652485,0.00352027,0.00712579,0.0
 0324573,0.00006670,-0.00005249,-0.00099677,0.00896190,0.00386004,-0.03
 831779,-0.00112912,0.00031682,-0.00374306,0.00227488,-0.00186557,0.006
 34170,-0.00026576,0.00011784,-0.00096796,-0.00384067,-0.00602935,0.003
 39372,-0.01157054,-0.00324099,0.02790379,-0.00008643,-0.00003653,0.000
 18549,0.00000644,0.00000736,-0.00002817,0.00016758,0.00019286,-0.00006
 177,-0.00009909,-0.00014866,-0.00000635,-0.00006985,-0.00002590,0.0000
 0361,0.00001517,-0.00000334,-0.00000138,-0.00018560,0.00129144,0.00033
 610,0.00003765,-0.00003812,-0.00001205,-0.00043246,0.00003980,0.000075
 92,-0.00459726,-0.00157369,0.00268421,-0.00082153,-0.00082021,-0.00013
 266,-0.00943277,0.02805843,0.00605539,-0.00048595,-0.00334967,0.001510
 58,-0.00000180,0.00012269,-0.00024191,-0.11683883,0.10928986,0.0319967
 7,0.00068983,-0.00025536,-0.00121748,0.01116776,-0.01493912,-0.0036282
 3,0.00036727,-0.00079334,-0.00013661,0.12008333,0.00004056,0.00001294,
 -0.00005937,-0.00000727,-0.00000043,-0.00001687,-0.00010297,-0.0000662
 7,0.00004351,0.00006463,0.00005450,0.00000247,0.00004965,-0.00000093,-
 0.00002002,-0.00000970,0.00000405,0.00000003,-0.00019593,0.00001169,0.
 00002220,0.00001953,-0.00000381,0.00001014,0.00004267,-0.00000966,0.00
 001659,-0.00078265,0.00200649,-0.00038144,-0.00079711,0.00022673,0.000
 34057,-0.00221904,0.00347638,0.00058836,-0.00423880,-0.00301651,-0.000
 06533,0.00010980,-0.00003310,0.00007676,0.10936426,-0.26276317,-0.0516
 0851,0.00049627,0.00074885,0.00039549,0.01529075,-0.01822986,-0.006084
 91,0.00074997,-0.00101587,-0.00033687,-0.11772293,0.27771834,0.0000199
 4,0.00001701,-0.00000210,-0.00002532,0.00001504,0.00000517,-0.00008820
 ,-0.00004662,0.00005914,0.00003292,0.00003761,-0.00002437,0.00004576,-
 0.00001038,-0.00003418,-0.00000689,-0.00000015,0.00000766,-0.00009519,
 -0.00037818,0.00013052,-0.00000221,0.00005407,-0.00002498,0.00000239,-
 0.00003526,-0.00006350,0.00305871,-0.00033289,0.00657188,-0.00003666,0
 .00039831,-0.00092901,0.00290334,-0.00675849,0.00154779,0.00136610,-0.
 00026832,0.00679301,-0.00022717,0.00007043,-0.00099454,0.03195491,-0.0
 5146449,-0.04948242,-0.00113185,0.00055693,-0.00370036,-0.00037802,0.0
 0122180,0.00328572,0.00003714,0.00006612,0.00019541,-0.03630594,0.0564
 8724,0.04029662,-0.00001025,-0.00002290,0.00004307,0.00000942,-0.00000
 728,0.00001126,0.00013047,0.00005274,-0.00005833,-0.00007874,-0.000051
 37,0.00000238,-0.00006991,0.00001347,0.00003209,0.00001572,-0.00000641
 ,-0.00000131,-0.00011940,0.00001051,-0.00016833,0.00001712,0.00000503,
 -0.00001819,0.00001552,0.00000796,-0.00001453,0.00060624,0.00003996,-0
 .00040672,0.00117633,0.00280399,0.00181186,0.00101500,-0.00333774,0.00
 115090,-0.01018505,-0.00294461,0.00288911,-0.00057462,-0.00020774,0.00
 020043,-0.01116642,0.00278421,0.00377259,-0.00064597,0.00016504,0.0002
 4234,-0.31725216,-0.00248877,0.06958966,0.00052048,0.00042603,-0.00106
 203,0.00052825,-0.00017628,-0.00113605,0.33612015,0.00001742,-0.000043
 90,0.00001526,0.00001738,-0.00000422,0.00002433,-0.00000852,-0.0000359
 8,-0.00001131,0.00000716,0.00003469,0.00000652,-0.00000486,0.00001467,
 0.00000887,-0.00000039,-0.00000025,-0.00000024,0.00002769,0.00011988,0
 .00009883,0.00008168,0.00003516,-0.00003722,-0.00008046,0.00005352,0.0
 0004198,-0.00001807,-0.00136280,-0.00005613,0.00193476,-0.00429470,-0.
 00179059,-0.00243439,-0.00434044,-0.00066995,0.02728033,0.00480202,-0.
 00649725,0.00129435,0.00006358,-0.00040062,-0.02746435,0.00438717,0.00
 696975,-0.00136617,0.00000095,0.00032591,-0.00245917,-0.05874293,-0.00
 197743,-0.00043051,0.00090038,0.00065700,0.00067250,0.00090057,0.00036
 411,0.00291171,0.05745179,-0.00015610,-0.00007183,0.00007090,-0.000006
 05,-0.00000454,-0.00000041,-0.00003531,0.00002764,-0.00005581,0.000006
 06,-0.00002448,0.00000691,0.00001438,-0.00000319,-0.00000228,-0.000003
 48,0.00000129,0.00000769,-0.00051991,0.00009630,-0.00084043,0.00005711
 ,0.00012951,0.00002470,0.00006850,-0.00013560,-0.00000437,-0.00018074,
 0.00000886,-0.00092028,0.00162009,-0.00201817,0.00650201,0.00124712,-0
 .00044288,0.00682770,0.00640886,0.00082775,0.00134585,0.00038959,0.000
 02664,0.00007043,0.00044085,-0.00041182,0.00267449,0.00009894,-0.00005
 092,0.00019566,0.06950854,-0.00190870,-0.05304768,-0.00115952,0.000431
 88,-0.00358642,-0.00103710,0.00056299,-0.00363100,-0.07682380,0.002898
 30,0.04437359,-0.05757698,0.01940211,0.00283742,0.00140572,0.01040588,
 -0.00433365,0.00618896,-0.02615629,0.01071508,-0.00848875,-0.00379484,
 -0.00282816,-0.00260076,-0.00127363,0.00159208,0.00122028,-0.00053962,
 -0.00086513,0.00443740,0.01753911,-0.00647117,-0.00194791,0.00067897,-
 0.00293787,0.00079648,-0.00063418,0.00101340,-0.00029777,0.00065357,0.
 00102001,-0.00074391,-0.00048076,-0.00113571,0.00051632,-0.00027689,-0
 .00038745,0.00054219,0.00032643,-0.00071985,-0.00028649,0.00088252,0.0
 0077701,-0.00043870,-0.00002095,0.00004132,0.00002200,0.00003643,0.000
 05459,0.00009877,0.00039361,0.00014304,0.00005092,-0.00002774,0.000013
 34,-0.00000390,0.00003301,0.00002313,-0.00005578,0.00004727,0.00009577
 ,0.25583279,-0.02080343,-0.20189142,0.02788170,-0.00122682,-0.02735675
 ,0.00885965,-0.00390880,-0.02853280,0.01010267,-0.00744141,-0.00157149
 ,-0.00041893,-0.00245951,0.00254768,-0.00042185,0.00027536,0.00021982,
 -0.00084537,0.00469007,-0.01255467,0.00826241,0.00044992,0.00062399,0.
 00062686,-0.00089113,0.00159422,-0.00086261,-0.00217216,0.00052307,0.0
 0094534,0.00005012,-0.00077208,-0.00096093,0.00080415,-0.00022521,-0.0
 0024423,0.00053639,0.00026485,-0.00038859,0.00024563,0.00030735,0.0009
 0277,-0.00055061,-0.00010012,0.00014689,-0.00009853,0.00023848,-0.0000
 4243,0.00014384,0.00048629,0.00008253,0.00017028,0.00003790,-0.0000386
 1,0.00003823,-0.00001513,-0.00000546,0.00003052,0.00004820,0.00005304,
 -0.14991820,0.50027065,0.01325992,0.02683228,-0.11068816,-0.00273537,-
 0.02392131,0.01037554,0.00002041,0.01212083,-0.00336743,0.00237063,0.0
 0226331,0.00143642,0.00108766,-0.00000648,0.00050254,-0.00072532,0.000
 52660,0.00021711,-0.00055213,0.03511412,-0.01543809,-0.00492253,0.0020
 1946,-0.00493694,0.00170760,0.00077494,0.00318572,0.00232205,-0.000233
 90,0.00068537,-0.00062683,-0.00100878,-0.00037196,-0.00056726,0.000222
 82,0.00042795,-0.00034598,0.00042668,0.00014419,0.00004978,0.00071786,
 0.00008518,0.00015883,0.00019727,0.00004577,-0.00000901,-0.00001039,-0
 .00018065,-0.00025390,-0.00024069,0.00017277,-0.00010376,-0.00004619,-
 0.00006518,-0.00005183,0.00003465,-0.00001436,-0.00007154,0.00004056,-
 0.00001399,0.03003116,0.04798951,0.68963365,-0.00299370,-0.00919443,-0
 .00088131,0.00063017,-0.00042740,-0.00001918,0.00217504,-0.00280108,-0
 .00294335,-0.00002556,0.00108639,0.00091528,-0.00089187,0.00003914,0.0
 0033206,-0.00012131,0.00020026,0.00017732,-0.00023557,0.00113158,0.001
 28412,0.00012338,-0.00046529,-0.00025497,0.00003780,0.00015745,-0.0007
 9832,-0.00020205,0.00003365,-0.00023649,-0.00021652,0.00097244,0.00022
 306,0.00003727,-0.00010434,-0.00010633,0.00002766,-0.00037956,-0.00003
 527,-0.00045169,-0.00029654,-0.00030084,0.00002661,-0.00008248,-0.0000
 1042,0.00002583,-0.00006363,0.00001668,0.00008870,0.00002512,-0.000024
 85,-0.00002956,0.00001772,0.00001744,0.00001620,-0.00002209,0.00000320
 ,0.00003503,-0.00004035,-0.00001604,-0.11141709,0.14445213,0.13754003,
 0.10892191,0.01865877,-0.02638238,-0.02659501,-0.00064338,-0.00556100,
 0.00352770,0.00096451,-0.00250008,-0.00346443,0.00017270,0.00152655,0.
 00122591,0.00032648,0.00117737,0.00026923,-0.00049218,0.00074262,0.000
 31958,-0.00051534,0.00073555,-0.00058106,-0.00021285,0.00019603,0.0001
 9804,0.00047968,0.00030785,0.00094322,0.00003300,0.00011077,-0.0000436
 8,-0.00008688,0.00019046,0.00006442,-0.00010573,-0.00010931,0.00003365
 ,0.00003348,-0.00007879,-0.00002343,-0.00002515,0.00003222,-0.00006892
 ,-0.00005380,0.00000941,0.00002397,0.00000418,0.00000626,-0.00003155,-
 0.00001138,0.00002939,-0.00001417,-0.00003161,-0.00000359,0.00001712,-
 0.00001454,-0.00000137,0.00000644,0.00000112,-0.00000391,0.00000072,0.
 10614520,-0.17332240,-0.12823563,-0.12172802,0.19909310,-0.00565074,0.
 00703730,0.00903675,-0.00004988,0.00282580,0.00060235,-0.00025179,0.00
 069082,0.00061019,0.00048106,0.00001154,-0.00003052,0.00086146,0.00088
 086,-0.00080550,-0.00018815,-0.00011035,-0.00017999,0.00007657,0.00073
 294,0.00230683,0.00011164,-0.00025963,-0.00023924,0.00003180,-0.000459
 80,-0.00071827,-0.00007178,-0.00011549,-0.00025606,0.00007637,0.000141
 55,0.00005265,0.00000640,0.00004686,-0.00011073,-0.00005592,-0.0000430
 6,0.00001406,-0.00012153,-0.00004977,0.00004351,0.00006926,-0.00001232
 ,0.00001123,0.00000941,-0.00002512,0.00001556,0.00000970,-0.00005219,-
 0.00001792,0.00000494,0.00000539,0.00001036,0.00001292,-0.00000473,0.0
 0000821,0.00000682,-0.00000879,-0.00000431,0.10406280,-0.13744853,-0.2
 1727156,-0.12045212,0.14829764,0.22888293,-0.00477700,-0.00671107,0.00
 576429,0.00018423,0.00037852,-0.00021471,0.00163882,-0.00144767,0.0018
 6682,-0.00016157,0.00019254,-0.00045383,-0.00074909,0.00042447,-0.0001
 8562,-0.00005442,-0.00008178,0.00008344,0.00009891,0.00233110,-0.00114
 417,-0.00026637,0.00033046,-0.00068473,0.00011864,-0.00007480,0.000339
 46,0.00105475,-0.00007294,-0.00029251,0.00004148,-0.00044793,0.0000275
 2,-0.00013056,0.00006186,0.00018550,-0.00018307,0.00013374,0.00014380,
 0.00007568,0.00029891,-0.00006060,0.00004434,0.00009742,0.00002076,0.0
 0000646,-0.00000156,-0.00003754,-0.00011439,-0.00010442,0.00007598,-0.
 00006240,-0.00002058,-0.00004332,-0.00002401,0.00001367,-0.00001406,-0
 .00003143,0.00001497,-0.00001775,-0.08725378,0.03758396,-0.17758261,0.
 00443932,-0.00289825,0.02102077,0.08610544,0.01524528,-0.00555358,0.03
 534713,0.00059077,0.00088042,-0.00061128,0.00106658,0.00016294,0.00120
 006,-0.00011720,-0.00031721,-0.00046173,0.00004434,0.00008747,-0.00010
 552,-0.00007295,0.00008238,0.00015468,-0.00163402,-0.00680705,0.001168
 40,0.00131618,-0.00015523,0.00154423,-0.00022809,0.00020961,-0.0000480
 9,-0.00047215,0.00014663,-0.00005263,-0.00002509,-0.00030592,-0.000121
 67,0.00014981,-0.00007309,-0.00009177,0.00007246,0.00011064,0.00001886
 ,0.00009324,0.00017920,0.00005321,-0.00010674,0.00000169,-0.00003193,-
 0.00000470,0.00002172,0.00005758,0.00001777,0.00007192,0.00002108,-0.0
 0000225,-0.00000765,-0.00001360,0.00000824,-0.00000442,0.00000514,-0.0
 0000921,0.00001654,0.00000723,0.02657898,-0.06082044,0.02442249,-0.012
 51067,0.00380524,-0.02208090,-0.03000060,0.06826820,-0.00491735,-0.000
 74313,-0.00638004,0.00009908,-0.00031940,0.00121335,0.00018519,0.00037
 990,0.00001542,-0.00053724,-0.00042759,-0.00035457,0.00041582,-0.00051
 902,0.00011525,0.00012425,0.00006662,-0.00010584,0.00102033,0.00200790
 ,0.00056732,-0.00054349,-0.00002501,-0.00004038,0.00017061,0.00001228,
 0.00055031,-0.00007890,0.00002469,0.00013464,0.00002097,-0.00001709,-0
 .00003482,-0.00005570,0.00001120,0.00005530,0.00000877,-0.00000602,-0.
 00004652,-0.00000892,-0.00001638,0.00001504,0.00001178,0.00000634,-0.0
 0001681,-0.00000219,-0.00000877,0.00000086,0.00003530,-0.00000314,-0.0
 0001502,0.00001061,0.00000798,0.00000492,0.00000049,-0.00000294,-0.000
 00033,0.00000833,-0.00000190,0.00000705,-0.13274115,0.03582419,-0.3545
 6388,-0.01442972,0.00413025,-0.02196053,0.15120313,-0.04038096,0.38083
 928\\-0.00000952,-0.00000400,-0.00000021,0.00000718,0.00000134,0.,0.00
 000202,0.00000803,-0.00001051,0.00000219,-0.00001220,-0.00000779,0.000
 00297,-0.00000762,-0.00000575,0.00000040,-0.00000542,-0.00000472,-0.00
 000614,-0.00000120,0.00001011,-0.00000206,-0.00000165,-0.00000516,-0.0
 0000060,-0.00000447,-0.00000075,0.00000338,-0.00000392,-0.00000614,0.0
 0000264,0.00000276,0.00000380,-0.00000302,0.00000442,0.00000309,-0.000
 00426,0.00000486,0.00000503,-0.00000412,0.00000110,0.00000380,0.000005
 22,0.00000565,0.00000166,0.00000268,0.00000066,-0.00000226,0.00000069,
 0.00000155,0.00000542,-0.00000128,0.00000379,0.00000634,0.00000301,0.0
 0000452,0.00000119,0.00000118,0.00000676,0.00000504,-0.00000386,-0.000
 00146,-0.00000754,0.00000481,-0.00000257,0.00000320,-0.00000353,-0.000
 00093,0.00000215\\\@


 A FOOL CAN ASK MORE QUESTIONS THAN
 A WISE MAN CAN ANSWER.
 Job cpu time:       0 days  2 hours  1 minutes 17.4 seconds.
 File lengths (MBytes):  RWF=    243 Int=      0 D2E=      0 Chk=     10 Scr=      1
 Normal termination of Gaussian 09 at Wed Mar 30 00:19:15 2016.
