 Entering Link 1 = c:\G03W05\l1.exe PID=       160.
  
 Copyright (c) 1988,1990,1992,1993,1995,1998,2003,2004,2007, Gaussian, Inc.
                  All Rights Reserved.
  
 This is the Gaussian(R) 03 program.  It is based on the
 the Gaussian(R) 98 system (copyright 1998, Gaussian, Inc.),
 the Gaussian(R) 94 system (copyright 1995, Gaussian, Inc.),
 the Gaussian 92(TM) system (copyright 1992, Gaussian, Inc.),
 the Gaussian 90(TM) system (copyright 1990, Gaussian, Inc.),
 the Gaussian 88(TM) system (copyright 1988, Gaussian, Inc.),
 the Gaussian 86(TM) system (copyright 1986, Carnegie Mellon
 University), and the Gaussian 82(TM) system (copyright 1983,
 Carnegie Mellon University). Gaussian is a federally registered
 trademark of Gaussian, Inc.
  
 This software contains proprietary and confidential information,
 including trade secrets, belonging to Gaussian, Inc.
  
 This software is provided under written license and may be
 used, copied, transmitted, or stored only in accord with that
 written license.
  
 The following legend is applicable only to US Government
 contracts under FAR:
  
                    RESTRICTED RIGHTS LEGEND
  
 Use, reproduction and disclosure by the US Government is
 subject to restrictions as set forth in subparagraphs (a)
 and (c) of the Commercial Computer Software - Restricted
 Rights clause in FAR 52.227-19.
  
 Gaussian, Inc.
 340 Quinnipiac St., Bldg. 40, Wallingford CT 06492
  
  
 ---------------------------------------------------------------
 Warning -- This program may not be used in any manner that
 competes with the business of Gaussian, Inc. or will provide
 assistance to any competitor of Gaussian, Inc.  The licensee
 of this program is prohibited from giving any competitor of
 Gaussian, Inc. access to this program.  By using this program,
 the user acknowledges that Gaussian, Inc. is engaged in the
 business of creating and licensing software in the field of
 computational chemistry and represents and warrants to the
 licensee that it is not a competitor of Gaussian, Inc. and that
 it will not use this program in any manner prohibited above.
 ---------------------------------------------------------------
  

 Cite this work as:
 Gaussian 03, Revision E.01,
 M. J. Frisch, G. W. Trucks, H. B. Schlegel, G. E. Scuseria, 
 M. A. Robb, J. R. Cheeseman, J. A. Montgomery, Jr., T. Vreven, 
 K. N. Kudin, J. C. Burant, J. M. Millam, S. S. Iyengar, J. Tomasi, 
 V. Barone, B. Mennucci, M. Cossi, G. Scalmani, N. Rega, 
 G. A. Petersson, H. Nakatsuji, M. Hada, M. Ehara, K. Toyota, 
 R. Fukuda, J. Hasegawa, M. Ishida, T. Nakajima, Y. Honda, O. Kitao, 
 H. Nakai, M. Klene, X. Li, J. E. Knox, H. P. Hratchian, J. B. Cross, 
 V. Bakken, C. Adamo, J. Jaramillo, R. Gomperts, R. E. Stratmann, 
 O. Yazyev, A. J. Austin, R. Cammi, C. Pomelli, J. W. Ochterski, 
 P. Y. Ayala, K. Morokuma, G. A. Voth, P. Salvador, J. J. Dannenberg, 
 V. G. Zakrzewski, S. Dapprich, A. D. Daniels, M. C. Strain, 
 O. Farkas, D. K. Malick, A. D. Rabuck, K. Raghavachari, 
 J. B. Foresman, J. V. Ortiz, Q. Cui, A. G. Baboul, S. Clifford, 
 J. Cioslowski, B. B. Stefanov, G. Liu, A. Liashenko, P. Piskorz, 
 I. Komaromi, R. L. Martin, D. J. Fox, T. Keith, M. A. Al-Laham, 
 C. Y. Peng, A. Nanayakkara, M. Challacombe, P. M. W. Gill, 
 B. Johnson, W. Chen, M. W. Wong, C. Gonzalez, and J. A. Pople, 
 Gaussian, Inc., Wallingford CT, 2004.
 
 ******************************************
 Gaussian 03:  IA32W-G03RevE.01 11-Sep-2007
                30-Mar-2016 
 ******************************************
 %chk=E:\YangJ\Amiano\Phe\opt-rs\r\Phe-R-opt-freq-6-311gdp.chk
 -------------------------------
 # opt freq rb3lyp/6-311++g(d,p)
 -------------------------------
 1/14=-1,18=20,26=3,38=1/1,3;
 2/9=110,17=6,18=5,40=1/2;
 3/5=4,6=6,7=1111,11=2,16=1,25=1,30=1,74=-5/1,2,3;
 4/7=1/1;
 5/5=2,38=5/2;
 6/7=2,8=2,9=2,10=2,28=1/1;
 7//1,2,3,16;
 1/14=-1,18=20/3(3);
 2/9=110/2;
 6/7=2,8=2,9=2,10=2,19=2,28=1/1;
 99//99;
 2/9=110/2;
 3/5=4,6=6,7=1111,11=2,16=1,25=1,30=1,74=-5/1,2,3;
 4/5=5,7=1,16=3/1;
 5/5=2,38=5/2;
 7//1,2,3,16;
 1/14=-1,18=20/3(-5);
 2/9=110/2;
 6/7=2,8=2,9=2,10=2,19=2,28=1/1;
 99/9=1/99;
 --------------------------
 Phe-R-opt-freq--6-311++gdp
 --------------------------
 Symbolic Z-matrix:
 Charge =  0 Multiplicity = 1
 C                     1.37087  -0.12147   0.44953 
 H                     1.03165   0.51079   1.27216 
 C                     2.77721   0.37226   0.10946 
 O                     3.24652   1.43196   0.44124 
 O                     3.46331  -0.52015  -0.65278 
 H                     4.32816  -0.12873  -0.84748 
 C                     0.44619   0.13073  -0.77352 
 H                     0.69705   1.10525  -1.20286 
 H                     0.6755   -0.62137  -1.53495 
 C                    -1.02457   0.10479  -0.42534 
 C                    -1.74216  -1.09527  -0.38096 
 C                    -1.69684   1.29503  -0.12492 
 C                    -3.09419  -1.10514  -0.04419 
 H                    -1.23515  -2.02683  -0.60262 
 C                    -3.04881   1.28907   0.21376 
 H                    -1.15818   2.23717  -0.16122 
 C                    -3.75229   0.08676   0.25535 
 H                    -3.6342   -2.04522  -0.01574 
 H                    -3.55217   2.22277   0.43941 
 H                    -4.80487   0.07904   0.51545 
 N                     1.29524  -1.51438   0.8775 
 H                     1.77688  -2.122     0.22254 
 H                     1.7175   -1.64518   1.79012 
 

 GradGradGradGradGradGradGradGradGradGradGradGradGradGradGradGradGradGrad
 Berny optimization.
 Initialization pass.
                           ----------------------------
                           !    Initial Parameters    !
                           ! (Angstroms and Degrees)  !
 --------------------------                            --------------------------
 ! Name  Definition              Value          Derivative Info.                !
 --------------------------------------------------------------------------------
 ! R1    R(1,2)                  1.0916         estimate D2E/DX2                !
 ! R2    R(1,3)                  1.5288         estimate D2E/DX2                !
 ! R3    R(1,7)                  1.5539         estimate D2E/DX2                !
 ! R4    R(1,21)                 1.4591         estimate D2E/DX2                !
 ! R5    R(3,4)                  1.2055         estimate D2E/DX2                !
 ! R6    R(3,5)                  1.3595         estimate D2E/DX2                !
 ! R7    R(5,6)                  0.9691         estimate D2E/DX2                !
 ! R8    R(7,8)                  1.094          estimate D2E/DX2                !
 ! R9    R(7,9)                  1.0945         estimate D2E/DX2                !
 ! R10   R(7,10)                 1.5116         estimate D2E/DX2                !
 ! R11   R(10,11)                1.399          estimate D2E/DX2                !
 ! R12   R(10,12)                1.3996         estimate D2E/DX2                !
 ! R13   R(11,13)                1.3934         estimate D2E/DX2                !
 ! R14   R(11,14)                1.0835         estimate D2E/DX2                !
 ! R15   R(12,15)                1.3938         estimate D2E/DX2                !
 ! R16   R(12,16)                1.0859         estimate D2E/DX2                !
 ! R17   R(13,17)                1.3941         estimate D2E/DX2                !
 ! R18   R(13,18)                1.0845         estimate D2E/DX2                !
 ! R19   R(15,17)                1.3936         estimate D2E/DX2                !
 ! R20   R(15,19)                1.0845         estimate D2E/DX2                !
 ! R21   R(17,20)                1.0843         estimate D2E/DX2                !
 ! R22   R(21,22)                1.015          estimate D2E/DX2                !
 ! R23   R(21,23)                1.014          estimate D2E/DX2                !
 ! A1    A(2,1,3)              105.4534         estimate D2E/DX2                !
 ! A2    A(2,1,7)              108.3143         estimate D2E/DX2                !
 ! A3    A(2,1,21)             108.4077         estimate D2E/DX2                !
 ! A4    A(3,1,7)              108.6577         estimate D2E/DX2                !
 ! A5    A(3,1,21)             114.9119         estimate D2E/DX2                !
 ! A6    A(7,1,21)             110.7906         estimate D2E/DX2                !
 ! A7    A(1,3,4)              125.5055         estimate D2E/DX2                !
 ! A8    A(1,3,5)              112.1471         estimate D2E/DX2                !
 ! A9    A(4,3,5)              122.3354         estimate D2E/DX2                !
 ! A10   A(3,5,6)              107.3324         estimate D2E/DX2                !
 ! A11   A(1,7,8)              108.4821         estimate D2E/DX2                !
 ! A12   A(1,7,9)              108.1408         estimate D2E/DX2                !
 ! A13   A(1,7,10)             113.2604         estimate D2E/DX2                !
 ! A14   A(8,7,9)              106.92           estimate D2E/DX2                !
 ! A15   A(8,7,10)             109.1941         estimate D2E/DX2                !
 ! A16   A(9,7,10)             110.627          estimate D2E/DX2                !
 ! A17   A(7,10,11)            121.4067         estimate D2E/DX2                !
 ! A18   A(7,10,12)            120.1451         estimate D2E/DX2                !
 ! A19   A(11,10,12)           118.4451         estimate D2E/DX2                !
 ! A20   A(10,11,13)           120.762          estimate D2E/DX2                !
 ! A21   A(10,11,14)           119.4068         estimate D2E/DX2                !
 ! A22   A(13,11,14)           119.8287         estimate D2E/DX2                !
 ! A23   A(10,12,15)           120.9609         estimate D2E/DX2                !
 ! A24   A(10,12,16)           119.4984         estimate D2E/DX2                !
 ! A25   A(15,12,16)           119.5399         estimate D2E/DX2                !
 ! A26   A(11,13,17)           120.261          estimate D2E/DX2                !
 ! A27   A(11,13,18)           119.7117         estimate D2E/DX2                !
 ! A28   A(17,13,18)           120.0273         estimate D2E/DX2                !
 ! A29   A(12,15,17)           120.0394         estimate D2E/DX2                !
 ! A30   A(12,15,19)           119.8094         estimate D2E/DX2                !
 ! A31   A(17,15,19)           120.1504         estimate D2E/DX2                !
 ! A32   A(13,17,15)           119.5315         estimate D2E/DX2                !
 ! A33   A(13,17,20)           120.247          estimate D2E/DX2                !
 ! A34   A(15,17,20)           120.2212         estimate D2E/DX2                !
 ! A35   A(1,21,22)            110.9539         estimate D2E/DX2                !
 ! A36   A(1,21,23)            111.4392         estimate D2E/DX2                !
 ! A37   A(22,21,23)           107.8146         estimate D2E/DX2                !
 ! D1    D(2,1,3,4)            -17.0038         estimate D2E/DX2                !
 ! D2    D(2,1,3,5)            164.2358         estimate D2E/DX2                !
 ! D3    D(7,1,3,4)             98.9372         estimate D2E/DX2                !
 ! D4    D(7,1,3,5)            -79.8232         estimate D2E/DX2                !
 ! D5    D(21,1,3,4)          -136.3197         estimate D2E/DX2                !
 ! D6    D(21,1,3,5)            44.9199         estimate D2E/DX2                !
 ! D7    D(2,1,7,8)             73.9756         estimate D2E/DX2                !
 ! D8    D(2,1,7,9)           -170.4028         estimate D2E/DX2                !
 ! D9    D(2,1,7,10)           -47.4233         estimate D2E/DX2                !
 ! D10   D(3,1,7,8)            -40.1039         estimate D2E/DX2                !
 ! D11   D(3,1,7,9)             75.5177         estimate D2E/DX2                !
 ! D12   D(3,1,7,10)          -161.5027         estimate D2E/DX2                !
 ! D13   D(21,1,7,8)          -167.2433         estimate D2E/DX2                !
 ! D14   D(21,1,7,9)           -51.6217         estimate D2E/DX2                !
 ! D15   D(21,1,7,10)           71.3579         estimate D2E/DX2                !
 ! D16   D(2,1,21,22)         -168.2784         estimate D2E/DX2                !
 ! D17   D(2,1,21,23)          -48.124          estimate D2E/DX2                !
 ! D18   D(3,1,21,22)          -50.6199         estimate D2E/DX2                !
 ! D19   D(3,1,21,23)           69.5344         estimate D2E/DX2                !
 ! D20   D(7,1,21,22)           72.997          estimate D2E/DX2                !
 ! D21   D(7,1,21,23)         -166.8487         estimate D2E/DX2                !
 ! D22   D(1,3,5,6)            178.3709         estimate D2E/DX2                !
 ! D23   D(4,3,5,6)             -0.4348         estimate D2E/DX2                !
 ! D24   D(1,7,10,11)          -85.2637         estimate D2E/DX2                !
 ! D25   D(1,7,10,12)           94.0853         estimate D2E/DX2                !
 ! D26   D(8,7,10,11)          153.7386         estimate D2E/DX2                !
 ! D27   D(8,7,10,12)          -26.9124         estimate D2E/DX2                !
 ! D28   D(9,7,10,11)           36.3313         estimate D2E/DX2                !
 ! D29   D(9,7,10,12)         -144.3197         estimate D2E/DX2                !
 ! D30   D(7,10,11,13)         179.2955         estimate D2E/DX2                !
 ! D31   D(7,10,11,14)          -0.1307         estimate D2E/DX2                !
 ! D32   D(12,10,11,13)         -0.0642         estimate D2E/DX2                !
 ! D33   D(12,10,11,14)       -179.4905         estimate D2E/DX2                !
 ! D34   D(7,10,12,15)        -179.2352         estimate D2E/DX2                !
 ! D35   D(7,10,12,16)           1.0769         estimate D2E/DX2                !
 ! D36   D(11,10,12,15)          0.1329         estimate D2E/DX2                !
 ! D37   D(11,10,12,16)       -179.555          estimate D2E/DX2                !
 ! D38   D(10,11,13,17)         -0.0479         estimate D2E/DX2                !
 ! D39   D(10,11,13,18)        179.954          estimate D2E/DX2                !
 ! D40   D(14,11,13,17)        179.3759         estimate D2E/DX2                !
 ! D41   D(14,11,13,18)         -0.6222         estimate D2E/DX2                !
 ! D42   D(10,12,15,17)         -0.0894         estimate D2E/DX2                !
 ! D43   D(10,12,15,19)       -179.7661         estimate D2E/DX2                !
 ! D44   D(16,12,15,17)        179.5983         estimate D2E/DX2                !
 ! D45   D(16,12,15,19)         -0.0783         estimate D2E/DX2                !
 ! D46   D(11,13,17,15)          0.0929         estimate D2E/DX2                !
 ! D47   D(11,13,17,20)        179.8776         estimate D2E/DX2                !
 ! D48   D(18,13,17,15)       -179.909          estimate D2E/DX2                !
 ! D49   D(18,13,17,20)         -0.1243         estimate D2E/DX2                !
 ! D50   D(12,15,17,13)         -0.0249         estimate D2E/DX2                !
 ! D51   D(12,15,17,20)       -179.8096         estimate D2E/DX2                !
 ! D52   D(19,15,17,13)        179.6506         estimate D2E/DX2                !
 ! D53   D(19,15,17,20)         -0.1341         estimate D2E/DX2                !
 --------------------------------------------------------------------------------
 Trust Radius=3.00D-01 FncErr=1.00D-07 GrdErr=1.00D-06
 Number of steps in this run= 123 maximum allowed number of steps= 138.
 GradGradGradGradGradGradGradGradGradGradGradGradGradGradGradGradGradGrad

                          Input orientation:                          
 ---------------------------------------------------------------------
 Center     Atomic     Atomic              Coordinates (Angstroms)
 Number     Number      Type              X           Y           Z
 ---------------------------------------------------------------------
    1          6             0        1.370873   -0.121471    0.449530
    2          1             0        1.031649    0.510785    1.272159
    3          6             0        2.777210    0.372255    0.109456
    4          8             0        3.246523    1.431957    0.441243
    5          8             0        3.463309   -0.520150   -0.652783
    6          1             0        4.328156   -0.128730   -0.847482
    7          6             0        0.446191    0.130734   -0.773521
    8          1             0        0.697048    1.105252   -1.202857
    9          1             0        0.675502   -0.621374   -1.534948
   10          6             0       -1.024566    0.104792   -0.425337
   11          6             0       -1.742160   -1.095273   -0.380958
   12          6             0       -1.696838    1.295030   -0.124918
   13          6             0       -3.094189   -1.105141   -0.044190
   14          1             0       -1.235146   -2.026826   -0.602618
   15          6             0       -3.048809    1.289071    0.213755
   16          1             0       -1.158175    2.237168   -0.161220
   17          6             0       -3.752291    0.086759    0.255349
   18          1             0       -3.634203   -2.045219   -0.015737
   19          1             0       -3.552168    2.222766    0.439412
   20          1             0       -4.804874    0.079037    0.515450
   21          7             0        1.295236   -1.514383    0.877501
   22          1             0        1.776877   -2.121998    0.222538
   23          1             0        1.717501   -1.645181    1.790121
 ---------------------------------------------------------------------
                    Distance matrix (angstroms):
                    1          2          3          4          5
     1  C    0.000000
     2  H    1.091576   0.000000
     3  C    1.528790   2.101916   0.000000
     4  O    2.435420   2.538631   1.205531   0.000000
     5  O    2.398401   3.268210   1.359458   2.248246   0.000000
     6  H    3.229213   3.970997   1.890013   2.294883   0.969060
     7  C    1.553865   2.161482   2.504322   3.318236   3.088888
     8  H    2.165473   2.567305   2.566422   3.051168   3.255259
     9  H    2.161388   3.047700   2.847550   3.838183   2.925804
    10  C    2.560218   2.697099   3.848511   4.555714   4.536883
    11  C    3.365854   3.606416   4.776908   5.652421   5.244193
    12  C    3.427436   3.164096   4.574227   4.977560   5.495511
    13  C    4.598711   4.622394   6.056371   6.846688   6.611609
    14  H    3.395398   3.884922   4.728810   5.756577   4.934376
    15  C    4.645300   4.286734   5.898638   6.301061   6.814092
    16  H    3.511734   3.135331   4.363304   4.518041   5.403938
    17  C    5.131070   4.909153   6.537368   7.129342   7.297803
    18  H    5.382199   5.473756   6.853180   7.722951   7.287410
    19  H    5.452695   4.963439   6.602597   6.844529   7.611399
    20  H    6.179353   5.901188   7.598606   8.164612   8.371777
    21  N    1.459138   2.080033   2.519036   3.560725   2.833868
    22  H    2.053892   2.930634   2.689749   3.852050   2.485187
    23  H    2.058890   2.320963   2.831548   3.691363   3.206450
                    6          7          8          9         10
     6  H    0.000000
     7  C    3.891329   0.000000
     8  H    3.851487   1.094049   0.000000
     9  H    3.749292   1.094541   1.758404   0.000000
    10  C    5.374418   1.511632   2.137618   2.156104   0.000000
    11  C    6.164462   2.538913   3.386379   2.720545   1.398952
    12  C    6.232956   2.523657   2.632234   3.359879   1.399596
    13  C    7.529267   3.820157   4.538923   4.082519   2.427458
    14  H    5.883286   2.740651   3.728750   2.548551   2.149318
    15  C    7.586567   3.812018   4.008993   4.536326   2.430744
    16  H    6.014005   2.717714   2.409999   3.663436   2.152821
    17  C    8.158204   4.322934   4.791692   4.828247   2.811431
    18  H    8.231883   4.686003   5.485841   4.786324   3.405954
    19  H    8.323769   4.672759   4.690599   5.464469   3.409161
    20  H    9.236503   5.407199   5.854643   5.893151   3.895699
    21  N    3.754225   2.480557   3.398265   2.646024   3.114578
    22  H    3.409851   2.799582   3.689570   2.560011   3.636814
    23  H    4.009001   3.367843   4.190957   3.631808   3.935682
                   11         12         13         14         15
    11  C    0.000000
    12  C    2.404404   0.000000
    13  C    1.393374   2.778476   0.000000
    14  H    1.083507   3.387637   2.148810   0.000000
    15  C    2.783184   1.393758   2.408495   3.866654   0.000000
    16  H    3.390352   1.085864   3.864308   4.287470   2.148020
    17  C    2.417170   2.414417   1.394076   3.396965   1.393618
    18  H    2.148397   3.862974   1.084514   2.469867   3.393058
    19  H    3.867624   2.149747   3.393903   4.951106   1.084471
    20  H    3.400407   3.398323   2.154511   4.292749   2.153826
    21  N    3.314385   4.224944   4.503781   2.975934   5.212546
    22  H    3.715103   4.885028   4.983214   3.124456   5.909544
    23  H    4.121315   4.895909   5.177712   3.819552   5.814850
                   16         17         18         19         20
    16  H    0.000000
    17  C    3.395177   0.000000
    18  H    4.948810   2.152385   0.000000
    19  H    2.468232   2.153243   4.292969   0.000000
    20  H    4.291133   1.084271   2.482961   2.484075   0.000000
    21  N    4.601337   5.331816   5.037760   6.136410   6.315173
    22  H    5.269168   5.954106   5.416868   6.879152   6.946208
    23  H    5.210554   5.939172   5.662322   6.674941   6.865791
                   21         22         23
    21  N    0.000000
    22  H    1.014963   0.000000
    23  H    1.014047   1.639572   0.000000
 Stoichiometry    C9H11NO2
 Framework group  C1[X(C9H11NO2)]
 Deg. of freedom    63
 Full point group                 C1
 Largest Abelian subgroup         C1      NOp   1
 Largest concise Abelian subgroup C1      NOp   1
                         Standard orientation:                         
 ---------------------------------------------------------------------
 Center     Atomic     Atomic              Coordinates (Angstroms)
 Number     Number      Type              X           Y           Z
 ---------------------------------------------------------------------
    1          6             0        1.370873   -0.121471    0.449530
    2          1             0        1.031649    0.510785    1.272159
    3          6             0        2.777210    0.372255    0.109456
    4          8             0        3.246523    1.431957    0.441243
    5          8             0        3.463309   -0.520150   -0.652783
    6          1             0        4.328156   -0.128730   -0.847482
    7          6             0        0.446191    0.130734   -0.773521
    8          1             0        0.697048    1.105252   -1.202857
    9          1             0        0.675502   -0.621374   -1.534948
   10          6             0       -1.024566    0.104792   -0.425337
   11          6             0       -1.742160   -1.095273   -0.380958
   12          6             0       -1.696838    1.295030   -0.124918
   13          6             0       -3.094189   -1.105141   -0.044190
   14          1             0       -1.235146   -2.026826   -0.602618
   15          6             0       -3.048809    1.289071    0.213755
   16          1             0       -1.158175    2.237168   -0.161220
   17          6             0       -3.752291    0.086759    0.255349
   18          1             0       -3.634203   -2.045219   -0.015737
   19          1             0       -3.552168    2.222766    0.439412
   20          1             0       -4.804874    0.079037    0.515450
   21          7             0        1.295236   -1.514383    0.877501
   22          1             0        1.776877   -2.121998    0.222538
   23          1             0        1.717501   -1.645181    1.790121
 ---------------------------------------------------------------------
 Rotational constants (GHZ):      2.3582077      0.4570245      0.4116528
 Standard basis: 6-311++G(d,p) (5D, 7F)
 There are   341 symmetry adapted basis functions of A   symmetry.
 Integral buffers will be    262144 words long.
 Raffenetti 2 integral format.
 Two-electron integral symmetry is turned on.
   341 basis functions,   531 primitive gaussians,   353 cartesian basis functions
    44 alpha electrons       44 beta electrons
       nuclear repulsion energy       664.8752426641 Hartrees.
 NAtoms=   23 NActive=   23 NUniq=   23 SFac= 7.50D-01 NAtFMM=   80 NAOKFM=F Big=F
 One-electron integrals computed using PRISM.
 NBasis=   341 RedAO= T  NBF=   341
 NBsUse=   340 1.00D-06 NBFU=   340
 Harris functional with IExCor=  402 diagonalized for initial guess.
 ExpMin= 3.60D-02 ExpMax= 8.59D+03 ExpMxC= 1.30D+03 IAcc=3 IRadAn=         5 AccDes= 0.00D+00
 HarFok:  IExCor= 402 AccDes= 0.00D+00 IRadAn=         5 IDoV=1
 ScaDFX=  1.000000  1.000000  1.000000  1.000000
 Initial guess orbital symmetries:
       Occupied  (A) (A) (A) (A) (A) (A) (A) (A) (A) (A) (A) (A)
                 (A) (A) (A) (A) (A) (A) (A) (A) (A) (A) (A) (A)
                 (A) (A) (A) (A) (A) (A) (A) (A) (A) (A) (A) (A)
                 (A) (A) (A) (A) (A) (A) (A) (A)
       Virtual   (A) (A) (A) (A) (A) (A) (A) (A) (A) (A) (A) (A)
                 (A) (A) (A) (A) (A) (A) (A) (A) (A) (A) (A) (A)
                 (A) (A) (A) (A) (A) (A) (A) (A) (A) (A) (A) (A)
                 (A) (A) (A) (A) (A) (A) (A) (A) (A) (A) (A) (A)
                 (A) (A) (A) (A) (A) (A) (A) (A) (A) (A) (A) (A)
                 (A) (A) (A) (A) (A) (A) (A) (A) (A) (A) (A) (A)
                 (A) (A) (A) (A) (A) (A) (A) (A) (A) (A) (A) (A)
                 (A) (A) (A) (A) (A) (A) (A) (A) (A) (A) (A) (A)
                 (A) (A) (A) (A) (A) (A) (A) (A) (A) (A) (A) (A)
                 (A) (A) (A) (A) (A) (A) (A) (A) (A) (A) (A) (A)
                 (A) (A) (A) (A) (A) (A) (A) (A) (A) (A) (A) (A)
                 (A) (A) (A) (A) (A) (A) (A) (A) (A) (A) (A) (A)
                 (A) (A) (A) (A) (A) (A) (A) (A) (A) (A) (A) (A)
                 (A) (A) (A) (A) (A) (A) (A) (A) (A) (A) (A) (A)
                 (A) (A) (A) (A) (A) (A) (A) (A) (A) (A) (A) (A)
                 (A) (A) (A) (A) (A) (A) (A) (A) (A) (A) (A) (A)
                 (A) (A) (A) (A) (A) (A) (A) (A) (A) (A) (A) (A)
                 (A) (A) (A) (A) (A) (A) (A) (A) (A) (A) (A) (A)
                 (A) (A) (A) (A) (A) (A) (A) (A) (A) (A) (A) (A)
                 (A) (A) (A) (A) (A) (A) (A) (A) (A) (A) (A) (A)
                 (A) (A) (A) (A) (A) (A) (A) (A) (A) (A) (A) (A)
                 (A) (A) (A) (A) (A) (A) (A) (A) (A) (A) (A) (A)
                 (A) (A) (A) (A) (A) (A) (A) (A) (A) (A) (A) (A)
                 (A) (A) (A) (A) (A) (A) (A) (A) (A) (A) (A) (A)
                 (A) (A) (A) (A) (A) (A) (A) (A)
 The electronic state of the initial guess is 1-A.
 Requested convergence on RMS density matrix=1.00D-08 within 128 cycles.
 Requested convergence on MAX density matrix=1.00D-06.
 Requested convergence on             energy=1.00D-06.
 No special actions if energy rises.
 SCF Done:  E(RB+HF-LYP) =  -554.958483886     A.U. after   15 cycles
             Convg  =    0.4173D-08             -V/T =  2.0041
             S**2   =   0.0000

 **********************************************************************

            Population analysis using the SCF density.

 **********************************************************************

 Orbital symmetries:
       Occupied  (A) (A) (A) (A) (A) (A) (A) (A) (A) (A) (A) (A)
                 (A) (A) (A) (A) (A) (A) (A) (A) (A) (A) (A) (A)
                 (A) (A) (A) (A) (A) (A) (A) (A) (A) (A) (A) (A)
                 (A) (A) (A) (A) (A) (A) (A) (A)
       Virtual   (A) (A) (A) (A) (A) (A) (A) (A) (A) (A) (A) (A)
                 (A) (A) (A) (A) (A) (A) (A) (A) (A) (A) (A) (A)
                 (A) (A) (A) (A) (A) (A) (A) (A) (A) (A) (A) (A)
                 (A) (A) (A) (A) (A) (A) (A) (A) (A) (A) (A) (A)
                 (A) (A) (A) (A) (A) (A) (A) (A) (A) (A) (A) (A)
                 (A) (A) (A) (A) (A) (A) (A) (A) (A) (A) (A) (A)
                 (A) (A) (A) (A) (A) (A) (A) (A) (A) (A) (A) (A)
                 (A) (A) (A) (A) (A) (A) (A) (A) (A) (A) (A) (A)
                 (A) (A) (A) (A) (A) (A) (A) (A) (A) (A) (A) (A)
                 (A) (A) (A) (A) (A) (A) (A) (A) (A) (A) (A) (A)
                 (A) (A) (A) (A) (A) (A) (A) (A) (A) (A) (A) (A)
                 (A) (A) (A) (A) (A) (A) (A) (A) (A) (A) (A) (A)
                 (A) (A) (A) (A) (A) (A) (A) (A) (A) (A) (A) (A)
                 (A) (A) (A) (A) (A) (A) (A) (A) (A) (A) (A) (A)
                 (A) (A) (A) (A) (A) (A) (A) (A) (A) (A) (A) (A)
                 (A) (A) (A) (A) (A) (A) (A) (A) (A) (A) (A) (A)
                 (A) (A) (A) (A) (A) (A) (A) (A) (A) (A) (A) (A)
                 (A) (A) (A) (A) (A) (A) (A) (A) (A) (A) (A) (A)
                 (A) (A) (A) (A) (A) (A) (A) (A) (A) (A) (A) (A)
                 (A) (A) (A) (A) (A) (A) (A) (A) (A) (A) (A) (A)
                 (A) (A) (A) (A) (A) (A) (A) (A) (A) (A) (A) (A)
                 (A) (A) (A) (A) (A) (A) (A) (A) (A) (A) (A) (A)
                 (A) (A) (A) (A) (A) (A) (A) (A) (A) (A) (A) (A)
                 (A) (A) (A) (A) (A) (A) (A) (A) (A) (A) (A) (A)
                 (A) (A) (A) (A) (A) (A) (A) (A)
 The electronic state is 1-A.
 Alpha  occ. eigenvalues --  -19.18678 -19.12950 -14.31140 -10.31562 -10.22942
 Alpha  occ. eigenvalues --  -10.18871 -10.18548 -10.17594 -10.17521 -10.17506
 Alpha  occ. eigenvalues --  -10.17446 -10.17294  -1.12652  -1.03747  -0.91138
 Alpha  occ. eigenvalues --   -0.86105  -0.78942  -0.74844  -0.73686  -0.67549
 Alpha  occ. eigenvalues --   -0.62041  -0.60952  -0.58760  -0.52525  -0.51993
 Alpha  occ. eigenvalues --   -0.50840  -0.49486  -0.47337  -0.46464  -0.45615
 Alpha  occ. eigenvalues --   -0.43843  -0.42709  -0.42336  -0.40478  -0.39063
 Alpha  occ. eigenvalues --   -0.37873  -0.36014  -0.34714  -0.34501  -0.34084
 Alpha  occ. eigenvalues --   -0.31541  -0.26125  -0.25330  -0.24838
 Alpha virt. eigenvalues --   -0.02787  -0.01703  -0.01463  -0.00847  -0.00207
 Alpha virt. eigenvalues --    0.00615   0.00987   0.01570   0.02542   0.03372
 Alpha virt. eigenvalues --    0.04079   0.04775   0.05514   0.06090   0.06453
 Alpha virt. eigenvalues --    0.07423   0.07849   0.08617   0.08663   0.09662
 Alpha virt. eigenvalues --    0.10089   0.10630   0.10946   0.11297   0.11855
 Alpha virt. eigenvalues --    0.12054   0.12230   0.12263   0.12840   0.13260
 Alpha virt. eigenvalues --    0.13863   0.13978   0.14547   0.14913   0.15261
 Alpha virt. eigenvalues --    0.15983   0.16436   0.16700   0.17219   0.17307
 Alpha virt. eigenvalues --    0.17975   0.18577   0.19225   0.19563   0.20083
 Alpha virt. eigenvalues --    0.20185   0.20585   0.21624   0.21935   0.22769
 Alpha virt. eigenvalues --    0.23637   0.24109   0.24954   0.25085   0.25605
 Alpha virt. eigenvalues --    0.25888   0.26609   0.26888   0.27183   0.27297
 Alpha virt. eigenvalues --    0.27984   0.28591   0.28861   0.29469   0.30186
 Alpha virt. eigenvalues --    0.30303   0.31062   0.31507   0.32168   0.32544
 Alpha virt. eigenvalues --    0.33523   0.34006   0.35317   0.35542   0.36616
 Alpha virt. eigenvalues --    0.37233   0.37425   0.37822   0.38790   0.39338
 Alpha virt. eigenvalues --    0.40465   0.42326   0.48106   0.48766   0.52260
 Alpha virt. eigenvalues --    0.53283   0.53706   0.54012   0.54866   0.56017
 Alpha virt. eigenvalues --    0.56325   0.56932   0.57159   0.57486   0.58630
 Alpha virt. eigenvalues --    0.59158   0.59870   0.61449   0.62286   0.62760
 Alpha virt. eigenvalues --    0.63618   0.66327   0.68031   0.68582   0.69521
 Alpha virt. eigenvalues --    0.70306   0.70790   0.71480   0.72048   0.72624
 Alpha virt. eigenvalues --    0.73416   0.75123   0.76098   0.77174   0.77713
 Alpha virt. eigenvalues --    0.78552   0.80083   0.82980   0.84114   0.85049
 Alpha virt. eigenvalues --    0.85619   0.86394   0.86928   0.88465   0.90006
 Alpha virt. eigenvalues --    0.91095   0.92003   0.94300   0.94875   0.96456
 Alpha virt. eigenvalues --    1.00744   1.02601   1.02960   1.03575   1.04555
 Alpha virt. eigenvalues --    1.06729   1.09071   1.09504   1.10520   1.11994
 Alpha virt. eigenvalues --    1.13555   1.14775   1.15685   1.18763   1.23049
 Alpha virt. eigenvalues --    1.23942   1.26030   1.27980   1.28513   1.31296
 Alpha virt. eigenvalues --    1.32731   1.36696   1.41023   1.44954   1.47785
 Alpha virt. eigenvalues --    1.48556   1.50568   1.51940   1.52600   1.53896
 Alpha virt. eigenvalues --    1.54598   1.55897   1.56940   1.57571   1.57960
 Alpha virt. eigenvalues --    1.59226   1.61751   1.63202   1.64826   1.65377
 Alpha virt. eigenvalues --    1.66499   1.67022   1.70771   1.71322   1.72922
 Alpha virt. eigenvalues --    1.74473   1.74682   1.77819   1.78510   1.79782
 Alpha virt. eigenvalues --    1.80372   1.83072   1.85829   1.86624   1.89567
 Alpha virt. eigenvalues --    1.92085   1.92998   1.93669   1.94856   1.95448
 Alpha virt. eigenvalues --    1.96631   1.97050   1.97989   1.98717   2.02120
 Alpha virt. eigenvalues --    2.03922   2.05091   2.07762   2.09051   2.12889
 Alpha virt. eigenvalues --    2.15391   2.19832   2.21628   2.26487   2.28214
 Alpha virt. eigenvalues --    2.32259   2.34044   2.39282   2.41477   2.44065
 Alpha virt. eigenvalues --    2.46200   2.47331   2.49417   2.51041   2.55458
 Alpha virt. eigenvalues --    2.56535   2.59613   2.63694   2.64815   2.66177
 Alpha virt. eigenvalues --    2.67125   2.68036   2.69046   2.70896   2.71496
 Alpha virt. eigenvalues --    2.72678   2.73878   2.74226   2.75809   2.78073
 Alpha virt. eigenvalues --    2.80391   2.81656   2.82532   2.83968   2.84946
 Alpha virt. eigenvalues --    2.86789   2.88582   2.91429   2.92618   2.94107
 Alpha virt. eigenvalues --    2.95212   2.96959   2.97980   3.00077   3.01396
 Alpha virt. eigenvalues --    3.05101   3.09025   3.09956   3.13099   3.16105
 Alpha virt. eigenvalues --    3.20163   3.23357   3.24962   3.29352   3.35856
 Alpha virt. eigenvalues --    3.37255   3.38771   3.50080   3.54368   3.55339
 Alpha virt. eigenvalues --    3.61546   3.63546   3.68790   3.71524   3.79276
 Alpha virt. eigenvalues --    3.85051   4.00246   4.02999   4.04575   4.08371
 Alpha virt. eigenvalues --    4.13451   4.15708   4.16549   4.24673   4.34769
 Alpha virt. eigenvalues --    4.73417   4.84791   4.85089   4.98744   5.05942
 Alpha virt. eigenvalues --    5.16913   5.39333   5.58423   5.83653  23.62404
 Alpha virt. eigenvalues --   23.79663  23.82255  23.90660  23.97373  23.98236
 Alpha virt. eigenvalues --   24.09075  24.10283  24.19650  35.60634  49.86596
 Alpha virt. eigenvalues --   50.00138
          Condensed to atoms (all electrons):
              1          2          3          4          5          6
     1  C    9.478929   0.505855  -1.465691   0.080184   0.151200  -0.127626
     2  H    0.505855   0.512282  -0.197766   0.008764   0.019941  -0.006192
     3  C   -1.465691  -0.197766   7.055852   0.360722   0.088416   0.117170
     4  O    0.080184   0.008764   0.360722   8.021568  -0.152012  -0.006577
     5  O    0.151200   0.019941   0.088416  -0.152012   8.067252   0.220981
     6  H   -0.127626  -0.006192   0.117170  -0.006577   0.220981   0.475262
     7  C   -1.769930  -0.106481   0.930050  -0.100888  -0.184914   0.029462
     8  H   -0.047582  -0.006478   0.036302  -0.009172  -0.002399   0.000926
     9  H   -0.052751   0.017271  -0.043117   0.001460   0.005499  -0.001979
    10  C   -0.000251   0.078760  -0.670887   0.031692   0.000179  -0.006229
    11  C   -0.805374  -0.015933   0.349513   0.000072   0.036022   0.003786
    12  C    1.067112   0.026653  -0.468520  -0.002004  -0.027247  -0.004315
    13  C   -0.064137  -0.012900   0.049063  -0.000899   0.002447   0.000549
    14  H    0.000631  -0.000665  -0.002578  -0.000083   0.000573  -0.000037
    15  C    0.013197  -0.036061   0.070019  -0.002162  -0.001539   0.000005
    16  H   -0.001036   0.002616  -0.018957  -0.000760  -0.000431  -0.000138
    17  C    0.064896   0.006155  -0.020089   0.000214  -0.000146  -0.000079
    18  H   -0.005076   0.000359  -0.000537   0.000009   0.000001  -0.000007
    19  H   -0.003178  -0.000048   0.001018   0.000034   0.000039   0.000011
    20  H   -0.000248   0.000204  -0.000541   0.000005  -0.000005  -0.000002
    21  N   -0.322062  -0.034937  -0.018011   0.016672  -0.062099   0.012839
    22  H   -0.028956   0.013251  -0.022490  -0.001056   0.003530   0.001225
    23  H   -0.089364  -0.018498   0.029845   0.000741  -0.000187   0.000993
              7          8          9         10         11         12
     1  C   -1.769930  -0.047582  -0.052751  -0.000251  -0.805374   1.067112
     2  H   -0.106481  -0.006478   0.017271   0.078760  -0.015933   0.026653
     3  C    0.930050   0.036302  -0.043117  -0.670887   0.349513  -0.468520
     4  O   -0.100888  -0.009172   0.001460   0.031692   0.000072  -0.002004
     5  O   -0.184914  -0.002399   0.005499   0.000179   0.036022  -0.027247
     6  H    0.029462   0.000926  -0.001979  -0.006229   0.003786  -0.004315
     7  C   14.574782   0.581704   0.449123  -4.531702  -0.930827  -2.547369
     8  H    0.581704   0.570722  -0.038876  -0.233095  -0.095228   0.077942
     9  H    0.449123  -0.038876   0.547813  -0.047812   0.052221  -0.059286
    10  C   -4.531702  -0.233095  -0.047812  11.399602  -0.289510   0.361994
    11  C   -0.930827  -0.095228   0.052221  -0.289510   9.804479  -2.987731
    12  C   -2.547369   0.077942  -0.059286   0.361994  -2.987731  10.903449
    13  C    0.380848  -0.025359   0.035610  -0.682921   0.108072   0.252956
    14  H    0.003248   0.005160  -0.010446  -0.068346   0.463221  -0.037948
    15  C   -0.190999   0.036275  -0.038387  -0.468721   0.646122  -0.349054
    16  H   -0.021825  -0.005715   0.005207  -0.011814   0.006956   0.423262
    17  C   -0.242777  -0.005405  -0.013112  -0.175637  -0.139369  -0.122405
    18  H    0.007014  -0.000122   0.002047   0.032246  -0.093144   0.016315
    19  H    0.006255   0.000658   0.000488   0.042308   0.014646  -0.088658
    20  H   -0.013511  -0.000336  -0.000342   0.024084   0.008071  -0.000532
    21  N    0.284930  -0.008435  -0.005488  -0.044288   0.019809  -0.095973
    22  H    0.000734   0.001200   0.001779  -0.008125   0.005254  -0.005158
    23  H    0.015782  -0.000466  -0.001493   0.011888   0.007052  -0.004677
             13         14         15         16         17         18
     1  C   -0.064137   0.000631   0.013197  -0.001036   0.064896  -0.005076
     2  H   -0.012900  -0.000665  -0.036061   0.002616   0.006155   0.000359
     3  C    0.049063  -0.002578   0.070019  -0.018957  -0.020089  -0.000537
     4  O   -0.000899  -0.000083  -0.002162  -0.000760   0.000214   0.000009
     5  O    0.002447   0.000573  -0.001539  -0.000431  -0.000146   0.000001
     6  H    0.000549  -0.000037   0.000005  -0.000138  -0.000079  -0.000007
     7  C    0.380848   0.003248  -0.190999  -0.021825  -0.242777   0.007014
     8  H   -0.025359   0.005160   0.036275  -0.005715  -0.005405  -0.000122
     9  H    0.035610  -0.010446  -0.038387   0.005207  -0.013112   0.002047
    10  C   -0.682921  -0.068346  -0.468721  -0.011814  -0.175637   0.032246
    11  C    0.108072   0.463221   0.646122   0.006956  -0.139369  -0.093144
    12  C    0.252956  -0.037948  -0.349054   0.423262  -0.122405   0.016315
    13  C    5.762104  -0.089940  -0.236777   0.017135   0.440856   0.419721
    14  H   -0.089940   0.547910   0.022382  -0.003289   0.026286  -0.019232
    15  C   -0.236777   0.022382   6.036088  -0.091031   0.552174   0.001281
    16  H    0.017135  -0.003289  -0.091031   0.552207   0.003148   0.001084
    17  C    0.440856   0.026286   0.552174   0.003148   5.637945  -0.066101
    18  H    0.419721  -0.019232   0.001281   0.001084  -0.066101   0.549600
    19  H    0.003925   0.000490   0.412247  -0.017017  -0.072628  -0.000379
    20  H   -0.067752   0.001069  -0.056287  -0.000127   0.435946  -0.015882
    21  N    0.005469   0.001047   0.005018  -0.000552  -0.004946  -0.001115
    22  H    0.002093  -0.000161  -0.000567  -0.000352   0.000049   0.000027
    23  H   -0.001890   0.001379   0.001956  -0.000141  -0.001360   0.000055
             19         20         21         22         23
     1  C   -0.003178  -0.000248  -0.322062  -0.028956  -0.089364
     2  H   -0.000048   0.000204  -0.034937   0.013251  -0.018498
     3  C    0.001018  -0.000541  -0.018011  -0.022490   0.029845
     4  O    0.000034   0.000005   0.016672  -0.001056   0.000741
     5  O    0.000039  -0.000005  -0.062099   0.003530  -0.000187
     6  H    0.000011  -0.000002   0.012839   0.001225   0.000993
     7  C    0.006255  -0.013511   0.284930   0.000734   0.015782
     8  H    0.000658  -0.000336  -0.008435   0.001200  -0.000466
     9  H    0.000488  -0.000342  -0.005488   0.001779  -0.001493
    10  C    0.042308   0.024084  -0.044288  -0.008125   0.011888
    11  C    0.014646   0.008071   0.019809   0.005254   0.007052
    12  C   -0.088658  -0.000532  -0.095973  -0.005158  -0.004677
    13  C    0.003925  -0.067752   0.005469   0.002093  -0.001890
    14  H    0.000490   0.001069   0.001047  -0.000161   0.001379
    15  C    0.412247  -0.056287   0.005018  -0.000567   0.001956
    16  H   -0.017017  -0.000127  -0.000552  -0.000352  -0.000141
    17  C   -0.072628   0.435946  -0.004946   0.000049  -0.001360
    18  H   -0.000379  -0.015882  -0.001115   0.000027   0.000055
    19  H    0.549132  -0.015305   0.000037   0.000040   0.000073
    20  H   -0.015305   0.550132  -0.000095  -0.000018  -0.000037
    21  N    0.000037  -0.000095   6.715981   0.389010   0.399112
    22  H    0.000040  -0.000018   0.389010   0.456634  -0.047364
    23  H    0.000073  -0.000037   0.399112  -0.047364   0.451009
 Mulliken atomic charges:
              1
     1  C   -0.578741
     2  H    0.243849
     3  C   -0.158786
     4  O   -0.246524
     5  O   -0.165100
     6  H    0.289972
     7  C   -0.622706
     8  H    0.167780
     9  H    0.194570
    10  C    1.256586
    11  C   -0.168178
    12  C   -0.328808
    13  C   -0.298273
    14  H    0.159327
    15  C   -0.325178
    16  H    0.161570
    17  C   -0.303614
    18  H    0.171837
    19  H    0.165813
    20  H    0.151510
    21  N   -0.251922
    22  H    0.239424
    23  H    0.245593
 Sum of Mulliken charges=   0.00000
 Atomic charges with hydrogens summed into heavy atoms:
              1
     1  C   -0.334892
     2  H    0.000000
     3  C   -0.158786
     4  O   -0.246524
     5  O    0.124872
     6  H    0.000000
     7  C   -0.260356
     8  H    0.000000
     9  H    0.000000
    10  C    1.256586
    11  C   -0.008851
    12  C   -0.167239
    13  C   -0.126436
    14  H    0.000000
    15  C   -0.159365
    16  H    0.000000
    17  C   -0.152104
    18  H    0.000000
    19  H    0.000000
    20  H    0.000000
    21  N    0.233095
    22  H    0.000000
    23  H    0.000000
 Sum of Mulliken charges=   0.00000
 Electronic spatial extent (au):  <R**2>=  2636.4896
 Charge=     0.0000 electrons
 Dipole moment (field-independent basis, Debye):
    X=     0.7363    Y=    -1.4613    Z=    -0.5194  Tot=     1.7168
 Quadrupole moment (field-independent basis, Debye-Ang):
   XX=   -65.1818   YY=   -71.7976   ZZ=   -72.2994
   XY=    -7.3668   XZ=    -4.1481   YZ=    -1.2661
 Traceless Quadrupole moment (field-independent basis, Debye-Ang):
   XX=     4.5778   YY=    -2.0380   ZZ=    -2.5398
   XY=    -7.3668   XZ=    -4.1481   YZ=    -1.2661
 Octapole moment (field-independent basis, Debye-Ang**2):
  XXX=    44.3092  YYY=    -9.3399  ZZZ=     6.1977  XYY=    -7.9456
  XXY=   -25.1602  XXZ=    -7.3754  XZZ=    27.3380  YZZ=    -3.0189
  YYZ=    -2.7051  XYZ=   -11.8351
 Hexadecapole moment (field-independent basis, Debye-Ang**3):
 XXXX= -2424.0837 YYYY=  -512.6811 ZZZZ=  -201.7419 XXXY=   -68.4778
 XXXZ=  -137.4721 YYYX=   -34.8889 YYYZ=     1.6642 ZZZX=     4.8628
 ZZZY=    -8.2168 XXYY=  -569.1129 XXZZ=  -504.4397 YYZZ=  -126.4714
 XXYZ=   -21.5144 YYXZ=    -6.4906 ZZXY=    -6.4729
 N-N= 6.648752426641D+02 E-N=-2.624477929821D+03  KE= 5.526825808029D+02
 ***** Axes restored to original set *****
 -------------------------------------------------------------------
 Center     Atomic                   Forces (Hartrees/Bohr)
 Number     Number              X              Y              Z
 -------------------------------------------------------------------
    1          6           0.000009502    0.000003995    0.000000213
    2          1          -0.000007183   -0.000001338   -0.000000008
    3          6          -0.000002012   -0.000008022    0.000010520
    4          8          -0.000002186    0.000012202    0.000007786
    5          8          -0.000002970    0.000007611    0.000005745
    6          1          -0.000000400    0.000005420    0.000004721
    7          6           0.000006144    0.000001196   -0.000010120
    8          1           0.000002059    0.000001644    0.000005163
    9          1           0.000000598    0.000004466    0.000000750
   10          6          -0.000003381    0.000003918    0.000006140
   11          6          -0.000002640   -0.000002763   -0.000003804
   12          6           0.000003003   -0.000004416   -0.000003083
   13          6           0.000004273   -0.000004855   -0.000005030
   14          1           0.000004116   -0.000001096   -0.000003798
   15          6          -0.000005224   -0.000005653   -0.000001656
   16          1          -0.000002684   -0.000000665    0.000002256
   17          6          -0.000000689   -0.000001535   -0.000005418
   18          1           0.000001275   -0.000003794   -0.000006338
   19          1          -0.000003004   -0.000004519   -0.000001191
   20          1          -0.000001185   -0.000006756   -0.000005038
   21          7           0.000003864    0.000001463    0.000007543
   22          1          -0.000004813    0.000002571   -0.000003198
   23          1           0.000003534    0.000000930   -0.000002156
 -------------------------------------------------------------------
 Cartesian Forces:  Max     0.000012202 RMS     0.000004709

 GradGradGradGradGradGradGradGradGradGradGradGradGradGradGradGradGradGrad
 Berny optimization.
 Internal  Forces:  Max     0.000008658 RMS     0.000002058
 Search for a local minimum.
 Step number   1 out of a maximum of 123
 All quantities printed in internal units (Hartrees-Bohrs-Radians)
 Second derivative matrix not updated -- first step.
     Eigenvalues ---    0.00230   0.00385   0.00612   0.00822   0.00909
     Eigenvalues ---    0.01493   0.02107   0.02131   0.02140   0.02158
     Eigenvalues ---    0.02170   0.02171   0.02172   0.02173   0.02228
     Eigenvalues ---    0.03979   0.04074   0.04205   0.05400   0.05406
     Eigenvalues ---    0.06237   0.09376   0.12885   0.15999   0.16000
     Eigenvalues ---    0.16000   0.16000   0.16000   0.16000   0.16000
     Eigenvalues ---    0.16000   0.17191   0.19222   0.21969   0.22000
     Eigenvalues ---    0.22000   0.23473   0.24997   0.24998   0.25000
     Eigenvalues ---    0.27325   0.29535   0.31187   0.34293   0.34349
     Eigenvalues ---    0.34631   0.35295   0.35454   0.35459   0.35483
     Eigenvalues ---    0.35574   0.37072   0.42062   0.42142   0.45151
     Eigenvalues ---    0.45302   0.45929   0.46241   0.46662   0.46709
     Eigenvalues ---    0.53057   0.53569   1.020921000.000001000.00000
     Eigenvalues --- 1000.000001000.000001000.000001000.000001000.00000
     Eigenvalues --- 1000.000001000.000001000.000001000.000001000.00000
     Eigenvalues --- 1000.000001000.000001000.000001000.000001000.00000
     Eigenvalues --- 1000.000001000.000001000.000001000.000001000.00000
     Eigenvalues --- 1000.000001000.000001000.000001000.000001000.00000
     Eigenvalues --- 1000.000001000.000001000.000001000.000001000.00000
     Eigenvalues --- 1000.000001000.000001000.000001000.000001000.00000
     Eigenvalues --- 1000.000001000.000001000.000001000.000001000.00000
     Eigenvalues --- 1000.000001000.000001000.000001000.000001000.00000
     Eigenvalues --- 1000.000001000.000001000.00000
 RFO step:  Lambda=-1.24335160D-08.
 Linear search not attempted -- first point.
 Iteration  1 RMS(Cart)=  0.00011497 RMS(Int)=  0.00000002
 Iteration  2 RMS(Cart)=  0.00000002 RMS(Int)=  0.00000000
 Variable       Old X    -DE/DX   Delta X   Delta X   Delta X     New X
                                 (Linear)    (Quad)   (Total)
    R1        2.06278   0.00000   0.00000   0.00000   0.00000   2.06278
    R2        2.88899  -0.00001   0.00000  -0.00003  -0.00003   2.88897
    R3        2.93638   0.00000   0.00000   0.00001   0.00001   2.93639
    R4        2.75737   0.00000   0.00000   0.00000   0.00000   2.75737
    R5        2.27812   0.00001   0.00000   0.00001   0.00001   2.27813
    R6        2.56900   0.00000   0.00000  -0.00001  -0.00001   2.56900
    R7        1.83126   0.00000   0.00000   0.00000   0.00000   1.83126
    R8        2.06745   0.00000   0.00000   0.00000   0.00000   2.06745
    R9        2.06838   0.00000   0.00000   0.00000   0.00000   2.06838
   R10        2.85657   0.00000   0.00000   0.00002   0.00002   2.85659
   R11        2.64364   0.00000   0.00000   0.00001   0.00001   2.64364
   R12        2.64485   0.00000   0.00000  -0.00001  -0.00001   2.64484
   R13        2.63310   0.00000   0.00000   0.00000   0.00000   2.63309
   R14        2.04753   0.00000   0.00000   0.00000   0.00000   2.04753
   R15        2.63382   0.00000   0.00000   0.00001   0.00001   2.63383
   R16        2.05198   0.00000   0.00000   0.00000   0.00000   2.05199
   R17        2.63442   0.00000   0.00000   0.00000   0.00000   2.63442
   R18        2.04944   0.00000   0.00000   0.00000   0.00000   2.04944
   R19        2.63356   0.00000   0.00000   0.00000   0.00000   2.63355
   R20        2.04935   0.00000   0.00000   0.00000   0.00000   2.04935
   R21        2.04897   0.00000   0.00000   0.00000   0.00000   2.04898
   R22        1.91800   0.00000   0.00000   0.00000   0.00000   1.91800
   R23        1.91627   0.00000   0.00000   0.00000   0.00000   1.91627
    A1        1.84051   0.00000   0.00000   0.00001   0.00001   1.84052
    A2        1.89044   0.00000   0.00000  -0.00001  -0.00001   1.89043
    A3        1.89207   0.00000   0.00000  -0.00001  -0.00001   1.89207
    A4        1.89643   0.00000   0.00000   0.00000   0.00000   1.89644
    A5        2.00559   0.00000   0.00000   0.00000   0.00000   2.00559
    A6        1.93366   0.00000   0.00000   0.00000   0.00000   1.93367
    A7        2.19048   0.00000   0.00000   0.00000   0.00000   2.19048
    A8        1.95734  -0.00001   0.00000  -0.00003  -0.00003   1.95731
    A9        2.13516   0.00001   0.00000   0.00002   0.00002   2.13518
   A10        1.87330   0.00000   0.00000   0.00001   0.00001   1.87332
   A11        1.89337   0.00000   0.00000  -0.00002  -0.00002   1.89335
   A12        1.88741   0.00000   0.00000   0.00002   0.00002   1.88744
   A13        1.97677   0.00000   0.00000  -0.00002  -0.00002   1.97675
   A14        1.86611   0.00000   0.00000   0.00001   0.00001   1.86611
   A15        1.90580   0.00000   0.00000   0.00001   0.00001   1.90581
   A16        1.93080   0.00000   0.00000   0.00000   0.00000   1.93080
   A17        2.11895   0.00000   0.00000   0.00000   0.00000   2.11895
   A18        2.09693   0.00000   0.00000   0.00000   0.00000   2.09693
   A19        2.06726   0.00000   0.00000   0.00000   0.00000   2.06726
   A20        2.10769   0.00000   0.00000   0.00000   0.00000   2.10769
   A21        2.08404   0.00000   0.00000   0.00000   0.00000   2.08404
   A22        2.09141   0.00000   0.00000   0.00000   0.00000   2.09141
   A23        2.11117   0.00000   0.00000   0.00000   0.00000   2.11117
   A24        2.08564   0.00000   0.00000   0.00000   0.00000   2.08564
   A25        2.08636   0.00000   0.00000   0.00000   0.00000   2.08636
   A26        2.09895   0.00000   0.00000   0.00000   0.00000   2.09895
   A27        2.08936   0.00000   0.00000   0.00001   0.00001   2.08937
   A28        2.09487   0.00000   0.00000  -0.00001  -0.00001   2.09487
   A29        2.09508   0.00000   0.00000   0.00000   0.00000   2.09508
   A30        2.09107   0.00000   0.00000   0.00000   0.00000   2.09107
   A31        2.09702   0.00000   0.00000   0.00000   0.00000   2.09702
   A32        2.08622   0.00000   0.00000   0.00000   0.00000   2.08622
   A33        2.09871   0.00000   0.00000   0.00000   0.00000   2.09870
   A34        2.09826   0.00000   0.00000   0.00000   0.00000   2.09826
   A35        1.93651   0.00000   0.00000   0.00000   0.00000   1.93651
   A36        1.94498   0.00000   0.00000  -0.00001  -0.00001   1.94497
   A37        1.88172   0.00000   0.00000   0.00002   0.00002   1.88174
    D1       -0.29677   0.00000   0.00000  -0.00014  -0.00014  -0.29691
    D2        2.86646   0.00000   0.00000   0.00022   0.00022   2.86668
    D3        1.72678   0.00000   0.00000  -0.00014  -0.00014   1.72663
    D4       -1.39318   0.00000   0.00000   0.00022   0.00022  -1.39296
    D5       -2.37923   0.00000   0.00000  -0.00014  -0.00014  -2.37937
    D6        0.78400   0.00000   0.00000   0.00022   0.00022   0.78422
    D7        1.29112   0.00000   0.00000   0.00002   0.00002   1.29114
    D8       -2.97409   0.00000   0.00000   0.00003   0.00003  -2.97406
    D9       -0.82769   0.00000   0.00000   0.00003   0.00003  -0.82766
   D10       -0.69995   0.00000   0.00000   0.00001   0.00001  -0.69993
   D11        1.31803   0.00000   0.00000   0.00002   0.00002   1.31805
   D12       -2.81875   0.00000   0.00000   0.00002   0.00002  -2.81873
   D13       -2.91895   0.00000   0.00000   0.00001   0.00001  -2.91894
   D14       -0.90097   0.00000   0.00000   0.00002   0.00002  -0.90095
   D15        1.24543   0.00000   0.00000   0.00002   0.00002   1.24545
   D16       -2.93701   0.00000   0.00000  -0.00042  -0.00042  -2.93743
   D17       -0.83992   0.00000   0.00000  -0.00040  -0.00040  -0.84032
   D18       -0.88348   0.00000   0.00000  -0.00041  -0.00041  -0.88389
   D19        1.21360   0.00000   0.00000  -0.00039  -0.00039   1.21322
   D20        1.27404   0.00000   0.00000  -0.00040  -0.00040   1.27364
   D21       -2.91206   0.00000   0.00000  -0.00038  -0.00038  -2.91244
   D22        3.11316   0.00000   0.00000  -0.00022  -0.00022   3.11294
   D23       -0.00759   0.00000   0.00000   0.00013   0.00013  -0.00745
   D24       -1.48813   0.00000   0.00000   0.00000   0.00000  -1.48813
   D25        1.64210   0.00000   0.00000   0.00004   0.00004   1.64214
   D26        2.68324   0.00000   0.00000   0.00003   0.00003   2.68328
   D27       -0.46971   0.00000   0.00000   0.00007   0.00007  -0.46964
   D28        0.63410   0.00000   0.00000   0.00002   0.00002   0.63412
   D29       -2.51885   0.00000   0.00000   0.00006   0.00006  -2.51880
   D30        3.12930   0.00000   0.00000   0.00001   0.00001   3.12931
   D31       -0.00228   0.00000   0.00000   0.00003   0.00003  -0.00225
   D32       -0.00112   0.00000   0.00000  -0.00002  -0.00002  -0.00115
   D33       -3.13270   0.00000   0.00000  -0.00001  -0.00001  -3.13271
   D34       -3.12824   0.00000   0.00000  -0.00002  -0.00002  -3.12827
   D35        0.01880   0.00000   0.00000  -0.00003  -0.00003   0.01876
   D36        0.00232   0.00000   0.00000   0.00001   0.00001   0.00233
   D37       -3.13383   0.00000   0.00000   0.00000   0.00000  -3.13382
   D38       -0.00084   0.00000   0.00000   0.00002   0.00002  -0.00081
   D39        3.14079   0.00000   0.00000   0.00002   0.00002   3.14081
   D40        3.13070   0.00000   0.00000   0.00001   0.00001   3.13071
   D41       -0.01086   0.00000   0.00000   0.00000   0.00000  -0.01086
   D42       -0.00156   0.00000   0.00000   0.00000   0.00000  -0.00156
   D43       -3.13751   0.00000   0.00000  -0.00001  -0.00001  -3.13752
   D44        3.13458   0.00000   0.00000   0.00001   0.00001   3.13459
   D45       -0.00137   0.00000   0.00000   0.00000   0.00000  -0.00137
   D46        0.00162   0.00000   0.00000  -0.00001  -0.00001   0.00161
   D47        3.13946   0.00000   0.00000   0.00001   0.00001   3.13946
   D48       -3.14000   0.00000   0.00000  -0.00001  -0.00001  -3.14001
   D49       -0.00217   0.00000   0.00000   0.00001   0.00001  -0.00216
   D50       -0.00043   0.00000   0.00000   0.00000   0.00000  -0.00043
   D51       -3.13827   0.00000   0.00000  -0.00002  -0.00002  -3.13829
   D52        3.13550   0.00000   0.00000   0.00001   0.00001   3.13551
   D53       -0.00234   0.00000   0.00000  -0.00001  -0.00001  -0.00235
         Item               Value     Threshold  Converged?
 Maximum Force            0.000009     0.000450     YES
 RMS     Force            0.000002     0.000300     YES
 Maximum Displacement     0.000562     0.001800     YES
 RMS     Displacement     0.000115     0.001200     YES
 Predicted change in Energy=-6.216713D-09
 Optimization completed.
    -- Stationary point found.
                           ----------------------------
                           !   Optimized Parameters   !
                           ! (Angstroms and Degrees)  !
 --------------------------                            --------------------------
 ! Name  Definition              Value          Derivative Info.                !
 --------------------------------------------------------------------------------
 ! R1    R(1,2)                  1.0916         -DE/DX =    0.0                 !
 ! R2    R(1,3)                  1.5288         -DE/DX =    0.0                 !
 ! R3    R(1,7)                  1.5539         -DE/DX =    0.0                 !
 ! R4    R(1,21)                 1.4591         -DE/DX =    0.0                 !
 ! R5    R(3,4)                  1.2055         -DE/DX =    0.0                 !
 ! R6    R(3,5)                  1.3595         -DE/DX =    0.0                 !
 ! R7    R(5,6)                  0.9691         -DE/DX =    0.0                 !
 ! R8    R(7,8)                  1.094          -DE/DX =    0.0                 !
 ! R9    R(7,9)                  1.0945         -DE/DX =    0.0                 !
 ! R10   R(7,10)                 1.5116         -DE/DX =    0.0                 !
 ! R11   R(10,11)                1.399          -DE/DX =    0.0                 !
 ! R12   R(10,12)                1.3996         -DE/DX =    0.0                 !
 ! R13   R(11,13)                1.3934         -DE/DX =    0.0                 !
 ! R14   R(11,14)                1.0835         -DE/DX =    0.0                 !
 ! R15   R(12,15)                1.3938         -DE/DX =    0.0                 !
 ! R16   R(12,16)                1.0859         -DE/DX =    0.0                 !
 ! R17   R(13,17)                1.3941         -DE/DX =    0.0                 !
 ! R18   R(13,18)                1.0845         -DE/DX =    0.0                 !
 ! R19   R(15,17)                1.3936         -DE/DX =    0.0                 !
 ! R20   R(15,19)                1.0845         -DE/DX =    0.0                 !
 ! R21   R(17,20)                1.0843         -DE/DX =    0.0                 !
 ! R22   R(21,22)                1.015          -DE/DX =    0.0                 !
 ! R23   R(21,23)                1.014          -DE/DX =    0.0                 !
 ! A1    A(2,1,3)              105.4534         -DE/DX =    0.0                 !
 ! A2    A(2,1,7)              108.3143         -DE/DX =    0.0                 !
 ! A3    A(2,1,21)             108.4077         -DE/DX =    0.0                 !
 ! A4    A(3,1,7)              108.6577         -DE/DX =    0.0                 !
 ! A5    A(3,1,21)             114.9119         -DE/DX =    0.0                 !
 ! A6    A(7,1,21)             110.7906         -DE/DX =    0.0                 !
 ! A7    A(1,3,4)              125.5055         -DE/DX =    0.0                 !
 ! A8    A(1,3,5)              112.1471         -DE/DX =    0.0                 !
 ! A9    A(4,3,5)              122.3354         -DE/DX =    0.0                 !
 ! A10   A(3,5,6)              107.3324         -DE/DX =    0.0                 !
 ! A11   A(1,7,8)              108.4821         -DE/DX =    0.0                 !
 ! A12   A(1,7,9)              108.1408         -DE/DX =    0.0                 !
 ! A13   A(1,7,10)             113.2604         -DE/DX =    0.0                 !
 ! A14   A(8,7,9)              106.92           -DE/DX =    0.0                 !
 ! A15   A(8,7,10)             109.1941         -DE/DX =    0.0                 !
 ! A16   A(9,7,10)             110.627          -DE/DX =    0.0                 !
 ! A17   A(7,10,11)            121.4067         -DE/DX =    0.0                 !
 ! A18   A(7,10,12)            120.1451         -DE/DX =    0.0                 !
 ! A19   A(11,10,12)           118.4451         -DE/DX =    0.0                 !
 ! A20   A(10,11,13)           120.762          -DE/DX =    0.0                 !
 ! A21   A(10,11,14)           119.4068         -DE/DX =    0.0                 !
 ! A22   A(13,11,14)           119.8287         -DE/DX =    0.0                 !
 ! A23   A(10,12,15)           120.9609         -DE/DX =    0.0                 !
 ! A24   A(10,12,16)           119.4984         -DE/DX =    0.0                 !
 ! A25   A(15,12,16)           119.5399         -DE/DX =    0.0                 !
 ! A26   A(11,13,17)           120.261          -DE/DX =    0.0                 !
 ! A27   A(11,13,18)           119.7117         -DE/DX =    0.0                 !
 ! A28   A(17,13,18)           120.0273         -DE/DX =    0.0                 !
 ! A29   A(12,15,17)           120.0394         -DE/DX =    0.0                 !
 ! A30   A(12,15,19)           119.8094         -DE/DX =    0.0                 !
 ! A31   A(17,15,19)           120.1504         -DE/DX =    0.0                 !
 ! A32   A(13,17,15)           119.5315         -DE/DX =    0.0                 !
 ! A33   A(13,17,20)           120.247          -DE/DX =    0.0                 !
 ! A34   A(15,17,20)           120.2212         -DE/DX =    0.0                 !
 ! A35   A(1,21,22)            110.9539         -DE/DX =    0.0                 !
 ! A36   A(1,21,23)            111.4392         -DE/DX =    0.0                 !
 ! A37   A(22,21,23)           107.8146         -DE/DX =    0.0                 !
 ! D1    D(2,1,3,4)            -17.0038         -DE/DX =    0.0                 !
 ! D2    D(2,1,3,5)            164.2358         -DE/DX =    0.0                 !
 ! D3    D(7,1,3,4)             98.9372         -DE/DX =    0.0                 !
 ! D4    D(7,1,3,5)            -79.8232         -DE/DX =    0.0                 !
 ! D5    D(21,1,3,4)          -136.3197         -DE/DX =    0.0                 !
 ! D6    D(21,1,3,5)            44.9199         -DE/DX =    0.0                 !
 ! D7    D(2,1,7,8)             73.9756         -DE/DX =    0.0                 !
 ! D8    D(2,1,7,9)           -170.4028         -DE/DX =    0.0                 !
 ! D9    D(2,1,7,10)           -47.4233         -DE/DX =    0.0                 !
 ! D10   D(3,1,7,8)            -40.1039         -DE/DX =    0.0                 !
 ! D11   D(3,1,7,9)             75.5177         -DE/DX =    0.0                 !
 ! D12   D(3,1,7,10)          -161.5027         -DE/DX =    0.0                 !
 ! D13   D(21,1,7,8)          -167.2433         -DE/DX =    0.0                 !
 ! D14   D(21,1,7,9)           -51.6217         -DE/DX =    0.0                 !
 ! D15   D(21,1,7,10)           71.3579         -DE/DX =    0.0                 !
 ! D16   D(2,1,21,22)         -168.2784         -DE/DX =    0.0                 !
 ! D17   D(2,1,21,23)          -48.124          -DE/DX =    0.0                 !
 ! D18   D(3,1,21,22)          -50.6199         -DE/DX =    0.0                 !
 ! D19   D(3,1,21,23)           69.5344         -DE/DX =    0.0                 !
 ! D20   D(7,1,21,22)           72.997          -DE/DX =    0.0                 !
 ! D21   D(7,1,21,23)         -166.8487         -DE/DX =    0.0                 !
 ! D22   D(1,3,5,6)            178.3709         -DE/DX =    0.0                 !
 ! D23   D(4,3,5,6)             -0.4348         -DE/DX =    0.0                 !
 ! D24   D(1,7,10,11)          -85.2637         -DE/DX =    0.0                 !
 ! D25   D(1,7,10,12)           94.0853         -DE/DX =    0.0                 !
 ! D26   D(8,7,10,11)          153.7386         -DE/DX =    0.0                 !
 ! D27   D(8,7,10,12)          -26.9124         -DE/DX =    0.0                 !
 ! D28   D(9,7,10,11)           36.3313         -DE/DX =    0.0                 !
 ! D29   D(9,7,10,12)         -144.3197         -DE/DX =    0.0                 !
 ! D30   D(7,10,11,13)         179.2955         -DE/DX =    0.0                 !
 ! D31   D(7,10,11,14)          -0.1307         -DE/DX =    0.0                 !
 ! D32   D(12,10,11,13)         -0.0642         -DE/DX =    0.0                 !
 ! D33   D(12,10,11,14)       -179.4905         -DE/DX =    0.0                 !
 ! D34   D(7,10,12,15)        -179.2352         -DE/DX =    0.0                 !
 ! D35   D(7,10,12,16)           1.0769         -DE/DX =    0.0                 !
 ! D36   D(11,10,12,15)          0.1329         -DE/DX =    0.0                 !
 ! D37   D(11,10,12,16)       -179.555          -DE/DX =    0.0                 !
 ! D38   D(10,11,13,17)         -0.0479         -DE/DX =    0.0                 !
 ! D39   D(10,11,13,18)        179.954          -DE/DX =    0.0                 !
 ! D40   D(14,11,13,17)        179.3759         -DE/DX =    0.0                 !
 ! D41   D(14,11,13,18)         -0.6222         -DE/DX =    0.0                 !
 ! D42   D(10,12,15,17)         -0.0894         -DE/DX =    0.0                 !
 ! D43   D(10,12,15,19)       -179.7661         -DE/DX =    0.0                 !
 ! D44   D(16,12,15,17)        179.5983         -DE/DX =    0.0                 !
 ! D45   D(16,12,15,19)         -0.0783         -DE/DX =    0.0                 !
 ! D46   D(11,13,17,15)          0.0929         -DE/DX =    0.0                 !
 ! D47   D(11,13,17,20)        179.8776         -DE/DX =    0.0                 !
 ! D48   D(18,13,17,15)       -179.909          -DE/DX =    0.0                 !
 ! D49   D(18,13,17,20)         -0.1243         -DE/DX =    0.0                 !
 ! D50   D(12,15,17,13)         -0.0249         -DE/DX =    0.0                 !
 ! D51   D(12,15,17,20)       -179.8096         -DE/DX =    0.0                 !
 ! D52   D(19,15,17,13)        179.6506         -DE/DX =    0.0                 !
 ! D53   D(19,15,17,20)         -0.1341         -DE/DX =    0.0                 !
 --------------------------------------------------------------------------------
 GradGradGradGradGradGradGradGradGradGradGradGradGradGradGradGradGradGrad

                          Input orientation:                          
 ---------------------------------------------------------------------
 Center     Atomic     Atomic              Coordinates (Angstroms)
 Number     Number      Type              X           Y           Z
 ---------------------------------------------------------------------
    1          6             0        1.370873   -0.121471    0.449530
    2          1             0        1.031649    0.510785    1.272159
    3          6             0        2.777210    0.372255    0.109456
    4          8             0        3.246523    1.431957    0.441243
    5          8             0        3.463309   -0.520150   -0.652783
    6          1             0        4.328156   -0.128730   -0.847482
    7          6             0        0.446191    0.130734   -0.773521
    8          1             0        0.697048    1.105252   -1.202857
    9          1             0        0.675502   -0.621374   -1.534948
   10          6             0       -1.024566    0.104792   -0.425337
   11          6             0       -1.742160   -1.095273   -0.380958
   12          6             0       -1.696838    1.295030   -0.124918
   13          6             0       -3.094189   -1.105141   -0.044190
   14          1             0       -1.235146   -2.026826   -0.602618
   15          6             0       -3.048809    1.289071    0.213755
   16          1             0       -1.158175    2.237168   -0.161220
   17          6             0       -3.752291    0.086759    0.255349
   18          1             0       -3.634203   -2.045219   -0.015737
   19          1             0       -3.552168    2.222766    0.439412
   20          1             0       -4.804874    0.079037    0.515450
   21          7             0        1.295236   -1.514383    0.877501
   22          1             0        1.776877   -2.121998    0.222538
   23          1             0        1.717501   -1.645181    1.790121
 ---------------------------------------------------------------------
                    Distance matrix (angstroms):
                    1          2          3          4          5
     1  C    0.000000
     2  H    1.091576   0.000000
     3  C    1.528790   2.101916   0.000000
     4  O    2.435420   2.538631   1.205531   0.000000
     5  O    2.398401   3.268210   1.359458   2.248246   0.000000
     6  H    3.229213   3.970997   1.890013   2.294883   0.969060
     7  C    1.553865   2.161482   2.504322   3.318236   3.088888
     8  H    2.165473   2.567305   2.566422   3.051168   3.255259
     9  H    2.161388   3.047700   2.847550   3.838183   2.925804
    10  C    2.560218   2.697099   3.848511   4.555714   4.536883
    11  C    3.365854   3.606416   4.776908   5.652421   5.244193
    12  C    3.427436   3.164096   4.574227   4.977560   5.495511
    13  C    4.598711   4.622394   6.056371   6.846688   6.611609
    14  H    3.395398   3.884922   4.728810   5.756577   4.934376
    15  C    4.645300   4.286734   5.898638   6.301061   6.814092
    16  H    3.511734   3.135331   4.363304   4.518041   5.403938
    17  C    5.131070   4.909153   6.537368   7.129342   7.297803
    18  H    5.382199   5.473756   6.853180   7.722951   7.287410
    19  H    5.452695   4.963439   6.602597   6.844529   7.611399
    20  H    6.179353   5.901188   7.598606   8.164612   8.371777
    21  N    1.459138   2.080033   2.519036   3.560725   2.833868
    22  H    2.053892   2.930634   2.689749   3.852050   2.485187
    23  H    2.058890   2.320963   2.831548   3.691363   3.206450
                    6          7          8          9         10
     6  H    0.000000
     7  C    3.891329   0.000000
     8  H    3.851487   1.094049   0.000000
     9  H    3.749292   1.094541   1.758404   0.000000
    10  C    5.374418   1.511632   2.137618   2.156104   0.000000
    11  C    6.164462   2.538913   3.386379   2.720545   1.398952
    12  C    6.232956   2.523657   2.632234   3.359879   1.399596
    13  C    7.529267   3.820157   4.538923   4.082519   2.427458
    14  H    5.883286   2.740651   3.728750   2.548551   2.149318
    15  C    7.586567   3.812018   4.008993   4.536326   2.430744
    16  H    6.014005   2.717714   2.409999   3.663436   2.152821
    17  C    8.158204   4.322934   4.791692   4.828247   2.811431
    18  H    8.231883   4.686003   5.485841   4.786324   3.405954
    19  H    8.323769   4.672759   4.690599   5.464469   3.409161
    20  H    9.236503   5.407199   5.854643   5.893151   3.895699
    21  N    3.754225   2.480557   3.398265   2.646024   3.114578
    22  H    3.409851   2.799582   3.689570   2.560011   3.636814
    23  H    4.009001   3.367843   4.190957   3.631808   3.935682
                   11         12         13         14         15
    11  C    0.000000
    12  C    2.404404   0.000000
    13  C    1.393374   2.778476   0.000000
    14  H    1.083507   3.387637   2.148810   0.000000
    15  C    2.783184   1.393758   2.408495   3.866654   0.000000
    16  H    3.390352   1.085864   3.864308   4.287470   2.148020
    17  C    2.417170   2.414417   1.394076   3.396965   1.393618
    18  H    2.148397   3.862974   1.084514   2.469867   3.393058
    19  H    3.867624   2.149747   3.393903   4.951106   1.084471
    20  H    3.400407   3.398323   2.154511   4.292749   2.153826
    21  N    3.314385   4.224944   4.503781   2.975934   5.212546
    22  H    3.715103   4.885028   4.983214   3.124456   5.909544
    23  H    4.121315   4.895909   5.177712   3.819552   5.814850
                   16         17         18         19         20
    16  H    0.000000
    17  C    3.395177   0.000000
    18  H    4.948810   2.152385   0.000000
    19  H    2.468232   2.153243   4.292969   0.000000
    20  H    4.291133   1.084271   2.482961   2.484075   0.000000
    21  N    4.601337   5.331816   5.037760   6.136410   6.315173
    22  H    5.269168   5.954106   5.416868   6.879152   6.946208
    23  H    5.210554   5.939172   5.662322   6.674941   6.865791
                   21         22         23
    21  N    0.000000
    22  H    1.014963   0.000000
    23  H    1.014047   1.639572   0.000000
 Stoichiometry    C9H11NO2
 Framework group  C1[X(C9H11NO2)]
 Deg. of freedom    63
 Full point group                 C1
 Largest Abelian subgroup         C1      NOp   1
 Largest concise Abelian subgroup C1      NOp   1
                         Standard orientation:                         
 ---------------------------------------------------------------------
 Center     Atomic     Atomic              Coordinates (Angstroms)
 Number     Number      Type              X           Y           Z
 ---------------------------------------------------------------------
    1          6             0        1.370873   -0.121471    0.449530
    2          1             0        1.031649    0.510785    1.272159
    3          6             0        2.777210    0.372255    0.109456
    4          8             0        3.246523    1.431957    0.441243
    5          8             0        3.463309   -0.520150   -0.652783
    6          1             0        4.328156   -0.128730   -0.847482
    7          6             0        0.446191    0.130734   -0.773521
    8          1             0        0.697048    1.105252   -1.202857
    9          1             0        0.675502   -0.621374   -1.534948
   10          6             0       -1.024566    0.104792   -0.425337
   11          6             0       -1.742160   -1.095273   -0.380958
   12          6             0       -1.696838    1.295030   -0.124918
   13          6             0       -3.094189   -1.105141   -0.044190
   14          1             0       -1.235146   -2.026826   -0.602618
   15          6             0       -3.048809    1.289071    0.213755
   16          1             0       -1.158175    2.237168   -0.161220
   17          6             0       -3.752291    0.086759    0.255349
   18          1             0       -3.634203   -2.045219   -0.015737
   19          1             0       -3.552168    2.222766    0.439412
   20          1             0       -4.804874    0.079037    0.515450
   21          7             0        1.295236   -1.514383    0.877501
   22          1             0        1.776877   -2.121998    0.222538
   23          1             0        1.717501   -1.645181    1.790121
 ---------------------------------------------------------------------
 Rotational constants (GHZ):      2.3582077      0.4570245      0.4116528

 **********************************************************************

            Population analysis using the SCF density.

 **********************************************************************

 Orbital symmetries:
       Occupied  (A) (A) (A) (A) (A) (A) (A) (A) (A) (A) (A) (A)
                 (A) (A) (A) (A) (A) (A) (A) (A) (A) (A) (A) (A)
                 (A) (A) (A) (A) (A) (A) (A) (A) (A) (A) (A) (A)
                 (A) (A) (A) (A) (A) (A) (A) (A)
       Virtual   (A) (A) (A) (A) (A) (A) (A) (A) (A) (A) (A) (A)
                 (A) (A) (A) (A) (A) (A) (A) (A) (A) (A) (A) (A)
                 (A) (A) (A) (A) (A) (A) (A) (A) (A) (A) (A) (A)
                 (A) (A) (A) (A) (A) (A) (A) (A) (A) (A) (A) (A)
                 (A) (A) (A) (A) (A) (A) (A) (A) (A) (A) (A) (A)
                 (A) (A) (A) (A) (A) (A) (A) (A) (A) (A) (A) (A)
                 (A) (A) (A) (A) (A) (A) (A) (A) (A) (A) (A) (A)
                 (A) (A) (A) (A) (A) (A) (A) (A) (A) (A) (A) (A)
                 (A) (A) (A) (A) (A) (A) (A) (A) (A) (A) (A) (A)
                 (A) (A) (A) (A) (A) (A) (A) (A) (A) (A) (A) (A)
                 (A) (A) (A) (A) (A) (A) (A) (A) (A) (A) (A) (A)
                 (A) (A) (A) (A) (A) (A) (A) (A) (A) (A) (A) (A)
                 (A) (A) (A) (A) (A) (A) (A) (A) (A) (A) (A) (A)
                 (A) (A) (A) (A) (A) (A) (A) (A) (A) (A) (A) (A)
                 (A) (A) (A) (A) (A) (A) (A) (A) (A) (A) (A) (A)
                 (A) (A) (A) (A) (A) (A) (A) (A) (A) (A) (A) (A)
                 (A) (A) (A) (A) (A) (A) (A) (A) (A) (A) (A) (A)
                 (A) (A) (A) (A) (A) (A) (A) (A) (A) (A) (A) (A)
                 (A) (A) (A) (A) (A) (A) (A) (A) (A) (A) (A) (A)
                 (A) (A) (A) (A) (A) (A) (A) (A) (A) (A) (A) (A)
                 (A) (A) (A) (A) (A) (A) (A) (A) (A) (A) (A) (A)
                 (A) (A) (A) (A) (A) (A) (A) (A) (A) (A) (A) (A)
                 (A) (A) (A) (A) (A) (A) (A) (A) (A) (A) (A) (A)
                 (A) (A) (A) (A) (A) (A) (A) (A) (A) (A) (A) (A)
                 (A) (A) (A) (A) (A) (A) (A) (A)
 The electronic state is 1-A.
 Alpha  occ. eigenvalues --  -19.18678 -19.12950 -14.31140 -10.31562 -10.22942
 Alpha  occ. eigenvalues --  -10.18871 -10.18548 -10.17594 -10.17521 -10.17506
 Alpha  occ. eigenvalues --  -10.17446 -10.17294  -1.12652  -1.03747  -0.91138
 Alpha  occ. eigenvalues --   -0.86105  -0.78942  -0.74844  -0.73686  -0.67549
 Alpha  occ. eigenvalues --   -0.62041  -0.60952  -0.58760  -0.52525  -0.51993
 Alpha  occ. eigenvalues --   -0.50840  -0.49486  -0.47337  -0.46464  -0.45615
 Alpha  occ. eigenvalues --   -0.43843  -0.42709  -0.42336  -0.40478  -0.39063
 Alpha  occ. eigenvalues --   -0.37873  -0.36014  -0.34714  -0.34501  -0.34084
 Alpha  occ. eigenvalues --   -0.31541  -0.26125  -0.25330  -0.24838
 Alpha virt. eigenvalues --   -0.02787  -0.01703  -0.01463  -0.00847  -0.00207
 Alpha virt. eigenvalues --    0.00615   0.00987   0.01570   0.02542   0.03372
 Alpha virt. eigenvalues --    0.04079   0.04775   0.05514   0.06090   0.06453
 Alpha virt. eigenvalues --    0.07423   0.07849   0.08617   0.08663   0.09662
 Alpha virt. eigenvalues --    0.10089   0.10630   0.10946   0.11297   0.11855
[...]
 5967,-0.00062377,-0.00112315,0.00052899,-0.00000461,0.00002640,-0.0000
 0291,-0.00020550,0.00015916,-0.00031570,0.00006002,-0.00004903,0.00008
 028,0.00003574,0.00001987,-0.00002098,-0.00000906,0.00000155,0.0000313
 6,-0.00185878,0.00119698,-0.00287045,0.00027015,-0.00001147,-0.0000207
 6,0.00019428,-0.00047013,-0.00017743,0.00081672,0.00081341,0.00336202,
 0.03172055,-0.05000949,-0.04959337,0.00109970,-0.00007041,0.00635434,0
 .00303586,-0.00736186,0.00189485,-0.03684625,0.05550692,0.03944019,-0.
 00012693,0.00007506,-0.00103074,-0.00031714,-0.00001461,-0.00046985,0.
 00015492,0.00005521,-0.00001980,0.00003326,-0.00009572,-0.00002161,0.0
 0012427,-0.00003556,-0.00004090,0.00002459,-0.00002338,-0.00001407,0.0
 0369281,0.00244947,0.00284890,-0.00016493,-0.00069108,0.00014385,-0.00
 066737,-0.00016550,-0.00061534,-0.02323216,0.07420617,0.01633561,-0.04
 985708,-0.02852123,0.00844567,-0.31573858,-0.03321539,0.05961704,0.060
 82486,-0.02333502,-0.01609269,-0.00069268,-0.00079332,-0.00011383,0.64
 129242,-0.00042058,-0.00023600,-0.00062866,-0.00004535,-0.00003885,0.0
 0005708,0.00011235,-0.00019910,-0.00031095,-0.00000140,0.00017224,0.00
 006686,-0.00001709,0.00014326,0.00014926,0.00000058,-0.00002280,0.0000
 1996,0.00195686,-0.00424838,-0.00147106,-0.00001587,0.00021874,-0.0000
 2903,0.00113726,-0.00006809,-0.00052897,0.02830390,0.03444859,-0.00290
 305,-0.02927637,-0.01807841,0.00582888,0.02853002,-0.12676534,-0.01458
 988,0.02184969,-0.05821887,-0.01308862,-0.00066097,0.00016291,0.000428
 01,-0.01704791,0.70966279,0.00147573,-0.00032047,-0.00035289,0.0001358
 1,0.00002246,0.00010802,-0.00004671,-0.00020537,0.00047082,0.00006215,
 0.00021689,-0.00004383,-0.00001298,-0.00000042,-0.00006755,-0.00000436
 ,0.00000668,-0.00002657,0.00144625,-0.00074601,0.00609177,-0.00017649,
 -0.00035665,-0.00004740,-0.00076267,0.00011635,0.00025321,0.01008903,-
 0.01579085,0.00171821,0.00779918,0.00593640,-0.00711652,0.06664474,0.0
 0102782,-0.07836515,-0.01078420,-0.00158028,0.01035122,-0.00010138,0.0
 0031044,-0.00094365,-0.12878094,0.06753929,0.17248603,-0.00010495,0.00
 021511,0.00001872,-0.00005974,0.00001440,-0.00011136,-0.00018022,0.000
 05675,0.00006214,0.00009772,-0.00003161,0.00000182,0.00009385,-0.00005
 334,-0.00006920,-0.00001970,0.00000906,0.00000880,0.00060828,0.0011345
 7,-0.00118413,0.00011067,0.00005972,0.00020831,0.00013250,-0.00015361,
 -0.00003750,0.00951629,0.01254455,-0.00001829,-0.00035286,0.00303242,0
 .00209428,-0.12328693,-0.11680317,0.00990795,-0.00064705,0.00071581,-0
 .00001851,0.00047631,0.00071931,-0.00001956,-0.01064527,-0.02826459,0.
 00026062,0.12897044,0.00050128,-0.00023056,-0.00004258,0.00013754,-0.0
 0010247,0.00022898,0.00015000,-0.00030481,0.00000466,-0.00004522,0.000
 22447,0.00002301,-0.00009396,0.00011330,0.00007871,0.00001399,-0.00000
 949,-0.00001332,-0.00165974,0.00050601,0.00115354,0.00101739,0.0004727
 4,-0.00056283,-0.00005182,0.00044850,-0.00012795,-0.01582947,-0.019428
 81,0.00159347,0.00375402,-0.00290496,-0.00194051,-0.11658572,-0.262871
 35,0.00547774,0.00090323,0.00016253,-0.00008418,-0.00081897,-0.0010671
 5,0.00000144,0.00198807,0.00310544,-0.00054523,0.12659755,0.27889767,-
 0.00048624,0.00028492,0.00041975,-0.00015144,0.00003929,-0.00017898,-0
 .00000303,0.00018082,-0.00013826,-0.00000440,-0.00015765,-0.00003737,0
 .00006758,-0.00005342,-0.00006147,0.00001045,-0.00000951,0.00002517,-0
 .00192145,-0.00058623,-0.00290323,0.00035775,0.00054380,-0.00007685,0.
 00035641,-0.00005623,-0.00000010,-0.00239339,-0.00569899,0.00330754,0.
 00208424,-0.00200205,0.00586222,0.00981001,0.00605880,-0.03807530,0.00
 010927,-0.00006861,-0.00103443,-0.00021511,-0.00030966,0.00024050,0.00
 352981,0.00703174,0.00292031,-0.01297707,-0.00523856,0.02791067,-0.000
 30269,-0.00030382,0.00073573,0.00005933,-0.00004270,0.00005453,0.00042
 284,0.00035849,-0.00039845,-0.00023079,-0.00023563,0.00005671,-0.00021
 681,0.00003635,0.00012207,0.00002336,-0.00001618,0.00000404,-0.0007611
 7,0.00016569,-0.00077248,0.00000888,0.00015384,0.00002983,-0.00006537,
 -0.00013743,0.00001505,0.00099914,-0.00165480,-0.00159006,-0.02377471,
 0.02900258,0.01089947,-0.02811337,-0.02817563,0.00587415,-0.16987615,0
 .11079371,0.03931331,-0.00474308,-0.00070246,0.00319871,-0.17618327,-0
 .12107684,0.01478807,-0.00478688,0.00021780,0.00303371,0.70249144,-0.0
 0001406,0.00016734,0.00062764,0.00021138,-0.00000371,0.00040280,-0.000
 24608,-0.00007514,0.00013004,0.00000193,0.00006360,-0.00001161,-0.0000
 4455,-0.00000560,0.00000243,-0.00002264,0.00001695,0.00000577,-0.00063
 879,-0.00148375,-0.00066507,0.00010129,0.00037937,-0.00034231,0.000065
 68,0.00038539,0.00050611,-0.00092456,-0.06919901,-0.00739738,0.0739370
 3,0.03469727,-0.01600432,-0.07343246,0.03211402,0.02176976,0.04934194,
 -0.27546830,-0.03623425,-0.00152692,0.00184593,-0.00023132,-0.05974442
 ,-0.27864432,-0.00906470,0.00123935,0.00201546,-0.00079229,0.01458886,
 0.64788547,-0.00014967,-0.00001484,0.00003444,-0.00001256,0.00000628,0
 .00000730,-0.00014175,-0.00006795,-0.00000795,0.00006268,0.00003281,0.
 00000730,0.00006544,0.00001373,-0.00001090,-0.00001442,0.00001149,-0.0
 0000358,-0.00000058,-0.00007530,-0.00110472,0.00014161,-0.00001697,-0.
 00009350,0.00017524,0.00011775,-0.00002403,-0.00219611,-0.00662813,-0.
 00648127,0.01634469,-0.00438027,0.00280247,0.00090104,0.00959927,0.008
 52877,0.03224698,-0.05160551,-0.07643361,0.00269625,-0.00028417,0.0065
 3629,0.02136851,0.00597957,-0.06701075,0.00317327,-0.00058630,0.006456
 71,-0.14044512,0.05431114,0.17302573,-0.00003427,-0.00016347,0.0001787
 9,0.00001035,0.00000289,-0.00000462,0.00015937,0.00007652,-0.00013179,
 -0.00006972,-0.00004281,0.00001703,-0.00008474,0.00003730,0.00004315,0
 .00001773,-0.00001190,0.00000308,-0.00019565,-0.00134722,0.00001217,-0
 .00045417,-0.00005815,0.00007089,0.00002674,0.00004432,0.00000254,-0.0
 0454636,0.00109569,0.00299316,-0.01048968,-0.02811853,0.00025562,-0.00
 080203,0.00091057,0.00007293,-0.12576977,-0.11917989,0.00888205,0.0007
 3237,0.00048088,-0.00112432,-0.00014956,0.00286793,0.00214601,-0.00002
 054,-0.00007683,-0.00026588,0.01106117,0.01422099,-0.00036987,0.129761
 78,-0.00003057,-0.00004452,0.00003639,0.00000768,0.00000004,0.00000772
 ,0.00010554,0.00004696,-0.00007277,-0.00005507,-0.00003209,0.00001252,
 -0.00006058,0.00001662,0.00003472,0.00001028,-0.00000628,-0.00000234,0
 .00024824,-0.00000923,-0.00005290,-0.00001891,-0.00000165,-0.00000598,
 -0.00003365,0.00001184,0.,0.00036687,0.00197874,-0.00067344,0.00200070
 ,0.00313857,-0.00047944,0.00084228,0.00027978,-0.00007972,-0.11925463,
 -0.26541514,0.00381805,-0.00024042,0.00073492,0.00060974,0.00372097,-0
 .00292792,-0.00206472,-0.00006380,-0.00004366,0.00012890,-0.01595386,-
 0.01830683,0.00155873,0.12880614,0.28066977,0.00003973,-0.00003271,0.0
 0004144,0.00000729,-0.00002011,-0.00000886,-0.00005653,-0.00002795,0.0
 0003711,0.00003111,0.00002922,-0.00001112,0.00003428,-0.00001071,-0.00
 002978,-0.00000313,0.00000288,0.00000390,-0.00011606,0.00036217,0.0001
 4401,0.00000714,0.00003193,-0.00008297,0.00000402,-0.00004447,-0.00003
 692,0.00324515,-0.00080756,0.00652606,0.00352021,0.00712625,0.00324503
 ,0.00006656,-0.00005298,-0.00099714,0.00896242,0.00386060,-0.03831772,
 -0.00112908,0.00031676,-0.00374298,0.00227498,-0.00186592,0.00634104,-
 0.00026573,0.00011793,-0.00096796,-0.00384052,-0.00602911,0.00339409,-
 0.01157066,-0.00324133,0.02790385,-0.00008620,-0.00003672,0.00018551,0
 .00000645,0.00000728,-0.00002816,0.00016796,0.00019309,-0.00006195,-0.
 00009926,-0.00014876,-0.00000632,-0.00006990,-0.00002587,0.00000373,0.
 00001504,-0.00000336,-0.00000131,-0.00018556,0.00129169,0.00033600,0.0
 0003762,-0.00003819,-0.00001196,-0.00043244,0.00003974,0.00007592,-0.0
 0459735,-0.00157346,0.00268404,-0.00082163,-0.00082026,-0.00013245,-0.
 00943280,0.02805838,0.00605542,-0.00048597,-0.00334982,0.00151052,-0.0
 0000180,0.00012269,-0.00024191,-0.11683860,0.10928988,0.03199682,0.000
 68974,-0.00025553,-0.00121744,0.01116773,-0.01493918,-0.00362838,0.000
 36730,-0.00079325,-0.00013660,0.12008331,0.00004023,0.00001318,-0.0000
 5941,-0.00000726,-0.00000036,-0.00001686,-0.00010345,-0.00006647,0.000
 04379,0.00006487,0.00005453,0.00000242,0.00004963,-0.00000092,-0.00002
 017,-0.00000945,0.00000405,-0.00000004,-0.00019580,0.00001144,0.000022
 24,0.00001956,-0.00000377,0.00001006,0.00004264,-0.00000959,0.00001662
 ,-0.00078264,0.00200620,-0.00038137,-0.00079705,0.00022677,0.00034046,
 -0.00221915,0.00347646,0.00058838,-0.00423882,-0.00301630,-0.00006527,
 0.00010982,-0.00003312,0.00007676,0.10936417,-0.26276325,-0.05160856,0
 .00049635,0.00074905,0.00039546,0.01529080,-0.01822985,-0.00608485,0.0
 0074996,-0.00101594,-0.00033686,-0.11772292,0.27771836,0.00002063,0.00
 001679,-0.00000150,-0.00002535,0.00001462,0.00000488,-0.00008815,-0.00
 004597,0.00005891,0.00003286,0.00003710,-0.00002443,0.00004539,-0.0000
 1047,-0.00003373,-0.00000682,-0.00000002,0.00000761,-0.00009500,-0.000
 37809,0.00013011,-0.00000221,0.00005402,-0.00002487,0.00000236,-0.0000
 3531,-0.00006343,0.00305810,-0.00033211,0.00657258,-0.00003704,0.00039
 894,-0.00092899,0.00290312,-0.00675920,0.00154766,0.00136644,-0.000268
 21,0.00679282,-0.00022710,0.00007032,-0.00099444,0.03195571,-0.0514646
 6,-0.04948287,-0.00113210,0.00055649,-0.00370027,-0.00037787,0.0012217
 9,0.00328563,0.00003716,0.00006607,0.00019555,-0.03630596,0.05648724,0
 .04029666,-0.00001087,-0.00002270,0.00004206,0.00000947,-0.00000670,0.
 00001178,0.00013094,0.00005217,-0.00005819,-0.00007889,-0.00005086,0.0
 0000245,-0.00006949,0.00001365,0.00003167,0.00001549,-0.00000662,-0.00
 000115,-0.00011950,0.00001075,-0.00016796,0.00001709,0.00000498,-0.000
 01818,0.00001558,0.00000795,-0.00001458,0.00060689,0.00003913,-0.00040
 804,0.00117670,0.00280290,0.00181212,0.00101519,-0.00333679,0.00115117
 ,-0.01018560,-0.00294502,0.00288935,-0.00057469,-0.00020763,0.00020025
 ,-0.01116729,0.00278449,0.00377341,-0.00064567,0.00016554,0.00024227,-
 0.31725242,-0.00248882,0.06958959,0.00052056,0.00042629,-0.00106224,0.
 00052826,-0.00017629,-0.00113620,0.33612040,0.00001734,-0.00004382,0.0
 0001509,0.00001738,-0.00000413,0.00002442,-0.00000842,-0.00003603,-0.0
 0001129,0.00000712,0.00003473,0.00000652,-0.00000484,0.00001469,0.0000
 0881,-0.00000039,-0.00000027,-0.00000021,0.00002769,0.00011991,0.00009
 888,0.00008168,0.00003517,-0.00003723,-0.00008045,0.00005350,0.0000419
 6,-0.00001799,-0.00136297,-0.00005636,0.00193483,-0.00429485,-0.001790
 51,-0.00243434,-0.00434027,-0.00066989,0.02728023,0.00480194,-0.006497
 23,0.00129433,0.00006360,-0.00040065,-0.02746451,0.00438723,0.00696991
 ,-0.00136613,0.00000101,0.00032590,-0.00245920,-0.05874296,-0.00197745
 ,-0.00043049,0.00090044,0.00065697,0.00067250,0.00090056,0.00036409,0.
 00291176,0.05745180,-0.00015651,-0.00007164,0.00007064,-0.00000598,-0.
 00000427,-0.00000032,-0.00003579,0.00002705,-0.00005549,0.00000636,-0.
 00002410,0.00000686,0.00001474,-0.00000314,-0.00000245,-0.00000354,0.0
 0000121,0.00000760,-0.00051999,0.00009610,-0.00084034,0.00005711,0.000
 12945,0.00002465,0.00006850,-0.00013542,-0.00000421,-0.00018053,0.0000
 0859,-0.00092020,0.00162022,-0.00201852,0.00650163,0.00124699,-0.00044
 272,0.00682758,0.00640889,0.00082795,0.00134608,0.00038961,0.00002663,
 0.00007038,0.00044051,-0.00041193,0.00267451,0.00009918,-0.00005049,0.
 00019563,0.06950846,-0.00190855,-0.05304747,-0.00115953,0.00043180,-0.
 00358648,-0.00103709,0.00056299,-0.00363102,-0.07682379,0.00289831,0.0
 4437354,-0.05757816,0.01939811,0.00283846,0.00140610,0.01040559,-0.004
 33374,0.00618918,-0.02615578,0.01071525,-0.00848810,-0.00379446,-0.002
 82778,-0.00260003,-0.00127263,0.00159170,0.00121961,-0.00054044,-0.000
 86482,0.00443903,0.01754132,-0.00647165,-0.00194824,0.00067788,-0.0029
 3709,0.00079651,-0.00063442,0.00101405,-0.00029767,0.00065628,0.001017
 44,-0.00074531,-0.00048166,-0.00113428,0.00051425,-0.00027752,-0.00038
 726,0.00054176,0.00032566,-0.00071985,-0.00028604,0.00088235,0.0007771
 2,-0.00043537,-0.00002103,0.00004154,0.00002160,0.00003588,0.00005510,
 0.00009798,0.00039333,0.00014105,0.00005125,-0.00002711,0.00001379,-0.
 00000432,0.00003349,0.00002263,-0.00005586,0.00004722,0.00009619,0.255
 83352,-0.02080304,-0.20189044,0.02788279,-0.00122678,-0.02735688,0.008
 85864,-0.00391151,-0.02853437,0.01010312,-0.00744028,-0.00157061,-0.00
 041925,-0.00245856,0.00254709,-0.00042139,0.00027507,0.00022019,-0.000
 84615,0.00468869,-0.01255650,0.00826229,0.00045004,0.00062418,0.000626
 46,-0.00089119,0.00159513,-0.00086212,-0.00217228,0.00052335,0.0009497
 3,0.00005036,-0.00077084,-0.00096387,0.00080427,-0.00022660,-0.0002456
 0,0.00053819,0.00026666,-0.00038818,0.00024566,0.00030725,0.00090295,-
 0.00055149,-0.00010109,0.00014489,-0.00009815,0.00023915,-0.00004256,0
 .00014428,0.00048731,0.00008438,0.00016985,0.00003669,-0.00003861,0.00
 003839,-0.00001527,-0.00000491,0.00002992,0.00004811,0.00005266,-0.149
 91677,0.50027003,0.01325718,0.02682889,-0.11069184,-0.00273540,-0.0239
 2006,0.01037870,0.00002729,0.01212387,-0.00336796,0.00236800,0.0022620
 2,0.00143743,0.00108594,-0.00000457,0.00050032,-0.00072468,0.00052531,
 0.00021925,-0.00054850,0.03511907,-0.01543697,-0.00492285,0.00201895,-
 0.00493602,0.00170785,0.00077252,0.00318443,0.00232353,-0.00023539,0.0
 0067181,-0.00062704,-0.00101334,-0.00036426,-0.00056750,0.00022729,0.0
 0043186,-0.00035150,0.00042127,0.00014352,0.00004973,0.00071824,0.0000
 8452,0.00016012,0.00020055,0.00005216,-0.00000956,-0.00001132,-0.00018
 042,-0.00025581,-0.00024321,0.00016785,-0.00010248,-0.00004272,-0.0000
 6536,-0.00005219,0.00003494,-0.00001600,-0.00006957,0.00004082,-0.0000
 1291,0.03002925,0.04799037,0.68963425,-0.00299378,-0.00919399,-0.00088
 236,0.00063002,-0.00042717,-0.00001845,0.00217677,-0.00280021,-0.00294
 364,-0.00002651,0.00108572,0.00091541,-0.00089274,0.00003926,0.0003317
 5,-0.00012085,0.00020025,0.00017776,-0.00023511,0.00113214,0.00128444,
 0.00012341,-0.00046506,-0.00025498,0.00003784,0.00015688,-0.00079889,-
 0.00020190,0.00003254,-0.00023889,-0.00021622,0.00097185,0.00022465,0.
 00003787,-0.00010316,-0.00010541,0.00002648,-0.00038062,-0.00003554,-0
 .00045185,-0.00029640,-0.00030100,0.00002613,-0.00008168,-0.00000903,0
 .00002570,-0.00006389,0.00001660,0.00008857,0.00002451,-0.00002553,-0.
 00002936,0.00001837,0.00001731,0.00001624,-0.00002215,0.00000297,0.000
 03551,-0.00004027,-0.00001588,-0.11141799,0.14445208,0.13754014,0.1089
 2214,0.01865898,-0.02638304,-0.02659423,-0.00064335,-0.00556122,0.0035
 2726,0.00096377,-0.00250021,-0.00346439,0.00017313,0.00152675,0.001225
 88,0.00032680,0.00117731,0.00026946,-0.00049242,0.00074265,0.00031939,
 -0.00051553,0.00073539,-0.00058127,-0.00021287,0.00019591,0.00019807,0
 .00047967,0.00030804,0.00094349,0.00003284,0.00011170,-0.00004254,-0.0
 0008719,0.00019093,0.00006367,-0.00010604,-0.00011019,0.00003320,0.000
 03407,-0.00007845,-0.00002337,-0.00002503,0.00003211,-0.00006882,-0.00
 005335,0.00000915,0.00002331,0.00000416,0.00000622,-0.00003148,-0.0000
 1139,0.00002971,-0.00001392,-0.00003165,-0.00000383,0.00001723,-0.0000
 1455,-0.00000139,0.00000654,0.00000089,-0.00000395,0.00000067,0.106145
 68,-0.17332213,-0.12823625,-0.12172831,0.19909335,-0.00565060,0.007037
 06,0.00903698,-0.00004980,0.00282569,0.00060221,-0.00025200,0.00069075
 ,0.00061020,0.00048124,0.00001162,-0.00003055,0.00086166,0.00088091,-0
 .00080532,-0.00018835,-0.00011042,-0.00018005,0.00007664,0.00073308,0.
 00230658,0.00011159,-0.00025982,-0.00023911,0.00003180,-0.00045967,-0.
 00071805,-0.00007195,-0.00011499,-0.00025564,0.00007614,0.00014156,0.0
 0005249,0.00000602,0.00004656,-0.00011094,-0.00005564,-0.00004284,0.00
 001411,-0.00012146,-0.00004983,0.00004355,0.00006976,-0.00001263,0.000
 01089,0.00000938,-0.00002515,0.00001564,0.00000974,-0.00005212,-0.0000
 1797,0.00000493,0.00000532,0.00001042,0.00001285,-0.00000465,0.0000082
 0,0.00000669,-0.00000881,-0.00000434,0.10406257,-0.13744836,-0.2172718
 8,-0.12045210,0.14829765,0.22888282,-0.00477610,-0.00670893,0.00576458
 ,0.00018413,0.00037841,-0.00021528,0.00163734,-0.00144852,0.00186692,-
 0.00016124,0.00019268,-0.00045419,-0.00074898,0.00042377,-0.00018504,-
 0.00005431,-0.00008126,0.00008290,0.00009767,0.00232936,-0.00114426,-0
 .00026619,0.00033091,-0.00068517,0.00011858,-0.00007420,0.00033952,0.0
 0105440,-0.00007362,-0.00028893,0.00004201,-0.00044680,0.00002550,-0.0
 0012987,0.00006124,0.00018465,-0.00018183,0.00013512,0.00014397,0.0000
 7554,0.00029889,-0.00006051,0.00004297,0.00009674,0.00001941,0.0000067
 3,-0.00000114,-0.00003776,-0.00011373,-0.00010382,0.00007763,-0.000062
 77,-0.00002149,-0.00004345,-0.00002381,0.00001347,-0.00001357,-0.00003
 180,0.00001494,-0.00001812,-0.08725370,0.03758324,-0.17758194,0.004439
 66,-0.00289832,0.02102089,0.08610527,0.01524477,-0.00555404,0.03534671
 ,0.00059078,0.00088061,-0.00061091,0.00106720,0.00016314,0.00120010,-0
 .00011739,-0.00031724,-0.00046160,0.00004425,0.00008773,-0.00010589,-0
 .00007287,0.00008220,0.00015491,-0.00163359,-0.00680652,0.00116859,0.0
 0131615,-0.00015530,0.00154432,-0.00022806,0.00020935,-0.00004822,-0.0
 0047187,0.00014640,-0.00005426,-0.00002510,-0.00030650,-0.00012084,0.0
 0014974,-0.00007253,-0.00009132,0.00007180,0.00011006,0.00001882,0.000
 09324,0.00017925,0.00005313,-0.00010663,0.00000206,-0.00003118,-0.0000
 0472,0.00002171,0.00005760,0.00001752,0.00007165,0.00002052,-0.0000021
 1,-0.00000727,-0.00001362,0.00000820,-0.00000437,0.00000494,-0.0000089
 9,0.00001657,0.00000737,0.02657903,-0.06082040,0.02442277,-0.01251069,
 0.00380519,-0.02208092,-0.03000065,0.06826827,-0.00491553,-0.00073939,
 -0.00637824,0.00009902,-0.00031983,0.00121138,0.00018019,0.00037713,0.
 00001597,-0.00053549,-0.00042645,-0.00035539,0.00041710,-0.00052060,0.
 00011666,0.00012395,0.00006769,-0.00010743,0.00101719,0.00200368,0.000
 56690,-0.00054316,-0.00002432,-0.00004131,0.00017045,0.00001413,0.0005
 5104,-0.00007962,0.00002446,0.00014451,0.00002178,-0.00001413,-0.00004
 078,-0.00005483,0.00000864,0.00005255,0.00001257,-0.00000207,-0.000045
 86,-0.00000904,-0.00001656,0.00001538,0.00000930,0.00000418,-0.0000210
 3,-0.00000146,-0.00000756,0.00000049,0.00003673,-0.00000122,-0.0000108
 4,0.00000963,0.00000540,0.00000479,0.00000090,-0.00000332,0.00000092,0
 .00000709,-0.00000205,0.00000614,-0.13273970,0.03582273,-0.35456247,-0
 .01442933,0.00413047,-0.02196026,0.15120226,-0.04038102,0.38083688||-0
 .00000952,-0.00000400,-0.00000021,0.00000718,0.00000134,0.,0.00000201,
 0.00000803,-0.00001051,0.00000219,-0.00001220,-0.00000779,0.00000297,-
 0.00000763,-0.00000575,0.00000041,-0.00000542,-0.00000472,-0.00000614,
 -0.00000120,0.00001012,-0.00000206,-0.00000165,-0.00000516,-0.00000060
 ,-0.00000447,-0.00000075,0.00000338,-0.00000392,-0.00000614,0.00000264
 ,0.00000276,0.00000380,-0.00000302,0.00000442,0.00000309,-0.00000426,0
 .00000486,0.00000503,-0.00000412,0.00000110,0.00000380,0.00000522,0.00
 000565,0.00000166,0.00000268,0.00000066,-0.00000226,0.00000069,0.00000
 155,0.00000542,-0.00000128,0.00000379,0.00000634,0.00000301,0.00000452
 ,0.00000119,0.00000118,0.00000676,0.00000504,-0.00000386,-0.00000146,-
 0.00000754,0.00000481,-0.00000257,0.00000320,-0.00000353,-0.00000093,0
 .00000215|||@


 THEREFORE SHALL EVIL COME UPON THEE...
 THOU SHALT NOT KNOW FROM WHENCE IT RISETH...
 AND MISCHIEF SHALL FALL UPON THEE...
 THOU SHALT NOT BE ABLE TO PUT IT OFF...
 AND DESOLATION SHALL COME UPON THEE SUDDENLY...
 WHICH THOU SHALT NOT KNOW...

                                         ISAIAH 47.11
 Job cpu time:  0 days  2 hours 56 minutes 15.0 seconds.
 File lengths (MBytes):  RWF=    287 Int=      0 D2E=      0 Chk=     11 Scr=      1
 Normal termination of Gaussian 03 at Wed Mar 30 18:44:01 2016.
