 Entering Gaussian System, Link 0=g09
 Input=Ala-S-opt-freq-tsa3-6-31g.com
 Output=Ala-S-opt-freq-tsa3-6-31g.log
 Initial command:
 /usr/local/gau/g09/l1.exe "/tmp/Gau-9907.inp" -scrdir="/tmp/"
 Entering Link 1 = /usr/local/gau/g09/l1.exe PID=      9909.
  
 Copyright (c) 1988,1990,1992,1993,1995,1998,2003,2009,2013,
            Gaussian, Inc.  All Rights Reserved.
  
 This is part of the Gaussian(R) 09 program.  It is based on
 the Gaussian(R) 03 system (copyright 2003, Gaussian, Inc.),
 the Gaussian(R) 98 system (copyright 1998, Gaussian, Inc.),
 the Gaussian(R) 94 system (copyright 1995, Gaussian, Inc.),
 the Gaussian 92(TM) system (copyright 1992, Gaussian, Inc.),
 the Gaussian 90(TM) system (copyright 1990, Gaussian, Inc.),
 the Gaussian 88(TM) system (copyright 1988, Gaussian, Inc.),
 the Gaussian 86(TM) system (copyright 1986, Carnegie Mellon
 University), and the Gaussian 82(TM) system (copyright 1983,
 Carnegie Mellon University). Gaussian is a federally registered
 trademark of Gaussian, Inc.
  
 This software contains proprietary and confidential information,
 including trade secrets, belonging to Gaussian, Inc.
  
 This software is provided under written license and may be
 used, copied, transmitted, or stored only in accord with that
 written license.
  
 The following legend is applicable only to US Government
 contracts under FAR:
  
                    RESTRICTED RIGHTS LEGEND
  
 Use, reproduction and disclosure by the US Government is
 subject to restrictions as set forth in subparagraphs (a)
 and (c) of the Commercial Computer Software - Restricted
 Rights clause in FAR 52.227-19.
  
 Gaussian, Inc.
 340 Quinnipiac St., Bldg. 40, Wallingford CT 06492
  
  
 ---------------------------------------------------------------
 Warning -- This program may not be used in any manner that
 competes with the business of Gaussian, Inc. or will provide
 assistance to any competitor of Gaussian, Inc.  The licensee
 of this program is prohibited from giving any competitor of
 Gaussian, Inc. access to this program.  By using this program,
 the user acknowledges that Gaussian, Inc. is engaged in the
 business of creating and licensing software in the field of
 computational chemistry and represents and warrants to the
 licensee that it is not a competitor of Gaussian, Inc. and that
 it will not use this program in any manner prohibited above.
 ---------------------------------------------------------------
  

 Cite this work as:
 Gaussian 09, Revision D.01,
 M. J. Frisch, G. W. Trucks, H. B. Schlegel, G. E. Scuseria, 
 M. A. Robb, J. R. Cheeseman, G. Scalmani, V. Barone, B. Mennucci, 
 G. A. Petersson, H. Nakatsuji, M. Caricato, X. Li, H. P. Hratchian, 
 A. F. Izmaylov, J. Bloino, G. Zheng, J. L. Sonnenberg, M. Hada, 
 M. Ehara, K. Toyota, R. Fukuda, J. Hasegawa, M. Ishida, T. Nakajima, 
 Y. Honda, O. Kitao, H. Nakai, T. Vreven, J. A. Montgomery, Jr., 
 J. E. Peralta, F. Ogliaro, M. Bearpark, J. J. Heyd, E. Brothers, 
 K. N. Kudin, V. N. Staroverov, T. Keith, R. Kobayashi, J. Normand, 
 K. Raghavachari, A. Rendell, J. C. Burant, S. S. Iyengar, J. Tomasi, 
 M. Cossi, N. Rega, J. M. Millam, M. Klene, J. E. Knox, J. B. Cross, 
 V. Bakken, C. Adamo, J. Jaramillo, R. Gomperts, R. E. Stratmann, 
 O. Yazyev, A. J. Austin, R. Cammi, C. Pomelli, J. W. Ochterski, 
 R. L. Martin, K. Morokuma, V. G. Zakrzewski, G. A. Voth, 
 P. Salvador, J. J. Dannenberg, S. Dapprich, A. D. Daniels, 
 O. Farkas, J. B. Foresman, J. V. Ortiz, J. Cioslowski, 
 and D. J. Fox, Gaussian, Inc., Wallingford CT, 2013.
 
 ******************************************
 Gaussian 09:  ES64L-G09RevD.01 24-Apr-2013
                13-Apr-2016 
 ******************************************
 %chk=Ala-S-opt-freq-tsa3-6-31g.chk
 ------------------------------------------------
 #p opt=(calcfc,ts) freq rb3lyp/6-31g iop(1/11=1)
 ------------------------------------------------
 1/5=1,10=4,11=1,14=-1,18=20,26=3,38=1/1,3;
 2/9=110,12=2,17=6,18=5,40=1/2;
 3/5=1,6=6,11=2,16=1,25=1,30=1,71=2,74=-5,116=1,140=1/1,2,3;
 4//1;
 5/5=2,38=5/2;
 8/6=4,10=90,11=11/1;
 11/6=1,8=1,9=11,15=111,16=1/1,2,10;
 10/6=1,13=1/2;
 6/7=2,8=2,9=2,10=2,28=1/1;
 7/10=1,18=20,25=1/1,2,3,16;
 1/5=1,10=4,11=1,14=-1,18=20,26=3/3(2);
 2/9=110/2;
 99//99;
 2/9=110/2;
 3/5=1,6=6,11=2,16=1,25=1,30=1,71=1,74=-5,116=1/1,2,3;
 4/5=5,16=3,69=1/1;
 5/5=2,38=5/2;
 7//1,2,3,16;
 1/5=1,11=1,14=-1,18=20,26=3/3(-5);
 2/9=110/2;
 6/7=2,8=2,9=2,10=2,19=2,28=1/1;
 99/9=1/99;
 Leave Link    1 at Wed Apr 13 00:07:41 2016, MaxMem=           0 cpu:         0.0
 (Enter /usr/local/gau/g09/l101.exe)
 -------------------------
 Ala-S-opt-freq-tsa3-6-31g
 -------------------------
 Symbolic Z-matrix:
 Charge =  0 Multiplicity = 1
 N                     1.11947   1.28766   0.03526 
 H                     2.1167    1.36359  -0.04721 
 C                     0.50153   0.03924   0.01002 
 H                    -2.07177  -1.44287  -0.6956 
 C                     1.40955  -1.15884   0.00234 
 C                    -0.83951  -0.06726   0.00355 
 H                     2.05507  -1.16176   0.891 
 H                     0.82829  -2.08135  -0.00064 
 H                     2.06478  -1.15179  -0.88018 
 O                    -1.6488    1.08395  -0.08775 
 H                     0.55712   2.11544  -0.06146 
 O                    -1.52976  -1.28279   0.10765 
 H                    -0.09261   0.95889  -0.09606 
 
 NAtoms=     13 NQM=       13 NQMF=       0 NMMI=      0 NMMIF=      0
                NMic=       0 NMicF=      0.
                    Isotopes and Nuclear Properties:
 (Nuclear quadrupole moments (NQMom) in fm**2, nuclear magnetic moments (NMagM)
  in nuclear magnetons)

  Atom         1           2           3           4           5           6           7           8           9          10
 IAtWgt=          14           1          12           1          12          12           1           1           1          16
 AtmWgt=  14.0030740   1.0078250  12.0000000   1.0078250  12.0000000  12.0000000   1.0078250   1.0078250   1.0078250  15.9949146
 NucSpn=           2           1           0           1           0           0           1           1           1           0
 AtZEff=   0.0000000   0.0000000   0.0000000   0.0000000   0.0000000   0.0000000   0.0000000   0.0000000   0.0000000   0.0000000
 NQMom=    2.0440000   0.0000000   0.0000000   0.0000000   0.0000000   0.0000000   0.0000000   0.0000000   0.0000000   0.0000000
 NMagM=    0.4037610   2.7928460   0.0000000   2.7928460   0.0000000   0.0000000   2.7928460   2.7928460   2.7928460   0.0000000
 AtZNuc=   7.0000000   1.0000000   6.0000000   1.0000000   6.0000000   6.0000000   1.0000000   1.0000000   1.0000000   8.0000000

  Atom        11          12          13
 IAtWgt=           1          16           1
 AtmWgt=   1.0078250  15.9949146   1.0078250
 NucSpn=           1           0           1
 AtZEff=   0.0000000   0.0000000   0.0000000
 NQMom=    0.0000000   0.0000000   0.0000000
 NMagM=    2.7928460   0.0000000   2.7928460
 AtZNuc=   1.0000000   8.0000000   1.0000000
 Leave Link  101 at Wed Apr 13 00:07:41 2016, MaxMem=    33554432 cpu:         0.1
 (Enter /usr/local/gau/g09/l103.exe)

 GradGradGradGradGradGradGradGradGradGradGradGradGradGradGradGradGradGrad
 Berny optimization.
 Initialization pass.
                           ----------------------------
                           !    Initial Parameters    !
                           ! (Angstroms and Degrees)  !
 --------------------------                            --------------------------
 ! Name  Definition              Value          Derivative Info.                !
 --------------------------------------------------------------------------------
 ! R1    R(1,2)                  1.0035         calculate D2E/DX2 analytically  !
 ! R2    R(1,3)                  1.3932         calculate D2E/DX2 analytically  !
 ! R3    R(1,11)                 1.0054         calculate D2E/DX2 analytically  !
 ! R4    R(3,5)                  1.5033         calculate D2E/DX2 analytically  !
 ! R5    R(3,6)                  1.3453         calculate D2E/DX2 analytically  !
 ! R6    R(3,13)                 1.1            calculate D2E/DX2 analytically  !
 ! R7    R(4,12)                 0.9822         calculate D2E/DX2 analytically  !
 ! R8    R(5,7)                  1.0984         calculate D2E/DX2 analytically  !
 ! R9    R(5,8)                  1.0904         calculate D2E/DX2 analytically  !
 ! R10   R(5,9)                  1.0992         calculate D2E/DX2 analytically  !
 ! R11   R(6,10)                 1.4102         calculate D2E/DX2 analytically  !
 ! R12   R(6,12)                 1.4017         calculate D2E/DX2 analytically  !
 ! R13   R(6,13)                 1.2731         calculate D2E/DX2 analytically  !
 ! A1    A(2,1,3)              120.4689         calculate D2E/DX2 analytically  !
 ! A2    A(2,1,11)             119.0538         calculate D2E/DX2 analytically  !
 ! A3    A(3,1,11)             119.2059         calculate D2E/DX2 analytically  !
 ! A4    A(1,3,5)              116.508          calculate D2E/DX2 analytically  !
 ! A5    A(1,3,6)              120.8748         calculate D2E/DX2 analytically  !
 ! A6    A(1,3,13)              59.4796         calculate D2E/DX2 analytically  !
 ! A7    A(5,3,6)              122.6153         calculate D2E/DX2 analytically  !
 ! A8    A(3,5,7)              110.6686         calculate D2E/DX2 analytically  !
 ! A9    A(3,5,8)              110.6273         calculate D2E/DX2 analytically  !
 ! A10   A(3,5,9)              111.0413         calculate D2E/DX2 analytically  !
 ! A11   A(7,5,8)              108.2564         calculate D2E/DX2 analytically  !
 ! A12   A(7,5,9)              107.4144         calculate D2E/DX2 analytically  !
 ! A13   A(8,5,9)              108.7238         calculate D2E/DX2 analytically  !
 ! A14   A(3,6,10)             120.5154         calculate D2E/DX2 analytically  !
 ! A15   A(3,6,12)             123.9986         calculate D2E/DX2 analytically  !
 ! A16   A(10,6,12)            115.4764         calculate D2E/DX2 analytically  !
 ! A17   A(10,6,13)             70.9507         calculate D2E/DX2 analytically  !
 ! A18   A(4,12,6)             110.6311         calculate D2E/DX2 analytically  !
 ! A19   L(5,3,13,1,-1)        175.9876         calculate D2E/DX2 analytically  !
 ! A20   L(12,6,13,10,-1)      186.4271         calculate D2E/DX2 analytically  !
 ! A21   L(5,3,13,1,-2)        173.1453         calculate D2E/DX2 analytically  !
 ! A22   L(12,6,13,10,-2)      180.5175         calculate D2E/DX2 analytically  !
 ! D1    D(2,1,3,5)              6.2762         calculate D2E/DX2 analytically  !
 ! D2    D(2,1,3,6)           -174.2135         calculate D2E/DX2 analytically  !
 ! D3    D(2,1,3,13)          -166.8692         calculate D2E/DX2 analytically  !
 ! D4    D(11,1,3,5)           173.2777         calculate D2E/DX2 analytically  !
 ! D5    D(11,1,3,6)            -7.2119         calculate D2E/DX2 analytically  !
 ! D6    D(11,1,3,13)            0.1324         calculate D2E/DX2 analytically  !
 ! D7    D(1,3,5,7)             59.0596         calculate D2E/DX2 analytically  !
 ! D8    D(1,3,5,8)            179.0434         calculate D2E/DX2 analytically  !
 ! D9    D(1,3,5,9)            -60.1392         calculate D2E/DX2 analytically  !
 ! D10   D(6,3,5,7)           -120.4415         calculate D2E/DX2 analytically  !
 ! D11   D(6,3,5,8)             -0.4577         calculate D2E/DX2 analytically  !
 ! D12   D(6,3,5,9)            120.3597         calculate D2E/DX2 analytically  !
 ! D13   D(1,3,6,10)             5.1914         calculate D2E/DX2 analytically  !
 ! D14   D(1,3,6,12)          -173.6291         calculate D2E/DX2 analytically  !
 ! D15   D(5,3,6,10)          -175.3288         calculate D2E/DX2 analytically  !
 ! D16   D(5,3,6,12)             5.8507         calculate D2E/DX2 analytically  !
 ! D17   D(3,6,12,4)          -118.4765         calculate D2E/DX2 analytically  !
 ! D18   D(10,6,12,4)           62.649          calculate D2E/DX2 analytically  !
 --------------------------------------------------------------------------------
 Trust Radius=3.00D-01 FncErr=1.00D-07 GrdErr=1.00D-06
 Number of steps in this run=     63 maximum allowed number of steps=    100.
 Search for a saddle point of order  1.
 GradGradGradGradGradGradGradGradGradGradGradGradGradGradGradGradGradGrad

 Leave Link  103 at Wed Apr 13 00:07:41 2016, MaxMem=    33554432 cpu:         0.0
 (Enter /usr/local/gau/g09/l202.exe)
                          Input orientation:                          
 ---------------------------------------------------------------------
 Center     Atomic      Atomic             Coordinates (Angstroms)
 Number     Number       Type             X           Y           Z
 ---------------------------------------------------------------------
      1          7           0        1.119468    1.287659    0.035259
      2          1           0        2.116698    1.363585   -0.047205
      3          6           0        0.501527    0.039239    0.010025
      4          1           0       -2.071775   -1.442867   -0.695601
      5          6           0        1.409553   -1.158845    0.002345
      6          6           0       -0.839515   -0.067259    0.003548
      7          1           0        2.055070   -1.161757    0.891001
      8          1           0        0.828286   -2.081353   -0.000635
      9          1           0        2.064778   -1.151795   -0.880184
     10          8           0       -1.648796    1.083948   -0.087754
     11          1           0        0.557120    2.115443   -0.061463
     12          8           0       -1.529763   -1.282790    0.107654
     13          1           0       -0.092606    0.958887   -0.096063
 ---------------------------------------------------------------------
                    Distance matrix (angstroms):
                    1          2          3          4          5
     1  N    0.000000
     2  H    1.003510   0.000000
     3  C    1.393212   2.089484   0.000000
     4  H    4.263093   5.083296   3.052283   0.000000
     5  C    2.463862   2.620145   1.503321   3.561944   0.000000
     6  C    2.382105   3.284674   1.345280   1.974733   2.499974
     7  H    2.758131   2.694695   2.152210   4.430257   1.098367
     8  H    3.381762   3.678284   2.145646   3.049753   1.090367
     9  H    2.771747   2.650224   2.157496   4.150887   1.099194
    10  O    2.778474   3.776081   2.392669   2.633094   3.793644
    11  H    1.005394   1.731409   2.078178   4.469317   3.384032
    12  O    3.692001   4.508210   2.425579   0.982151   2.943812
    13  H    1.262720   2.246596   1.100000   3.169381   2.598259
                    6          7          8          9         10
     6  C    0.000000
     7  H    3.219335   0.000000
     8  H    2.614986   1.773604   0.000000
     9  H    3.223681   1.771240   1.779493   0.000000
    10  O    1.410159   4.440695   4.020281   4.406487   0.000000
    11  H    2.592104   3.727074   4.205987   3.690282   2.435311
    12  O    1.401712   3.671418   2.491952   3.730108   2.377772
    13  H    1.273094   3.175521   3.178082   3.118353   1.561229
                   11         12         13
    11  H    0.000000
    12  O    3.991449   0.000000
    13  H    1.327013   2.670587   0.000000
 Stoichiometry    C3H7NO2
 Framework group  C1[X(C3H7NO2)]
 Deg. of freedom    33
 Full point group                 C1      NOp   1
 Largest Abelian subgroup         C1      NOp   1
 Largest concise Abelian subgroup C1      NOp   1
                         Standard orientation:                         
 ---------------------------------------------------------------------
 Center     Atomic      Atomic             Coordinates (Angstroms)
 Number     Number       Type             X           Y           Z
 ---------------------------------------------------------------------
      1          7           0        1.356939   -1.187328   -0.042566
      2          1           0        2.355411   -1.170631    0.056466
      3          6           0        0.623692   -0.003184   -0.008036
      4          1           0       -2.089047    1.217557    0.675534
      5          6           0        1.414440    1.274629    0.035409
      6          6           0       -0.721344   -0.023365   -0.023803
      7          1           0        2.071174    1.354133   -0.841398
      8          1           0        0.748795    2.138203    0.043034
      9          1           0        2.052968    1.313400    0.929280
     10          8           0       -1.419832   -1.247006    0.034235
     11          1           0        0.873663   -2.065912    0.030577
     12          8           0       -1.521362    1.123560   -0.120404
     13          1           0        0.117287   -0.976366    0.072405
 ---------------------------------------------------------------------
 Rotational constants (GHZ):      4.9094566      3.3292124      2.0208637
 Leave Link  202 at Wed Apr 13 00:07:41 2016, MaxMem=    33554432 cpu:         0.0
 (Enter /usr/local/gau/g09/l301.exe)
 Standard basis: 6-31G (6D, 7F)
 Ernie: Thresh=  0.10000D-02 Tol=  0.10000D-05 Strict=F.
 There are    68 symmetry adapted cartesian basis functions of A   symmetry.
 There are    68 symmetry adapted basis functions of A   symmetry.
    68 basis functions,   160 primitive gaussians,    68 cartesian basis functions
    24 alpha electrons       24 beta electrons
       nuclear repulsion energy       249.1507095665 Hartrees.
 IExCor=  402 DFT=T Ex+Corr=B3LYP ExCW=0 ScaHFX=  0.200000
 ScaDFX=  0.800000  0.720000  1.000000  0.810000 ScalE2=  1.000000  1.000000
 IRadAn=      0 IRanWt=     -1 IRanGd=            0 ICorTp=0 IEmpDi=  4
 NAtoms=   13 NActive=   13 NUniq=   13 SFac= 1.00D+00 NAtFMM=   60 NAOKFM=F Big=F
 Integral buffers will be    131072 words long.
 Raffenetti 2 integral format.
 Two-electron integral symmetry is turned on.
 Leave Link  301 at Wed Apr 13 00:07:41 2016, MaxMem=    33554432 cpu:         0.1
 (Enter /usr/local/gau/g09/l302.exe)
 NPDir=0 NMtPBC=     1 NCelOv=     1 NCel=       1 NClECP=     1 NCelD=      1
         NCelK=      1 NCelE2=     1 NClLst=     1 CellRange=     0.0.
 One-electron integrals computed using PRISM.
 NBasis=    68 RedAO= T EigKep=  2.79D-03  NBF=    68
 NBsUse=    68 1.00D-06 EigRej= -1.00D+00 NBFU=    68
 Precomputing XC quadrature grid using
 IXCGrd= 4 IRadAn=           0 IRanWt=          -1 IRanGd=           0 AccXCQ= 0.00D+00.
 Generated NRdTot=       0 NPtTot=           0 NUsed=           0 NTot=          32
 NSgBfM=    68    68    68    68    68 MxSgAt=    13 MxSgA2=    13.
 Leave Link  302 at Wed Apr 13 00:07:41 2016, MaxMem=    33554432 cpu:         0.2
 (Enter /usr/local/gau/g09/l303.exe)
 DipDrv:  MaxL=1.
 Leave Link  303 at Wed Apr 13 00:07:41 2016, MaxMem=    33554432 cpu:         0.0
 (Enter /usr/local/gau/g09/l401.exe)
 ExpMin= 1.61D-01 ExpMax= 5.48D+03 ExpMxC= 8.25D+02 IAcc=1 IRadAn=         1 AccDes= 0.00D+00
 Harris functional with IExCor=  402 and IRadAn=       1 diagonalized for initial guess.
 HarFok:  IExCor=  402 AccDes= 0.00D+00 IRadAn=         1 IDoV= 1 UseB2=F ITyADJ=14
 ICtDFT=  3500011 ScaDFX=  1.000000  1.000000  1.000000  1.000000
 FoFCou: FMM=F IPFlag=           0 FMFlag=      100000 FMFlg1=           0
         NFxFlg=           0 DoJE=T BraDBF=F KetDBF=T FulRan=T
         wScrn=  0.000000 ICntrl=     500 IOpCl=  0 I1Cent=   200000004 NGrid=           0
         NMat0=    1 NMatS0=      1 NMatT0=    0 NMatD0=    1 NMtDS0=    0 NMtDT0=    0
 Petite list used in FoFCou.
 Harris En= -323.413373223703    
 JPrj=0 DoOrth=F DoCkMO=F.
 Leave Link  401 at Wed Apr 13 00:07:42 2016, MaxMem=    33554432 cpu:         0.5
 (Enter /usr/local/gau/g09/l502.exe)
 Closed shell SCF:
 Using DIIS extrapolation, IDIIS=  1040.
 Integral symmetry usage will be decided dynamically.
 Keep R1 ints in memory in canonical form, NReq=3676491.
 IVT=       33364 IEndB=       33364 NGot=    33554432 MDV=    30768038
 LenX=    30768038 LenY=    30762973
 Requested convergence on RMS density matrix=1.00D-08 within 128 cycles.
 Requested convergence on MAX density matrix=1.00D-06.
 Requested convergence on             energy=1.00D-06.
 No special actions if energy rises.
 FoFCou: FMM=F IPFlag=           0 FMFlag=           0 FMFlg1=           0
         NFxFlg=           0 DoJE=F BraDBF=F KetDBF=F FulRan=T
         wScrn=  0.000000 ICntrl=     600 IOpCl=  0 I1Cent=           0 NGrid=           0
         NMat0=    1 NMatS0=   2346 NMatT0=    0 NMatD0=    1 NMtDS0=    0 NMtDT0=    0
 Symmetry not used in FoFCou.
 Integral accuracy reduced to 1.0D-05 until final iterations.

 Cycle   1  Pass 0  IDiag  1:
 E= -323.148939293888    
 DIIS: error= 3.73D-02 at cycle   1 NSaved=   1.
 NSaved= 1 IEnMin= 1 EnMin= -323.148939293888     IErMin= 1 ErrMin= 3.73D-02
 ErrMax= 3.73D-02  0.00D+00 EMaxC= 1.00D-01 BMatC= 2.17D-01 BMatP= 2.17D-01
 IDIUse=3 WtCom= 6.27D-01 WtEn= 3.73D-01
 Coeff-Com:  0.100D+01
 Coeff-En:   0.100D+01
 Coeff:      0.100D+01
 Gap=     0.192 Goal=   None    Shift=    0.000
 GapD=    0.192 DampG=1.000 DampE=0.500 DampFc=0.5000 IDamp=-1.
 Damping current iteration by 5.00D-01
 RMSDP=3.05D-02 MaxDP=6.52D-01              OVMax= 3.62D-01

 Cycle   2  Pass 0  IDiag  1:
 E= -323.151870649054     Delta-E=       -0.002931355167 Rises=F Damp=T
 DIIS: error= 2.88D-02 at cycle   2 NSaved=   2.
 NSaved= 2 IEnMin= 2 EnMin= -323.151870649054     IErMin= 2 ErrMin= 2.88D-02
 ErrMax= 2.88D-02  0.00D+00 EMaxC= 1.00D-01 BMatC= 6.85D-02 BMatP= 2.17D-01
 IDIUse=3 WtCom= 7.12D-01 WtEn= 2.88D-01
 Coeff-Com:  0.322D+00 0.678D+00
 Coeff-En:   0.494D+00 0.506D+00
 Coeff:      0.371D+00 0.629D+00
 Gap=     0.197 Goal=   None    Shift=    0.000
 RMSDP=1.06D-02 MaxDP=1.92D-01 DE=-2.93D-03 OVMax= 2.61D-01

 Cycle   3  Pass 0  IDiag  1:
 E= -323.277093289092     Delta-E=       -0.125222640037 Rises=F Damp=F
 DIIS: error= 3.40D-02 at cycle   3 NSaved=   3.
 NSaved= 3 IEnMin= 3 EnMin= -323.277093289092     IErMin= 2 ErrMin= 2.88D-02
 ErrMax= 3.40D-02  0.00D+00 EMaxC= 1.00D-01 BMatC= 7.54D-02 BMatP= 6.85D-02
 IDIUse=2 WtCom= 0.00D+00 WtEn= 1.00D+00
 EnCoef did     2 forward-backward iterations
 Coeff-En:   0.588D-01 0.120D+00 0.821D+00
 Coeff:      0.588D-01 0.120D+00 0.821D+00
 Gap=     0.188 Goal=   None    Shift=    0.000
 RMSDP=1.69D-02 MaxDP=2.34D-01 DE=-1.25D-01 OVMax= 3.31D-01

 Cycle   4  Pass 0  IDiag  1:
 E= -323.002091064668     Delta-E=        0.275002224424 Rises=F Damp=F
 DIIS: error= 8.93D-02 at cycle   4 NSaved=   4.
 NSaved= 4 IEnMin= 3 EnMin= -323.277093289092     IErMin= 2 ErrMin= 2.88D-02
 ErrMax= 8.93D-02  0.00D+00 EMaxC= 1.00D-01 BMatC= 3.92D-01 BMatP= 6.85D-02
 IDIUse=2 WtCom= 0.00D+00 WtEn= 1.00D+00
 Coeff-En:   0.000D+00 0.000D+00 0.762D+00 0.238D+00
 Coeff:      0.000D+00 0.000D+00 0.762D+00 0.238D+00
 Gap=     0.186 Goal=   None    Shift=    0.000
 RMSDP=1.08D-02 MaxDP=1.80D-01 DE= 2.75D-01 OVMax= 1.89D-01

 Cycle   5  Pass 0  IDiag  1:
 E= -323.330064366588     Delta-E=       -0.327973301921 Rises=F Damp=F
 DIIS: error= 1.88D-02 at cycle   5 NSaved=   5.
 NSaved= 5 IEnMin= 5 EnMin= -323.330064366588     IErMin= 5 ErrMin= 1.88D-02
 ErrMax= 1.88D-02  0.00D+00 EMaxC= 1.00D-01 BMatC= 2.00D-02 BMatP= 6.85D-02
 IDIUse=3 WtCom= 8.12D-01 WtEn= 1.88D-01
 Coeff-Com: -0.383D-01 0.138D+00 0.268D+00-0.800D-01 0.712D+00
 Coeff-En:   0.000D+00 0.000D+00 0.254D+00 0.000D+00 0.746D+00
 Coeff:     -0.311D-01 0.112D+00 0.266D+00-0.650D-01 0.718D+00
 Gap=     0.187 Goal=   None    Shift=    0.000
 RMSDP=2.41D-03 MaxDP=3.43D-02 DE=-3.28D-01 OVMax= 6.04D-02

 Cycle   6  Pass 0  IDiag  1:
 E= -323.348235578632     Delta-E=       -0.018171212044 Rises=F Damp=F
 DIIS: error= 4.29D-03 at cycle   6 NSaved=   6.
 NSaved= 6 IEnMin= 6 EnMin= -323.348235578632     IErMin= 6 ErrMin= 4.29D-03
 ErrMax= 4.29D-03  0.00D+00 EMaxC= 1.00D-01 BMatC= 4.89D-04 BMatP= 2.00D-02
 IDIUse=3 WtCom= 9.57D-01 WtEn= 4.29D-02
 Coeff-Com: -0.308D-01 0.653D-01 0.144D+00-0.493D-01 0.470D+00 0.401D+00
 Coeff-En:   0.000D+00 0.000D+00 0.000D+00 0.000D+00 0.000D+00 0.100D+01
 Coeff:     -0.295D-01 0.625D-01 0.138D+00-0.472D-01 0.450D+00 0.426D+00
 Gap=     0.185 Goal=   None    Shift=    0.000
 RMSDP=4.39D-04 MaxDP=6.89D-03 DE=-1.82D-02 OVMax= 1.28D-02

 Cycle   7  Pass 0  IDiag  1:
 E= -323.348739084365     Delta-E=       -0.000503505732 Rises=F Damp=F
 DIIS: error= 6.15D-04 at cycle   7 NSaved=   7.
 NSaved= 7 IEnMin= 7 EnMin= -323.348739084365     IErMin= 7 ErrMin= 6.15D-04
 ErrMax= 6.15D-04  0.00D+00 EMaxC= 1.00D-01 BMatC= 1.37D-05 BMatP= 4.89D-04
 IDIUse=3 WtCom= 9.94D-01 WtEn= 6.15D-03
 Coeff-Com: -0.637D-02 0.940D-02 0.184D-01-0.827D-02 0.790D-01 0.202D+00
 Coeff-Com:  0.706D+00
 Coeff-En:   0.000D+00 0.000D+00 0.000D+00 0.000D+00 0.000D+00 0.000D+00
 Coeff-En:   0.100D+01
 Coeff:     -0.633D-02 0.934D-02 0.183D-01-0.822D-02 0.785D-01 0.201D+00
 Coeff:      0.708D+00
 Gap=     0.185 Goal=   None    Shift=    0.000
 RMSDP=5.93D-05 MaxDP=9.74D-04 DE=-5.04D-04 OVMax= 1.77D-03

 Cycle   8  Pass 0  IDiag  1:
 E= -323.348751674475     Delta-E=       -0.000012590110 Rises=F Damp=F
 DIIS: error= 1.10D-04 at cycle   8 NSaved=   8.
 NSaved= 8 IEnMin= 8 EnMin= -323.348751674475     IErMin= 8 ErrMin= 1.10D-04
 ErrMax= 1.10D-04  0.00D+00 EMaxC= 1.00D-01 BMatC= 1.05D-06 BMatP= 1.37D-05
 IDIUse=3 WtCom= 9.99D-01 WtEn= 1.10D-03
 Coeff-Com: -0.412D-03-0.169D-02-0.478D-02 0.848D-03-0.508D-02 0.715D-01
 Coeff-Com:  0.373D+00 0.567D+00
 Coeff-En:   0.000D+00 0.000D+00 0.000D+00 0.000D+00 0.000D+00 0.000D+00
 Coeff-En:   0.000D+00 0.100D+01
 Coeff:     -0.412D-03-0.169D-02-0.477D-02 0.847D-03-0.508D-02 0.714D-01
 Coeff:      0.372D+00 0.567D+00
 Gap=     0.185 Goal=   None    Shift=    0.000
 RMSDP=1.57D-05 MaxDP=2.08D-04 DE=-1.26D-05 OVMax= 2.06D-04

 Cycle   9  Pass 0  IDiag  1:
 E= -323.348752672140     Delta-E=       -0.000000997665 Rises=F Damp=F
 DIIS: error= 1.25D-05 at cycle   9 NSaved=   9.
 NSaved= 9 IEnMin= 9 EnMin= -323.348752672140     IErMin= 9 ErrMin= 1.25D-05
 ErrMax= 1.25D-05  0.00D+00 EMaxC= 1.00D-01 BMatC= 1.58D-08 BMatP= 1.05D-06
 IDIUse=1 WtCom= 1.00D+00 WtEn= 0.00D+00
 Coeff-Com:  0.620D-05-0.361D-03-0.163D-02 0.257D-03-0.272D-02 0.111D-01
 Coeff-Com:  0.651D-01 0.155D+00 0.773D+00
 Coeff:      0.620D-05-0.361D-03-0.163D-02 0.257D-03-0.272D-02 0.111D-01
 Coeff:      0.651D-01 0.155D+00 0.773D+00
 Gap=     0.185 Goal=   None    Shift=    0.000
 RMSDP=3.72D-06 MaxDP=6.73D-05 DE=-9.98D-07 OVMax= 3.44D-05

 Initial convergence to 1.0D-05 achieved.  Increase integral accuracy.
 Cycle  10  Pass 1  IDiag  1:
 E= -323.348799466841     Delta-E=       -0.000046794701 Rises=F Damp=F
 DIIS: error= 1.18D-05 at cycle   1 NSaved=   1.
 NSaved= 1 IEnMin= 1 EnMin= -323.348799466841     IErMin= 1 ErrMin= 1.18D-05
 ErrMax= 1.18D-05  0.00D+00 EMaxC= 1.00D-01 BMatC= 1.29D-08 BMatP= 1.29D-08
 IDIUse=1 WtCom= 1.00D+00 WtEn= 0.00D+00
 Coeff-Com:  0.100D+01
 Coeff:      0.100D+01
 Gap=     0.185 Goal=   None    Shift=    0.000
 RMSDP=3.72D-06 MaxDP=6.73D-05 DE=-4.68D-05 OVMax= 6.64D-05

 Cycle  11  Pass 1  IDiag  1:
 E= -323.348799477912     Delta-E=       -0.000000011071 Rises=F Damp=F
 DIIS: error= 1.01D-05 at cycle   2 NSaved=   2.
 NSaved= 2 IEnMin= 2 EnMin= -323.348799477912     IErMin= 2 ErrMin= 1.01D-05
 ErrMax= 1.01D-05  0.00D+00 EMaxC= 1.00D-01 BMatC= 1.15D-08 BMatP= 1.29D-08
 IDIUse=1 WtCom= 1.00D+00 WtEn= 0.00D+00
 Coeff-Com:  0.481D+00 0.519D+00
 Coeff:      0.481D+00 0.519D+00
 Gap=     0.186 Goal=   None    Shift=    0.000
 RMSDP=3.07D-06 MaxDP=5.54D-05 DE=-1.11D-08 OVMax= 4.29D-05

 Cycle  12  Pass 1  IDiag  1:
 E= -323.348799485038     Delta-E=       -0.000000007126 Rises=F Damp=F
 DIIS: error= 8.80D-06 at cycle   3 NSaved=   3.
 NSaved= 3 IEnMin= 3 EnMin= -323.348799485038     IErMin= 3 ErrMin= 8.80D-06
 ErrMax= 8.80D-06  0.00D+00 EMaxC= 1.00D-01 BMatC= 3.53D-09 BMatP= 1.15D-08
 IDIUse=1 WtCom= 1.00D+00 WtEn= 0.00D+00
 Coeff-Com:  0.129D+00 0.344D+00 0.527D+00
 Coeff:      0.129D+00 0.344D+00 0.527D+00
 Gap=     0.186 Goal=   None    Shift=    0.000
 RMSDP=1.77D-06 MaxDP=2.77D-05 DE=-7.13D-09 OVMax= 3.49D-05

 Cycle  13  Pass 1  IDiag  1:
 E= -323.348799486837     Delta-E=       -0.000000001799 Rises=F Damp=F
 DIIS: error= 4.80D-06 at cycle   4 NSaved=   4.
 NSaved= 4 IEnMin= 4 EnMin= -323.348799486837     IErMin= 4 ErrMin= 4.80D-06
 ErrMax= 4.80D-06  0.00D+00 EMaxC= 1.00D-01 BMatC= 1.38D-09 BMatP= 3.53D-09
 IDIUse=1 WtCom= 1.00D+00 WtEn= 0.00D+00
 Coeff-Com: -0.210D-01 0.136D+00 0.420D+00 0.465D+00
 Coeff:     -0.210D-01 0.136D+00 0.420D+00 0.465D+00
 Gap=     0.186 Goal=   None    Shift=    0.000
 RMSDP=7.66D-07 MaxDP=1.14D-05 DE=-1.80D-09 OVMax= 1.49D-05

 Cycle  14  Pass 1  IDiag  1:
 E= -323.348799488088     Delta-E=       -0.000000001251 Rises=F Damp=F
 DIIS: error= 4.83D-07 at cycle   5 NSaved=   5.
 NSaved= 5 IEnMin= 5 EnMin= -323.348799488088     IErMin= 5 ErrMin= 4.83D-07
 ErrMax= 4.83D-07  0.00D+00 EMaxC= 1.00D-01 BMatC= 2.10D-11 BMatP= 1.38D-09
 IDIUse=1 WtCom= 1.00D+00 WtEn= 0.00D+00
 Coeff-Com: -0.146D-01 0.651D-01 0.210D+00 0.259D+00 0.481D+00
 Coeff:     -0.146D-01 0.651D-01 0.210D+00 0.259D+00 0.481D+00
 Gap=     0.186 Goal=   None    Shift=    0.000
 RMSDP=8.28D-08 MaxDP=8.53D-07 DE=-1.25D-09 OVMax= 1.07D-06

 Cycle  15  Pass 1  IDiag  1:
 E= -323.348799488107     Delta-E=       -0.000000000019 Rises=F Damp=F
 DIIS: error= 2.17D-07 at cycle   6 NSaved=   6.
 NSaved= 6 IEnMin= 6 EnMin= -323.348799488107     IErMin= 6 ErrMin= 2.17D-07
 ErrMax= 2.17D-07  0.00D+00 EMaxC= 1.00D-01 BMatC= 1.60D-12 BMatP= 2.10D-11
 IDIUse=1 WtCom= 1.00D+00 WtEn= 0.00D+00
 Coeff-Com: -0.410D-02 0.140D-01 0.436D-01 0.709D-01 0.230D+00 0.646D+00
 Coeff:     -0.410D-02 0.140D-01 0.436D-01 0.709D-01 0.230D+00 0.646D+00
 Gap=     0.186 Goal=   None    Shift=    0.000
 RMSDP=2.93D-08 MaxDP=4.68D-07 DE=-1.88D-11 OVMax= 6.98D-07

 Cycle  16  Pass 1  IDiag  1:
 E= -323.348799488104     Delta-E=        0.000000000003 Rises=F Damp=F
 DIIS: error= 4.87D-08 at cycle   7 NSaved=   7.
 NSaved= 7 IEnMin= 6 EnMin= -323.348799488107     IErMin= 7 ErrMin= 4.87D-08
 ErrMax= 4.87D-08  0.00D+00 EMaxC= 1.00D-01 BMatC= 2.88D-13 BMatP= 1.60D-12
 IDIUse=1 WtCom= 1.00D+00 WtEn= 0.00D+00
 Coeff-Com: -0.629D-03 0.180D-03-0.520D-03 0.107D-01 0.754D-01 0.388D+00
 Coeff-Com:  0.527D+00
 Coeff:     -0.629D-03 0.180D-03-0.520D-03 0.107D-01 0.754D-01 0.388D+00
 Coeff:      0.527D+00
 Gap=     0.186 Goal=   None    Shift=    0.000
 RMSDP=9.79D-09 MaxDP=1.46D-07 DE= 3.18D-12 OVMax= 1.77D-07

 SCF Done:  E(RB3LYP) =  -323.348799488     A.U. after   16 cycles
            NFock= 16  Conv=0.98D-08     -V/T= 2.0038
 KE= 3.221161902534D+02 PE=-1.255513928398D+03 EE= 3.608982290902D+02
 Leave Link  502 at Wed Apr 13 00:08:03 2016, MaxMem=    33554432 cpu:        15.3
 (Enter /usr/local/gau/g09/l801.exe)
 DoSCS=F DFT=T ScalE2(SS,OS)=  1.000000  1.000000
 Range of M.O.s used for correlation:     1    68
 NBasis=    68 NAE=    24 NBE=    24 NFC=     0 NFV=     0
 NROrb=     68 NOA=    24 NOB=    24 NVA=    44 NVB=    44
 Leave Link  801 at Wed Apr 13 00:08:03 2016, MaxMem=    33554432 cpu:         0.0
 (Enter /usr/local/gau/g09/l1101.exe)
 Using compressed storage, NAtomX=    13.
 Will process     14 centers per pass.
 Leave Link 1101 at Wed Apr 13 00:08:03 2016, MaxMem=    33554432 cpu:         0.1
 (Enter /usr/local/gau/g09/l1102.exe)
 Symmetrizing basis deriv contribution to polar:
 IMax=3 JMax=2 DiffMx= 0.00D+00
 Leave Link 1102 at Wed Apr 13 00:08:03 2016, MaxMem=    33554432 cpu:         0.0
 (Enter /usr/local/gau/g09/l1110.exe)
 Forming Gx(P) for the SCF density, NAtomX=    13.
 Integral derivatives from FoFJK, PRISM(SPDF).
 Do as many integral derivatives as possible in FoFJK.
 G2DrvN: MDV=      33554224.
 G2DrvN: will do    14 centers at a time, making    1 passes.
 Calling FoFCou, ICntrl=  3107 FMM=F I1Cent=   0 AccDes= 0.00D+00.
 FoFJK:  IHMeth= 1 ICntrl=    3107 DoSepK=F KAlg= 0 I1Cent=   0 FoldK=F
 IRaf=         0 NMat=   1 IRICut=       1 DoRegI=T DoRafI=F ISym2E= 0.
 FoFCou: FMM=F IPFlag=           0 FMFlag=      100000 FMFlg1=           0
         NFxFlg=           0 DoJE=F BraDBF=F KetDBF=F FulRan=T
         wScrn=  0.000000 ICntrl=    3107 IOpCl=  0 I1Cent=           0 NGrid=           0
         NMat0=    1 NMatS0=      1 NMatT0=    0 NMatD0=    1 NMtDS0=    0 NMtDT0=    0
 Symmetry not used in FoFCou.
 End of G2Drv F.D. properties file   721 does not exist.
 End of G2Drv F.D. properties file   722 does not exist.
 End of G2Drv F.D. properties file   788 does not exist.
 Leave Link 1110 at Wed Apr 13 00:08:44 2016, MaxMem=    33554432 cpu:        27.8
 (Enter /usr/local/gau/g09/l1002.exe)
 Minotr:  Closed shell wavefunction.
          IDoAtm=1111111111111
          Direct CPHF calculation.
          Differentiating once with respect to nuclear coordinates.
          Requested convergence is 1.0D-08 RMS, and 1.0D-07 maximum.
          Secondary convergence is 1.0D-12 RMS, and 1.0D-12 maximum.
          NewPWx=T KeepS1=F KeepF1=F KeepIn=T MapXYZ=F SortEE=F KeepMc=T.
          MDV=      33554230 using IRadAn=       2.
 Generate precomputed XC quadrature information.
 Keep R1 ints in memory in canonical form, NReq=3645290.
 FoFCou: FMM=F IPFlag=           0 FMFlag=           0 FMFlg1=           0
         NFxFlg=           0 DoJE=F BraDBF=F KetDBF=F FulRan=T
         wScrn=  0.000000 ICntrl=     600 IOpCl=  0 I1Cent=           0 NGrid=           0
         NMat0=    1 NMatS0=   2346 NMatT0=    0 NMatD0=    1 NMtDS0=    0 NMtDT0=    0
 Symmetry not used in FoFCou.
          Solving linear equations simultaneously, MaxMat=       0.
          There are    42 degrees of freedom in the 1st order CPHF.  IDoFFX=6 NUNeed=     0.
     36 vectors produced by pass  0 Test12= 2.51D-15 2.38D-09 XBig12= 1.95D-01 1.38D-01.
 AX will form    36 AO Fock derivatives at one time.
     36 vectors produced by pass  1 Test12= 2.51D-15 2.38D-09 XBig12= 2.97D-02 4.48D-02.
     36 vectors produced by pass  2 Test12= 2.51D-15 2.38D-09 XBig12= 1.24D-04 1.50D-03.
     36 vectors produced by pass  3 Test12= 2.51D-15 2.38D-09 XBig12= 2.48D-07 7.03D-05.
     36 vectors produced by pass  4 Test12= 2.51D-15 2.38D-09 XBig12= 2.56D-10 2.13D-06.
     19 vectors produced by pass  5 Test12= 2.51D-15 2.38D-09 XBig12= 1.38D-13 4.71D-08.
 InvSVY:  IOpt=1 It=  1 EMax= 1.78D-15
 Solved reduced A of dimension   199 with    36 vectors.
 End of Minotr F.D. properties file   721 does not exist.
 End of Minotr F.D. properties file   722 does not exist.
 End of Minotr F.D. properties file   788 does not exist.
 Leave Link 1002 at Wed Apr 13 00:09:06 2016, MaxMem=    33554432 cpu:        21.0
 (Enter /usr/local/gau/g09/l601.exe)
 Copying SCF densities to generalized density rwf, IOpCl= 0 IROHF=0.

 **********************************************************************

            Population analysis using the SCF density.

 **********************************************************************

 Orbital symmetries:
       Occupied  (A) (A) (A) (A) (A) (A) (A) (A) (A) (A) (A) (A)
                 (A) (A) (A) (A) (A) (A) (A) (A) (A) (A) (A) (A)
       Virtual   (A) (A) (A) (A) (A) (A) (A) (A) (A) (A) (A) (A)
                 (A) (A) (A) (A) (A) (A) (A) (A) (A) (A) (A) (A)
                 (A) (A) (A) (A) (A) (A) (A) (A) (A) (A) (A) (A)
                 (A) (A) (A) (A) (A) (A) (A) (A)
 The electronic state is 1-A.
 Alpha  occ. eigenvalues --  -19.16447 -19.10219 -14.38131 -10.29469 -10.24619
 Alpha  occ. eigenvalues --  -10.20702  -1.08268  -1.03663  -0.93474  -0.79876
 Alpha  occ. eigenvalues --   -0.74456  -0.62101  -0.59910  -0.53460  -0.47109
 Alpha  occ. eigenvalues --   -0.45902  -0.42510  -0.40984  -0.38684  -0.36176
 Alpha  occ. eigenvalues --   -0.31549  -0.28107  -0.25649  -0.18197
 Alpha virt. eigenvalues --    0.00353   0.04612   0.06403   0.09476   0.10465
 Alpha virt. eigenvalues --    0.15277   0.16317   0.16620   0.20972   0.23256
 Alpha virt. eigenvalues --    0.27045   0.36669   0.44092   0.51152   0.52727
 Alpha virt. eigenvalues --    0.55532   0.61604   0.62042   0.65121   0.65934
 Alpha virt. eigenvalues --    0.72391   0.74585   0.75187   0.81924   0.82616
 Alpha virt. eigenvalues --    0.85286   0.87071   0.90507   0.91610   0.93565
 Alpha virt. eigenvalues --    0.96300   0.99575   1.00000   1.01912   1.08116
 Alpha virt. eigenvalues --    1.12260   1.16764   1.22911   1.28872   1.43045
 Alpha virt. eigenvalues --    1.45720   1.53931   1.87571   1.99674
          Condensed to atoms (all electrons):
               1          2          3          4          5          6
     1  N    7.398653   0.322000   0.154606   0.000070  -0.052357  -0.166171
     2  H    0.322000   0.339223  -0.019818   0.000002  -0.005086   0.006194
     3  C    0.154606  -0.019818   6.077264   0.002742   0.295013   0.228110
     4  H    0.000070   0.000002   0.002742   0.415041   0.000327  -0.033638
     5  C   -0.052357  -0.005086   0.295013   0.000327   5.059295   0.018877
     6  C   -0.166171   0.006194   0.228110  -0.033638   0.018877   5.049468
     7  H    0.000694   0.001189  -0.046861  -0.000077   0.372899  -0.002825
     8  H    0.003360   0.000017  -0.032279  -0.000466   0.374964  -0.002736
     9  H    0.003160   0.001909  -0.050073   0.000148   0.365733  -0.000006
    10  O   -0.023284   0.000336  -0.203186   0.003907   0.002558   0.308913
    11  H    0.302025  -0.012526  -0.049188   0.000006   0.003045  -0.001946
    12  O    0.001536   0.000018  -0.126302   0.237027  -0.009552   0.221201
    13  H   -0.099982   0.005263  -0.373460  -0.002889   0.001113   0.035671
               7          8          9         10         11         12
     1  N    0.000694   0.003360   0.003160  -0.023284   0.302025   0.001536
     2  H    0.001189   0.000017   0.001909   0.000336  -0.012526   0.000018
     3  C   -0.046861  -0.032279  -0.050073  -0.203186  -0.049188  -0.126302
     4  H   -0.000077  -0.000466   0.000148   0.003907   0.000006   0.237027
     5  C    0.372899   0.374964   0.365733   0.002558   0.003045  -0.009552
     6  C   -0.002825  -0.002736  -0.000006   0.308913  -0.001946   0.221201
     7  H    0.582944  -0.022181  -0.046213  -0.000039  -0.000093   0.000349
     8  H   -0.022181   0.498290  -0.023683   0.000184  -0.000180   0.011133
     9  H   -0.046213  -0.023683   0.605293   0.000008  -0.000010   0.000442
    10  O   -0.000039   0.000184   0.000008   8.359711   0.007484  -0.083524
    11  H   -0.000093  -0.000180  -0.000010   0.007484   0.336552   0.000135
    12  O    0.000349   0.011133   0.000442  -0.083524   0.000135   8.309122
    13  H    0.000127  -0.000371  -0.001888   0.184682   0.028108   0.028583
              13
     1  N   -0.099982
     2  H    0.005263
     3  C   -0.373460
     4  H   -0.002889
     5  C    0.001113
     6  C    0.035671
     7  H    0.000127
     8  H   -0.000371
     9  H   -0.001888
    10  O    0.184682
    11  H    0.028108
    12  O    0.028583
    13  H    0.883180
 Mulliken charges:
               1
     1  N   -0.844312
     2  H    0.361279
     3  C    0.143431
     4  H    0.377800
     5  C   -0.426829
     6  C    0.338889
     7  H    0.160085
     8  H    0.193947
     9  H    0.145178
    10  O   -0.557751
    11  H    0.386588
    12  O   -0.590168
    13  H    0.311862
 Sum of Mulliken charges =   0.00000
 Mulliken charges with hydrogens summed into heavy atoms:
               1
     1  N   -0.096444
     3  C    0.455293
     5  C    0.072382
     6  C    0.338889
    10  O   -0.557751
    12  O   -0.212368
 APT charges:
               1
     1  N   -1.352438
     2  H    0.782762
     3  C    0.297748
     4  H    0.660969
     5  C   -1.241671
     6  C   -0.052560
     7  H    0.450418
     8  H    0.386379
     9  H    0.430804
    10  O   -0.404939
    11  H    0.561608
    12  O   -0.713214
    13  H    0.194134
 Sum of APT charges =   0.00000
 APT charges with hydrogens summed into heavy atoms:
               1
     1  N   -0.008068
     3  C    0.491882
     5  C    0.025930
     6  C   -0.052560
    10  O   -0.404939
    12  O   -0.052245
 Electronic spatial extent (au):  <R**2>=            597.9515
 Charge=              0.0000 electrons
 Dipole moment (field-independent basis, Debye):
    X=              4.6763    Y=              0.7161    Z=              2.0420  Tot=              5.1527
 Quadrupole moment (field-independent basis, Debye-Ang):
   XX=            -33.2880   YY=            -35.3402   ZZ=            -37.7371
   XY=             -7.0240   XZ=             -2.8349   YZ=              1.6721
 Traceless Quadrupole moment (field-independent basis, Debye-Ang):
   XX=              2.1671   YY=              0.1149   ZZ=             -2.2820
   XY=             -7.0240   XZ=             -2.8349   YZ=              1.6721
 Octapole moment (field-independent basis, Debye-Ang**2):
  XXX=              8.8937  YYY=             -5.9237  ZZZ=              1.3022  XYY=             10.1106
  XXY=              5.3434  XXZ=              8.5063  XZZ=             -4.5532  YZZ=              2.1922
  YYZ=              3.7351  XYZ=             -5.9773
 Hexadecapole moment (field-independent basis, Debye-Ang**3):
 XXXX=           -344.4694 YYYY=           -262.5433 ZZZZ=            -43.0073 XXXY=            -45.7152
 XXXZ=            -13.9262 YYYX=            -26.7645 YYYZ=              2.3830 ZZZX=             -2.1548
 ZZZY=              0.7662 XXYY=           -109.5908 XXZZ=            -71.8228 YYZZ=            -56.4482
 XXYZ=              7.3443 YYXZ=             -4.5866 ZZXY=             -2.3715
 N-N= 2.491507095665D+02 E-N=-1.255513931725D+03  KE= 3.221161902534D+02
  Exact polarizability:   0.000   0.000   0.000   0.000   0.000   0.000
 Approx polarizability: 115.335   8.435  71.917  -1.776  -0.937  32.739
 No NMR shielding tensors so no spin-rotation constants.
 Leave Link  601 at Wed Apr 13 00:09:06 2016, MaxMem=    33554432 cpu:         0.1
 (Enter /usr/local/gau/g09/l701.exe)
 Compute integral second derivatives.
 ... and contract with generalized density number  0.
 Leave Link  701 at Wed Apr 13 00:09:06 2016, MaxMem=    33554432 cpu:         0.1
 (Enter /usr/local/gau/g09/l702.exe)
 L702 exits ... SP integral derivatives will be done elsewhere.
 Leave Link  702 at Wed Apr 13 00:09:06 2016, MaxMem=    33554432 cpu:         0.0
 (Enter /usr/local/gau/g09/l703.exe)
 Compute integral second derivatives, UseDBF=F ICtDFT=           0.
 Integral derivatives from FoFJK, PRISM(SPDF).
 Calling FoFJK, ICntrl=    100147 FMM=F ISym2X=0 I1Cent= 0 IOpClX= 0 NMat=1 NMatS=1 NMatT=0.
 FoFJK:  IHMeth= 1 ICntrl=  100147 DoSepK=F KAlg= 0 I1Cent=   0 FoldK=F
 IRaf=         0 NMat=   1 IRICut=       1 DoRegI=T DoRafI=F ISym2E= 0.
 FoFCou: FMM=F IPFlag=           0 FMFlag=      100000 FMFlg1=         800
         NFxFlg=           0 DoJE=F BraDBF=F KetDBF=F FulRan=T
         wScrn=  0.000000 ICntrl=  100147 IOpCl=  0 I1Cent=           0 NGrid=           0
         NMat0=    1 NMatS0=      1 NMatT0=    0 NMatD0=    1 NMtDS0=    0 NMtDT0=    0
 Symmetry not used in FoFCou.
 Leave Link  703 at Wed Apr 13 00:09:49 2016, MaxMem=    33554432 cpu:        28.6
 (Enter /usr/local/gau/g09/l716.exe)
 Dipole        = 1.83978841D+00 2.81747459D-01 8.03398069D-01
 Polarizability= 0.00000000D+00 0.00000000D+00 0.00000000D+00
                 0.00000000D+00 0.00000000D+00 0.00000000D+00
 ***** Axes restored to original set *****
 -------------------------------------------------------------------
 Center     Atomic                   Forces (Hartrees/Bohr)
 Number     Number              X              Y              Z
 -------------------------------------------------------------------
      1        7           0.055419567    0.061834590    0.009277909
      2        1           0.000146368   -0.003281454   -0.000798648
      3        6           0.059613007   -0.150500874    0.017657413
      4        1          -0.001997510    0.005068798    0.002502344
      5        6           0.006252743   -0.000174431   -0.002875191
      6        6          -0.098323881   -0.005700273    0.010109767
      7        1          -0.000679700    0.000698157    0.001066740
      8        1          -0.001807317    0.002360958    0.000051658
      9        1           0.000061094   -0.000369841   -0.000889142
     10        8           0.053923427   -0.024619534    0.001382156
     11        1           0.010307064    0.024280787    0.003602171
     12        8           0.018779603   -0.006994376   -0.003929706
     13        1          -0.101694464    0.097397495   -0.037157472
 -------------------------------------------------------------------
 Cartesian Forces:  Max     0.150500874 RMS     0.042140222
 Force constants in Cartesian coordinates: 
                1             2             3             4             5 
      1  0.925217D+00
      2  0.366979D-01  0.709667D+00
      3 -0.818039D-02 -0.345820D-01 -0.274060D-01
      4 -0.476476D+00 -0.250818D-01  0.341344D-01  0.486519D+00
      5 -0.213940D-01 -0.580702D-01  0.587108D-02  0.288228D-01  0.650479D-01
      6  0.416108D-01  0.772362D-02  0.540107D-02 -0.381958D-01 -0.550810D-02
      7 -0.169603D+00 -0.838787D-01  0.150292D-02 -0.491874D-02 -0.446329D-01
      8 -0.166077D+00 -0.293846D+00 -0.103528D-01 -0.306230D-02 -0.513110D-02
      9 -0.159155D-02 -0.709919D-02 -0.321478D-02  0.165866D-02  0.168263D-02
     10 -0.281415D-03  0.182559D-02  0.296230D-02 -0.173918D-03 -0.368306D-03
     11  0.809039D-03 -0.440212D-03  0.156298D-02  0.375402D-03 -0.847015D-04
     12  0.218417D-02 -0.194034D-02 -0.728218D-03  0.388225D-03  0.458493D-03
     13  0.985406D-02 -0.218395D-01 -0.658947D-04  0.226766D-02 -0.106266D-02
     14  0.255449D-01 -0.426619D-01  0.211014D-03  0.223302D-02  0.352792D-02
     15  0.452905D-02 -0.599361D-03  0.483024D-02  0.234039D-03  0.668496D-03
     16 -0.365820D-01  0.178553D-01  0.761676D-02 -0.193215D-02 -0.187947D-03
     17 -0.491237D-01 -0.200567D-01 -0.692126D-03  0.799512D-02 -0.822568D-02
     18 -0.839337D-02 -0.153640D-02 -0.123333D-01 -0.743103D-03 -0.821759D-03
     19  0.303163D-02 -0.107412D-02  0.221561D-02  0.267943D-03  0.387671D-03
     20 -0.201171D-02  0.407332D-02 -0.228798D-02 -0.722945D-03 -0.624303D-03
     21  0.112654D-02  0.962820D-03 -0.545616D-04 -0.512304D-03  0.936637D-03
     22 -0.336694D-02  0.409711D-02 -0.283361D-03 -0.491080D-03  0.298633D-03
     23  0.401221D-02 -0.362893D-02  0.305384D-03  0.644374D-03  0.352867D-03
     24  0.746130D-04 -0.145180D-03  0.128818D-02 -0.872322D-04 -0.243342D-04
     25  0.211281D-02 -0.111223D-02 -0.202797D-02  0.410274D-03  0.344707D-03
     26 -0.738856D-03  0.392207D-02  0.200026D-02 -0.776256D-03 -0.611583D-03
     27 -0.124771D-02 -0.803665D-03 -0.209563D-03  0.383965D-03 -0.106487D-02
     28  0.134821D-02 -0.306494D-02  0.712694D-03  0.817340D-03  0.232411D-02
     29 -0.108535D-01  0.229207D-01  0.384566D-02 -0.337336D-02  0.133406D-02
     30  0.492175D-03 -0.625944D-03 -0.111457D-02 -0.130698D-03  0.148491D-03
     31 -0.185660D+00  0.171731D+00 -0.169135D-01 -0.860772D-02  0.293359D-01
     32  0.176209D+00 -0.339229D+00  0.326023D-01 -0.620614D-02  0.943006D-02
     33 -0.214304D-01  0.399916D-01 -0.114912D-01  0.314134D-02 -0.323380D-02
     34 -0.232097D-02 -0.424791D-02 -0.279566D-02  0.174298D-02 -0.108950D-02
     35 -0.418131D-02 -0.425351D-02 -0.324868D-02 -0.197207D-03  0.179388D-03
     36 -0.122425D-02  0.254006D-02  0.115554D-01 -0.238301D-03 -0.601581D-03
     37 -0.672741D-01 -0.919073D-01 -0.188780D-01  0.574572D-03  0.722142D-02
     38  0.111072D-01  0.216034D-01  0.476492D-02 -0.650740D-03 -0.712462D-02
     39 -0.794967D-02 -0.388606D-02  0.334774D-01 -0.332850D-04  0.148861D-02
                6             7             8             9            10 
      6 -0.760119D-02
      7 -0.266182D-02  0.853562D+00
      8 -0.775684D-02 -0.111017D+00  0.738287D+00
      9 -0.416120D-03  0.271895D-01 -0.272491D-01  0.140628D-02
     10  0.896089D-03 -0.639836D-03 -0.296131D-02 -0.103800D-02  0.156837D+00
     11  0.784199D-03  0.242829D-02 -0.197343D-02 -0.695679D-03  0.632431D-01
     12  0.942419D-04  0.396516D-02  0.389872D-02 -0.437289D-04  0.201799D+00
     13 -0.434038D-03 -0.119948D+00  0.681735D-01  0.355079D-02 -0.488891D-03
     14  0.423434D-03  0.530901D-01 -0.145473D+00 -0.349066D-02 -0.372068D-03
     15  0.732593D-02 -0.122715D-02  0.798788D-02 -0.525981D-01 -0.218639D-02
     16  0.138694D-02 -0.482145D+00 -0.434062D-01 -0.916031D-02 -0.193155D-01
     17 -0.758051D-04 -0.406938D-01 -0.103821D+00 -0.225654D-02 -0.919556D-02
     18 -0.103332D-01 -0.563338D-02 -0.146571D-01 -0.437425D-01 -0.140003D-01
     19  0.184725D-04 -0.194105D-01  0.709359D-02 -0.146708D-01 -0.149315D-03
     20  0.743861D-04  0.232684D-01 -0.946231D-02  0.211532D-01  0.232444D-03
     21 -0.796505D-03 -0.549249D-03 -0.564985D-03  0.631392D-02  0.216495D-03
     22 -0.219553D-04  0.822969D-02  0.201098D-01 -0.232528D-03 -0.203890D-03
     23  0.785113D-05 -0.116229D-01 -0.220126D-01  0.177613D-03  0.613855D-04
     24 -0.834553D-03 -0.186460D-03 -0.341834D-04 -0.207569D-02 -0.535346D-03
     25  0.209550D-03 -0.196121D-01  0.506158D-02  0.138699D-01  0.194198D-03
     26  0.779015D-04  0.226803D-01 -0.617781D-02 -0.206610D-01 -0.109005D-03
     27 -0.863956D-03  0.644363D-03 -0.508893D-04  0.614992D-02 -0.180126D-05
     28 -0.137644D-03 -0.354625D-01  0.554542D-01 -0.128435D-02 -0.241109D-03
     29  0.396643D-03  0.588235D-02 -0.181630D-01 -0.213199D-02  0.225003D-02
     30  0.778351D-03 -0.132811D-02  0.308191D-02  0.984204D-02  0.381230D-03
     31 -0.516350D-02  0.135876D-01 -0.141173D-01  0.221225D-02  0.124822D-03
     32  0.576065D-03  0.151998D-01 -0.163888D-01  0.177074D-02 -0.806876D-04
     33  0.882205D-02  0.224447D-02  0.295194D-02 -0.874458D-02 -0.769118D-03
     34 -0.601379D-03 -0.210023D-01 -0.329962D-01  0.258240D-02 -0.137110D+00
     35 -0.802465D-03 -0.106686D-01 -0.178630D-02  0.252544D-02 -0.540022D-01
     36  0.407529D-02 -0.505648D-03 -0.236348D-02  0.507674D-02 -0.184470D+00
     37  0.309422D-02 -0.263682D-02  0.217744D+00 -0.230859D-01  0.144773D-02
     38  0.407911D-02  0.179964D+00 -0.114052D+00  0.362745D-01 -0.523444D-03
     39 -0.565140D-02 -0.234546D-01  0.451089D-01  0.820466D-01 -0.325399D-02
               11            12            13            14            15 
     11  0.493195D-01
     12  0.504611D-01  0.305760D+00
     13  0.573509D-03  0.262618D-03  0.540669D+00
     14  0.204015D-03  0.247757D-03  0.661552D-01  0.533770D+00
     15 -0.143117D-02  0.111889D-03  0.297256D-03  0.142674D-02  0.527113D+00
     16 -0.344522D-01  0.703190D-02 -0.316808D-01  0.180013D-01 -0.376093D-02
     17 -0.153023D-01  0.122809D-01  0.308106D-01  0.730710D-02  0.182979D-02
     18 -0.286009D-01  0.302645D-02 -0.556747D-03  0.948349D-03  0.201493D-01
     19  0.129274D-04  0.323882D-04 -0.130462D+00 -0.498358D-02 -0.119778D+00
     20  0.125602D-03 -0.219056D-03 -0.474144D-02 -0.482170D-01 -0.129156D-02
     21  0.855799D-04 -0.101960D-03 -0.119064D+00 -0.379541D-02 -0.218961D+00
     22 -0.198948D-03 -0.568291D-04 -0.130281D+00 -0.132462D+00 -0.688701D-03
     23  0.353557D-03 -0.610333D-04 -0.124393D+00 -0.246266D+00 -0.113467D-02
     24  0.361190D-03  0.774602D-04 -0.426479D-03 -0.629752D-03 -0.491691D-01
     25  0.235244D-03  0.134708D-03 -0.132041D+00 -0.632079D-02  0.118737D+00
     26 -0.240030D-03  0.110367D-03 -0.570477D-02 -0.493914D-01  0.267927D-02
     27  0.671650D-05  0.289283D-04  0.117783D+00  0.562430D-02 -0.214120D+00
     28  0.511328D-02  0.138792D-02  0.756940D-03 -0.780358D-02 -0.249373D-02
     29  0.955171D-03 -0.562104D-04 -0.306483D-02  0.439258D-02 -0.206890D-02
     30  0.278319D-02 -0.981655D-03 -0.262862D-04 -0.528676D-03  0.854521D-02
     31 -0.291139D-03 -0.462043D-03 -0.296253D-02 -0.180175D-02  0.319360D-03
     32 -0.373774D-03 -0.165273D-03 -0.412417D-02 -0.235087D-02 -0.270287D-03
     33 -0.399853D-03  0.184630D-03  0.159514D-03 -0.867272D-03 -0.228844D-02
     34 -0.352037D-01 -0.213578D+00  0.162521D-02 -0.184290D-02  0.187762D-02
     35 -0.349446D-01 -0.633393D-01  0.303119D-02 -0.497868D-02  0.107593D-02
     36 -0.231800D-01 -0.309218D+00 -0.341933D-03 -0.606755D-03 -0.843326D-02
     37 -0.264473D-02 -0.308889D-02 -0.730940D-02 -0.943753D-02  0.414094D-02
     38  0.240114D-02 -0.167621D-02 -0.381316D-02 -0.986329D-02 -0.887218D-02
     39 -0.173735D-02  0.179043D-02 -0.113759D-02  0.103693D-02 -0.225052D-01
               16            17            18            19            20 
     16  0.769721D+00
     17  0.169938D+00  0.498267D+00
     18  0.318830D-01 -0.159590D-01  0.695905D-01
     19  0.266684D-02  0.287395D-02  0.209537D-03  0.146005D+00
     20 -0.157685D-02 -0.409256D-02 -0.208420D-02 -0.179311D-02  0.518081D-01
     21  0.217493D-02 -0.569614D-03 -0.940768D-03  0.132736D+00  0.300744D-02
     22  0.145036D-02  0.151076D-02  0.246011D-04 -0.958586D-02 -0.154826D-01
     23 -0.237110D-02 -0.199596D-02  0.396760D-03  0.582368D-03  0.877704D-03
     24  0.246062D-04  0.122866D-04  0.554807D-03 -0.157953D-01 -0.245024D-01
     25  0.343714D-02  0.204702D-02  0.198786D-03  0.112857D-01  0.348844D-05
     26 -0.276838D-02 -0.310241D-02  0.164808D-02 -0.681634D-04  0.725140D-03
     27 -0.195739D-02  0.499412D-03 -0.139916D-02  0.173651D-01  0.187723D-02
     28 -0.138654D+00  0.111035D+00 -0.625887D-02 -0.213901D-02  0.225769D-02
     29  0.434728D-01 -0.151403D+00  0.117720D-01  0.119054D-02 -0.300718D-03
     30 -0.640015D-02  0.255991D-02 -0.555628D-01  0.119622D-02 -0.151509D-02
     31  0.688241D-02 -0.279617D-02  0.374263D-03 -0.139200D-03  0.663158D-04
     32  0.550519D-02 -0.393551D-02  0.180422D-02 -0.118921D-03  0.180553D-03
     33 -0.254776D-02  0.516522D-03  0.623786D-02 -0.362674D-03  0.853789D-04
     34 -0.111587D+00 -0.858388D-01 -0.112641D-02 -0.524297D-03 -0.279945D-03
     35 -0.604522D-01 -0.185148D+00  0.239695D-01 -0.649977D-03  0.116955D-02
     36 -0.268627D-01 -0.107619D-01 -0.467115D-01 -0.640043D-03  0.154203D-02
     37  0.377390D-01 -0.138563D+00  0.402204D-02 -0.847033D-03  0.780305D-03
     38 -0.109558D+00 -0.849092D-02  0.231205D-01 -0.345317D-02  0.373692D-02
     39  0.571184D-03  0.126161D-01  0.714644D-01 -0.252642D-02  0.416057D-02
               21            22            23            24            25 
     21  0.238049D+00
     22  0.136223D-02  0.142128D+00
     23  0.826165D-03  0.136733D+00  0.269434D+00
     24  0.356494D-03  0.110130D-02  0.846033D-03  0.496947D-01
     25 -0.165420D-01 -0.959758D-02  0.877645D-03  0.155307D-01  0.148383D+00
     26 -0.164356D-02 -0.152894D-01  0.119004D-02  0.243502D-01 -0.702957D-03
     27 -0.243865D-01 -0.164507D-02 -0.696393D-03  0.539210D-03 -0.132401D+00
     28  0.606163D-04 -0.131004D-03  0.396026D-03  0.597562D-04 -0.149342D-02
     29  0.995319D-03 -0.448705D-03  0.372455D-03 -0.777493D-05  0.168941D-02
     30 -0.277963D-03  0.691929D-04 -0.424258D-04 -0.146844D-03 -0.147468D-02
     31  0.676808D-04  0.844746D-03 -0.744371D-03 -0.413447D-04 -0.187460D-03
     32  0.973106D-04  0.123975D-02 -0.671874D-03  0.232492D-04 -0.680704D-04
     33  0.120130D-04  0.857620D-04 -0.185600D-03  0.757956D-03  0.137681D-03
     34 -0.248233D-03 -0.158395D-02 -0.145985D-02  0.124937D-03 -0.112584D-02
     35 -0.259868D-03 -0.982950D-03  0.235556D-02 -0.331513D-03 -0.677249D-03
     36  0.339680D-03 -0.190418D-03  0.128893D-03 -0.771320D-03  0.736855D-03
     37 -0.828702D-03  0.258758D-02 -0.271522D-02  0.156203D-03 -0.176552D-02
     38 -0.778415D-04  0.875971D-03 -0.360863D-03  0.821783D-04 -0.137779D-02
     39  0.448237D-03  0.475776D-03 -0.568581D-03 -0.271261D-03  0.289080D-02
               26            27            28            29            30 
     26  0.521300D-01
     27 -0.481954D-02  0.233182D+00
     28  0.139006D-02  0.224689D-03  0.163564D+00
     29 -0.117737D-02 -0.934278D-03 -0.109744D+00  0.215700D+00
     30  0.171180D-02 -0.218145D-03  0.655112D-02 -0.133474D-01  0.447735D-01
     31  0.234025D-03 -0.816298D-04 -0.459263D-02  0.660800D-02  0.000000D+00
     32  0.154313D-03 -0.553387D-04  0.376148D-02  0.451918D-02 -0.287142D-04
     33 -0.103562D-03  0.114468D-03  0.274300D-03 -0.168590D-02 -0.367869D-02
     34 -0.462335D-03  0.105794D-03  0.207756D-01  0.134140D-01  0.729818D-03
     35  0.149688D-02  0.844668D-04 -0.190373D-01 -0.519448D-01  0.532618D-02
     36 -0.121818D-02  0.263715D-03  0.350554D-03  0.599883D-02  0.111877D-01
     37  0.231572D-02  0.827961D-03 -0.454797D-02  0.529772D-01 -0.597867D-04
     38  0.108210D-02  0.332846D-03 -0.420827D-01 -0.272053D-01  0.476756D-03
     39 -0.413199D-02  0.918743D-03  0.552934D-03 -0.277600D-02 -0.131462D-01
               31            32            33            34            35 
     31  0.180152D+00
     32 -0.169589D+00  0.385100D+00
     33  0.225044D-01 -0.345437D-01 -0.131812D-01
     34 -0.101314D-02 -0.295790D-03  0.695544D-03  0.262816D+00
     35  0.762934D-03  0.172220D-02  0.769440D-03  0.141393D+00  0.287450D+00
     36  0.908384D-04 -0.466942D-03 -0.192891D-02  0.209820D+00  0.298619D-01
     37  0.157044D-02 -0.214323D-01 -0.413308D-02 -0.106931D-01  0.566164D-02
     38 -0.193982D-01 -0.381566D-01 -0.329523D-02  0.890978D-02 -0.113178D-01
     39 -0.290678D-02 -0.134365D-02  0.251841D-01  0.241368D-02  0.436893D-02
               36            37            38            39 
     36  0.349973D+00
     37  0.347503D-02  0.511546D-01
     38 -0.872935D-03 -0.200006D-01  0.187748D+00
     39 -0.154090D-01  0.343580D-01 -0.543364D-01 -0.158347D+00
 FormGI is forming the generalized inverse of G from B-inverse, IUseBI=4.
 Leave Link  716 at Wed Apr 13 00:09:49 2016, MaxMem=    33554432 cpu:         0.0
 (Enter /usr/local/gau/g09/l103.exe)

 GradGradGradGradGradGradGradGradGradGradGradGradGradGradGradGradGradGrad
 Berny optimization.
 Red2BG is reusing G-inverse.
 Internal  Forces:  Max     0.111057274 RMS     0.026965638
 Search for a saddle point.
 Step number   1 out of a maximum of   63
 All quantities printed in internal units (Hartrees-Bohrs-Radians)
 Swapping is turned off.
 Second derivative matrix not updated -- analytic derivatives used.
 ITU=  0
     Eigenvalues ---   -0.10910  -0.02442  -0.01975   0.00056   0.00244
     Eigenvalues ---    0.00417   0.00855   0.02364   0.04628   0.05222
     Eigenvalues ---    0.06396   0.06486   0.10841   0.12589   0.13566
     Eigenvalues ---    0.13886   0.16078   0.17015   0.18131   0.18472
     Eigenvalues ---    0.21509   0.25940   0.31876   0.32571   0.32925
     Eigenvalues ---    0.34416   0.35778   0.36805   0.46352   0.47486
     Eigenvalues ---    0.49222   0.53042   0.64022
 Eigenvectors required to have negative eigenvalues:
                          A21       D6        A22       D3        D2
   1                   -0.51814   0.47849   0.41642   0.39240  -0.22830
                          D5        A17       D1        R6        A20
   1                   -0.14220   0.12589  -0.12574  -0.10731   0.09793
 Eigenvalue     2 is  -2.44D-02 should be greater than     0.000000 Eigenvector:
                          A17       A20       R6        A14       D6
   1                    0.48326   0.41067  -0.37363   0.29148  -0.25091
                          A15       D4        D5        R11       A6
   1                   -0.21851  -0.19520  -0.17721  -0.17127  -0.16988
 Eigenvalue     3 is  -1.97D-02 should be greater than     0.000000 Eigenvector:
                          D5        D2        D4        D1        D6
   1                   -0.41115  -0.40724  -0.38982  -0.38592  -0.30742
                          D3        A17       A20       A22       A6
   1                   -0.30352  -0.16972  -0.14995   0.14598   0.11993
 RFO step:  Lambda0=5.164127814D-04 Lambda=-1.16011549D-01.
 Linear search not attempted -- option 19 set.
 Maximum step size (   0.300) exceeded in Quadratic search.
    -- Step size scaled by   0.251
 Iteration  1 RMS(Cart)=  0.04057218 RMS(Int)=  0.00220596
 Iteration  2 RMS(Cart)=  0.00180065 RMS(Int)=  0.00056590
 Iteration  3 RMS(Cart)=  0.00000426 RMS(Int)=  0.00056588
 Iteration  4 RMS(Cart)=  0.00000001 RMS(Int)=  0.00056588
 ITry= 1 IFail=0 DXMaxC= 2.06D-01 DCOld= 1.00D+10 DXMaxT= 3.00D-01 DXLimC= 3.00D+00 Rises=F
 Variable       Old X    -DE/DX   Delta X   Delta X   Delta X     New X
                                 (Linear)    (Quad)   (Total)
    R1        1.89636  -0.00004   0.00000   0.00175   0.00175   1.89811
    R2        2.63279   0.10366   0.00000  -0.00682  -0.00682   2.62597
    R3        1.89992   0.01388   0.00000  -0.00131  -0.00131   1.89861
    R4        2.84087   0.00032   0.00000   0.00722   0.00722   2.84809
    R5        2.54221   0.03975   0.00000  -0.00950  -0.00982   2.53239
    R6        2.07870   0.11106   0.00000   0.17143   0.17105   2.24975
    R7        1.85600  -0.00177   0.00000  -0.00013  -0.00013   1.85587
    R8        2.07561   0.00046   0.00000   0.00013   0.00013   2.07574
    R9        2.06050  -0.00103   0.00000   0.00034   0.00034   2.06084
   R10        2.07718   0.00075   0.00000  -0.00022  -0.00022   2.07695
   R11        2.66481  -0.05113   0.00000   0.00983   0.00983   2.67465
   R12        2.64885  -0.00670   0.00000  -0.01899  -0.01899   2.62986
   R13        2.40580   0.01469   0.00000   0.00174   0.00243   2.40823
    A1        2.10258  -0.01804   0.00000  -0.00703  -0.00708   2.09550
    A2        2.07788  -0.01203   0.00000  -0.01481  -0.01485   2.06303
    A3        2.08053   0.03097   0.00000   0.02505   0.02500   2.10554
    A4        2.03345  -0.02926   0.00000  -0.02300  -0.02296   2.01049
    A5        2.10966   0.02598   0.00000   0.03427   0.03370   2.14336
    A6        1.03811   0.05428   0.00000   0.06553   0.06594   1.10405
    A7        2.14004   0.00325   0.00000  -0.01132  -0.01081   2.12923
    A8        1.93153  -0.00103   0.00000  -0.00152  -0.00152   1.93002
    A9        1.93081  -0.00417   0.00000   0.00211   0.00211   1.93292
   A10        1.93804   0.00134   0.00000  -0.00008  -0.00008   1.93795
   A11        1.88943   0.00178   0.00000  -0.00044  -0.00044   1.88899
   A12        1.87473   0.00107   0.00000   0.00035   0.00035   1.87509
   A13        1.89759   0.00121   0.00000  -0.00048  -0.00048   1.89711
   A14        2.10339  -0.00636   0.00000  -0.08415  -0.08407   2.01932
   A15        2.16418  -0.02267   0.00000   0.03734   0.03725   2.20143
   A16        2.01544   0.02898   0.00000   0.04679   0.04679   2.06223
   A17        1.23832  -0.04468   0.00000  -0.16162  -0.16163   1.07669
   A18        1.93088  -0.00516   0.00000   0.00750   0.00750   1.93838
   A19        3.07156   0.02502   0.00000   0.04253   0.04298   3.11454
   A20        3.25377  -0.01570   0.00000  -0.11482  -0.11484   3.13893
   A21        3.02196  -0.01029   0.00000  -0.01904  -0.01783   3.00413
   A22        3.15062   0.01294   0.00000   0.02674   0.02966   3.18029
    D1        0.10954  -0.00288   0.00000  -0.02098  -0.02061   0.08893
    D2       -3.04060  -0.00593   0.00000  -0.02822  -0.02775  -3.06835
    D3       -2.91242   0.00742   0.00000  -0.00194  -0.00278  -2.91520
    D4        3.02427   0.00018   0.00000  -0.00670  -0.00632   3.01794
    D5       -0.12587  -0.00287   0.00000  -0.01394  -0.01347  -0.13934
    D6        0.00231   0.01047   0.00000   0.01235   0.01150   0.01382
    D7        1.03078  -0.00060   0.00000  -0.00372  -0.00357   1.02722
    D8        3.12490  -0.00176   0.00000  -0.00388  -0.00373   3.12117
    D9       -1.04963  -0.00214   0.00000  -0.00312  -0.00297  -1.05260
   D10       -2.10210   0.00239   0.00000   0.00342   0.00327  -2.09883
   D11       -0.00799   0.00123   0.00000   0.00326   0.00311  -0.00488
   D12        2.10067   0.00086   0.00000   0.00402   0.00387   2.10455
   D13        0.09061  -0.00001   0.00000   0.00326   0.00346   0.09406
   D14       -3.03040   0.00334   0.00000   0.00353   0.00461  -3.02579
   D15       -3.06006  -0.00340   0.00000  -0.00447  -0.00420  -3.06427
   D16        0.10211  -0.00005   0.00000  -0.00420  -0.00305   0.09906
   D17       -2.06781  -0.00612   0.00000   0.00453   0.00408  -2.06372
   D18        1.09343  -0.00258   0.00000   0.00620   0.00665   1.10008
         Item               Value     Threshold  Converged?
 Maximum Force            0.111057     0.000450     NO 
 RMS     Force            0.026966     0.000300     NO 
 Maximum Displacement     0.206422     0.001800     NO 
 RMS     Displacement     0.041130     0.001200     NO 
 Predicted change in Energy=-3.513751D-02
 Lowest energy point so far.  Saving SCF results.
 GradGradGradGradGradGradGradGradGradGradGradGradGradGradGradGradGradGrad

 Leave Link  103 at Wed Apr 13 00:09:49 2016, MaxMem=    33554432 cpu:         0.0
 (Enter /usr/local/gau/g09/l202.exe)
                          Input orientation:                          
 ---------------------------------------------------------------------
 Center     Atomic      Atomic             Coordinates (Angstroms)
 Number     Number       Type             X           Y           Z
 ---------------------------------------------------------------------
      1          7           0        1.122106    1.276040    0.037638
      2          1           0        2.122899    1.332913   -0.026179
      3          6           0        0.491981    0.037848    0.009084
      4          1           0       -2.087950   -1.454952   -0.691439
      5          6           0        1.416471   -1.152416    0.000676
      6          6           0       -0.841146   -0.098509    0.007889
      7          1           0        2.062374   -1.145962    0.889116
      8          1           0        0.848037   -2.083100   -0.001133
      9          1           0        2.070802   -1.137516   -0.882272
     10          8           0       -1.581090    1.104667   -0.082102
     11          1           0        0.591103    2.123179   -0.061436
     12          8           0       -1.543701   -1.295443    0.110333
     13          1           0       -0.201840    0.995347   -0.129252
 ---------------------------------------------------------------------
                    Distance matrix (angstroms):
                    1          2          3          4          5
     1  N    0.000000
     2  H    1.004437   0.000000
     3  C    1.389601   2.082866   0.000000
     4  H    4.277187   5.093723   3.061900   0.000000
     5  C    2.446511   2.583915   1.507144   3.584902   0.000000
     6  C    2.396795   3.291761   1.340082   1.970665   2.491507
     7  H    2.734083   2.643151   2.154530   4.451833   1.098434
     8  H    3.370525   3.646237   2.150651   3.080765   1.090547
     9  H    2.751638   2.615077   2.160711   4.175213   1.099076
    10  O    2.711269   3.711437   2.333247   2.679524   3.753219
    11  H    1.004701   1.723996   2.088876   4.514117   3.378551
    12  O    3.704637   4.513407   2.435553   0.982084   2.965653
    13  H    1.363625   2.351379   1.190516   3.142838   2.692341
                    6          7          8          9         10
     6  C    0.000000
     7  H    3.210007   0.000000
     8  H    2.606150   1.773524   0.000000
     9  H    3.217353   1.771428   1.779239   0.000000
    10  O    1.415362   4.391290   4.008625   4.359355   0.000000
    11  H    2.644246   3.708836   4.214550   3.673610   2.399212
    12  O    1.391665   3.692238   2.520563   3.751645   2.408103
    13  H    1.274378   3.278558   3.255071   3.206407   1.384379
                   11         12         13
    11  H    0.000000
    12  O    4.034088   0.000000
    13  H    1.380348   2.665654   0.000000
 Stoichiometry    C3H7NO2
 Framework group  C1[X(C3H7NO2)]
 Deg. of freedom    33
 Full point group                 C1      NOp   1
 RotChk:  IX=0 Diff= 4.35D-02
 Largest Abelian subgroup         C1      NOp   1
 Largest concise Abelian subgroup C1      NOp   1
                         Standard orientation:                         
 ---------------------------------------------------------------------
 Center     Atomic      Atomic             Coordinates (Angstroms)
 Number     Number       Type             X           Y           Z
 ---------------------------------------------------------------------
      1          7           0        1.386609   -1.137189   -0.044049
      2          1           0        2.385631   -1.070099    0.035624
      3          6           0        0.606513    0.012169   -0.006386
      4          1           0       -2.149555    1.159258    0.674426
      5          6           0        1.374984    1.307970    0.036435
      6          6           0       -0.733081   -0.018623   -0.025373
      7          1           0        2.029588    1.397883   -0.841042
      8          1           0        0.694864    2.160425    0.043506
      9          1           0        2.013051    1.358916    0.929879
     10          8           0       -1.318300   -1.306005    0.033067
     11          1           0        0.964102   -2.045502    0.032633
     12          8           0       -1.577964    1.083124   -0.120543
     13          1           0        0.035679   -1.026608    0.105063
 ---------------------------------------------------------------------
 Rotational constants (GHZ):      4.8918087      3.3668935      2.0317270
 Leave Link  202 at Wed Apr 13 00:09:49 2016, MaxMem=    33554432 cpu:         0.0
 (Enter /usr/local/gau/g09/l301.exe)
 Standard basis: 6-31G (6D, 7F)
 Ernie: Thresh=  0.10000D-02 Tol=  0.10000D-05 Strict=F.
 There are    68 symmetry adapted cartesian basis functions of A   symmetry.
 There are    68 symmetry adapted basis functions of A   symmetry.
    68 basis functions,   160 primitive gaussians,    68 cartesian basis functions
    24 alpha electrons       24 beta electrons
       nuclear repulsion energy       249.4450823515 Hartrees.
 IExCor=  402 DFT=T Ex+Corr=B3LYP ExCW=0 ScaHFX=  0.200000
 ScaDFX=  0.800000  0.720000  1.000000  0.810000 ScalE2=  1.000000  1.000000
 IRadAn=      0 IRanWt=     -1 IRanGd=            0 ICorTp=0 IEmpDi=  4
 NAtoms=   13 NActive=   13 NUniq=   13 SFac= 1.00D+00 NAtFMM=   60 NAOKFM=F Big=F
 Integral buffers will be    131072 words long.
 Raffenetti 2 integral format.
 Two-electron integral symmetry is turned on.
 Leave Link  301 at Wed Apr 13 00:09:49 2016, MaxMem=    33554432 cpu:         0.0
 (Enter /usr/local/gau/g09/l302.exe)
 NPDir=0 NMtPBC=     1 NCelOv=     1 NCel=       1 NClECP=     1 NCelD=      1
         NCelK=      1 NCelE2=     1 NClLst=     1 CellRange=     0.0.
 One-electron integrals computed using PRISM.
 NBasis=    68 RedAO= T EigKep=  2.71D-03  NBF=    68
 NBsUse=    68 1.00D-06 EigRej= -1.00D+00 NBFU=    68
 Precomputing XC quadrature grid using
 IXCGrd= 4 IRadAn=           0 IRanWt=          -1 IRanGd=           0 AccXCQ= 0.00D+00.
 Generated NRdTot=       0 NPtTot=           0 NUsed=           0 NTot=          32
 NSgBfM=    68    68    68    68    68 MxSgAt=    13 MxSgA2=    13.
 Leave Link  302 at Wed Apr 13 00:09:49 2016, MaxMem=    33554432 cpu:         0.2
 (Enter /usr/local/gau/g09/l303.exe)
 DipDrv:  MaxL=1.
 Leave Link  303 at Wed Apr 13 00:09:50 2016, MaxMem=    33554432 cpu:         0.0
 (Enter /usr/local/gau/g09/l401.exe)
 Initial guess from the checkpoint file:  "Ala-S-opt-freq-tsa3-6-31g.chk"
 B after Tr=     0.000000    0.000000    0.000000
         Rot=    0.999844   -0.000303   -0.000215   -0.017646 Ang=  -2.02 deg.
 Guess basis will be translated and rotated to current coordinates.
 JPrj=2 DoOrth=T DoCkMO=T.
 Generating alternative initial guess.
 ExpMin= 1.61D-01 ExpMax= 5.48D+03 ExpMxC= 8.25D+02 IAcc=1 IRadAn=         1 AccDes= 0.00D+00
 Harris functional with IExCor=  402 and IRadAn=       1 diagonalized for initial guess.
 HarFok:  IExCor=  402 AccDes= 0.00D+00 IRadAn=         1 IDoV= 1 UseB2=F ITyADJ=14
 ICtDFT=  3500011 ScaDFX=  1.000000  1.000000  1.000000  1.000000
 FoFCou: FMM=F IPFlag=           0 FMFlag=      100000 FMFlg1=           0
         NFxFlg=           0 DoJE=T BraDBF=F KetDBF=T FulRan=T
         wScrn=  0.000000 ICntrl=     500 IOpCl=  0 I1Cent=   200000004 NGrid=           0
         NMat0=    1 NMatS0=      1 NMatT0=    0 NMatD0=    1 NMtDS0=    0 NMtDT0=    0
 Petite list used in FoFCou.
 Harris En= -323.442004543719    
 Leave Link  401 at Wed Apr 13 00:09:50 2016, MaxMem=    33554432 cpu:         0.6
 (Enter /usr/local/gau/g09/l502.exe)
 Closed shell SCF:
 Using DIIS extrapolation, IDIIS=  1040.
 Integral symmetry usage will be decided dynamically.
 Keep R1 ints in memory in canonical form, NReq=3676491.
 IVT=       33364 IEndB=       33364 NGot=    33554432 MDV=    30768038
 LenX=    30768038 LenY=    30762973
 Requested convergence on RMS density matrix=1.00D-08 within 128 cycles.
 Requested convergence on MAX density matrix=1.00D-06.
 Requested convergence on             energy=1.00D-06.
 No special actions if energy rises.
 FoFCou: FMM=F IPFlag=           0 FMFlag=           0 FMFlg1=           0
         NFxFlg=           0 DoJE=F BraDBF=F KetDBF=F FulRan=T
         wScrn=  0.000000 ICntrl=     600 IOpCl=  0 I1Cent=           0 NGrid=           0
         NMat0=    1 NMatS0=   2346 NMatT0=    0 NMatD0=    1 NMtDS0=    0 NMtDT0=    0
 Symmetry not used in FoFCou.
 Integral accuracy reduced to 1.0D-05 until final iterations.

 Cycle   1  Pass 0  IDiag  1:
 E= -323.371753502626    
 DIIS: error= 7.37D-03 at cycle   1 NSaved=   1.
 NSaved= 1 IEnMin= 1 EnMin= -323.371753502626     IErMin= 1 ErrMin= 7.37D-03
 ErrMax= 7.37D-03  0.00D+00 EMaxC= 1.00D-01 BMatC= 6.86D-03 BMatP= 6.86D-03
 IDIUse=3 WtCom= 9.26D-01 WtEn= 7.37D-02
 Coeff-Com:  0.100D+01
 Coeff-En:   0.100D+01
 Coeff:      0.100D+01
 Gap=     0.631 Goal=   None    Shift=    0.000
 GapD=    0.631 DampG=2.000 DampE=1.000 DampFc=2.0000 IDamp=-1.
 RMSDP=4.72D-03 MaxDP=8.14D-02              OVMax= 5.37D-02

 Cycle   2  Pass 0  IDiag  1:
 E= -323.380807354949     Delta-E=       -0.009053852323 Rises=F Damp=F
 DIIS: error= 1.09D-02 at cycle   2 NSaved=   2.
 NSaved= 2 IEnMin= 2 EnMin= -323.380807354949     IErMin= 1 ErrMin= 7.37D-03
 ErrMax= 1.09D-02  0.00D+00 EMaxC= 1.00D-01 BMatC= 4.41D-03 BMatP= 6.86D-03
 IDIUse=3 WtCom= 8.91D-01 WtEn= 1.09D-01
 Coeff-Com:  0.411D+00 0.589D+00
 Coeff-En:   0.000D+00 0.100D+01
 Coeff:      0.366D+00 0.634D+00
 Gap=     0.199 Goal=   None    Shift=    0.000
 RMSDP=2.57D-03 MaxDP=4.09D-02 DE=-9.05D-03 OVMax= 6.13D-02

 Cycle   3  Pass 0  IDiag  1:
 E= -323.378638060968     Delta-E=        0.002169293982 Rises=F Damp=F
 DIIS: error= 1.45D-02 at cycle   3 NSaved=   3.
 NSaved= 3 IEnMin= 2 EnMin= -323.380807354949     IErMin= 1 ErrMin= 7.37D-03
 ErrMax= 1.45D-02  0.00D+00 EMaxC= 1.00D-01 BMatC= 6.69D-03 BMatP= 4.41D-03
 IDIUse=2 WtCom= 0.00D+00 WtEn= 1.00D+00
 Coeff-En:   0.000D+00 0.577D+00 0.423D+00
 Coeff:      0.000D+00 0.577D+00 0.423D+00
 Gap=     0.202 Goal=   None    Shift=    0.000
 RMSDP=1.50D-03 MaxDP=2.27D-02 DE= 2.17D-03 OVMax= 3.47D-02

 Cycle   4  Pass 0  IDiag  1:
 E= -323.384703058922     Delta-E=       -0.006064997954 Rises=F Damp=F
 DIIS: error= 1.61D-03 at cycle   4 NSaved=   4.
 NSaved= 4 IEnMin= 4 EnMin= -323.384703058922     IErMin= 4 ErrMin= 1.61D-03
 ErrMax= 1.61D-03  0.00D+00 EMaxC= 1.00D-01 BMatC= 1.32D-04 BMatP= 4.41D-03
 IDIUse=3 WtCom= 9.84D-01 WtEn= 1.61D-02
 Coeff-Com: -0.293D-01 0.332D+00 0.253D+00 0.444D+00
 Coeff-En:   0.000D+00 0.000D+00 0.000D+00 0.100D+01
 Coeff:     -0.288D-01 0.327D+00 0.249D+00 0.453D+00
 Gap=     0.201 Goal=   None    Shift=    0.000
 RMSDP=2.25D-04 MaxDP=3.33D-03 DE=-6.06D-03 OVMax= 5.92D-03

 Cycle   5  Pass 0  IDiag  1:
 E= -323.384818139177     Delta-E=       -0.000115080255 Rises=F Damp=F
 DIIS: error= 5.12D-04 at cycle   5 NSaved=   5.
 NSaved= 5 IEnMin= 5 EnMin= -323.384818139177     IErMin= 5 ErrMin= 5.12D-04
 ErrMax= 5.12D-04  0.00D+00 EMaxC= 1.00D-01 BMatC= 9.88D-06 BMatP= 1.32D-04
 IDIUse=3 WtCom= 9.95D-01 WtEn= 5.12D-03
 Coeff-Com: -0.793D-02 0.581D-01 0.514D-01 0.221D+00 0.678D+00
 Coeff-En:   0.000D+00 0.000D+00 0.000D+00 0.383D-01 0.962D+00
 Coeff:     -0.789D-02 0.578D-01 0.511D-01 0.220D+00 0.679D+00
 Gap=     0.201 Goal=   None    Shift=    0.000
 RMSDP=7.24D-05 MaxDP=8.70D-04 DE=-1.15D-04 OVMax= 1.35D-03

 Cycle   6  Pass 0  IDiag  1:
 E= -323.384827505260     Delta-E=       -0.000009366082 Rises=F Damp=F
 DIIS: error= 1.01D-04 at cycle   6 NSaved=   6.
 NSaved= 6 IEnMin= 6 EnMin= -323.384827505260     IErMin= 6 ErrMin= 1.01D-04
 ErrMax= 1.01D-04  0.00D+00 EMaxC= 1.00D-01 BMatC= 7.03D-07 BMatP= 9.88D-06
 IDIUse=3 WtCom= 9.99D-01 WtEn= 1.01D-03
 Coeff-Com: -0.160D-02 0.172D-02 0.452D-02 0.842D-01 0.345D+00 0.566D+00
 Coeff-En:   0.000D+00 0.000D+00 0.000D+00 0.000D+00 0.000D+00 0.100D+01
 Coeff:     -0.160D-02 0.172D-02 0.451D-02 0.841D-01 0.344D+00 0.567D+00
 Gap=     0.201 Goal=   None    Shift=    0.000
 RMSDP=1.61D-05 MaxDP=1.84D-04 DE=-9.37D-06 OVMax= 2.52D-04

 Cycle   7  Pass 0  IDiag  1:
 E= -323.384828243683     Delta-E=       -0.000000738423 Rises=F Damp=F
 DIIS: error= 1.88D-05 at cycle   7 NSaved=   7.
 NSaved= 7 IEnMin= 7 EnMin= -323.384828243683     IErMin= 7 ErrMin= 1.88D-05
 ErrMax= 1.88D-05  0.00D+00 EMaxC= 1.00D-01 BMatC= 4.01D-08 BMatP= 7.03D-07
 IDIUse=1 WtCom= 1.00D+00 WtEn= 0.00D+00
 Coeff-Com:  0.855D-04-0.450D-02-0.389D-02 0.152D-01 0.571D-01 0.192D+00
 Coeff-Com:  0.744D+00
 Coeff:      0.855D-04-0.450D-02-0.389D-02 0.152D-01 0.571D-01 0.192D+00
 Coeff:      0.744D+00
 Gap=     0.201 Goal=   None    Shift=    0.000
 RMSDP=4.48D-06 MaxDP=4.83D-05 DE=-7.38D-07 OVMax= 6.22D-05

 Initial convergence to 1.0D-05 achieved.  Increase integral accuracy.
 Cycle   8  Pass 1  IDiag  1:
 E= -323.384865652478     Delta-E=       -0.000037408795 Rises=F Damp=F
 DIIS: error= 1.31D-05 at cycle   1 NSaved=   1.
 NSaved= 1 IEnMin= 1 EnMin= -323.384865652478     IErMin= 1 ErrMin= 1.31D-05
 ErrMax= 1.31D-05  0.00D+00 EMaxC= 1.00D-01 BMatC= 1.95D-08 BMatP= 1.95D-08
 IDIUse=1 WtCom= 1.00D+00 WtEn= 0.00D+00
 Coeff-Com:  0.100D+01
 Coeff:      0.100D+01
 Gap=     0.201 Goal=   None    Shift=    0.000
 RMSDP=4.48D-06 MaxDP=4.83D-05 DE=-3.74D-05 OVMax= 7.32D-05

 Cycle   9  Pass 1  IDiag  1:
 E= -323.384865655974     Delta-E=       -0.000000003496 Rises=F Damp=F
 DIIS: error= 2.02D-05 at cycle   2 NSaved=   2.
 NSaved= 2 IEnMin= 2 EnMin= -323.384865655974     IErMin= 1 ErrMin= 1.31D-05
 ErrMax= 2.02D-05  0.00D+00 EMaxC= 1.00D-01 BMatC= 2.84D-08 BMatP= 1.95D-08
 IDIUse=1 WtCom= 1.00D+00 WtEn= 0.00D+00
 Coeff-Com:  0.554D+00 0.446D+00
 Coeff:      0.554D+00 0.446D+00
 Gap=     0.201 Goal=   None    Shift=    0.000
 RMSDP=2.45D-06 MaxDP=3.56D-05 DE=-3.50D-09 OVMax= 4.20D-05

 Cycle  10  Pass 1  IDiag  1:
 E= -323.384865676945     Delta-E=       -0.000000020971 Rises=F Damp=F
 DIIS: error= 5.02D-06 at cycle   3 NSaved=   3.
 NSaved= 3 IEnMin= 3 EnMin= -323.384865676945     IErMin= 3 ErrMin= 5.02D-06
 ErrMax= 5.02D-06  0.00D+00 EMaxC= 1.00D-01 BMatC= 1.53D-09 BMatP= 1.95D-08
 IDIUse=1 WtCom= 1.00D+00 WtEn= 0.00D+00
 Coeff-Com:  0.102D+00 0.194D+00 0.704D+00
 Coeff:      0.102D+00 0.194D+00 0.704D+00
 Gap=     0.201 Goal=   None    Shift=    0.000
 RMSDP=1.32D-06 MaxDP=1.92D-05 DE=-2.10D-08 OVMax= 2.82D-05

 Cycle  11  Pass 1  IDiag  1:
 E= -323.384865677029     Delta-E=       -0.000000000084 Rises=F Damp=F
 DIIS: error= 5.21D-06 at cycle   4 NSaved=   4.
 NSaved= 4 IEnMin= 4 EnMin= -323.384865677029     IErMin= 3 ErrMin= 5.02D-06
 ErrMax= 5.21D-06  0.00D+00 EMaxC= 1.00D-01 BMatC= 1.48D-09 BMatP= 1.53D-09
 IDIUse=1 WtCom= 1.00D+00 WtEn= 0.00D+00
 Coeff-Com: -0.128D-01 0.756D-01 0.546D+00 0.391D+00
 Coeff:     -0.128D-01 0.756D-01 0.546D+00 0.391D+00
 Gap=     0.201 Goal=   None    Shift=    0.000
 RMSDP=7.78D-07 MaxDP=1.25D-05 DE=-8.42D-11 OVMax= 1.41D-05

 Cycle  12  Pass 1  IDiag  1:
 E= -323.384865678259     Delta-E=       -0.000000001230 Rises=F Damp=F
 DIIS: error= 5.46D-07 at cycle   5 NSaved=   5.
 NSaved= 5 IEnMin= 5 EnMin= -323.384865678259     IErMin= 5 ErrMin= 5.46D-07
[...]
    A9        1.95089   0.00001   0.00000   0.00001   0.00001   1.95090
   A10        1.92419   0.00000   0.00000  -0.00001  -0.00001   1.92418
   A11        1.90041   0.00000   0.00000   0.00002   0.00002   1.90044
   A12        1.88670   0.00000   0.00000  -0.00004  -0.00004   1.88665
   A13        1.87446   0.00000   0.00000  -0.00001  -0.00001   1.87445
   A14        2.08748   0.00000   0.00000  -0.00007  -0.00007   2.08741
   A15        2.05671   0.00000   0.00000   0.00008   0.00008   2.05679
   A16        2.04428   0.00000   0.00000   0.00010   0.00010   2.04439
   A17        1.02900   0.00002   0.00000  -0.00018  -0.00018   1.02881
   A18        1.87723  -0.00001   0.00000   0.00004   0.00004   1.87727
   A19        3.79259   0.00000   0.00000  -0.00008  -0.00008   3.79250
   A20        3.07328   0.00002   0.00000  -0.00008  -0.00008   3.07320
   A21        2.63094  -0.00001   0.00000  -0.00017  -0.00017   2.63078
   A22        4.37971   0.00000   0.00000  -0.00011  -0.00011   4.37960
    D1        0.16871   0.00000   0.00000   0.00015   0.00015   0.16886
    D2       -2.92980   0.00000   0.00000   0.00021   0.00021  -2.92959
    D3       -2.46223   0.00001   0.00000   0.00031   0.00031  -2.46192
    D4       -3.00387  -0.00001   0.00000  -0.00038  -0.00038  -3.00424
    D5        0.18081  -0.00001   0.00000  -0.00032  -0.00032   0.18049
    D6        0.64837   0.00000   0.00000  -0.00021  -0.00021   0.64817
    D7       -3.03852   0.00000   0.00000   0.00100   0.00100  -3.03752
    D8       -0.92138   0.00000   0.00000   0.00106   0.00106  -0.92032
    D9        1.16218   0.00000   0.00000   0.00105   0.00105   1.16323
   D10        0.05705   0.00000   0.00000   0.00094   0.00094   0.05799
   D11        2.17419   0.00000   0.00000   0.00100   0.00100   2.17519
   D12       -2.02544   0.00000   0.00000   0.00098   0.00098  -2.02445
   D13       -0.13326   0.00000   0.00000   0.00036   0.00036  -0.13290
   D14       -2.80843   0.00000   0.00000   0.00007   0.00007  -2.80836
   D15        3.05294   0.00000   0.00000   0.00042   0.00042   3.05336
   D16        0.37777   0.00000   0.00000   0.00013   0.00013   0.37790
   D17        3.03321   0.00000   0.00000   0.00095   0.00095   3.03416
   D18        0.34646   0.00000   0.00000   0.00072   0.00072   0.34718
         Item               Value     Threshold  Converged?
 Maximum Force            0.000056     0.000450     YES
 RMS     Force            0.000011     0.000300     YES
 Maximum Displacement     0.001676     0.001800     YES
 RMS     Displacement     0.000459     0.001200     YES
 Predicted change in Energy=-1.401344D-08
 Optimization completed.
    -- Stationary point found.
                           ----------------------------
                           !   Optimized Parameters   !
                           ! (Angstroms and Degrees)  !
 --------------------------                            --------------------------
 ! Name  Definition              Value          Derivative Info.                !
 --------------------------------------------------------------------------------
 ! R1    R(1,2)                  1.0057         -DE/DX =    0.0                 !
 ! R2    R(1,3)                  1.3599         -DE/DX =   -0.0001              !
 ! R3    R(1,11)                 1.0126         -DE/DX =    0.0                 !
 ! R4    R(3,5)                  1.4962         -DE/DX =    0.0                 !
 ! R5    R(3,6)                  1.397          -DE/DX =    0.0                 !
 ! R6    R(3,13)                 2.1529         -DE/DX =    0.0                 !
 ! R7    R(4,12)                 0.9772         -DE/DX =    0.0                 !
 ! R8    R(5,7)                  1.0901         -DE/DX =    0.0                 !
 ! R9    R(5,8)                  1.099          -DE/DX =    0.0                 !
 ! R10   R(5,9)                  1.0985         -DE/DX =    0.0                 !
 ! R11   R(6,10)                 1.4712         -DE/DX =    0.0                 !
 ! R12   R(6,12)                 1.4111         -DE/DX =    0.0                 !
 ! R13   R(6,13)                 1.2188         -DE/DX =    0.0                 !
 ! A1    A(2,1,3)              122.5172         -DE/DX =    0.0                 !
 ! A2    A(2,1,11)             120.5021         -DE/DX =    0.0                 !
 ! A3    A(3,1,11)             116.9567         -DE/DX =    0.0                 !
 ! A4    A(1,3,5)              120.0186         -DE/DX =    0.0                 !
 ! A5    A(1,3,6)              116.6951         -DE/DX =    0.0                 !
 ! A6    A(1,3,13)              97.2805         -DE/DX =    0.0                 !
 ! A7    A(5,3,6)              123.2371         -DE/DX =    0.0                 !
 ! A8    A(3,5,7)              110.3136         -DE/DX =    0.0                 !
 ! A9    A(3,5,8)              111.7779         -DE/DX =    0.0                 !
 ! A10   A(3,5,9)              110.248          -DE/DX =    0.0                 !
 ! A11   A(7,5,8)              108.8855         -DE/DX =    0.0                 !
 ! A12   A(7,5,9)              108.0999         -DE/DX =    0.0                 !
 ! A13   A(8,5,9)              107.3987         -DE/DX =    0.0                 !
 ! A14   A(3,6,10)             119.6039         -DE/DX =    0.0                 !
 ! A15   A(3,6,12)             117.8406         -DE/DX =    0.0                 !
 ! A16   A(10,6,12)            117.1288         -DE/DX =    0.0                 !
 ! A17   A(10,6,13)             58.9573         -DE/DX =    0.0                 !
 ! A18   A(4,12,6)             107.5573         -DE/DX =    0.0                 !
 ! A19   L(5,3,13,1,-1)        217.2991         -DE/DX =    0.0                 !
 ! A20   L(12,6,13,10,-1)      176.0862         -DE/DX =    0.0                 !
 ! A21   L(5,3,13,1,-2)        150.7419         -DE/DX =    0.0                 !
 ! A22   L(12,6,13,10,-2)      250.9391         -DE/DX =    0.0                 !
 ! D1    D(2,1,3,5)              9.6664         -DE/DX =    0.0                 !
 ! D2    D(2,1,3,6)           -167.865          -DE/DX =    0.0                 !
 ! D3    D(2,1,3,13)          -141.0755         -DE/DX =    0.0                 !
 ! D4    D(11,1,3,5)          -172.109          -DE/DX =    0.0                 !
 ! D5    D(11,1,3,6)            10.3596         -DE/DX =    0.0                 !
 ! D6    D(11,1,3,13)           37.1491         -DE/DX =    0.0                 !
 ! D7    D(1,3,5,7)           -174.0945         -DE/DX =    0.0                 !
 ! D8    D(1,3,5,8)            -52.7912         -DE/DX =    0.0                 !
 ! D9    D(1,3,5,9)             66.5879         -DE/DX =    0.0                 !
 ! D10   D(6,3,5,7)              3.2686         -DE/DX =    0.0                 !
 ! D11   D(6,3,5,8)            124.5718         -DE/DX =    0.0                 !
 ! D12   D(6,3,5,9)           -116.0491         -DE/DX =    0.0                 !
 ! D13   D(1,3,6,10)            -7.6352         -DE/DX =    0.0                 !
 ! D14   D(1,3,6,12)          -160.9111         -DE/DX =    0.0                 !
 ! D15   D(5,3,6,10)           174.9205         -DE/DX =    0.0                 !
 ! D16   D(5,3,6,12)            21.6445         -DE/DX =    0.0                 !
 ! D17   D(3,6,12,4)           173.79           -DE/DX =    0.0                 !
 ! D18   D(10,6,12,4)           19.8508         -DE/DX =    0.0                 !
 --------------------------------------------------------------------------------
 GradGradGradGradGradGradGradGradGradGradGradGradGradGradGradGradGradGrad

 Leave Link  103 at Wed Apr 13 00:29:29 2016, MaxMem=    33554432 cpu:         0.0
 (Enter /usr/local/gau/g09/l9999.exe)

 Test job not archived.
 1\1\GINC-KALI\Freq\RB3LYP\6-31G\C3H7N1O2\ROOT\13-Apr-2016\0\\#P Geom=A
 llCheck Guess=TCheck SCRF=Check Test GenChk RB3LYP/6-31G Freq\\Ala-S-o
 pt-freq-tsa3-6-31g\\0,1\N,1.2112223186,1.2719693488,-0.1762221826\H,2.
 1865002052,1.416592826,-0.3746833735\C,0.6642243559,0.0320493813,-0.06
 33172476\H,-2.2901989153,-1.0614987242,0.5022540787\C,1.5477215288,-1.
 1746696393,-0.0192786083\C,-0.7308879194,-0.0393747978,-0.0473513122\H
 ,0.9469713634,-2.0842459634,-0.0327397418\H,2.2481044175,-1.1983649062
 ,-0.8659252723\H,2.1459602862,-1.1744140537,0.9019857085\O,-1.52134676
 98,1.1996651843,0.0197213396\H,0.5841327233,2.0609696188,-0.078363381\
 O,-1.3249518792,-1.2104028149,0.4694805633\H,-1.1974047151,0.463822350
 5,-1.0546373608\\Version=ES64L-G09RevD.01\State=1-A\HF=-323.5135361\RM
 SD=3.175e-09\RMSF=1.558e-05\ZeroPoint=0.1013214\Thermal=0.1085853\Dipo
 le=1.2738199,-0.1087977,-0.5242309\DipoleDeriv=-0.6570549,-0.1748985,-
 0.1290042,-0.8930929,-0.736548,-0.018395,-0.0184463,0.0238139,-0.72407
 29,0.207356,0.0188141,0.0471052,0.0114176,0.2169681,-0.0089228,0.10567
 05,-0.0025753,0.3786061,1.0021001,0.0878562,0.1612415,0.8029613,0.5942
 069,-0.0021021,0.1642792,0.0608729,0.1313423,0.221355,0.0643527,-0.007
 2176,0.1928839,0.313039,0.0287323,-0.0599552,0.0385814,0.3800628,0.049
 2952,0.0733275,-0.039985,-0.0804226,-0.0653085,0.0168376,-0.1047919,0.
 0455356,0.1140004,-0.2506829,0.240888,-0.2181937,0.5384616,0.6495507,-
 0.3259709,-1.3659822,-0.2426095,0.1394543,0.0702277,-0.079445,-0.00283
 55,-0.0210127,-0.0017067,-0.0030625,-0.0038226,-0.0127397,0.1071706,-0
 .0623488,0.0434994,0.1058072,0.0208276,0.045078,0.0369459,0.1513216,-0
 .0168283,-0.0461813,-0.0333509,0.0459103,-0.0916633,0.0425309,0.049309
 9,-0.0272409,-0.1100171,-0.0011141,-0.0433802,-0.7994583,0.1110802,-0.
 0491043,0.6910244,-0.739345,0.1694694,0.7930972,-0.1412672,-0.358033,0
 .100208,0.0578025,0.0182248,0.0189091,0.229856,0.0154476,-0.011715,0.0
 095441,0.3739377,-0.4202505,-0.3087047,0.1583181,-0.5729235,-0.8269877
 ,0.157535,0.4399025,0.1425563,-0.5668924,0.5726044,-0.1804825,0.047306
 6,-0.7515648,0.2718874,-0.0392738,0.0204593,0.0962299,0.1139856\Polar=
 73.2117235,-2.3533703,49.3943535,-1.1670959,-3.0843605,28.3858306\PG=C
 01 [X(C3H7N1O2)]\NImag=1\\0.86780993,-0.00258236,0.77200270,-0.1415088
 2,-0.00961757,0.07460992,-0.44488425,-0.04881128,0.08588073,0.46120433
 ,-0.04730749,-0.08321560,0.00893482,0.05882326,0.07616567,0.08840520,0
 .00963072,-0.02388259,-0.09032287,-0.01124456,0.02579162,-0.17729341,-
 0.08312060,0.02250080,-0.01020759,-0.03873087,0.00500675,0.74438282,-0
 .09760419,-0.34458036,0.02436701,0.00109587,-0.00068867,0.00004347,0.0
 2496067,0.70108505,0.01921383,0.03016495,-0.04833094,-0.00000882,0.006
 27700,-0.00342253,-0.04842372,-0.05156600,0.17609945,0.00079393,0.0027
 7559,0.00036317,-0.00006750,-0.00018903,-0.00020932,-0.00160210,-0.003
 57364,0.00076415,0.47803891,-0.00103903,0.00173326,0.00006624,-0.00026
 984,-0.00051421,-0.00005623,-0.00215815,-0.00837688,0.00221748,-0.0493
 4489,0.04950288,0.00002555,-0.00060216,0.00109404,0.00008936,0.0000407
 2,0.00078836,-0.00094557,0.00121501,-0.00066404,-0.02547250,-0.0156167
 8,0.01226749,0.01439668,-0.01286467,0.00089004,0.00104919,0.00011923,-
 0.00139015,-0.14145956,0.06258743,-0.00192511,0.00042032,0.00056653,0.
 00021708,0.54819770,0.02389830,-0.03682776,0.00093933,0.00075686,0.002
 46890,-0.00072026,0.05751678,-0.17649014,0.00340911,0.00015886,-0.0003
 8574,0.00004504,0.05371185,0.54735546,-0.00168765,0.00428055,0.0029299
 6,-0.00093395,0.00032840,-0.00090760,0.00874857,0.00198659,-0.07335924
 ,-0.00003244,-0.00013333,-0.00059463,-0.00496944,0.00220867,0.53354150
 ,-0.04035539,-0.04251544,0.00112657,0.00330155,0.00109928,-0.00188102,
 -0.33430697,-0.00095930,0.01854431,-0.02404553,-0.04814771,0.01993994,
 -0.01748370,0.00782741,-0.01149718,0.62143479,-0.04337899,-0.00520121,
 0.00135893,-0.00059445,-0.00589747,-0.00061309,-0.03200201,-0.09341343
 ,-0.00149370,0.00579085,-0.00654710,-0.00024468,0.02682042,0.00443479,
 0.00398475,0.09341406,0.40907613,-0.01431959,-0.04454993,0.01157586,0.
 00642733,0.00166423,0.00587477,0.07569281,0.03612467,-0.05982166,0.002
 23892,0.01034311,-0.00447015,-0.00030300,-0.00076601,0.00494633,-0.103
 92415,-0.06600736,0.19756440,-0.00363466,0.00357721,0.00015110,-0.0001
 5598,0.00012880,0.00006726,0.01405171,0.02084553,0.00060310,0.00007953
 ,-0.00031684,0.00005142,-0.13636932,-0.13284183,-0.00215309,-0.0000845
 6,0.00167192,-0.00159876,0.14714056,0.00517450,-0.00255642,-0.00026861
 ,0.00026562,0.00037309,-0.00034297,-0.01873519,-0.02489774,-0.00081081
 ,-0.00024909,0.00059521,-0.00005557,-0.12476525,-0.24107432,-0.0033836
 8,-0.00026445,-0.00159241,0.00217040,0.13785991,0.26554720,-0.00006303
 ,0.00016283,0.00154874,-0.00009843,-0.00020406,-0.00058748,0.00010045,
 0.00214319,-0.00145748,-0.00014053,0.00020852,-0.00003250,-0.00142107,
 -0.00337738,-0.04974380,0.00017685,-0.00067413,0.00057054,0.00289663,0
 .00310414,0.04965463,0.00152313,-0.00175677,-0.00145270,0.00048872,0.0
 0059810,0.00076889,-0.02056813,0.00314613,0.01485691,0.00009801,0.0003
 1338,0.00014485,-0.14578188,-0.00079351,0.12408959,0.00367619,0.001565
 95,0.00078672,-0.01089794,0.00173145,0.01519171,0.16303542,-0.00021762
 ,0.00228498,0.00100341,-0.00078187,-0.00078204,-0.00035526,0.02407055,
 -0.00237244,-0.02287968,-0.00018561,0.00017885,0.00009465,0.00082900,-
 0.05060487,-0.00306353,-0.00295945,-0.00301152,0.00080271,-0.01664817,
 0.00194215,0.02328958,-0.00547093,0.05216738,-0.00049624,-0.00056827,0
 .00062583,0.00033591,-0.00090700,-0.00025031,-0.00211741,0.00127735,0.
 00410324,-0.00010430,-0.00006380,0.00003630,0.12420553,-0.00164258,-0.
 19901729,-0.00084812,0.00012464,0.00014343,-0.00174971,-0.00059277,0.0
 0063490,-0.13844159,0.00189965,0.21793759,0.00110832,-0.00146966,0.001
 15923,0.00021338,-0.00000633,-0.00049933,-0.01584595,0.00287946,-0.017
 49511,0.00007741,0.00011747,-0.00014938,-0.11897142,-0.00326150,-0.117
 28254,-0.00034863,0.00308999,-0.00110768,-0.00942074,0.00081408,-0.016
 60992,0.01119344,0.00008979,0.01941867,0.13275886,-0.00062674,0.000914
 13,-0.00185119,-0.00002402,-0.00045904,0.00110412,0.01847488,-0.002660
 52,0.02504392,-0.00012878,-0.00002787,-0.00013367,-0.00216357,-0.04778
 618,-0.00139862,0.00082882,-0.00284128,0.00105780,-0.01448874,0.000758
 41,-0.02507168,-0.00039995,0.00027620,0.00066771,-0.00188941,0.0507552
 6,0.00045260,-0.00017162,0.00094421,-0.00015565,0.00040169,-0.00064758
 ,-0.00134965,0.00026625,0.00253157,0.00006384,0.00005588,-0.00003854,-
 0.11588172,-0.00289846,-0.22781535,0.00134173,0.00000972,-0.00106613,0
 .00097940,0.00076337,-0.00018588,-0.01497220,-0.00117127,-0.02363785,0
 .13011255,0.00248247,0.24982590,-0.00203960,-0.00065825,-0.00009994,-0
 .00057089,0.00198922,-0.00198774,-0.02025915,0.03920289,0.00963863,0.0
 0262560,0.00414989,-0.00190689,-0.00221351,-0.00356246,0.00127907,-0.1
 0680881,0.05782758,0.00548491,0.00005253,0.00008495,0.00019056,-0.0013
 5807,0.00173509,0.00010850,-0.00100087,0.00070894,-0.00009456,0.124832
 99,0.00468478,0.02481631,-0.00093233,-0.00364525,0.00190017,-0.0014102
 1,-0.02066776,-0.03043251,0.00154405,0.00137642,0.00254393,-0.00053347
 ,-0.00192962,0.00286687,-0.00279596,0.10932095,-0.16141770,0.04540842,
 0.00000779,-0.00005020,-0.00001926,0.00146032,-0.00130928,-0.00069420,
 0.00029816,0.00023165,0.00029223,-0.09903916,0.18020895,0.01274375,0.0
 2395279,-0.00461326,-0.00268496,0.00074569,-0.00099726,-0.05274800,-0.
 01040447,0.00582686,-0.00301871,-0.00605008,-0.00090102,-0.00042447,-0
 .00024402,0.00678356,0.11723981,-0.07542477,0.04197069,0.00056658,-0.0
 0057067,-0.00039522,-0.00101850,0.00079034,-0.00049246,0.00091677,-0.0
 0097571,-0.00026660,-0.02033865,-0.00297953,-0.00410400,-0.21495359,0.
 17412703,0.03209861,-0.00916173,0.02461926,0.00147883,0.02254622,-0.00
 619713,-0.00088957,0.00022781,-0.00034477,-0.00006093,-0.00112641,-0.0
 0330729,0.00112103,-0.00716878,-0.00488868,-0.01168263,0.00049676,-0.0
 0072212,0.00008369,-0.00052664,0.00026117,0.00009203,-0.00029371,0.000
 01504,-0.00004199,0.00248845,0.01255136,0.00827393,0.20362746,0.177012
 79,-0.29842940,-0.02549434,-0.01054021,0.01110331,0.00147772,0.0205571
 7,-0.03101560,-0.00245790,-0.00017694,-0.00012450,0.00000152,-0.004590
 26,-0.00203165,-0.00048713,0.00257644,-0.00438205,0.00139715,0.0010663
 8,-0.00083700,0.00012307,0.00004434,0.00026503,-0.00015679,-0.00003283
 ,0.00026463,0.00014827,0.00264623,0.00155153,-0.00041969,-0.18845515,0
 .32265985,0.03260443,-0.02470173,-0.02189312,0.00242908,-0.00540912,-0
 .00187856,-0.00604666,0.00185511,0.00505945,0.00009075,0.00011399,-0.0
 0025375,0.00139144,0.00183296,0.00347620,0.00224734,-0.00002990,-0.002
 41963,-0.00030812,0.00058157,0.00057792,-0.00031029,0.00046139,0.00003
 977,0.00030970,-0.00070957,0.00003280,-0.00002206,0.00160747,-0.002872
 38,-0.03078080,0.02703146,0.02108054,-0.00683668,0.00113591,-0.0002870
 3,-0.00030313,-0.00173306,-0.00039156,-0.02088002,-0.04006412,0.021481
 40,-0.45599974,0.09922541,0.00668287,-0.00034982,-0.00040831,0.0007070
 5,-0.12661804,-0.08695681,0.05203896,-0.00144093,-0.00105189,-0.000031
 03,-0.00063216,-0.00074295,-0.00005737,-0.00012517,0.00016989,-0.00034
 265,0.01376517,0.00912591,-0.02032485,0.00021935,0.00053677,0.00048264
 ,0.60564735,-0.00345613,-0.00673534,0.00088005,0.00100676,0.00010057,0
 .00164319,0.00037586,0.00268768,0.00803142,0.04215263,-0.04252470,0.01
 477021,0.00105768,-0.00233969,-0.00113589,-0.04297136,-0.17024067,0.04
 886155,-0.00044453,0.00133808,0.00000050,-0.00066855,0.00085455,0.0003
 3153,-0.00072574,0.00087421,-0.00028185,-0.00394649,-0.03545788,0.0169
 5491,0.00075682,0.00080047,-0.00057991,0.01076540,0.26608160,0.0050208
 7,0.01180281,0.00311993,-0.00119589,-0.00025154,-0.00012989,-0.0116881
 9,-0.00373937,-0.00148051,0.02567678,0.00705383,-0.00739549,-0.0005476
 5,0.00063917,-0.00075982,0.04500506,0.06786317,-0.06478461,0.00040156,
 -0.00042689,-0.00058673,0.00012042,-0.00061684,-0.00006132,0.00075434,
 0.00007563,0.00016578,-0.00970588,0.00144401,0.00658430,0.00235843,-0.
 00059067,-0.00042650,-0.06767806,-0.09750376,0.06875461,0.00436558,0.0
 1216328,-0.00082177,-0.00090612,0.00058961,0.00095505,-0.03855787,-0.0
 0631960,-0.01636002,-0.00064665,-0.00275145,0.00138418,-0.00030828,0.0
 0030485,0.00261098,0.02880787,-0.02235983,-0.00973384,0.00018306,-0.00
 014251,-0.00027586,-0.00025010,0.00002099,-0.00034590,0.00065507,-0.00
 047637,-0.00011169,-0.00951384,-0.01354391,-0.03918271,0.00362480,-0.0
 0064472,-0.00208745,-0.00644620,-0.00390234,0.01147822,0.01899267,-0.0
 1455782,-0.02420529,0.00061425,0.00271854,-0.00055468,0.00084336,0.049
 45868,0.01115555,0.00252016,0.00159363,0.00394686,0.00101918,0.0006212
 4,0.00041432,-0.00039081,-0.07724926,0.04103392,-0.03650674,-0.0004174
 3,0.00045396,0.00031467,0.00023003,0.00011101,0.00032452,0.00009651,-0
 .00029960,0.00010331,-0.00113843,0.01454816,0.05462520,-0.00841553,0.0
 0017540,-0.00205371,0.00999784,-0.01543888,0.01425045,0.03706199,-0.03
 134072,-0.00039092,0.00021662,0.00227141,0.00023815,-0.00037628,0.0002
 4905,0.01126980,-0.00356881,-0.00508417,-0.00021980,0.00186117,0.00016
 391,0.00015851,0.00057444,0.00052020,-0.08747115,0.07114642,-0.1300838
 5,0.00009262,-0.00016751,0.00000236,0.00023620,-0.00025516,-0.00006184
 ,0.00047269,-0.00029120,0.00015766,0.01745405,-0.04093122,-0.04652321,
 -0.00205062,-0.00057268,-0.00052274,0.00771963,0.00802804,-0.00299976,
 0.05249083,-0.03566385,0.18191099\\0.00002083,0.00005361,-0.00001025,-
 0.00000330,0.00000134,0.00000279,-0.00000984,-0.00005054,0.00000434,-0
 .00000253,-0.00000501,0.00000243,0.00000322,0.00000308,0.00001212,0.00
 001755,0.00000275,0.00000342,0.00000073,0.,-0.00000309,-0.00000303,0.0
 0000477,-0.00000499,0.00000132,-0.00000205,-0.00000270,0.00000529,-0.0
 0002950,-0.00000526,0.00000651,-0.00000325,0.00001019,-0.00000384,0.00
 000242,-0.00000074,-0.00003290,0.00002238,-0.00000825\\\@


 I WANT IT ALL - RICH, THIN, AND CHOCOLATE.
 Job cpu time:       0 days  0 hours  1 minutes 25.1 seconds.
 File lengths (MBytes):  RWF=     12 Int=      0 D2E=      0 Chk=      2 Scr=      1
 Normal termination of Gaussian 09 at Wed Apr 13 00:29:29 2016.
