 Entering Link 1 = c:\G09w02\l1.exe PID=      4864.
  
 Copyright (c) 1988,1990,1992,1993,1995,1998,2003,2009,2010,
            Gaussian, Inc.  All Rights Reserved.
  
 This is part of the Gaussian(R) 09 program.  It is based on
 the Gaussian(R) 03 system (copyright 2003, Gaussian, Inc.),
 the Gaussian(R) 98 system (copyright 1998, Gaussian, Inc.),
 the Gaussian(R) 94 system (copyright 1995, Gaussian, Inc.),
 the Gaussian 92(TM) system (copyright 1992, Gaussian, Inc.),
 the Gaussian 90(TM) system (copyright 1990, Gaussian, Inc.),
 the Gaussian 88(TM) system (copyright 1988, Gaussian, Inc.),
 the Gaussian 86(TM) system (copyright 1986, Carnegie Mellon
 University), and the Gaussian 82(TM) system (copyright 1983,
 Carnegie Mellon University). Gaussian is a federally registered
 trademark of Gaussian, Inc.
  
 This software contains proprietary and confidential information,
 including trade secrets, belonging to Gaussian, Inc.
  
 This software is provided under written license and may be
 used, copied, transmitted, or stored only in accord with that
 written license.
  
 The following legend is applicable only to US Government
 contracts under FAR:
  
                    RESTRICTED RIGHTS LEGEND
  
 Use, reproduction and disclosure by the US Government is
 subject to restrictions as set forth in subparagraphs (a)
 and (c) of the Commercial Computer Software - Restricted
 Rights clause in FAR 52.227-19.
  
 Gaussian, Inc.
 340 Quinnipiac St., Bldg. 40, Wallingford CT 06492
  
  
 ---------------------------------------------------------------
 Warning -- This program may not be used in any manner that
 competes with the business of Gaussian, Inc. or will provide
 assistance to any competitor of Gaussian, Inc.  The licensee
 of this program is prohibited from giving any competitor of
 Gaussian, Inc. access to this program.  By using this program,
 the user acknowledges that Gaussian, Inc. is engaged in the
 business of creating and licensing software in the field of
 computational chemistry and represents and warrants to the
 licensee that it is not a competitor of Gaussian, Inc. and that
 it will not use this program in any manner prohibited above.
 ---------------------------------------------------------------
  

 Cite this work as:
 Gaussian 09, Revision B.01,
 M. J. Frisch, G. W. Trucks, H. B. Schlegel, G. E. Scuseria, 
 M. A. Robb, J. R. Cheeseman, G. Scalmani, V. Barone, B. Mennucci, 
 G. A. Petersson, H. Nakatsuji, M. Caricato, X. Li, H. P. Hratchian, 
 A. F. Izmaylov, J. Bloino, G. Zheng, J. L. Sonnenberg, M. Hada, 
 M. Ehara, K. Toyota, R. Fukuda, J. Hasegawa, M. Ishida, T. Nakajima, 
 Y. Honda, O. Kitao, H. Nakai, T. Vreven, J. A. Montgomery, Jr., 
 J. E. Peralta, F. Ogliaro, M. Bearpark, J. J. Heyd, E. Brothers, 
 K. N. Kudin, V. N. Staroverov, T. Keith, R. Kobayashi, J. Normand, 
 K. Raghavachari, A. Rendell, J. C. Burant, S. S. Iyengar, J. Tomasi, 
 M. Cossi, N. Rega, J. M. Millam, M. Klene, J. E. Knox, J. B. Cross, 
 V. Bakken, C. Adamo, J. Jaramillo, R. Gomperts, R. E. Stratmann, 
 O. Yazyev, A. J. Austin, R. Cammi, C. Pomelli, J. W. Ochterski, 
 R. L. Martin, K. Morokuma, V. G. Zakrzewski, G. A. Voth, 
 P. Salvador, J. J. Dannenberg, S. Dapprich, A. D. Daniels, 
 O. Farkas, J. B. Foresman, J. V. Ortiz, J. Cioslowski, 
 and D. J. Fox, Gaussian, Inc., Wallingford CT, 2010.
 
 ******************************************
 Gaussian 09:  IA32W-G09RevB.01 12-Aug-2010
                19-Apr-2016 
 ******************************************
 %chk=Ser-S-opt-freq-cpcm-w-pa3-6-311++gdp.chk
 -----------------------------------------------------------------
 #p opt freq rb3lyp/6-311++g(d,p) scrf=(cpcm,solvent=water) nosymm
 -----------------------------------------------------------------
 1/14=-1,18=20,19=15,26=3,38=1/1,3;
 2/9=110,12=2,15=1,17=6,18=5,40=1/2;
 3/5=4,6=6,7=1111,11=2,16=1,25=1,30=1,70=2101,71=1,72=1,74=-5,116=1/1,2,3;
 4//1;
 5/5=2,38=5,53=1/2;
 6/7=2,8=2,9=2,10=2,28=1/1;
 7/30=1/1,2,3,16;
 1/14=-1,18=20,19=15/3(2);
 2/9=110,15=1/2;
 99//99;
 2/9=110,15=1/2;
 3/5=4,6=6,7=1111,11=2,16=1,25=1,30=1,70=2105,71=1,72=1,74=-5,116=1/1,2,3;
 4/5=5,16=3/1;
 5/5=2,38=5,53=1/2;
 7/30=1/1,2,3,16;
 1/14=-1,18=20,19=15/3(-5);
 2/9=110,15=1/2;
 6/7=2,8=2,9=2,10=2,19=2,28=1/1;
 99/9=1/99;
 Leave Link    1 at Tue Apr 19 19:08:24 2016, MaxMem=          0 cpu:       0.0
 (Enter c:\G09w02\l101.exe)
 ------------------------------------
 Ser-S-opt-freq-cpcm-w-pa3-6-311++gdp
 ------------------------------------
 Symbolic Z-matrix:
 Charge =  0 Multiplicity = 1
 N                    -0.15165   2.19338   0.31975 
 H                     0.31403   2.62388   1.11456 
 C                     0.04105   0.77516   0.29378 
 H                    -0.00712  -1.61975  -0.23334 
 C                     1.47369   0.31884   0.22926 
 C                    -0.99097  -0.0819    0.26839 
 H                     2.07648   1.12701  -0.19655 
 H                     1.87169   0.085     1.22481 
 O                     1.58164  -0.861    -0.60403 
 O                    -2.27839   0.34637   0.41435 
 H                     2.42011  -1.29907  -0.41739 
 H                    -1.13759   2.42129   0.38962 
 O                    -0.91341  -1.43111   0.08851 
 H                    -0.69575   1.16982   0.78598 
 
 NAtoms=     14 NQM=     14 NQMF=      0 NMic=      0 NMicF=      0 NTot=     14.
                    Isotopes and Nuclear Properties:
 (Nuclear quadrupole moments (NQMom) in fm**2, nuclear magnetic moments (NMagM)
  in nuclear magnetons)

  Atom         1           2           3           4           5           6           7           8           9          10
 IAtWgt=          14           1          12           1          12          12           1           1          16          16
 AtmWgt=  14.0030740   1.0078250  12.0000000   1.0078250  12.0000000  12.0000000   1.0078250   1.0078250  15.9949146  15.9949146
 NucSpn=           2           1           0           1           0           0           1           1           0           0
 AtZEff=   0.0000000   0.0000000   0.0000000   0.0000000   0.0000000   0.0000000   0.0000000   0.0000000   0.0000000   0.0000000
 NQMom=    2.0440000   0.0000000   0.0000000   0.0000000   0.0000000   0.0000000   0.0000000   0.0000000   0.0000000   0.0000000
 NMagM=    0.4037610   2.7928460   0.0000000   2.7928460   0.0000000   0.0000000   2.7928460   2.7928460   0.0000000   0.0000000

  Atom        11          12          13          14
 IAtWgt=           1           1          16           1
 AtmWgt=   1.0078250   1.0078250  15.9949146   1.0078250
 NucSpn=           1           1           0           1
 AtZEff=   0.0000000   0.0000000   0.0000000   0.0000000
 NQMom=    0.0000000   0.0000000   0.0000000   0.0000000
 NMagM=    2.7928460   2.7928460   0.0000000   2.7928460
 Leave Link  101 at Tue Apr 19 19:08:24 2016, MaxMem=   33554432 cpu:       0.0
 (Enter c:\G09w02\l103.exe)

 GradGradGradGradGradGradGradGradGradGradGradGradGradGradGradGradGradGrad
 Berny optimization.
 Initialization pass.
                           ----------------------------
                           !    Initial Parameters    !
                           ! (Angstroms and Degrees)  !
 --------------------------                            --------------------------
 ! Name  Definition              Value          Derivative Info.                !
 --------------------------------------------------------------------------------
 ! R1    R(1,2)                  1.0168         estimate D2E/DX2                !
 ! R2    R(1,3)                  1.4315         estimate D2E/DX2                !
 ! R3    R(1,12)                 1.0144         estimate D2E/DX2                !
 ! R4    R(1,14)                 1.2494         estimate D2E/DX2                !
 ! R5    R(3,5)                  1.5049         estimate D2E/DX2                !
 ! R6    R(3,6)                  1.3417         estimate D2E/DX2                !
 ! R7    R(3,14)                 0.97           estimate D2E/DX2                !
 ! R8    R(4,9)                  1.7992         estimate D2E/DX2                !
 ! R9    R(4,13)                 0.9801         estimate D2E/DX2                !
 ! R10   R(5,7)                  1.0944         estimate D2E/DX2                !
 ! R11   R(5,8)                  1.0974         estimate D2E/DX2                !
 ! R12   R(5,9)                  1.4485         estimate D2E/DX2                !
 ! R13   R(6,10)                 1.3646         estimate D2E/DX2                !
 ! R14   R(6,13)                 1.3634         estimate D2E/DX2                !
 ! R15   R(6,14)                 1.3863         estimate D2E/DX2                !
 ! R16   R(9,11)                 0.9642         estimate D2E/DX2                !
 ! A1    A(2,1,3)              111.8389         estimate D2E/DX2                !
 ! A2    A(2,1,12)             107.2279         estimate D2E/DX2                !
 ! A3    A(2,1,14)             104.7501         estimate D2E/DX2                !
 ! A4    A(3,1,12)             110.775          estimate D2E/DX2                !
 ! A5    A(12,1,14)             74.6378         estimate D2E/DX2                !
 ! A6    A(1,3,5)              115.4248         estimate D2E/DX2                !
 ! A7    A(1,3,6)              121.9822         estimate D2E/DX2                !
 ! A8    A(5,3,6)              122.5283         estimate D2E/DX2                !
 ! A9    A(5,3,14)             150.2523         estimate D2E/DX2                !
 ! A10   A(3,5,7)              108.4868         estimate D2E/DX2                !
 ! A11   A(3,5,8)              111.7767         estimate D2E/DX2                !
 ! A12   A(3,5,9)              110.0349         estimate D2E/DX2                !
 ! A13   A(7,5,8)              108.0933         estimate D2E/DX2                !
 ! A14   A(7,5,9)              109.6702         estimate D2E/DX2                !
 ! A15   A(8,5,9)              108.7422         estimate D2E/DX2                !
 ! A16   A(3,6,10)             121.5442         estimate D2E/DX2                !
 ! A17   A(3,6,13)             126.2197         estimate D2E/DX2                !
 ! A18   A(10,6,13)            112.2327         estimate D2E/DX2                !
 ! A19   A(10,6,14)             82.9691         estimate D2E/DX2                !
 ! A20   A(13,6,14)            158.5435         estimate D2E/DX2                !
 ! A21   A(5,9,11)             108.8753         estimate D2E/DX2                !
 ! A22   A(4,13,6)             106.6433         estimate D2E/DX2                !
 ! A23   A(1,14,6)             133.876          estimate D2E/DX2                !
 ! D1    D(2,1,3,5)            -58.8388         estimate D2E/DX2                !
 ! D2    D(2,1,3,6)            124.0163         estimate D2E/DX2                !
 ! D3    D(12,1,3,5)          -178.3962         estimate D2E/DX2                !
 ! D4    D(12,1,3,6)             4.459          estimate D2E/DX2                !
 ! D5    D(2,1,14,6)          -148.6289         estimate D2E/DX2                !
 ! D6    D(12,1,14,6)          107.1726         estimate D2E/DX2                !
 ! D7    D(1,3,5,7)            -23.3286         estimate D2E/DX2                !
 ! D8    D(1,3,5,8)             95.7623         estimate D2E/DX2                !
 ! D9    D(1,3,5,9)           -143.309          estimate D2E/DX2                !
 ! D10   D(6,3,5,7)            153.799          estimate D2E/DX2                !
 ! D11   D(6,3,5,8)            -87.1101         estimate D2E/DX2                !
 ! D12   D(6,3,5,9)             33.8186         estimate D2E/DX2                !
 ! D13   D(14,3,5,7)           -94.8808         estimate D2E/DX2                !
 ! D14   D(14,3,5,8)            24.2101         estimate D2E/DX2                !
 ! D15   D(14,3,5,9)           145.1388         estimate D2E/DX2                !
 ! D16   D(1,3,6,10)            -7.3333         estimate D2E/DX2                !
 ! D17   D(1,3,6,13)           171.9383         estimate D2E/DX2                !
 ! D18   D(5,3,6,10)           175.7253         estimate D2E/DX2                !
 ! D19   D(5,3,6,13)            -5.0031         estimate D2E/DX2                !
 ! D20   D(3,5,9,11)          -162.2            estimate D2E/DX2                !
 ! D21   D(7,5,9,11)            78.5396         estimate D2E/DX2                !
 ! D22   D(8,5,9,11)           -39.4667         estimate D2E/DX2                !
 ! D23   D(3,6,13,4)           -13.5837         estimate D2E/DX2                !
 ! D24   D(10,6,13,4)          165.7457         estimate D2E/DX2                !
 ! D25   D(14,6,13,4)          -61.5275         estimate D2E/DX2                !
 ! D26   D(10,6,14,1)         -112.9091         estimate D2E/DX2                !
 ! D27   D(13,6,14,1)          110.3372         estimate D2E/DX2                !
 --------------------------------------------------------------------------------
 Trust Radius=3.00D-01 FncErr=1.00D-07 GrdErr=1.00D-06
 Number of steps in this run=     76 maximum allowed number of steps=    100.
 GradGradGradGradGradGradGradGradGradGradGradGradGradGradGradGradGradGrad

 Leave Link  103 at Tue Apr 19 19:08:24 2016, MaxMem=   33554432 cpu:       0.0
 (Enter c:\G09w02\l202.exe)
                          Input orientation:                          
 ---------------------------------------------------------------------
 Center     Atomic      Atomic             Coordinates (Angstroms)
 Number     Number       Type             X           Y           Z
 ---------------------------------------------------------------------
      1          7           0       -0.151646    2.193377    0.319753
      2          1           0        0.314026    2.623882    1.114562
      3          6           0        0.041049    0.775158    0.293778
      4          1           0       -0.007124   -1.619746   -0.233345
      5          6           0        1.473689    0.318839    0.229263
      6          6           0       -0.990966   -0.081905    0.268394
      7          1           0        2.076477    1.127012   -0.196550
      8          1           0        1.871694    0.084995    1.224812
      9          8           0        1.581643   -0.860999   -0.604033
     10          8           0       -2.278392    0.346372    0.414347
     11          1           0        2.420113   -1.299068   -0.417390
     12          1           0       -1.137588    2.421291    0.389623
     13          8           0       -0.913408   -1.431109    0.088508
     14          1           0       -0.695754    1.169821    0.785981
 ---------------------------------------------------------------------
                    Distance matrix (angstroms):
                    1          2          3          4          5
     1  N    0.000000
     2  H    1.016812   0.000000
     3  C    1.431486   2.041074   0.000000
     4  H    3.855737   4.464120   2.452701   0.000000
     5  C    2.482699   2.727966   1.504941   2.482927   0.000000
     6  C    2.425697   3.120943   1.341736   1.893315   2.497329
     7  H    2.523536   2.658170   2.123014   3.447815   1.094447
     8  H    3.059136   2.980676   2.166659   2.926144   1.097364
     9  O    3.631375   4.087153   2.420022   1.799246   1.448466
    10  O    2.818408   3.521077   2.361822   3.073074   3.756744
    11  H    4.399375   4.708717   3.235447   2.455237   1.982801
    12  H    1.014351   1.635164   2.026851   4.242171   3.356306
    13  O    3.710883   4.359167   2.412621   0.980063   2.963168
    14  H    1.249436   1.800532   0.970000   3.048756   2.395952
                    6          7          8          9         10
     6  C    0.000000
     7  H    3.329694   0.000000
     8  H    3.022815   1.774262   0.000000
     9  O    2.826028   2.088801   2.079353   0.000000
    10  O    1.364621   4.466260   4.236553   4.170697   0.000000
    11  H    3.686088   2.460228   2.216579   0.964247   5.047297
    12  H    2.510415   3.514110   3.900205   4.376642   2.367981
    13  O    1.363351   3.945206   3.368464   2.651399   2.264683
    14  H    1.386313   2.941507   2.821561   3.353043   1.822340
                   11         12         13         14
    11  H    0.000000
    12  H    5.210526   0.000000
    13  O    3.374275   3.870648   0.000000
    14  H    4.153569   1.385098   2.701606   0.000000
 Symmetry turned off by external request.
 Stoichiometry    C3H7NO3
 Framework group  C1[X(C3H7NO3)]
 Deg. of freedom    36
 Full point group                 C1      NOp   1
 Rotational constants (GHZ):      3.4894109      2.4946225      1.5045548
 Leave Link  202 at Tue Apr 19 19:08:24 2016, MaxMem=   33554432 cpu:       0.0
 (Enter c:\G09w02\l301.exe)
 Standard basis: 6-311++G(d,p) (5D, 7F)
 Ernie: Thresh=  0.10000D-02 Tol=  0.10000D-05 Strict=F.
 Integral buffers will be    262144 words long.
 Raffenetti 2 integral format.
 Two-electron integral symmetry is turned off.
   203 basis functions,   315 primitive gaussians,   210 cartesian basis functions
    28 alpha electrons       28 beta electrons
       nuclear repulsion energy       328.2871697958 Hartrees.
 IExCor=  402 DFT=T Ex+Corr=B3LYP ExCW=0 ScaHFX=  0.200000
 ScaDFX=  0.800000  0.720000  1.000000  0.810000 ScalE2=  1.000000  1.000000
 IRadAn=      0 IRanWt=     -1 IRanGd=            0 ICorTp=0
 NAtoms=   14 NActive=   14 NUniq=   14 SFac= 1.00D+00 NAtFMM=   50 NAOKFM=F Big=F
 ------------------------------------------------------------------------------
 Polarizable Continuum Model (PCM)
 =================================
 Model                : C-PCM.
 Atomic radii         : UFF (Universal Force Field).
 Polarization charges : Total charges.
 Charge compensation  : None.
 Solution method      : Matrix inversion.
 Cavity type          : Scaled VdW (van der Waals Surface) (Alpha=1.100).
 Cavity algorithm     : GePol (No added spheres)
                        Default sphere list used, NSphG=   14.
                        Lebedev-Laikov grids with approx.  5.0 points / Ang**2.
                        Smoothing algorithm: Karplus/York (Gamma=1.0000).
                        Polarization charges: spherical gaussians, with
                                              point-specific exponents (IZeta= 3).
                        Self-potential: point-specific (ISelfS= 7).
                        Self-field    : sphere-specific E.n sum rule (ISelfD= 2).
 1st derivatives      : Analytical E(r).r(x)/FMM algorithm (CHGder, D1EAlg=3).
                        Cavity 1st derivative terms included.
 Solvent              : Water, Eps=  78.355300 Eps(inf)=   1.777849
 ------------------------------------------------------------------------------
 Spheres list:
 ISph  on   Nord    Re0     Alpha      Xe            Ye            Ze
    1   N      1    1.830   1.100     -0.151646      2.193377      0.319753
    2   H      2    1.443   1.100      0.314026      2.623882      1.114562
    3   C      3    1.926   1.100      0.041049      0.775158      0.293778
    4   H      4    1.443   1.100     -0.007124     -1.619746     -0.233345
    5   C      5    1.926   1.100      1.473689      0.318839      0.229263
    6   C      6    1.926   1.100     -0.990966     -0.081905      0.268394
    7   H      7    1.443   1.100      2.076477      1.127012     -0.196550
    8   H      8    1.443   1.100      1.871694      0.084995      1.224812
    9   O      9    1.750   1.100      1.581643     -0.860999     -0.604033
   10   O     10    1.750   1.100     -2.278392      0.346372      0.414347
   11   H     11    1.443   1.100      2.420113     -1.299068     -0.417390
   12   H     12    1.443   1.100     -1.137588      2.421291      0.389623
   13   O     13    1.750   1.100     -0.913408     -1.431109      0.088508
   14   H     14    1.443   1.100     -0.695754      1.169821      0.785981
 ------------------------------------------------------------------------------
 GePol: Number of generator spheres                  =      14
 GePol: Total number of spheres                      =      14
 GePol: Number of exposed spheres                    =      14 (100.00%)
 GePol: Number of points                             =    1185
 GePol: Average weight of points                     =       0.13
 GePol: Minimum weight of points                     =   0.53D-08
 GePol: Maximum weight of points                     =    0.20577
 GePol: Number of points with low weight             =      65
 GePol: Fraction of low-weight points (<1% of avg)   =       5.49%
 GePol: Cavity surface area                          =    154.560 Ang**2
 GePol: Cavity volume                                =    144.838 Ang**3
 Leave Link  301 at Tue Apr 19 19:08:24 2016, MaxMem=   33554432 cpu:       0.0
 (Enter c:\G09w02\l302.exe)
 NPDir=0 NMtPBC=     1 NCelOv=     1 NCel=       1 NClECP=     1 NCelD=      1
         NCelK=      1 NCelE2=     1 NClLst=     1 CellRange=     0.0.
 One-electron integrals computed using PRISM.
 NBasis=   203 RedAO= T  NBF=   203
 NBsUse=   203 1.00D-06 NBFU=   203
 Precomputing XC quadrature grid using
 IXCGrd= 2 IRadAn=           0 IRanWt=          -1 IRanGd=           0 AccXCQ= 0.00D+00.
 NRdTot=     908 NPtTot=      115542 NUsed=      119780 NTot=      119796
 NSgBfM=   210   210   210   210   210 NAtAll=    14    14.
 Leave Link  302 at Tue Apr 19 19:08:25 2016, MaxMem=   33554432 cpu:       1.0
 (Enter c:\G09w02\l303.exe)
 DipDrv:  MaxL=1.
 Leave Link  303 at Tue Apr 19 19:08:25 2016, MaxMem=   33554432 cpu:       0.0
 (Enter c:\G09w02\l401.exe)
 Harris functional with IExCor=  402 diagonalized for initial guess.
 ExpMin= 3.60D-02 ExpMax= 8.59D+03 ExpMxC= 1.30D+03 IAcc=3 IRadAn=         0 AccDes= 0.00D+00
 HarFok:  IExCor=  402 AccDes= 0.00D+00 IRadAn=         0 IDoV= 1
 ScaDFX=  1.000000  1.000000  1.000000  1.000000
 FoFCou: FMM=F IPFlag=           0 FMFlag=      100000 FMFlg1=           0
         NFxFlg=           0 DoJE=T BraDBF=F KetDBF=T FulRan=T
         Omega=  0.000000  0.000000  1.000000  0.000000  0.000000 ICntrl=     500 IOpCl=  0
         NMat0=    1 NMatS0=    1 NMatT0=    0 NMatD0=    1 NMtDS0=    0 NMtDT0=    0
         I1Cent=           4 NGrid=           0.
 Symmetry not used in FoFCou.
 Harris En= -398.882602931982    
 Leave Link  401 at Tue Apr 19 19:08:31 2016, MaxMem=   33554432 cpu:       6.0
 (Enter c:\G09w02\l502.exe)
 Closed shell SCF:
 Requested convergence on RMS density matrix=1.00D-08 within 128 cycles.
 Requested convergence on MAX density matrix=1.00D-06.
 Requested convergence on             energy=1.00D-06.
 No special actions if energy rises.
 Using DIIS extrapolation, IDIIS=  1040.
 Two-electron integral symmetry not used.
       119656 words used for storage of precomputed grid.
 IEnd=      272521 IEndB=      272521 NGot=    33554432 MDV=    33342862
 LenX=    33342862 LenY=    33298321
 Fock matrices will be formed incrementally for  20 cycles.

 Cycle   1  Pass 1  IDiag  1:
 FoFCou: FMM=F IPFlag=           0 FMFlag=      100000 FMFlg1=           0
         NFxFlg=           0 DoJE=F BraDBF=F KetDBF=F FulRan=T
         Omega=  0.000000  0.000000  1.000000  0.000000  0.000000 ICntrl=       0 IOpCl=  0
         NMat0=    1 NMatS0=    1 NMatT0=    0 NMatD0=    1 NMtDS0=    0 NMtDT0=    0
         I1Cent=           0 NGrid=           0.
 Symmetry not used in FoFCou.
 E= -398.694407293330    
 DIIS: error= 2.74D-02 at cycle   1 NSaved=   1.
 NSaved= 1 IEnMin= 1 EnMin= -398.694407293330     IErMin= 1 ErrMin= 2.74D-02
 ErrMax= 2.74D-02 EMaxC= 1.00D-01 BMatC= 2.72D-01 BMatP= 2.72D-01
 IDIUse=3 WtCom= 7.26D-01 WtEn= 2.74D-01
 Coeff-Com:  0.100D+01
 Coeff-En:   0.100D+01
 Coeff:      0.100D+01
 Gap=     0.200 Goal=   None    Shift=    0.000
 GapD=    0.200 DampG=1.000 DampE=0.500 DampFc=0.5000 IDamp=-1.
 Damping current iteration by 5.00D-01
 RMSDP=1.92D-02 MaxDP=1.71D+00              OVMax= 2.93D-01

 Cycle   2  Pass 1  IDiag  1:
 RMSU=  6.22D-03    CP:  1.19D+00
 E= -398.721986812096     Delta-E=       -0.027579518766 Rises=F Damp=T
 DIIS: error= 1.32D-02 at cycle   2 NSaved=   2.
 NSaved= 2 IEnMin= 2 EnMin= -398.721986812096     IErMin= 2 ErrMin= 1.32D-02
 ErrMax= 1.32D-02 EMaxC= 1.00D-01 BMatC= 4.95D-02 BMatP= 2.72D-01
 IDIUse=3 WtCom= 8.68D-01 WtEn= 1.32D-01
 Coeff-Com:  0.248D+00 0.752D+00
 Coeff-En:   0.432D+00 0.568D+00
 Coeff:      0.272D+00 0.728D+00
 Gap=     0.218 Goal=   None    Shift=    0.000
 RMSDP=6.78D-03 MaxDP=5.94D-01 DE=-2.76D-02 OVMax= 2.26D-01

 Cycle   3  Pass 1  IDiag  1:
 RMSU=  2.45D-03    CP:  1.08D+00  3.94D-01
 E= -398.851375418860     Delta-E=       -0.129388606764 Rises=F Damp=F
 DIIS: error= 1.43D-02 at cycle   3 NSaved=   3.
 NSaved= 3 IEnMin= 3 EnMin= -398.851375418860     IErMin= 2 ErrMin= 1.32D-02
 ErrMax= 1.43D-02 EMaxC= 1.00D-01 BMatC= 3.71D-02 BMatP= 4.95D-02
 IDIUse=3 WtCom= 8.57D-01 WtEn= 1.43D-01
 Coeff-Com:  0.879D-01 0.464D+00 0.448D+00
 Coeff-En:   0.000D+00 0.000D+00 0.100D+01
 Coeff:      0.753D-01 0.397D+00 0.527D+00
 Gap=     0.220 Goal=   None    Shift=    0.000
 RMSDP=1.84D-03 MaxDP=7.51D-02 DE=-1.29D-01 OVMax= 8.73D-02

 Cycle   4  Pass 1  IDiag  1:
 RMSU=  1.20D-03    CP:  1.10D+00  4.48D-01  9.32D-01
 E= -398.874336196027     Delta-E=       -0.022960777167 Rises=F Damp=F
 DIIS: error= 6.12D-03 at cycle   4 NSaved=   4.
 NSaved= 4 IEnMin= 4 EnMin= -398.874336196027     IErMin= 4 ErrMin= 6.12D-03
 ErrMax= 6.12D-03 EMaxC= 1.00D-01 BMatC= 8.54D-03 BMatP= 3.71D-02
 IDIUse=3 WtCom= 9.39D-01 WtEn= 6.12D-02
 Coeff-Com:  0.648D-02 0.109D+00 0.338D+00 0.547D+00
 Coeff-En:   0.000D+00 0.000D+00 0.222D+00 0.778D+00
 Coeff:      0.608D-02 0.102D+00 0.331D+00 0.561D+00
 Gap=     0.214 Goal=   None    Shift=    0.000
 RMSDP=6.86D-04 MaxDP=2.33D-02 DE=-2.30D-02 OVMax= 2.99D-02

 Cycle   5  Pass 1  IDiag  1:
 RMSU=  1.94D-04    CP:  1.09D+00  4.21D-01  9.93D-01  6.98D-01
 E= -398.880607852912     Delta-E=       -0.006271656884 Rises=F Damp=F
 DIIS: error= 8.91D-04 at cycle   5 NSaved=   5.
 NSaved= 5 IEnMin= 5 EnMin= -398.880607852912     IErMin= 5 ErrMin= 8.91D-04
 ErrMax= 8.91D-04 EMaxC= 1.00D-01 BMatC= 2.86D-04 BMatP= 8.54D-03
 IDIUse=3 WtCom= 9.91D-01 WtEn= 8.91D-03
 Coeff-Com: -0.229D-02 0.236D-01 0.131D+00 0.291D+00 0.557D+00
 Coeff-En:   0.000D+00 0.000D+00 0.000D+00 0.000D+00 0.100D+01
 Coeff:     -0.227D-02 0.234D-01 0.130D+00 0.288D+00 0.560D+00
 Gap=     0.210 Goal=   None    Shift=    0.000
 RMSDP=1.88D-04 MaxDP=1.31D-02 DE=-6.27D-03 OVMax= 4.83D-03

 Cycle   6  Pass 1  IDiag  1:
 RMSU=  9.70D-05    CP:  1.09D+00  4.19D-01  9.88D-01  7.07D-01  6.94D-01
 E= -398.880834531942     Delta-E=       -0.000226679030 Rises=F Damp=F
 DIIS: error= 2.50D-04 at cycle   6 NSaved=   6.
 NSaved= 6 IEnMin= 6 EnMin= -398.880834531942     IErMin= 6 ErrMin= 2.50D-04
 ErrMax= 2.50D-04 EMaxC= 1.00D-01 BMatC= 1.67D-05 BMatP= 2.86D-04
 IDIUse=3 WtCom= 9.97D-01 WtEn= 2.50D-03
 Coeff-Com: -0.165D-02-0.231D-03 0.203D-01 0.664D-01 0.259D+00 0.656D+00
 Coeff-En:   0.000D+00 0.000D+00 0.000D+00 0.000D+00 0.000D+00 0.100D+01
 Coeff:     -0.165D-02-0.230D-03 0.203D-01 0.662D-01 0.258D+00 0.657D+00
 Gap=     0.210 Goal=   None    Shift=    0.000
 RMSDP=8.86D-05 MaxDP=7.96D-03 DE=-2.27D-04 OVMax= 7.84D-04

 Cycle   7  Pass 1  IDiag  1:
 RMSU=  2.04D-05    CP:  1.09D+00  4.22D-01  9.96D-01  7.22D-01  7.90D-01
                    CP:  6.88D-01
 E= -398.880848229603     Delta-E=       -0.000013697661 Rises=F Damp=F
 DIIS: error= 3.44D-05 at cycle   7 NSaved=   7.
 NSaved= 7 IEnMin= 7 EnMin= -398.880848229603     IErMin= 7 ErrMin= 3.44D-05
 ErrMax= 3.44D-05 EMaxC= 1.00D-01 BMatC= 4.94D-07 BMatP= 1.67D-05
 IDIUse=1 WtCom= 1.00D+00 WtEn= 0.00D+00
 Coeff-Com: -0.397D-03-0.750D-03 0.484D-02 0.178D-01 0.902D-01 0.245D+00
 Coeff-Com:  0.643D+00
 Coeff:     -0.397D-03-0.750D-03 0.484D-02 0.178D-01 0.902D-01 0.245D+00
 Coeff:      0.643D+00
 Gap=     0.210 Goal=   None    Shift=    0.000
 RMSDP=9.81D-06 MaxDP=7.98D-04 DE=-1.37D-05 OVMax= 2.86D-04

 Cycle   8  Pass 1  IDiag  1:
 RMSU=  3.65D-06    CP:  1.09D+00  4.21D-01  9.96D-01  7.22D-01  7.93D-01
                    CP:  6.94D-01  9.18D-01
 E= -398.880848582959     Delta-E=       -0.000000353356 Rises=F Damp=F
 DIIS: error= 1.34D-05 at cycle   8 NSaved=   8.
 NSaved= 8 IEnMin= 8 EnMin= -398.880848582959     IErMin= 8 ErrMin= 1.34D-05
 ErrMax= 1.34D-05 EMaxC= 1.00D-01 BMatC= 9.62D-08 BMatP= 4.94D-07
 IDIUse=1 WtCom= 1.00D+00 WtEn= 0.00D+00
 Coeff-Com:  0.990D-04-0.355D-03-0.578D-03-0.143D-02 0.554D-02 0.141D-01
 Coeff-Com:  0.323D+00 0.659D+00
 Coeff:      0.990D-04-0.355D-03-0.578D-03-0.143D-02 0.554D-02 0.141D-01
 Coeff:      0.323D+00 0.659D+00
 Gap=     0.210 Goal=   None    Shift=    0.000
 RMSDP=2.41D-06 MaxDP=8.96D-05 DE=-3.53D-07 OVMax= 8.69D-05

 Cycle   9  Pass 1  IDiag  1:
 RMSU=  9.64D-07    CP:  1.09D+00  4.21D-01  9.96D-01  7.22D-01  7.96D-01
                    CP:  6.93D-01  9.66D-01  8.53D-01
 E= -398.880848662021     Delta-E=       -0.000000079062 Rises=F Damp=F
 DIIS: error= 3.40D-06 at cycle   9 NSaved=   9.
 NSaved= 9 IEnMin= 9 EnMin= -398.880848662021     IErMin= 9 ErrMin= 3.40D-06
 ErrMax= 3.40D-06 EMaxC= 1.00D-01 BMatC= 3.06D-09 BMatP= 9.62D-08
 IDIUse=1 WtCom= 1.00D+00 WtEn= 0.00D+00
 Coeff-Com:  0.400D-04-0.133D-03-0.386D-03-0.100D-02 0.538D-03 0.988D-03
 Coeff-Com:  0.123D+00 0.291D+00 0.586D+00
 Coeff:      0.400D-04-0.133D-03-0.386D-03-0.100D-02 0.538D-03 0.988D-03
 Coeff:      0.123D+00 0.291D+00 0.586D+00
 Gap=     0.210 Goal=   None    Shift=    0.000
 RMSDP=8.08D-07 MaxDP=3.62D-05 DE=-7.91D-08 OVMax= 1.90D-05

 Cycle  10  Pass 1  IDiag  1:
 RMSU=  3.54D-07    CP:  1.09D+00  4.21D-01  9.96D-01  7.22D-01  7.98D-01
                    CP:  6.93D-01  9.76D-01  8.60D-01  8.59D-01
 E= -398.880848663673     Delta-E=       -0.000000001652 Rises=F Damp=F
 DIIS: error= 1.50D-06 at cycle  10 NSaved=  10.
 NSaved=10 IEnMin=10 EnMin= -398.880848663673     IErMin=10 ErrMin= 1.50D-06
 ErrMax= 1.50D-06 EMaxC= 1.00D-01 BMatC= 1.07D-09 BMatP= 3.06D-09
 IDIUse=1 WtCom= 1.00D+00 WtEn= 0.00D+00
 Coeff-Com:  0.419D-07 0.268D-05-0.142D-03-0.359D-03-0.962D-03-0.254D-02
 Coeff-Com:  0.854D-02 0.478D-01 0.376D+00 0.572D+00
 Coeff:      0.419D-07 0.268D-05-0.142D-03-0.359D-03-0.962D-03-0.254D-02
 Coeff:      0.854D-02 0.478D-01 0.376D+00 0.572D+00
 Gap=     0.210 Goal=   None    Shift=    0.000
 RMSDP=2.75D-07 MaxDP=1.22D-05 DE=-1.65D-09 OVMax= 9.40D-06

 Cycle  11  Pass 1  IDiag  1:
 RMSU=  7.76D-08    CP:  1.09D+00  4.21D-01  9.96D-01  7.22D-01  7.97D-01
                    CP:  6.93D-01  9.75D-01  8.72D-01  9.44D-01  7.46D-01
 E= -398.880848664495     Delta-E=       -0.000000000822 Rises=F Damp=F
 DIIS: error= 3.52D-07 at cycle  11 NSaved=  11.
 NSaved=11 IEnMin=11 EnMin= -398.880848664495     IErMin=11 ErrMin= 3.52D-07
 ErrMax= 3.52D-07 EMaxC= 1.00D-01 BMatC= 2.53D-11 BMatP= 1.07D-09
 IDIUse=1 WtCom= 1.00D+00 WtEn= 0.00D+00
 Coeff-Com: -0.477D-05 0.102D-04-0.259D-04-0.405D-04-0.301D-03-0.637D-03
 Coeff-Com: -0.450D-02-0.296D-02 0.573D-01 0.145D+00 0.806D+00
 Coeff:     -0.477D-05 0.102D-04-0.259D-04-0.405D-04-0.301D-03-0.637D-03
 Coeff:     -0.450D-02-0.296D-02 0.573D-01 0.145D+00 0.806D+00
 Gap=     0.210 Goal=   None    Shift=    0.000
 RMSDP=4.66D-08 MaxDP=1.24D-06 DE=-8.22D-10 OVMax= 1.23D-06

 Cycle  12  Pass 1  IDiag  1:
 RMSU=  1.84D-08    CP:  1.09D+00  4.21D-01  9.96D-01  7.22D-01  7.98D-01
                    CP:  6.93D-01  9.75D-01  8.74D-01  9.51D-01  7.79D-01
                    CP:  1.03D+00
 E= -398.880848664510     Delta-E=       -0.000000000014 Rises=F Damp=F
 DIIS: error= 7.13D-08 at cycle  12 NSaved=  12.
 NSaved=12 IEnMin=12 EnMin= -398.880848664510     IErMin=12 ErrMin= 7.13D-08
 ErrMax= 7.13D-08 EMaxC= 1.00D-01 BMatC= 2.02D-12 BMatP= 2.53D-11
 IDIUse=1 WtCom= 1.00D+00 WtEn= 0.00D+00
 Coeff-Com: -0.224D-05 0.496D-05-0.868D-05-0.935D-05-0.112D-03-0.202D-03
 Coeff-Com: -0.230D-02-0.292D-02 0.932D-02 0.415D-01 0.382D+00 0.573D+00
 Coeff:     -0.224D-05 0.496D-05-0.868D-05-0.935D-05-0.112D-03-0.202D-03
 Coeff:     -0.230D-02-0.292D-02 0.932D-02 0.415D-01 0.382D+00 0.573D+00
 Gap=     0.210 Goal=   None    Shift=    0.000
 RMSDP=8.74D-09 MaxDP=3.13D-07 DE=-1.44D-11 OVMax= 2.95D-07

 Error on total polarization charges =  0.01241
 SCF Done:  E(RB3LYP) =  -398.880848665     A.U. after   12 cycles
             Convg  =    0.8741D-08             -V/T =  2.0024
 KE= 3.979132103267D+02 PE=-1.592789470389D+03 EE= 4.677082416016D+02
 Leave Link  502 at Tue Apr 19 19:12:42 2016, MaxMem=   33554432 cpu:     251.0
 (Enter c:\G09w02\l601.exe)
 Copying SCF densities to generalized density rwf, IOpCl= 0 IROHF=0.

 **********************************************************************

            Population analysis using the SCF density.

 **********************************************************************

 Alpha  occ. eigenvalues --  -19.16591 -19.16186 -19.08382 -14.38227 -10.31299
 Alpha  occ. eigenvalues --  -10.25842 -10.23048  -1.09912  -1.05433  -1.05071
 Alpha  occ. eigenvalues --   -0.94971  -0.80336  -0.73259  -0.61595  -0.58604
 Alpha  occ. eigenvalues --   -0.56321  -0.54230  -0.50609  -0.47970  -0.44540
 Alpha  occ. eigenvalues --   -0.42405  -0.41772  -0.39807  -0.36195  -0.31949
 Alpha  occ. eigenvalues --   -0.30303  -0.27409  -0.22543
 Alpha virt. eigenvalues --   -0.01511  -0.01254   0.01426   0.02061   0.03035
 Alpha virt. eigenvalues --    0.03443   0.04615   0.05200   0.05642   0.06319
 Alpha virt. eigenvalues --    0.07395   0.09043   0.09357   0.10377   0.10920
 Alpha virt. eigenvalues --    0.11956   0.12854   0.13836   0.14327   0.14755
 Alpha virt. eigenvalues --    0.15125   0.16098   0.16629   0.17415   0.17937
 Alpha virt. eigenvalues --    0.18476   0.19346   0.21773   0.22436   0.23091
 Alpha virt. eigenvalues --    0.23408   0.24358   0.24742   0.25601   0.26918
 Alpha virt. eigenvalues --    0.27720   0.28050   0.29442   0.29505   0.30511
 Alpha virt. eigenvalues --    0.31206   0.32788   0.33397   0.33818   0.35455
 Alpha virt. eigenvalues --    0.38025   0.40329   0.40571   0.46898   0.47361
 Alpha virt. eigenvalues --    0.50137   0.53038   0.53823   0.56109   0.57314
 Alpha virt. eigenvalues --    0.60294   0.60482   0.61899   0.63840   0.65196
 Alpha virt. eigenvalues --    0.67409   0.68642   0.69373   0.74936   0.80534
 Alpha virt. eigenvalues --    0.83103   0.84069   0.85644   0.87781   0.89400
 Alpha virt. eigenvalues --    0.95902   1.02250   1.04549   1.07285   1.07769
 Alpha virt. eigenvalues --    1.10226   1.11388   1.14436   1.17271   1.19076
 Alpha virt. eigenvalues --    1.20125   1.20964   1.25808   1.27842   1.33761
 Alpha virt. eigenvalues --    1.34690   1.40193   1.43508   1.45721   1.48636
 Alpha virt. eigenvalues --    1.50484   1.52275   1.54218   1.55586   1.56755
 Alpha virt. eigenvalues --    1.60003   1.62733   1.66261   1.68020   1.69080
 Alpha virt. eigenvalues --    1.70815   1.75607   1.78732   1.80732   1.83930
 Alpha virt. eigenvalues --    1.88276   1.93286   1.96704   2.03651   2.06108
 Alpha virt. eigenvalues --    2.06733   2.13301   2.16028   2.22510   2.29273
 Alpha virt. eigenvalues --    2.36605   2.40203   2.43975   2.48083   2.52210
 Alpha virt. eigenvalues --    2.56218   2.58025   2.61420   2.62107   2.69711
 Alpha virt. eigenvalues --    2.71627   2.73083   2.78087   2.82546   2.83580
 Alpha virt. eigenvalues --    2.86372   2.91853   2.92842   2.95607   3.00608
 Alpha virt. eigenvalues --    3.04123   3.07840   3.09677   3.12198   3.15239
 Alpha virt. eigenvalues --    3.15583   3.18364   3.21066   3.25084   3.27205
 Alpha virt. eigenvalues --    3.38036   3.49611   3.52399   3.65920   3.79716
 Alpha virt. eigenvalues --    3.84443   3.86561   3.94500   3.96835   4.09860
 Alpha virt. eigenvalues --    4.21341   4.29662   4.71134   4.84264   4.98700
 Alpha virt. eigenvalues --    5.05075   5.06444   5.17180   5.35875   5.41763
 Alpha virt. eigenvalues --    5.57253   5.61386   5.82174  23.70250  23.83363
 Alpha virt. eigenvalues --   24.33708  35.54871  49.86504  49.89805  49.98126
          Condensed to atoms (all electrons):
              1          2          3          4          5          6
     1  N    6.931773   0.376517  -0.349002   0.003618  -0.287724   0.332132
     2  H    0.376517   0.387452  -0.097140  -0.000119  -0.017233   0.058564
     3  C   -0.349002  -0.097140   8.709480  -0.017309   0.319061  -2.220357
     4  H    0.003618  -0.000119  -0.017309   0.412370  -0.083073   0.101100
     5  C   -0.287724  -0.017233   0.319061  -0.083073   6.490599  -1.074454
     6  C    0.332132   0.058564  -2.220357   0.101100  -1.074454   8.659508
     7  H    0.008659  -0.006536  -0.066858  -0.002603   0.462465  -0.053653
     8  H    0.003528   0.003769  -0.046332   0.005331   0.370745   0.015298
     9  O    0.003366   0.000617  -0.018578   0.004080   0.172842  -0.088750
    10  O   -0.086099   0.004363  -0.195590   0.011698   0.010893   0.343456
    11  H   -0.001175  -0.000090  -0.043002  -0.002895   0.027944   0.030200
    12  H    0.287816  -0.030982   0.094120  -0.000073   0.054414  -0.148618
    13  O   -0.043230   0.000355   0.060387   0.242325   0.152605  -0.167256
    14  H    0.057662   0.000481  -0.476056   0.003902  -0.086375   0.377743
              7          8          9         10         11         12
     1  N    0.008659   0.003528   0.003366  -0.086099  -0.001175   0.287816
     2  H   -0.006536   0.003769   0.000617   0.004363  -0.000090  -0.030982
     3  C   -0.066858  -0.046332  -0.018578  -0.195590  -0.043002   0.094120
     4  H   -0.002603   0.005331   0.004080   0.011698  -0.002895  -0.000073
     5  C    0.462465   0.370745   0.172842   0.010893   0.027944   0.054414
     6  C   -0.053653   0.015298  -0.088750   0.343456   0.030200  -0.148618
     7  H    0.554684  -0.054655  -0.032317   0.000029  -0.005350   0.001749
     8  H   -0.054655   0.576467  -0.072415  -0.000532   0.000278   0.000773
     9  O   -0.032317  -0.072415   8.177020  -0.001162   0.246158  -0.000590
    10  O    0.000029  -0.000532  -0.001162   8.496868  -0.000703   0.047619
    11  H   -0.005350   0.000278   0.246158  -0.000703   0.442143  -0.000383
    12  H    0.001749   0.000773  -0.000590   0.047619  -0.000383   0.423682
    13  O    0.000540  -0.006258  -0.010910  -0.107381  -0.002046   0.009664
    14  H   -0.005102  -0.004679   0.008331   0.086546   0.001683   0.001294
             13         14
     1  N   -0.043230   0.057662
     2  H    0.000355   0.000481
     3  C    0.060387  -0.476056
     4  H    0.242325   0.003902
     5  C    0.152605  -0.086375
     6  C   -0.167256   0.377743
     7  H    0.000540  -0.005102
     8  H   -0.006258  -0.004679
     9  O   -0.010910   0.008331
    10  O   -0.107381   0.086546
    11  H   -0.002046   0.001683
    12  H    0.009664   0.001294
    13  O    8.141419   0.007192
    14  H    0.007192   0.799995
 Mulliken atomic charges:
              1
     1  N   -0.237841
     2  H    0.319980
     3  C    0.347176
     4  H    0.321647
     5  C   -0.512709
     6  C   -0.164913
     7  H    0.198947
     8  H    0.208682
     9  O   -0.387691
    10  O   -0.610004
    11  H    0.307238
    12  H    0.259514
    13  O   -0.277409
    14  H    0.227383
 Sum of Mulliken atomic charges =   0.00000
 Mulliken charges with hydrogens summed into heavy atoms:
              1
     1  N    0.341653
     3  C    0.574559
     5  C   -0.105080
     6  C   -0.164913
     9  O   -0.080453
    10  O   -0.610004
    13  O    0.044238
 Sum of Mulliken charges with hydrogens summed into heavy atoms =   0.00000
 Electronic spatial extent (au):  <R**2>=            787.0629
 Charge=              0.0000 electrons
 Dipole moment (field-independent basis, Debye):
    X=              9.5999    Y=              3.0896    Z=              2.5166  Tot=             10.3941
 Quadrupole moment (field-independent basis, Debye-Ang):
   XX=            -50.6874   YY=            -34.2652   ZZ=            -42.4055
   XY=             -4.8105   XZ=              4.1585   YZ=              6.2768
 Traceless Quadrupole moment (field-independent basis, Debye-Ang):
   XX=             -8.2347   YY=              8.1875   ZZ=              0.0472
   XY=             -4.8105   XZ=              4.1585   YZ=              6.2768
 Octapole moment (field-independent basis, Debye-Ang**2):
  XXX=             86.9815  YYY=             -9.3247  ZZZ=            -17.2276  XYY=             12.7948
  XXY=            -14.7519  XXZ=            -12.3678  XZZ=              8.0499  YZZ=             -3.7638
  YYZ=              6.4351  XYZ=              0.4636
 Hexadecapole moment (field-independent basis, Debye-Ang**3):
 XXXX=           -548.9065 YYYY=           -330.1109 ZZZZ=            -85.3127 XXXY=             -4.1025
 XXXZ=             48.4456 YYYX=            -13.7416 YYYZ=             13.8728 ZZZX=             41.2949
 ZZZY=            -28.5452 XXYY=           -129.1805 XXZZ=           -104.7953 YYZZ=            -67.6688
 XXYZ=             -9.2293 YYXZ=             11.2561 ZZXY=              8.1381
 N-N= 3.282871697958D+02 E-N=-1.592789468574D+03  KE= 3.979132103267D+02
 No NMR shielding tensors so no spin-rotation constants.
 Leave Link  601 at Tue Apr 19 19:12:42 2016, MaxMem=   33554432 cpu:       0.0
 (Enter c:\G09w02\l701.exe)
 Compute integral first derivatives.
 ... and contract with generalized density number  0.
 D1PCM: C-PCM CHGder 1st derivatives, ID1Alg=3 FixD1E=F DoIter=F DoCFld=F I1PDM=0.
 GePol: Maximum number of non-zero 1st derivatives   =     205
 Leave Link  701 at Tue Apr 19 19:12:47 2016, MaxMem=   33554432 cpu:       5.0
 (Enter c:\G09w02\l702.exe)
 L702 exits ... SP integral derivatives will be done elsewhere.
 Leave Link  702 at Tue Apr 19 19:12:47 2016, MaxMem=   33554432 cpu:       0.0
 (Enter c:\G09w02\l703.exe)
 Compute integral first derivatives, UseDBF=F ICtDFT=           0.
 Integral derivatives from FoFDir, PRISM(SPDF).
 Calling FoFJK, ICntrl=      2127 FMM=F ISym2X=0 I1Cent= 0 IOpClX= 0 NMat=1 NMatS=1 NMatT=0.
 FoFCou: FMM=F IPFlag=           0 FMFlag=      100000 FMFlg1=         800
         NFxFlg=           0 DoJE=F BraDBF=F KetDBF=F FulRan=T
         Omega=  0.000000  0.000000  1.000000  0.000000  0.000000 ICntrl=    2127 IOpCl=  0
         NMat0=    1 NMatS0=    1 NMatT0=    0 NMatD0=    1 NMtDS0=    0 NMtDT0=    0
         I1Cent=           0 NGrid=           0.
 Symmetry not used in FoFCou.
 Leave Link  703 at Tue Apr 19 19:13:50 2016, MaxMem=   33554432 cpu:      63.0
 (Enter c:\G09w02\l716.exe)
 Dipole        = 3.77690981D+00 1.21554050D+00 9.90119256D-01
 -------------------------------------------------------------------
 Center     Atomic                   Forces (Hartrees/Bohr)
 Number     Number              X              Y              Z
 -------------------------------------------------------------------
      1        7          -0.001618466    0.072082334   -0.034297336
      2        1           0.000351920   -0.004868710    0.004703914
      3        6           0.164830291   -0.090780827   -0.101544775
      4        1           0.001990683   -0.003509007   -0.000092992
      5        6           0.012037090   -0.004040255    0.012242083
      6        6          -0.146041071   -0.037954064   -0.035543654
      7        1          -0.002648183    0.000687618   -0.000271207
      8        1           0.000545885    0.000520302   -0.001341672
      9        8          -0.005589330    0.006511263    0.001523816
     10        8           0.071542314   -0.012696475   -0.004674946
     11        1           0.000066514    0.000595595    0.000985046
     12        1          -0.008564820    0.016723697   -0.011594473
     13        8           0.017299678    0.014076128    0.006926922
     14        1          -0.104202503    0.042652400    0.162979275
 -------------------------------------------------------------------
 Cartesian Forces:  Max     0.164830291 RMS     0.053931740
 Leave Link  716 at Tue Apr 19 19:13:50 2016, MaxMem=   33554432 cpu:       0.0
 (Enter c:\G09w02\l103.exe)

 GradGradGradGradGradGradGradGradGradGradGradGradGradGradGradGradGradGrad
 Berny optimization.
 Internal  Forces:  Max     0.110748634 RMS     0.023474678
 Search for a local minimum.
 Step number   1 out of a maximum of   76
 All quantities printed in internal units (Hartrees-Bohrs-Radians)
 RMS Force = .23475D-01 SwitMx=.10000D-02 MixMth= 1
 Mixed Optimization -- RFO/linear search
 Second derivative matrix not updated -- first step.
 ITU=  0
     Eigenvalues ---    0.00860   0.01051   0.01599   0.01914   0.02178
     Eigenvalues ---    0.02320   0.02508   0.03439   0.05314   0.06016
     Eigenvalues ---    0.06106   0.06463   0.08009   0.11319   0.13005
     Eigenvalues ---    0.13778   0.14212   0.15713   0.16000   0.17013
     Eigenvalues ---    0.19294   0.21584   0.22318   0.30668   0.32793
     Eigenvalues ---    0.33975   0.34304   0.36965   0.38543   0.42183
     Eigenvalues ---    0.44851   0.45252   0.51053   0.52024   0.52226
     Eigenvalues ---    0.54570
 RFO step:  Lambda=-8.15063056D-02 EMin= 8.59517219D-03
 Linear search not attempted -- first point.
 Maximum step size (   0.300) exceeded in Quadratic search.
    -- Step size scaled by   0.690
 Iteration  1 RMS(Cart)=  0.03146435 RMS(Int)=  0.00207442
 Iteration  2 RMS(Cart)=  0.00147175 RMS(Int)=  0.00076747
 Iteration  3 RMS(Cart)=  0.00000524 RMS(Int)=  0.00076745
 Iteration  4 RMS(Cart)=  0.00000000 RMS(Int)=  0.00076745
 Variable       Old X    -DE/DX   Delta X   Delta X   Delta X     New X
                                 (Linear)    (Quad)   (Total)
    R1        1.92150   0.00176   0.00000   0.00229   0.00229   1.92379
    R2        2.70512   0.05246   0.00000   0.07766   0.07543   2.78054
    R3        1.91685   0.01128   0.00000   0.01457   0.01457   1.93141
    R4        2.36109   0.05449   0.00000   0.10389   0.10596   2.46705
    R5        2.84393   0.00237   0.00000   0.00546   0.00533   2.84925
    R6        2.53551   0.04560   0.00000   0.05782   0.05592   2.59144
    R7        1.83303   0.11075   0.00000   0.15368   0.15530   1.98833
    R8        3.40008  -0.00003   0.00000  -0.00549  -0.00531   3.39477
    R9        1.85205   0.00252   0.00000   0.00188   0.00203   1.85409
   R10        2.06820  -0.00085   0.00000  -0.00138  -0.00138   2.06682
   R11        2.07372  -0.00112   0.00000  -0.00184  -0.00184   2.07188
   R12        2.73720  -0.00766   0.00000  -0.01160  -0.01157   2.72563
   R13        2.57876  -0.07198   0.00000  -0.08251  -0.08251   2.49625
   R14        2.57636  -0.01025   0.00000  -0.01127  -0.01133   2.56503
   R15        2.61975   0.05348   0.00000   0.10127   0.10214   2.72189
   R16        1.82216  -0.00001   0.00000  -0.00001  -0.00001   1.82215
    A1        1.95196  -0.00122   0.00000  -0.00133  -0.00163   1.95033
    A2        1.87148  -0.00190   0.00000   0.00963   0.00959   1.88107
    A3        1.82823  -0.01693   0.00000  -0.04229  -0.04238   1.78586
    A4        1.93339   0.02461   0.00000   0.05036   0.04878   1.98217
    A5        1.30268   0.00395   0.00000   0.04315   0.04428   1.34695
    A6        2.01454   0.00444   0.00000  -0.00578  -0.00449   2.01005
    A7        2.12899  -0.02734   0.00000  -0.02140  -0.02247   2.10652
    A8        2.13852   0.02302   0.00000   0.02755   0.02732   2.16584
    A9        2.62240  -0.01326   0.00000  -0.05584  -0.05450   2.56789
   A10        1.89345  -0.00119   0.00000  -0.00828  -0.00824   1.88521
   A11        1.95087   0.00364   0.00000   0.00984   0.00995   1.96082
   A12        1.92047  -0.00816   0.00000  -0.01512  -0.01545   1.90502
   A13        1.88658  -0.00023   0.00000   0.00212   0.00209   1.88868
   A14        1.91411   0.00338   0.00000   0.00436   0.00436   1.91846
   A15        1.89791   0.00276   0.00000   0.00738   0.00748   1.90539
   A16        2.12135   0.01067   0.00000   0.00444   0.00392   2.12527
   A17        2.20295  -0.03514   0.00000  -0.05017  -0.04897   2.15398
   A18        1.95883   0.02442   0.00000   0.04572   0.04504   2.00387
   A19        1.44808  -0.01494   0.00000  -0.02147  -0.02101   1.42707
   A20        2.76711  -0.01643   0.00000  -0.04355  -0.04373   2.72338
   A21        1.90023  -0.00203   0.00000  -0.00579  -0.00579   1.89444
   A22        1.86128   0.00558   0.00000   0.01944   0.01924   1.88051
   A23        2.33658  -0.04956   0.00000  -0.09994  -0.09878   2.23780
    D1       -1.02693   0.00590   0.00000   0.01679   0.01707  -1.00986
    D2        2.16449   0.00252   0.00000   0.00782   0.00792   2.17241
    D3       -3.11360  -0.00752   0.00000  -0.02855  -0.02877   3.14081
    D4        0.07782  -0.01090   0.00000  -0.03752  -0.03793   0.03990
    D5       -2.59406  -0.00179   0.00000  -0.02015  -0.02060  -2.61467
    D6        1.87052  -0.00426   0.00000  -0.04822  -0.04700   1.82352
    D7       -0.40716  -0.00052   0.00000   0.00024  -0.00012  -0.40728
    D8        1.67137   0.00062   0.00000   0.00349   0.00314   1.67451
    D9       -2.50121   0.00095   0.00000   0.00902   0.00854  -2.49267
   D10        2.68430   0.00128   0.00000   0.00771   0.00778   2.69207
   D11       -1.52036   0.00243   0.00000   0.01096   0.01103  -1.50932
   D12        0.59025   0.00276   0.00000   0.01649   0.01644   0.60668
   D13       -1.65598  -0.00312   0.00000  -0.01392  -0.01360  -1.66959
   D14        0.42255  -0.00197   0.00000  -0.01067  -0.01035   0.41220
   D15        2.53315  -0.00164   0.00000  -0.00514  -0.00494   2.52821
   D16       -0.12799   0.00300   0.00000  -0.00399  -0.00457  -0.13256
   D17        3.00089  -0.00294   0.00000  -0.00577  -0.00512   2.99577
   D18        3.06699   0.00005   0.00000  -0.01251  -0.01349   3.05349
   D19       -0.08732  -0.00589   0.00000  -0.01429  -0.01405  -0.10137
   D20       -2.83092  -0.00161   0.00000  -0.00641  -0.00639  -2.83731
   D21        1.37077   0.00278   0.00000   0.01036   0.01042   1.38119
   D22       -0.68882  -0.00051   0.00000   0.00097   0.00090  -0.68793
   D23       -0.23708   0.00875   0.00000   0.01696   0.01595  -0.22113
   D24        2.89281   0.00325   0.00000   0.01514   0.01523   2.90804
   D25       -1.07386  -0.01035   0.00000  -0.02150  -0.02059  -1.09444
   D26       -1.97064  -0.00099   0.00000   0.02154   0.02341  -1.94723
   D27        1.92575   0.00316   0.00000   0.03829   0.03784   1.96359
         Item               Value     Threshold  Converged?
 Maximum Force            0.110749     0.000450     NO 
 RMS     Force            0.023475     0.000300     NO 
 Maximum Displacement     0.148941     0.001800     NO 
 RMS     Displacement     0.030912     0.001200     NO 
 Predicted change in Energy=-4.085645D-02
 GradGradGradGradGradGradGradGradGradGradGradGradGradGradGradGradGradGrad

 Leave Link  103 at Tue Apr 19 19:13:50 2016, MaxMem=   33554432 cpu:       0.0
 (Enter c:\G09w02\l202.exe)
                          Input orientation:                          
 ---------------------------------------------------------------------
 Center     Atomic      Atomic             Coordinates (Angstroms)
 Number     Number       Type             X           Y           Z
 ---------------------------------------------------------------------
      1          7           0       -0.156172    2.209852    0.314754
      2          1           0        0.317332    2.641983    1.105595
      3          6           0        0.045990    0.752647    0.288222
      4          1           0        0.003476   -1.621673   -0.234019
      5          6           0        1.484968    0.305845    0.233002
      6          6           0       -1.025832   -0.102465    0.265373
      7          1           0        2.076987    1.123189   -0.188512
      8          1           0        1.886140    0.068488    1.225373
      9          8           0        1.586378   -0.859999   -0.610133
     10          8           0       -2.264688    0.331039    0.414524
     11          1           0        2.426161   -1.297660   -0.428532
     12          1           0       -1.139705    2.485406    0.351363
     13          8           0       -0.909832   -1.441515    0.075896
     14          1           0       -0.727397    1.172788    0.864797
 ---------------------------------------------------------------------
                    Distance matrix (angstroms):
                    1          2          3          4          5
     1  N    0.000000
     2  H    1.018024   0.000000
     3  C    1.471400   2.076370   0.000000
     4  H    3.873915   4.480159   2.431448   0.000000
     5  C    2.515008   2.753604   1.507760   2.475530   0.000000
     6  C    2.470942   3.168920   1.371329   1.901804   2.543989
     7  H    2.533991   2.660420   2.118850   3.440318   1.093715
     8  H    3.096079   3.016352   2.175426   2.920769   1.096393
     9  O    3.649093   4.100985   2.404259   1.796437   1.442343
    10  O    2.825903   3.533392   2.352220   3.062394   3.754131
    11  H    4.418547   4.724563   3.222221   2.451983   1.973499
    12  H    1.022060   1.648131   2.100550   4.303211   3.413708
    13  O    3.735978   4.386475   2.402712   0.981140   2.968672
    14  H    1.305506   1.818784   1.052181   3.090402   2.458722
                    6          7          8          9         10
     6  C    0.000000
     7  H    3.366857   0.000000
     8  H    3.070896   1.774229   0.000000
     9  O    2.857273   2.086024   2.078709   0.000000
    10  O    1.320960   4.454357   4.237426   4.159230   0.000000
    11  H    3.718366   2.457650   2.212100   0.964242   5.036612
    12  H    2.591802   3.534715   3.970028   4.421282   2.431228
    13  O    1.357355   3.945720   3.379181   2.653273   2.256601
    14  H    1.440362   2.996079   2.860081   3.414849   1.809572
                   11         12         13         14
    11  H    0.000000
    12  H    5.256921   0.000000
    13  O    3.376979   3.943276   0.000000
    14  H    4.209601   1.468529   2.736828   0.000000
 Symmetry turned off by external request.
 Stoichiometry    C3H7NO3
 Framework group  C1[X(C3H7NO3)]
 Deg. of freedom    36
 Full point group                 C1      NOp   1
 Rotational constants (GHZ):      3.4469963      2.4865159      1.4953265
 Leave Link  202 at Tue Apr 19 19:13:50 2016, MaxMem=   33554432 cpu:       0.0
 (Enter c:\G09w02\l301.exe)
 Standard basis: 6-311++G(d,p) (5D, 7F)
 Ernie: Thresh=  0.10000D-02 Tol=  0.10000D-05 Strict=F.
 Integral buffers will be    262144 words long.
 Raffenetti 2 integral format.
 Two-electron integral symmetry is turned off.
   203 basis functions,   315 primitive gaussians,   210 cartesian basis functions
    28 alpha electrons       28 beta electrons
       nuclear repulsion energy       326.9823095006 Hartrees.
 IExCor=  402 DFT=T Ex+Corr=B3LYP ExCW=0 ScaHFX=  0.200000
 ScaDFX=  0.800000  0.720000  1.000000  0.810000 ScalE2=  1.000000  1.000000
 IRadAn=      0 IRanWt=     -1 IRanGd=            0 ICorTp=0
 NAtoms=   14 NActive=   14 NUniq=   14 SFac= 1.00D+00 NAtFMM=   50 NAOKFM=F Big=F
 ------------------------------------------------------------------------------
 Polarizable Continuum Model (PCM)
 =================================
 Model                : C-PCM.
 Atomic radii         : UFF (Universal Force Field).
 Polarization charges : Total charges.
 Charge compensation  : None.
 Solution method      : Matrix inversion.
 Cavity type          : Scaled VdW (van der Waals Surface) (Alpha=1.100).
 Cavity algorithm     : GePol (No added spheres)
                        Default sphere list used, NSphG=   14.
                        Lebedev-Laikov grids with approx.  5.0 points / Ang**2.
                        Smoothing algorithm: Karplus/York (Gamma=1.0000).
                        Polarization charges: spherical gaussians, with
                                              point-specific exponents (IZeta= 3).
                        Self-potential: point-specific (ISelfS= 7).
                        Self-field    : sphere-specific E.n sum rule (ISelfD= 2).
 1st derivatives      : Analytical E(r).r(x)/FMM algorithm (CHGder, D1EAlg=3).
                        Cavity 1st derivative terms included.
 Solvent              : Water, Eps=  78.355300 Eps(inf)=   1.777849
 ------------------------------------------------------------------------------
 Spheres list:
 ISph  on   Nord    Re0     Alpha      Xe            Ye            Ze
    1   N      1    1.830   1.100     -0.156172      2.209852      0.314754
    2   H      2    1.443   1.100      0.317332      2.641983      1.105595
    3   C      3    1.926   1.100      0.045990      0.752647      0.288222
    4   H      4    1.443   1.100      0.003476     -1.621673     -0.234019
    5   C      5    1.926   1.100      1.484968      0.305845      0.233002
    6   C      6    1.926   1.100     -1.025832     -0.102465      0.265373
    7   H      7    1.443   1.100      2.076987      1.123189     -0.188512
    8   H      8    1.443   1.100      1.886140      0.068488      1.225373
    9   O      9    1.750   1.100      1.586378     -0.859999     -0.610133
   10   O     10    1.750   1.100     -2.264688      0.331039      0.414524
   11   H     11    1.443   1.100      2.426161     -1.297660     -0.428532
   12   H     12    1.443   1.100     -1.139705      2.485406      0.351363
   13   O     13    1.750   1.100     -0.909832     -1.441515      0.075896
   14   H     14    1.443   1.100     -0.727397      1.172788      0.864797
 ------------------------------------------------------------------------------
 GePol: Number of generator spheres                  =      14
 GePol: Total number of spheres                      =      14
 GePol: Number of exposed spheres                    =      14 (100.00%)
 GePol: Number of points                             =    1193
 GePol: Average weight of points                     =       0.13
 GePol: Minimum weight of points                     =   0.19D-07
 GePol: Maximum weight of points                     =    0.20577
 GePol: Number of points with low weight             =      65
 GePol: Fraction of low-weight points (<1% of avg)   =       5.45%
 GePol: Cavity surface area                          =    154.847 Ang**2
 GePol: Cavity volume                                =    145.253 Ang**3
 Leave Link  301 at Tue Apr 19 19:13:50 2016, MaxMem=   33554432 cpu:       0.0
 (Enter c:\G09w02\l302.exe)
 NPDir=0 NMtPBC=     1 NCelOv=     1 NCel=       1 NClECP=     1 NCelD=      1
         NCelK=      1 NCelE2=     1 NClLst=     1 CellRange=     0.0.
 One-electron integrals computed using PRISM.
 NBasis=   203 RedAO= T  NBF=   203
 NBsUse=   203 1.00D-06 NBFU=   203
 Precomputing XC quadrature grid using
 IXCGrd= 2 IRadAn=           0 IRanWt=          -1 IRanGd=           0 AccXCQ= 0.00D+00.
 NRdTot=     908 NPtTot=      115542 NUsed=      119780 NTot=      119796
 NSgBfM=   210   210   210   210   210 NAtAll=    14    14.
 Leave Link  302 at Tue Apr 19 19:13:51 2016, MaxMem=   33554432 cpu:       0.0
 (Enter c:\G09w02\l303.exe)
 DipDrv:  MaxL=1.
 Leave Link  303 at Tue Apr 19 19:13:51 2016, MaxMem=   33554432 cpu:       0.0
 (Enter c:\G09w02\l401.exe)
 Initial guess read from the read-write file.
 B after Tr=     0.000000    0.000000    0.000000
         Rot=    1.000000    0.000000    0.000000    0.000000 Ang=   0.00 deg.
 Guess basis will be translated and rotated to current coordinates.
 Generating alternative initial guess.
 Harris functional with IExCor=  402 diagonalized for initial guess.
 ExpMin= 3.60D-02 ExpMax= 8.59D+03 ExpMxC= 1.30D+03 IAcc=3 IRadAn=         0 AccDes= 0.00D+00
 HarFok:  IExCor=  402 AccDes= 0.00D+00 IRadAn=         0 IDoV= 1
 ScaDFX=  1.000000  1.000000  1.000000  1.000000
 FoFCou: FMM=F IPFlag=           0 FMFlag=      100000 FMFlg1=           0
         NFxFlg=           0 DoJE=T BraDBF=F KetDBF=T FulRan=T
         Omega=  0.000000  0.000000  1.000000  0.000000  0.000000 ICntrl=     500 IOpCl=  0
         NMat0=    1 NMatS0=    1 NMatT0=    0 NMatD0=    1 NMtDS0=    0 NMtDT0=    0
         I1Cent=           4 NGrid=           0.
 Symmetry not used in FoFCou.
 Harris En= -398.923255362034    
 Leave Link  401 at Tue Apr 19 19:13:58 2016, MaxMem=   33554432 cpu:       7.0
 (Enter c:\G09w02\l502.exe)
 Closed shell SCF:
 Requested convergence on RMS density matrix=1.00D-08 within 128 cycles.
 Requested convergence on MAX density matrix=1.00D-06.
 Requested convergence on             energy=1.00D-06.
 No special actions if energy rises.
 Using DIIS extrapolation, IDIIS=  1040.
 Two-electron integral symmetry not used.
       119656 words used for storage of precomputed grid.
 IEnd=      272521 IEndB=      272521 NGot=    33554432 MDV=    33342862
 LenX=    33342862 LenY=    33298321
 Fock matrices will be formed incrementally for  20 cycles.

 Cycle   1  Pass 1  IDiag  1:
 FoFCou: FMM=F IPFlag=           0 FMFlag=      100000 FMFlg1=           0
         NFxFlg=           0 DoJE=F BraDBF=F KetDBF=F FulRan=T
         Omega=  0.000000  0.000000  1.000000  0.000000  0.000000 ICntrl=       0 IOpCl=  0
         NMat0=    1 NMatS0=    1 NMatT0=    0 NMatD0=    1 NMtDS0=    0 NMtDT0=    0
         I1Cent=           0 NGrid=           0.
 Symmetry not used in FoFCou.
 E= -398.919714393141    
 DIIS: error= 2.52D-03 at cycle   1 NSaved=   1.
 NSaved= 1 IEnMin= 1 EnMin= -398.919714393141     IErMin= 1 ErrMin= 2.52D-03
 ErrMax= 2.52D-03 EMaxC= 1.00D-01 BMatC= 5.90D-03 BMatP= 5.90D-03
 IDIUse=3 WtCom= 9.75D-01 WtEn= 2.52D-02
 Coeff-Com:  0.100D+01
 Coeff-En:   0.100D+01
 Coeff:      0.100D+01
 Gap=     0.212 Goal=   None    Shift=    0.000
 GapD=    0.212 DampG=1.000 DampE=1.000 DampFc=1.0000 IDamp=-1.
 RMSDP=2.88D-03 MaxDP=2.25D-01              OVMax= 2.38D-02

 Cycle   2  Pass 1  IDiag  1:
 RMSU=  1.55D-03    CP:  9.17D-01
 E= -398.924517361984     Delta-E=       -0.004802968844 Rises=F Damp=F
 DIIS: error= 2.46D-03 at cycle   2 NSaved=   2.
 NSaved= 2 IEnMin= 2 EnMin= -398.924517361984     IErMin= 2 ErrMin= 2.46D-03
 ErrMax= 2.46D-03 EMaxC= 1.00D-01 BMatC= 1.64D-03 BMatP= 5.90D-03
 IDIUse=3 WtCom= 9.75D-01 WtEn= 2.46D-02
 Coeff-Com:  0.275D+00 0.725D+00
 Coeff-En:   0.000D+00 0.100D+01
 Coeff:      0.269D+00 0.731D+00
 Gap=     0.208 Goal=   None    Shift=    0.000
 RMSDP=6.11D-04 MaxDP=4.23D-02 DE=-4.80D-03 OVMax= 2.99D-02

 Cycle   3  Pass 1  IDiag  1:
 RMSU=  3.24D-04    CP:  9.33D-01  9.12D-01
 E= -398.924074973490     Delta-E=        0.000442388495 Rises=F Damp=F
 DIIS: error= 3.36D-03 at cycle   3 NSaved=   3.
 NSaved= 3 IEnMin= 2 EnMin= -398.924517361984     IErMin= 2 ErrMin= 2.46D-03
 ErrMax= 3.36D-03 EMaxC= 1.00D-01 BMatC= 2.31D-03 BMatP= 1.64D-03
 IDIUse=3 WtCom= 1.47D-01 WtEn= 8.53D-01
 Coeff-Com:  0.121D-01 0.541D+00 0.447D+00
 Coeff-En:   0.000D+00 0.557D+00 0.443D+00
 Coeff:      0.179D-02 0.554D+00 0.444D+00
 Gap=     0.208 Goal=   None    Shift=    0.000
 RMSDP=4.14D-04 MaxDP=2.55D-02 DE= 4.42D-04 OVMax= 1.44D-02

 Cycle   4  Pass 1  IDiag  1:
 RMSU=  1.27D-04    CP:  9.23D-01  9.82D-01  4.71D-01
 E= -398.925802837884     Delta-E=       -0.001727864394 Rises=F Damp=F
 DIIS: error= 4.19D-04 at cycle   4 NSaved=   4.
 NSaved= 4 IEnMin= 4 EnMin= -398.925802837884     IErMin= 4 ErrMin= 4.19D-04
 ErrMax= 4.19D-04 EMaxC= 1.00D-01 BMatC= 7.17D-05 BMatP= 1.64D-03
 IDIUse=3 WtCom= 9.96D-01 WtEn= 4.19D-03
 Coeff-Com: -0.912D-02 0.266D+00 0.244D+00 0.499D+00
 Coeff-En:   0.000D+00 0.000D+00 0.000D+00 0.100D+01
 Coeff:     -0.908D-02 0.265D+00 0.243D+00 0.501D+00
 Gap=     0.206 Goal=   None    Shift=    0.000
 RMSDP=8.15D-05 MaxDP=4.50D-03 DE=-1.73D-03 OVMax= 1.89D-03

 Cycle   5  Pass 1  IDiag  1:
 RMSU=  3.09D-05    CP:  9.21D-01  9.98D-01  4.73D-01  7.24D-01
 E= -398.925859336739     Delta-E=       -0.000056498855 Rises=F Damp=F
 DIIS: error= 1.13D-04 at cycle   5 NSaved=   5.
 NSaved= 5 IEnMin= 5 EnMin= -398.925859336739     IErMin= 5 ErrMin= 1.13D-04
 ErrMax= 1.13D-04 EMaxC= 1.00D-01 BMatC= 4.23D-06 BMatP= 7.17D-05
 IDIUse=3 WtCom= 9.99D-01 WtEn= 1.13D-03
 Coeff-Com: -0.556D-02 0.837D-01 0.844D-01 0.235D+00 0.603D+00
 Coeff-En:   0.000D+00 0.000D+00 0.000D+00 0.000D+00 0.100D+01
 Coeff:     -0.555D-02 0.836D-01 0.843D-01 0.235D+00 0.603D+00
 Gap=     0.206 Goal=   None    Shift=    0.000
 RMSDP=1.67D-05 MaxDP=4.68D-04 DE=-5.65D-05 OVMax= 6.85D-04

 Cycle   6  Pass 1  IDiag  1:
 RMSU=  1.09D-05    CP:  9.21D-01  9.98D-01  4.77D-01  7.07D-01  8.80D-01
 E= -398.925862288155     Delta-E=       -0.000002951416 Rises=F Damp=F
 DIIS: error= 5.74D-05 at cycle   6 NSaved=   6.
 NSaved= 6 IEnMin= 6 EnMin= -398.925862288155     IErMin= 6 ErrMin= 5.74D-05
 ErrMax= 5.74D-05 EMaxC= 1.00D-01 BMatC= 7.02D-07 BMatP= 4.23D-06
 IDIUse=1 WtCom= 1.00D+00 WtEn= 0.00D+00
 Coeff-Com: -0.199D-02 0.182D-01 0.206D-01 0.724D-01 0.330D+00 0.561D+00
 Coeff:     -0.199D-02 0.182D-01 0.206D-01 0.724D-01 0.330D+00 0.561D+00
 Gap=     0.206 Goal=   None    Shift=    0.000
 RMSDP=6.62D-06 MaxDP=1.46D-04 DE=-2.95D-06 OVMax= 2.43D-04

 Cycle   7  Pass 1  IDiag  1:
 RMSU=  3.10D-06    CP:  9.21D-01  9.98D-01  4.81D-01  7.22D-01  9.39D-01
                    CP:  8.24D-01
 E= -398.925862751513     Delta-E=       -0.000000463358 Rises=F Damp=F
 DIIS: error= 1.08D-05 at cycle   7 NSaved=   7.
 NSaved= 7 IEnMin= 7 EnMin= -398.925862751513     IErMin= 7 ErrMin= 1.08D-05
 ErrMax= 1.08D-05 EMaxC= 1.00D-01 BMatC= 6.67D-08 BMatP= 7.02D-07
 IDIUse=1 WtCom= 1.00D+00 WtEn= 0.00D+00
 Coeff-Com: -0.831D-04-0.367D-02-0.330D-02-0.545D-03 0.757D-01 0.278D+00
 Coeff-Com:  0.654D+00
 Coeff:     -0.831D-04-0.367D-02-0.330D-02-0.545D-03 0.757D-01 0.278D+00
 Coeff:      0.654D+00
 Gap=     0.206 Goal=   None    Shift=    0.000
 RMSDP=2.54D-06 MaxDP=9.13D-05 DE=-4.63D-07 OVMax= 1.25D-04

 Cycle   8  Pass 1  IDiag  1:
 RMSU=  1.48D-06    CP:  9.21D-01  9.98D-01  4.81D-01  7.28D-01  9.47D-01
                    CP:  8.62D-01  8.75D-01
 E= -398.925862806161     Delta-E=       -0.000000054648 Rises=F Damp=F
 DIIS: error= 3.45D-06 at cycle   8 NSaved=   8.
 NSaved= 8 IEnMin= 8 EnMin= -398.925862806161     IErMin= 8 ErrMin= 3.45D-06
 ErrMax= 3.45D-06 EMaxC= 1.00D-01 BMatC= 4.80D-09 BMatP= 6.67D-08
 IDIUse=1 WtCom= 1.00D+00 WtEn= 0.00D+00
 Coeff-Com:  0.817D-04-0.291D-02-0.331D-02-0.524D-02 0.859D-02 0.735D-01
 Coeff-Com:  0.282D+00 0.647D+00
 Coeff:      0.817D-04-0.291D-02-0.331D-02-0.524D-02 0.859D-02 0.735D-01
 Coeff:      0.282D+00 0.647D+00
 Gap=     0.206 Goal=   None    Shift=    0.000
 RMSDP=8.34D-07 MaxDP=3.42D-05 DE=-5.46D-08 OVMax= 1.56D-05

 Cycle   9  Pass 1  IDiag  1:
 RMSU=  3.91D-07    CP:  9.21D-01  9.98D-01  4.81D-01  7.30D-01  9.53D-01
                    CP:  8.76D-01  9.36D-01  9.16D-01
 E= -398.925862809640     Delta-E=       -0.000000003479 Rises=F Damp=F
 DIIS: error= 1.39D-06 at cycle   9 NSaved=   9.
 NSaved= 9 IEnMin= 9 EnMin= -398.925862809640     IErMin= 9 ErrMin= 1.39D-06
 ErrMax= 1.39D-06 EMaxC= 1.00D-01 BMatC= 9.42D-10 BMatP= 4.80D-09
 IDIUse=1 WtCom= 1.00D+00 WtEn= 0.00D+00
 Coeff-Com:  0.670D-04-0.128D-02-0.166D-02-0.305D-02-0.422D-02 0.875D-02
 Coeff-Com:  0.884D-01 0.361D+00 0.552D+00
 Coeff:      0.670D-04-0.128D-02-0.166D-02-0.305D-02-0.422D-02 0.875D-02
 Coeff:      0.884D-01 0.361D+00 0.552D+00
 Gap=     0.206 Goal=   None    Shift=    0.000
 RMSDP=5.92D-07 MaxDP=4.00D-05 DE=-3.48D-09 OVMax= 1.24D-05

 Cycle  10  Pass 1  IDiag  1:
 RMSU=  1.53D-07    CP:  9.21D-01  9.99D-01  4.81D-01  7.30D-01  9.54D-01
                    CP:  8.83D-01  9.40D-01  9.92D-01  7.26D-01
 E= -398.925862810406     Delta-E=       -0.000000000766 Rises=F Damp=F
 DIIS: error= 3.58D-07 at cycle  10 NSaved=  10.
 NSaved=10 IEnMin=10 EnMin= -398.925862810406     IErMin=10 ErrMin= 3.58D-07
 ErrMax= 3.58D-07 EMaxC= 1.00D-01 BMatC= 3.95D-11 BMatP= 9.42D-10
 IDIUse=1 WtCom= 1.00D+00 WtEn= 0.00D+00
 Coeff-Com:  0.109D-04-0.585D-04-0.171D-03-0.405D-03-0.243D-02-0.577D-02
 Coeff-Com: -0.303D-02 0.292D-01 0.181D+00 0.801D+00
 Coeff:      0.109D-04-0.585D-04-0.171D-03-0.405D-03-0.243D-02-0.577D-02
 Coeff:     -0.303D-02 0.292D-01 0.181D+00 0.801D+00
 Gap=     0.206 Goal=   None    Shift=    0.000
 RMSDP=9.48D-08 MaxDP=4.96D-06 DE=-7.66D-10 OVMax= 2.64D-06

 Cycle  11  Pass 1  IDiag  1:
 RMSU=  3.13D-08    CP:  9.21D-01  9.99D-01  4.81D-01  7.30D-01  9.54D-01
                    CP:  8.84D-01  9.47D-01  1.00D+00  7.90D-01  9.88D-01
 E= -398.925862810433     Delta-E=       -0.000000000027 Rises=F Damp=F
 DIIS: error= 1.81D-07 at cycle  11 NSaved=  11.
 NSaved=11 IEnMin=11 EnMin= -398.925862810433     IErMin=11 ErrMin= 1.81D-07
 ErrMax= 1.81D-07 EMaxC= 1.00D-01 BMatC= 8.34D-12 BMatP= 3.95D-11
 IDIUse=1 WtCom= 1.00D+00 WtEn= 0.00D+00
 Coeff-Com:  0.201D-05 0.510D-04 0.175D-04-0.142D-04-0.775D-03-0.284D-02
 Coeff-Com: -0.571D-02-0.691D-02 0.629D-01 0.448D+00 0.506D+00
 Coeff:      0.201D-05 0.510D-04 0.175D-04-0.142D-04-0.775D-03-0.284D-02
 Coeff:     -0.571D-02-0.691D-02 0.629D-01 0.448D+00 0.506D+00
 Gap=     0.206 Goal=   None    Shift=    0.000
 RMSDP=2.16D-08 MaxDP=7.38D-07 DE=-2.74D-11 OVMax= 1.13D-06

 Cycle  12  Pass 1  IDiag  1:
 RMSU=  9.81D-09    CP:  9.21D-01  9.99D-01  4.81D-01  7.30D-01  9.54D-01
                    CP:  8.84D-01  9.47D-01  1.01D+00  7.95D-01  1.01D+00
                    CP:  7.97D-01
 E= -398.925862810442     Delta-E=       -0.000000000009 Rises=F Damp=F
 DIIS: error= 2.07D-08 at cycle  12 NSaved=  12.
 NSaved=12 IEnMin=12 EnMin= -398.925862810442     IErMin=12 ErrMin= 2.07D-08
 ErrMax= 2.07D-08 EMaxC= 1.00D-01 BMatC= 1.79D-13 BMatP= 8.34D-12
 IDIUse=1 WtCom= 1.00D+00 WtEn= 0.00D+00
 Coeff-Com: -0.470D-06 0.178D-04 0.217D-04 0.148D-04-0.519D-04-0.349D-03
 Coeff-Com: -0.165D-02-0.518D-02-0.700D-03 0.460D-01 0.139D+00 0.823D+00
 Coeff:     -0.470D-06 0.178D-04 0.217D-04 0.148D-04-0.519D-04-0.349D-03
 Coeff:     -0.165D-02-0.518D-02-0.700D-03 0.460D-01 0.139D+00 0.823D+00
 Gap=     0.206 Goal=   None    Shift=    0.000
 RMSDP=6.18D-09 MaxDP=1.66D-07 DE=-9.21D-12 OVMax= 2.15D-07

 Error on total polarization charges =  0.01233
 SCF Done:  E(RB3LYP) =  -398.925862810     A.U. after   12 cycles
             Convg  =    0.6182D-08             -V/T =  2.0030
 KE= 3.977422363054D+02 PE=-1.590301435454D+03 EE= 4.666510268378D+02
 Leave Link  502 at Tue Apr 19 19:18:09 2016, MaxMem=   33554432 cpu:     251.0
 (Enter c:\G09w02\l701.exe)
 Compute integral first derivatives.
 ... and contract with generalized density number  0.
 D1PCM: C-PCM CHGder 1st derivatives, ID1Alg=3 FixD1E=F DoIter=F DoCFld=F I1PDM=0.
 GePol: Maximum number of non-zero 1st derivatives   =     203
 Leave Link  701 at Tue Apr 19 19:18:16 2016, MaxMem=   33554432 cpu:       7.0
 (Enter c:\G09w02\l702.exe)
 L702 exits ... SP integral derivatives will be done elsewhere.
 Leave Link  702 at Tue Apr 19 19:18:16 2016, MaxMem=   33554432 cpu:       0.0
 (Enter c:\G09w02\l703.exe)
 Compute integral first derivatives, UseDBF=F ICtDFT=           0.
 Integral derivatives from FoFDir, PRISM(SPDF).
 Calling FoFJK, ICntrl=      2127 FMM=F ISym2X=0 I1Cent= 0 IOpClX= 0 NMat=1 NMatS=1 NMatT=0.
 FoFCou: FMM=F IPFlag=           0 FMFlag=      100000 FMFlg1=         800
         NFxFlg=           0 DoJE=F BraDBF=F KetDBF=F FulRan=T
         Omega=  0.000000  0.000000  1.000000  0.000000  0.000000 ICntrl=    2127 IOpCl=  0
         NMat0=    1 NMatS0=    1 NMatT0=    0 NMatD0=    1 NMtDS0=    0 NMtDT0=    0
         I1Cent=           0 NGrid=           0.
 Symmetry not used in FoFCou.
 Leave Link  703 at Tue Apr 19 19:19:18 2016, MaxMem=   33554432 cpu:      62.0
 (Enter c:\G09w02\l716.exe)
 Dipole        = 3.52802576D+00 1.17071251D+00 1.00380005D+00
 -------------------------------------------------------------------
 Center     Atomic                   Forces (Hartrees/Bohr)
 Number     Number              X              Y              Z
 -------------------------------------------------------------------
      1        7          -0.005000193    0.046630940   -0.029092639
      2        1          -0.001357087   -0.005412109    0.003096629
      3        6           0.079703024   -0.044367198   -0.054725348
      4        1           0.000926175   -0.001193564    0.000047425
      5        6           0.004058986    0.000715095    0.010608542
      6        6          -0.099397390   -0.019323928   -0.035097807
      7        1          -0.001197013    0.000789420   -0.000285644
      8        1           0.000413921    0.000095636   -0.000769078
      9        8          -0.002755529    0.002634492    0.000565359
     10        8           0.049340940   -0.012298756   -0.003658095
     11        1           0.000008715   -0.000222756    0.000211744
     12        1           0.000747511    0.007421446   -0.011021174
     13        8           0.011125323    0.007059205    0.006700108
     14        1          -0.036617382    0.017472077    0.113419977
 -------------------------------------------------------------------
 Cartesian Forces:  Max     0.113419977 RMS     0.032198115
 Leave Link  716 at Tue Apr 19 19:19:18 2016, MaxMem=   33554432 cpu:       0.0
 (Enter c:\G09w02\l103.exe)

 GradGradGradGradGradGradGradGradGradGradGradGradGradGradGradGradGradGrad
 Berny optimization.
 Using GEDIIS/GDIIS optimizer.
 Internal  Forces:  Max     0.058081079 RMS     0.014166153
 Search for a local minimum.
 Step number   2 out of a maximum of   76
 All quantities printed in internal units (Hartrees-Bohrs-Radians)
 RMS Force = .14166D-01 SwitMx=.10000D-02 MixMth= 1
 Mixed Optimization -- RFO/linear search
 Update second derivatives using D2CorX and points    1    2
 DE= -4.50D-02 DEPred=-4.09D-02 R= 1.10D+00
 SS=  1.41D+00  RLast= 3.15D-01 DXNew= 5.0454D-01 9.4599D-01
 Trust test= 1.10D+00 RLast= 3.15D-01 DXMaxT set to 5.05D-01
 ITU=  1  0
 Use linear search instead of GDIIS.
 Linear search step of   0.600 exceeds DXMaxT=   0.505 but not scaled.
 Quartic linear search produced a step of  2.00000.
 Iteration  1 RMS(Cart)=  0.05649759 RMS(Int)=  0.01197433
 Iteration  2 RMS(Cart)=  0.01155142 RMS(Int)=  0.00432658
 Iteration  3 RMS(Cart)=  0.00017495 RMS(Int)=  0.00432458
 Iteration  4 RMS(Cart)=  0.00000078 RMS(Int)=  0.00432458
 Variable       Old X    -DE/DX   Delta X   Delta X   Delta X     New X
                                 (Linear)    (Quad)   (Total)
    R1        1.92379  -0.00053   0.00458   0.00000   0.00458   1.92837
    R2        2.78054   0.02428   0.15085   0.00000   0.13968   2.92022
    R3        1.93141   0.00089   0.02914   0.00000   0.02914   1.96055
    R4        2.46705   0.03819   0.21191   0.00000   0.22256   2.68961
    R5        2.84925  -0.00048   0.01065   0.00000   0.00970   2.85896
    R6        2.59144   0.02536   0.11184   0.00000   0.10142   2.69286
    R7        1.98833   0.05808   0.31060   0.00000   0.31717   2.30551
    R8        3.39477  -0.00080  -0.01062   0.00000  -0.00931   3.38546
    R9        1.85409   0.00041   0.00407   0.00000   0.00513   1.85922
   R10        2.06682   0.00005  -0.00277   0.00000  -0.00277   2.06406
   R11        2.07188  -0.00056  -0.00367   0.00000  -0.00367   2.06821
   R12        2.72563  -0.00273  -0.02314   0.00000  -0.02294   2.70269
   R13        2.49625  -0.05072  -0.16501   0.00000  -0.16501   2.33124
   R14        2.56503  -0.00545  -0.02266   0.00000  -0.02301   2.54202
   R15        2.72189   0.03829   0.20428   0.00000   0.20890   2.93079
   R16        1.82215   0.00016  -0.00002   0.00000  -0.00002   1.82213
    A1        1.95033  -0.00251  -0.00325   0.00000  -0.00542   1.94491
    A2        1.88107   0.00047   0.01918   0.00000   0.01881   1.89988
    A3        1.78586  -0.01504  -0.08475   0.00000  -0.08444   1.70141
    A4        1.98217   0.01228   0.09756   0.00000   0.08822   2.07039
    A5        1.34695   0.00649   0.08855   0.00000   0.09424   1.44119
    A6        2.01005  -0.00284  -0.00899   0.00000  -0.00072   2.00933
    A7        2.10652  -0.00899  -0.04495   0.00000  -0.05295   2.05357
    A8        2.16584   0.01185   0.05463   0.00000   0.05421   2.22005
    A9        2.56789  -0.01487  -0.10901   0.00000  -0.10141   2.46648
   A10        1.88521  -0.00093  -0.01648   0.00000  -0.01618   1.86903
   A11        1.96082   0.00198   0.01991   0.00000   0.02062   1.98144
   A12        1.90502  -0.00363  -0.03090   0.00000  -0.03309   1.87193
   A13        1.88868  -0.00006   0.00419   0.00000   0.00401   1.89269
   A14        1.91846   0.00148   0.00871   0.00000   0.00875   1.92721
   A15        1.90539   0.00120   0.01496   0.00000   0.01560   1.92099
   A16        2.12527   0.00574   0.00785   0.00000   0.00527   2.13054
   A17        2.15398  -0.01902  -0.09794   0.00000  -0.09159   2.06239
   A18        2.00387   0.01328   0.09007   0.00000   0.08636   2.09023
   A19        1.42707  -0.00336  -0.04202   0.00000  -0.03861   1.38846
   A20        2.72338  -0.01549  -0.08745   0.00000  -0.08840   2.63498
   A21        1.89444   0.00000  -0.01159   0.00000  -0.01159   1.88285
   A22        1.88051   0.00268   0.03848   0.00000   0.03708   1.91759
   A23        2.23780  -0.03327  -0.19755   0.00000  -0.18866   2.04914
    D1       -1.00986   0.00354   0.03415   0.00000   0.03525  -0.97460
    D2        2.17241   0.00271   0.01584   0.00000   0.01621   2.18863
    D3        3.14081  -0.00431  -0.05755   0.00000  -0.05884   3.08198
    D4        0.03990  -0.00514  -0.07585   0.00000  -0.07788  -0.03798
    D5       -2.61467  -0.00443  -0.04120   0.00000  -0.04349  -2.65816
    D6        1.82352  -0.00861  -0.09400   0.00000  -0.08615   1.73737
    D7       -0.40728   0.00047  -0.00024   0.00000  -0.00236  -0.40963
    D8        1.67451   0.00099   0.00628   0.00000   0.00429   1.67880
    D9       -2.49267   0.00129   0.01709   0.00000   0.01420  -2.47847
   D10        2.69207   0.00076   0.01555   0.00000   0.01582   2.70790
   D11       -1.50932   0.00128   0.02207   0.00000   0.02247  -1.48685
   D12        0.60668   0.00159   0.03287   0.00000   0.03238   0.63906
   D13       -1.66959  -0.00208  -0.02721   0.00000  -0.02535  -1.69494
   D14        0.41220  -0.00156  -0.02069   0.00000  -0.01871   0.39349
   D15        2.52821  -0.00126  -0.00988   0.00000  -0.00880   2.51941
   D16       -0.13256  -0.00168  -0.00914   0.00000  -0.01262  -0.14518
   D17        2.99577  -0.00208  -0.01025   0.00000  -0.00694   2.98882
   D18        3.05349  -0.00217  -0.02699   0.00000  -0.03249   3.02100
   D19       -0.10137  -0.00257  -0.02810   0.00000  -0.02681  -0.12818
   D20       -2.83731  -0.00094  -0.01278   0.00000  -0.01266  -2.84997
   D21        1.38119   0.00148   0.02084   0.00000   0.02123   1.40242
   D22       -0.68793  -0.00005   0.00179   0.00000   0.00128  -0.68665
   D23       -0.22113   0.00275   0.03191   0.00000   0.02587  -0.19526
   D24        2.90804   0.00233   0.03046   0.00000   0.03089   2.93893
   D25       -1.09444  -0.00429  -0.04117   0.00000  -0.03557  -1.13001
   D26       -1.94723   0.00443   0.04682   0.00000   0.05723  -1.88999
   D27        1.96359   0.00447   0.07569   0.00000   0.07215   2.03574
         Item               Value     Threshold  Converged?
 Maximum Force            0.058081     0.000450     NO 
 RMS     Force            0.014166     0.000300     NO 
 Maximum Displacement     0.312550     0.001800     NO 
 RMS     Displacement     0.058959     0.001200     NO 
 Predicted change in Energy=-2.661063D-02
 GradGradGradGradGradGradGradGradGradGradGradGradGradGradGradGradGradGrad

 Leave Link  103 at Tue Apr 19 19:19:18 2016, MaxMem=   33554432 cpu:       0.0
 (Enter c:\G09w02\l202.exe)
                          Input orientation:                          
 ---------------------------------------------------------------------
 Center     Atomic      Atomic             Coordinates (Angstroms)
 Number     Number       Type             X           Y           Z
 ---------------------------------------------------------------------
      1          7           0       -0.173087    2.236931    0.303203
      2          1           0        0.313239    2.673608    1.086857
      3          6           0        0.059088    0.709421    0.274930
      4          1           0        0.018568   -1.619301   -0.237048
      5          6           0        1.509537    0.280647    0.240263
[...]
                           ----------------------------
                           !   Optimized Parameters   !
                           ! (Angstroms and Degrees)  !
 --------------------------                            --------------------------
 ! Name  Definition              Value          Derivative Info.                !
 --------------------------------------------------------------------------------
 ! R1    R(1,2)                  1.0164         -DE/DX =    0.0                 !
 ! R2    R(1,3)                  1.4719         -DE/DX =    0.0                 !
 ! R3    R(1,12)                 1.0158         -DE/DX =    0.0                 !
 ! R4    R(1,14)                 2.1539         -DE/DX =    0.0                 !
 ! R5    R(3,5)                  1.5296         -DE/DX =    0.0                 !
 ! R6    R(3,6)                  1.5394         -DE/DX =    0.0                 !
 ! R7    R(3,14)                 1.0967         -DE/DX =    0.0                 !
 ! R8    R(4,9)                  1.7374         -DE/DX =    0.0                 !
 ! R9    R(4,13)                 0.987          -DE/DX =    0.0                 !
 ! R10   R(5,7)                  1.0944         -DE/DX =    0.0                 !
 ! R11   R(5,8)                  1.0935         -DE/DX =    0.0                 !
 ! R12   R(5,9)                  1.4408         -DE/DX =    0.0                 !
 ! R13   R(6,10)                 1.2111         -DE/DX =    0.0                 !
 ! R14   R(6,13)                 1.3382         -DE/DX =    0.0                 !
 ! R15   R(6,14)                 2.1199         -DE/DX =    0.0                 !
 ! R16   R(9,11)                 0.964          -DE/DX =    0.0                 !
 ! A1    A(2,1,3)              109.6041         -DE/DX =    0.0                 !
 ! A2    A(2,1,12)             106.5385         -DE/DX =    0.0                 !
 ! A3    A(2,1,14)              97.2529         -DE/DX =    0.0                 !
 ! A4    A(3,1,12)             109.9978         -DE/DX =    0.0                 !
 ! A5    A(12,1,14)             90.9554         -DE/DX =    0.0                 !
 ! A6    A(1,3,5)              110.7867         -DE/DX =    0.0                 !
 ! A7    A(1,3,6)              107.0506         -DE/DX =    0.0                 !
 ! A8    A(5,3,6)              113.4891         -DE/DX =    0.0                 !
 ! A9    A(5,3,14)             106.5312         -DE/DX =    0.0                 !
 ! A10   A(3,5,7)              109.0358         -DE/DX =    0.0                 !
 ! A11   A(3,5,8)              109.5118         -DE/DX =    0.0                 !
 ! A12   A(3,5,9)              109.5531         -DE/DX =    0.0                 !
 ! A13   A(7,5,8)              108.5561         -DE/DX =    0.0                 !
 ! A14   A(7,5,9)              109.8988         -DE/DX =    0.0                 !
 ! A15   A(8,5,9)              110.2612         -DE/DX =    0.0                 !
 ! A16   A(3,6,10)             122.3773         -DE/DX =    0.0                 !
 ! A17   A(3,6,13)             116.8748         -DE/DX =    0.0                 !
 ! A18   A(10,6,13)            120.7057         -DE/DX =    0.0                 !
 ! A19   A(10,6,14)             94.7622         -DE/DX =    0.0                 !
 ! A20   A(13,6,14)            143.3459         -DE/DX =    0.0                 !
 ! A21   A(5,9,11)             109.2672         -DE/DX =    0.0                 !
 ! A22   A(4,13,6)             109.0081         -DE/DX =    0.0                 !
 ! A23   A(1,14,6)              69.0296         -DE/DX =    0.0                 !
 ! D1    D(2,1,3,5)            -52.2757         -DE/DX =    0.0                 !
 ! D2    D(2,1,3,6)           -176.4939         -DE/DX =    0.0                 !
 ! D3    D(12,1,3,5)          -169.0952         -DE/DX =    0.0                 !
 ! D4    D(12,1,3,6)            66.6866         -DE/DX =    0.0                 !
 ! D5    D(2,1,14,6)          -160.671          -DE/DX =    0.0                 !
 ! D6    D(12,1,14,6)           92.5238         -DE/DX =    0.0                 !
 ! D7    D(1,3,5,7)             58.7803         -DE/DX =    0.0                 !
 ! D8    D(1,3,5,8)            177.4273         -DE/DX =    0.0                 !
 ! D9    D(1,3,5,9)            -61.5261         -DE/DX =    0.0                 !
 ! D10   D(6,3,5,7)            179.2402         -DE/DX =    0.0                 !
 ! D11   D(6,3,5,8)            -62.1127         -DE/DX =    0.0                 !
 ! D12   D(6,3,5,9)             58.9338         -DE/DX =    0.0                 !
 ! D13   D(14,3,5,7)           -64.6937         -DE/DX =    0.0                 !
 ! D14   D(14,3,5,8)            53.9534         -DE/DX =    0.0                 !
 ! D15   D(14,3,5,9)           174.9999         -DE/DX =    0.0                 !
 ! D16   D(1,3,6,10)           -96.1367         -DE/DX =    0.0                 !
 ! D17   D(1,3,6,13)            81.5153         -DE/DX =    0.0                 !
 ! D18   D(5,3,6,10)           141.3136         -DE/DX =    0.0                 !
 ! D19   D(5,3,6,13)           -41.0344         -DE/DX =    0.0                 !
 ! D20   D(3,5,9,11)          -164.986          -DE/DX =    0.0                 !
 ! D21   D(7,5,9,11)            75.235          -DE/DX =    0.0                 !
 ! D22   D(8,5,9,11)           -44.3938         -DE/DX =    0.0                 !
 ! D23   D(3,6,13,4)             6.3472         -DE/DX =    0.0                 !
 ! D24   D(10,6,13,4)         -175.9591         -DE/DX =    0.0                 !
 ! D25   D(14,6,13,4)          -12.2514         -DE/DX =    0.0                 !
 ! D26   D(10,6,14,1)         -122.2823         -DE/DX =    0.0                 !
 ! D27   D(13,6,14,1)           71.7248         -DE/DX =    0.0                 !
 --------------------------------------------------------------------------------
 GradGradGradGradGradGradGradGradGradGradGradGradGradGradGradGradGradGrad

 Leave Link  103 at Tue Apr 19 21:25:33 2016, MaxMem=   33554432 cpu:       0.0
 (Enter c:\G09w02\l9999.exe)
 1|1|UNPC-WIN-20150318OUM|Freq|RB3LYP|6-311++G(d,p)|C3H7N1O3|ADMINISTRA
 TOR|19-Apr-2016|0||#P Geom=AllCheck Guess=TCheck SCRF=Check GenChk RB3
 LYP/6-311++G(d,p) Freq||Ser-S-opt-freq-cpcm-w-pa3-6-311++gdp||0,1|N,-0
 .2395023554,1.8745086037,-0.2962815038|H,0.5112409975,2.5576875371,-0.
 2438201706|C,-0.0275888298,0.8290017718,0.7179177768|H,-0.0528007546,-
 1.0214454507,-0.8094244402|C,1.3815299781,0.2442462025,0.608493906|C,-
 1.1419257718,-0.215990976,0.5285800908|H,2.1126832077,1.0478077477,0.7
 403570447|H,1.5320303135,-0.4963227533,1.3988498699|O,1.5513156646,-0.
 3657283897,-0.6857041819|O,-2.1611530437,-0.2029902479,1.1826520235|H,
 2.3329578559,-0.9297315122,-0.6714548663|H,-1.10121807,2.3764096991,-0
 .1029989682|O,-0.959961329,-1.1265173517,-0.4350210695|H,-0.133800653,
 1.1969902094,1.7455579289||Version=IA32W-G09RevB.01|HF=-399.1054358|RM
 SD=2.379e-009|RMSF=2.054e-005|ZeroPoint=0.1129698|Thermal=0.1205776|Di
 pole=2.8772885,0.7829902,0.4880956|DipoleDeriv=-0.4666818,0.0005048,-0
 .0744297,0.0322604,-0.6114603,0.1523359,-0.069688,0.0813165,-0.7419673
 ,0.1470125,-0.0647327,-0.0604373,-0.0863197,0.1125764,0.0455917,-0.108
 9291,-0.0340566,0.2989896,0.0824276,-0.124306,0.1079298,-0.1537472,0.4
 420848,-0.3151776,0.0604157,-0.113616,0.4473792,0.9282154,0.0661589,-0
 .0857505,0.0865621,0.3854806,-0.0164238,-0.0956799,0.009959,0.4094233,
 0.3676811,-0.0217481,-0.1792108,-0.0858953,0.4841386,0.2810782,-0.1251
 684,0.2872187,0.8025625,1.6754634,0.1103808,-0.8342004,0.0874239,1.194
 3681,0.7126685,-0.9384405,0.7353755,1.5154314,-0.0669736,-0.1079351,-0
 .0216363,-0.1063564,-0.0871415,-0.0768362,0.0387204,-0.039498,0.015012
 4,0.0633542,0.0303134,0.0008613,0.0589112,-0.0592714,0.105162,0.005930
 6,0.0341596,-0.0986703,-0.8711775,-0.0046401,0.2766383,-0.028162,-0.74
 6423,-0.2683737,0.2064457,-0.3056756,-0.9486743,-1.4400533,0.0023027,0
 .6306519,-0.1555246,-0.6548281,-0.0445779,0.4951,-0.1546062,-0.9227137
 ,0.3233424,0.0419388,-0.0644502,0.0128759,0.3912659,-0.0021756,-0.0746
 655,0.0051844,0.3237375,0.1521363,0.0637397,0.0739934,0.0851031,0.1489
 529,0.0541025,0.1292702,-0.0105175,0.2694467,-0.9270601,-0.0033619,0.2
 141338,0.2370031,-0.989103,-0.6163673,0.4933338,-0.5233139,-1.1480094,
 0.0323134,0.0113848,0.0159066,0.0158655,-0.01064,-0.0110066,-0.0166451
 ,0.0280701,-0.2219477|Polar=77.2170157,0.7152375,68.3886956,-7.3490599
 ,3.5577171,70.5357797|PG=C01 [X(C3H7N1O3)]|NImag=0||0.68072732,0.01186
 191,0.52889115,-0.03678110,-0.06717395,0.21075044,-0.25882255,-0.17408
 449,-0.01223252,0.27621930,-0.18926882,-0.21926067,0.00572236,0.190431
 61,0.22680045,-0.04778758,-0.02499763,-0.01885214,0.01902003,-0.003620
 58,0.02680563,-0.09777325,0.01271407,-0.00766623,0.00564931,-0.0202476
 3,0.02093578,0.48744424,-0.00372830,-0.12551259,0.03561848,0.00614102,
 -0.02110065,0.02422716,-0.00456671,0.46221064,-0.00495939,0.09126211,-
 0.12899509,-0.00192959,-0.00399210,-0.00541840,-0.02275005,0.06021342,
 0.56204800,-0.00179601,-0.00037434,-0.00024351,0.00027741,-0.00064826,
 -0.00011574,0.00347300,-0.00111051,-0.00166326,0.33852464,-0.00063813,
 0.00039744,0.00044865,-0.00004098,-0.00000438,0.00020513,0.00031243,-0
 .00241330,-0.00174889,0.03244151,0.05370941,0.00056037,0.00033052,-0.0
 0020213,-0.00011254,0.00025955,-0.00008829,-0.00140009,-0.00113597,0.0
 0035259,-0.14188848,0.01056117,0.11055317,-0.00893196,0.00734760,-0.00
 247833,0.00241254,-0.00087321,0.00062268,-0.16818764,0.03221683,-0.010
 98519,0.00250039,-0.00308694,-0.00598884,0.51612439,0.03060604,-0.0176
 0575,0.00321014,0.00214496,0.00043734,-0.00067327,0.02374109,-0.091739
 58,0.00038636,-0.00850841,-0.00303299,-0.00376916,0.04212820,0.5733100
 8,-0.02816656,0.01321730,-0.00134968,0.00019766,-0.00088241,0.00244522
 ,0.00765821,-0.00457629,-0.07655554,-0.01218890,-0.00470472,-0.0016421
 1,0.03539250,-0.06748341,0.48332628,0.00933887,0.00169240,0.00543790,-
 0.00132785,0.00449308,-0.00188839,-0.11709011,-0.03985245,-0.01667933,
 -0.01045879,0.03182879,0.03282029,-0.03180627,-0.01557773,-0.00318491,
 0.77403750,-0.01679601,-0.02763544,0.00805165,0.00124043,-0.00179589,0
 .00162814,-0.02981951,-0.12116631,-0.01300164,0.01649189,0.00418219,0.
 00171029,0.00477448,0.02532445,0.00971497,0.07862796,0.42045506,0.0219
 5923,0.02248942,-0.00034984,-0.00095370,0.00509736,-0.00396151,-0.0211
 6038,-0.01610307,-0.08542770,0.01848672,-0.00816168,-0.02237915,0.0020
 5253,0.00433412,0.00244973,-0.26576725,0.11991839,0.51320914,0.0028174
 2,-0.00145759,0.00061344,-0.00050119,0.00138477,-0.00074881,-0.0251803
 9,-0.02270254,-0.00297039,-0.00051858,0.00008908,0.00047221,-0.1678664
 2,-0.12652532,-0.01662190,-0.00093659,0.00731891,0.00122841,0.17876863
 ,0.00027345,0.00213561,-0.00061828,-0.00052063,-0.00016244,-0.00019803
 ,0.01037430,0.00901891,0.00293188,0.00215670,0.00036150,-0.00020228,-0
 .12608809,-0.18704706,-0.01122084,0.00245100,-0.00251560,0.00027638,0.
 13523770,0.20209705,-0.00038301,-0.00079754,0.00016027,-0.00017390,0.0
 0012714,0.00007426,0.00031608,0.00251699,0.00150540,0.00275251,0.00019
 553,-0.00093659,-0.01171560,-0.00919648,-0.04885426,-0.00055079,-0.001
 60578,0.00062307,0.01610856,0.02421748,0.06121860,-0.00667400,0.002273
 81,0.00109217,-0.00020824,-0.00006786,0.00015713,-0.00256077,0.0209823
 1,-0.02185722,-0.00030751,0.00018288,-0.00022236,-0.05887189,0.0223371
 1,-0.02525979,0.00103299,0.00028770,-0.00064164,0.00488277,-0.01625430
 ,0.01482627,0.05844339,0.00340474,-0.00050289,-0.00047621,-0.00016057,
 0.00082097,-0.00039666,-0.00109791,-0.00716796,0.00731628,0.00040317,0
 .00008020,-0.00012597,0.02576941,-0.18188806,0.12989075,-0.00055167,-0
 .00011326,-0.00052706,0.00387480,-0.01499075,0.01563543,-0.02915587,0.
 18851480,0.00130783,-0.00046061,0.00110499,0.00008435,0.00016909,-0.00
 023249,-0.00085054,-0.00191806,0.00294811,0.00162510,0.00059719,-0.000
 42423,-0.02418489,0.12426419,-0.17092813,0.00007975,0.00009843,-0.0003
 6778,0.00038379,-0.00027911,0.00396219,0.02549407,-0.13233605,0.199365
 81,0.00096198,0.00090722,-0.00038842,-0.00026728,0.00022581,-0.0001333
 0,-0.00297975,0.01743623,0.03855508,0.00875575,0.00306513,0.00257446,-
 0.08494387,0.02089818,0.01317729,0.00627303,-0.00882537,-0.00943380,0.
 00925335,-0.00539413,-0.01941474,0.00244079,-0.00235508,-0.00113162,0.
 44746065,0.00061488,-0.00014236,-0.00042078,-0.00040170,0.00018718,0.0
 0001092,0.00572613,-0.00906258,-0.02216418,0.00513278,-0.00861202,0.00
 086157,0.00797415,-0.08751901,-0.05542958,-0.00314539,-0.00640417,-0.0
 0331284,0.00554536,-0.01116765,-0.03282528,-0.00079959,0.01300758,0.00
 947864,-0.26343663,0.28241437,0.00042899,-0.00001488,0.00202081,-0.000
 34781,0.00008258,-0.00052341,0.00755175,-0.00611105,-0.01132860,0.0051
 0245,-0.00081001,-0.00583590,-0.02065868,-0.02895852,-0.17432797,-0.00
 317538,-0.00470264,-0.00110439,0.00100874,-0.01472793,-0.01873114,0.00
 685179,-0.02049305,-0.03802120,0.00745218,0.08534973,0.27655768,-0.006
 02247,-0.00361893,-0.00094938,0.00123084,-0.00233505,0.00090655,-0.031
 90541,-0.00236751,0.02755492,0.01070661,0.00124699,0.00017153,0.000050
 60,-0.00727984,-0.00032038,-0.53027624,-0.03390524,0.25513100,-0.00286
 890,0.00058496,0.00039698,0.00004661,0.00038977,-0.00029754,-0.0043357
 1,0.00016919,0.00086900,0.58434561,0.00074941,0.00101551,0.00006365,-0
 .00016392,-0.00003062,0.00002134,-0.02867621,0.01452212,0.00660228,-0.
 00535394,-0.00164522,-0.00672817,-0.00222300,-0.00834347,-0.00192943,-
 0.01943753,-0.09171898,-0.00394190,-0.00237060,0.00103080,0.00036764,0
 .00018323,0.00021068,-0.00000730,0.00215053,0.00200761,0.00171909,0.00
 750705,0.07499223,-0.00260805,-0.00161752,0.00097793,-0.00012394,-0.00
 026803,0.00060447,0.01371691,-0.00517001,0.00923569,-0.00786393,-0.009
 65692,0.00134448,0.00002321,0.00277649,0.00060045,0.26753014,0.0038462
 1,-0.24062167,0.00105827,-0.00051879,-0.00017070,-0.00003086,0.0000103
 5,0.00024418,0.00439669,0.00166083,0.00012204,-0.34313866,0.03806270,0
 .28127291,0.00057406,-0.00033151,0.00016002,-0.00006300,0.00016935,0.0
 0003196,0.00034897,0.00025028,0.00125716,-0.00100812,0.00278671,-0.000
 33545,-0.00207992,-0.00011642,-0.00240016,0.00004008,-0.00063209,-0.00
 050162,0.00027165,-0.00083146,-0.00111866,0.00097118,-0.00096711,-0.00
 161537,-0.34603407,0.24577718,-0.00567355,0.00021925,0.00026839,0.0000
 2513,0.34798938,0.00005085,0.00027130,-0.00015126,0.00005627,0.0000363
 2,0.00008575,-0.00148889,-0.00075953,-0.00184356,0.00366639,0.00330097
 ,-0.00019309,0.01175472,-0.00997838,0.00248741,0.00082006,-0.00049370,
 -0.00124178,0.00051483,-0.00012945,0.00020629,-0.00072222,0.00211210,0
 .00084854,0.23527346,-0.18098337,-0.01314117,-0.00059882,0.00010943,0.
 00064000,-0.24566315,0.18718873,-0.00112267,0.00077585,0.00048520,0.00
 005440,-0.00007374,-0.00001379,-0.00031131,-0.00249816,-0.00751361,0.0
 0244066,0.00188392,-0.00081276,0.03349470,-0.02407189,-0.00405563,-0.0
 0010321,-0.00097571,-0.00105209,-0.00023342,-0.00038111,0.00021687,0.0
 0069122,0.00065592,0.00098868,-0.04485188,0.01421978,-0.03642280,-0.00
 021800,0.00033503,0.00039052,0.00962598,0.01058749,0.04625236,-0.31770
 532,0.14433116,0.05964255,-0.02475265,0.01716843,0.00807600,-0.0022111
 2,0.00123730,0.00211362,0.00002533,0.00013755,0.00001350,0.00072301,0.
 00059362,-0.00115456,0.00128890,-0.00034875,-0.00002614,0.00044032,-0.
 00002256,0.00008421,-0.00008711,0.00020412,0.00029474,0.00028833,-0.00
 026278,-0.00015360,-0.00023527,0.00028704,-0.00004873,0.00000706,-0.00
 000573,0.00001330,0.34183473,0.16409469,-0.14562766,-0.01829434,-0.025
 32931,0.01331473,0.00391296,0.02183236,-0.01353802,-0.00858974,0.00036
 373,0.00028337,0.00001772,-0.00078343,-0.00358786,0.00401588,0.0025375
 2,-0.00158146,-0.00071129,-0.00000412,0.00023425,0.00001687,0.00141563
 ,-0.00030998,-0.00021033,-0.00022902,0.00017899,-0.00006970,-0.0007601
 3,0.00060963,0.00028750,-0.00008322,0.00002791,0.00013654,-0.16201071,
 0.14833963,0.10221139,-0.03754654,-0.03938740,-0.00396106,-0.00118849,
 -0.00229002,-0.02719665,0.01724340,-0.00091111,0.00008755,0.00023527,-
 0.00009355,0.00012869,0.00406303,-0.00460673,-0.00071294,-0.00010606,0
 .00124816,0.00030626,-0.00007085,-0.00004237,-0.00127236,0.00070757,0.
 00031879,0.00055437,-0.00057797,0.00048165,0.00012826,-0.00045589,-0.0
 0035242,0.00000751,-0.00011955,0.00024421,-0.06952948,0.01893193,0.043
 64680,-0.00061026,-0.00220382,0.00060174,0.00034952,-0.00054046,0.0001
 9336,0.00862954,-0.01468986,-0.01196134,-0.34834407,-0.06835671,0.1130
 0813,0.00106155,0.00479735,0.00620518,-0.10194603,-0.00778925,0.021658
 83,0.00072955,-0.00101526,-0.00103810,-0.00008183,0.00002368,-0.000781
 12,-0.02982080,-0.00724310,-0.00070311,-0.02227576,0.04655286,0.066508
 61,-0.00112010,-0.00406571,-0.00126291,-0.00021364,-0.00044860,-0.0000
 0627,0.49578052,-0.00075855,-0.00014150,0.00052773,0.00036883,-0.00060
 827,-0.00017794,0.00214106,-0.01083057,-0.03188019,-0.04403572,-0.0473
 2256,-0.00251229,0.00183095,-0.00401931,-0.00209702,-0.04748088,-0.186
 72528,-0.09576880,-0.00110512,0.00059782,0.00077843,-0.00035986,0.0003
 6165,-0.00016890,-0.00302215,0.00713680,0.00246585,0.03989209,0.006060
 05,-0.03173226,-0.00072967,-0.00087693,0.00010647,-0.00008646,-0.00003
 852,-0.00015285,0.05866747,0.24109301,-0.00352314,-0.00255294,0.001435
 50,0.00077456,-0.00141746,0.00070455,0.00788556,-0.01272000,-0.0034224
 1,0.13364818,0.01063397,-0.08008572,0.00316571,-0.00268654,-0.00354512
 ,-0.01700575,-0.12069972,-0.15616765,-0.00082427,0.00070842,0.00092112
 ,-0.00022401,0.00031590,0.00040551,0.00883351,0.00287446,0.00523683,0.
 05962495,-0.03560694,-0.05562225,0.00069258,0.00159952,0.00127329,0.00
 001684,0.00030524,-0.00003873,-0.19117804,0.16119486,0.28885573,0.0039
 1617,0.00094249,-0.00680831,-0.00019617,0.00010823,0.00073032,-0.05765
 663,0.01075392,0.02627497,-0.00183004,0.00003169,0.00032726,-0.0001845
 3,0.01076116,0.02666633,0.00183050,-0.01062514,-0.02203219,0.00070838,
 -0.00095167,-0.00008981,0.00097361,0.00021851,-0.00040855,-0.00705241,
 0.00434950,0.00144722,0.00132023,0.00052670,0.00055520,-0.00011642,0.0
 0040794,0.00178314,0.00059742,-0.00059538,-0.00074527,-0.00213819,-0.0
 0532198,-0.00188668,0.05982808,-0.00046616,0.00371786,0.03349216,0.000
 31849,0.00136593,-0.00002729,0.00905542,-0.08246058,-0.08549202,-0.000
 62498,0.00071537,0.00092613,-0.00074167,-0.00431039,-0.01100263,0.0035
 9484,-0.00981161,-0.02234724,0.00019985,0.00053699,0.00036330,-0.00030
 297,-0.00013508,-0.00007572,0.00330582,-0.00104139,-0.00058831,0.00107
 545,0.00118023,0.00167946,0.00010272,0.00017459,-0.00070038,-0.0012222
 4,0.00169497,-0.00096302,-0.00368859,-0.00468639,-0.00194876,-0.010605
 97,0.09305948,-0.00113630,0.00708642,-0.02779887,-0.00029594,-0.000015
 27,0.00074592,0.02327096,-0.08958683,-0.25651736,-0.00017936,0.0003213
 9,0.00025018,0.00113152,-0.00219506,-0.00295652,0.00319986,-0.00387652
 ,-0.00609830,0.00021910,0.00008307,0.00005326,0.00039559,-0.00017720,0
 .00063556,-0.00018982,0.00027469,0.00187638,0.00014077,0.00149793,0.00
 197439,-0.00015553,0.00023542,0.00001955,0.00065777,0.00025075,0.00178
 270,-0.00124496,-0.00058306,0.00004935,-0.02581364,0.08668429,0.285983
 76||-0.00000599,-0.00004788,0.00008466,0.00000169,-0.00000021,-0.00000
 724,-0.00002360,0.00000996,0.00000072,-0.00000120,0.00000177,-0.000003
 60,0.00001063,-0.00000689,-0.00004358,0.00000546,-0.00002192,-0.000002
 63,0.00000380,-0.00000409,0.00000131,0.00000131,0.00000069,0.00000410,
 -0.00000741,0.00000756,0.00002240,0.00001333,0.00001759,-0.00000775,-0
 .00000483,-0.00000410,-0.00000305,0.00000858,0.00000978,-0.00001675,-0
 .00001060,0.00001892,0.00001644,0.00000883,0.00001881,-0.00004503|||@


 THERE'S A SUCKER BORN EVERY MINUTE

              -- PHINEAS TAYLOR (P.T.) BARNUM
 Job cpu time:  0 days  0 hours 24 minutes  8.0 seconds.
 File lengths (MBytes):  RWF=     77 Int=      0 D2E=      0 Chk=      7 Scr=      1
 Normal termination of Gaussian 09 at Tue Apr 19 21:25:33 2016.
