 Entering Link 1 = c:\G09w04\l1.exe PID=      5140.
  
 Copyright (c) 1988,1990,1992,1993,1995,1998,2003,2009,2010,
            Gaussian, Inc.  All Rights Reserved.
  
 This is part of the Gaussian(R) 09 program.  It is based on
 the Gaussian(R) 03 system (copyright 2003, Gaussian, Inc.),
 the Gaussian(R) 98 system (copyright 1998, Gaussian, Inc.),
 the Gaussian(R) 94 system (copyright 1995, Gaussian, Inc.),
 the Gaussian 92(TM) system (copyright 1992, Gaussian, Inc.),
 the Gaussian 90(TM) system (copyright 1990, Gaussian, Inc.),
 the Gaussian 88(TM) system (copyright 1988, Gaussian, Inc.),
 the Gaussian 86(TM) system (copyright 1986, Carnegie Mellon
 University), and the Gaussian 82(TM) system (copyright 1983,
 Carnegie Mellon University). Gaussian is a federally registered
 trademark of Gaussian, Inc.
  
 This software contains proprietary and confidential information,
 including trade secrets, belonging to Gaussian, Inc.
  
 This software is provided under written license and may be
 used, copied, transmitted, or stored only in accord with that
 written license.
  
 The following legend is applicable only to US Government
 contracts under FAR:
  
                    RESTRICTED RIGHTS LEGEND
  
 Use, reproduction and disclosure by the US Government is
 subject to restrictions as set forth in subparagraphs (a)
 and (c) of the Commercial Computer Software - Restricted
 Rights clause in FAR 52.227-19.
  
 Gaussian, Inc.
 340 Quinnipiac St., Bldg. 40, Wallingford CT 06492
  
  
 ---------------------------------------------------------------
 Warning -- This program may not be used in any manner that
 competes with the business of Gaussian, Inc. or will provide
 assistance to any competitor of Gaussian, Inc.  The licensee
 of this program is prohibited from giving any competitor of
 Gaussian, Inc. access to this program.  By using this program,
 the user acknowledges that Gaussian, Inc. is engaged in the
 business of creating and licensing software in the field of
 computational chemistry and represents and warrants to the
 licensee that it is not a competitor of Gaussian, Inc. and that
 it will not use this program in any manner prohibited above.
 ---------------------------------------------------------------
  

 Cite this work as:
 Gaussian 09, Revision B.01,
 M. J. Frisch, G. W. Trucks, H. B. Schlegel, G. E. Scuseria, 
 M. A. Robb, J. R. Cheeseman, G. Scalmani, V. Barone, B. Mennucci, 
 G. A. Petersson, H. Nakatsuji, M. Caricato, X. Li, H. P. Hratchian, 
 A. F. Izmaylov, J. Bloino, G. Zheng, J. L. Sonnenberg, M. Hada, 
 M. Ehara, K. Toyota, R. Fukuda, J. Hasegawa, M. Ishida, T. Nakajima, 
 Y. Honda, O. Kitao, H. Nakai, T. Vreven, J. A. Montgomery, Jr., 
 J. E. Peralta, F. Ogliaro, M. Bearpark, J. J. Heyd, E. Brothers, 
 K. N. Kudin, V. N. Staroverov, T. Keith, R. Kobayashi, J. Normand, 
 K. Raghavachari, A. Rendell, J. C. Burant, S. S. Iyengar, J. Tomasi, 
 M. Cossi, N. Rega, J. M. Millam, M. Klene, J. E. Knox, J. B. Cross, 
 V. Bakken, C. Adamo, J. Jaramillo, R. Gomperts, R. E. Stratmann, 
 O. Yazyev, A. J. Austin, R. Cammi, C. Pomelli, J. W. Ochterski, 
 R. L. Martin, K. Morokuma, V. G. Zakrzewski, G. A. Voth, 
 P. Salvador, J. J. Dannenberg, S. Dapprich, A. D. Daniels, 
 O. Farkas, J. B. Foresman, J. V. Ortiz, J. Cioslowski, 
 and D. J. Fox, Gaussian, Inc., Wallingford CT, 2010.
 
 ******************************************
 Gaussian 09:  IA32W-G09RevB.01 12-Aug-2010
                16-Apr-2016 
 ******************************************
 %chk=Asp-S-opt-freq-cpcm-w-pa1-6-311++gdp.chk
 -----------------------------------------------------------------
 #p opt freq rb3lyp/6-311++g(d,p) scrf=(cpcm,solvent=water) nosymm
 -----------------------------------------------------------------
 1/14=-1,18=20,19=15,26=3,38=1/1,3;
 2/9=110,12=2,15=1,17=6,18=5,40=1/2;
 3/5=4,6=6,7=1111,11=2,16=1,25=1,30=1,70=2101,71=1,72=1,74=-5,116=1/1,2,3;
 4//1;
 5/5=2,38=5,53=1/2;
 6/7=2,8=2,9=2,10=2,28=1/1;
 7/30=1/1,2,3,16;
 1/14=-1,18=20,19=15/3(2);
 2/9=110,15=1/2;
 99//99;
 2/9=110,15=1/2;
 3/5=4,6=6,7=1111,11=2,16=1,25=1,30=1,70=2105,71=1,72=1,74=-5,116=1/1,2,3;
 4/5=5,16=3/1;
 5/5=2,38=5,53=1/2;
 7/30=1/1,2,3,16;
 1/14=-1,18=20,19=15/3(-5);
 2/9=110,15=1/2;
 6/7=2,8=2,9=2,10=2,19=2,28=1/1;
 99/9=1/99;
 Leave Link    1 at Sat Apr 16 16:35:18 2016, MaxMem=          0 cpu:       0.0
 (Enter c:\G09w04\l101.exe)
 ------------------------------------
 Asp-S-opt-freq-cpcm-w-pa1-6-311++gdp
 ------------------------------------
 Symbolic Z-matrix:
 Charge =  0 Multiplicity = 1
 N                    -1.48747   1.90405  -0.11326 
 H                    -1.69155   1.99571   0.87801 
 C                    -0.63909   0.73769  -0.38174 
 H                    -0.54347   0.63547  -1.46326 
 C                     0.74041   0.95088   0.24108 
 C                    -1.30142  -0.52511   0.12419 
 H                     1.14628   1.90005  -0.11693 
 H                     0.67054   1.03208   1.33021 
 C                     1.71753  -0.14924  -0.08913 
 O                    -2.08555  -1.2645   -0.55952 
 O                     1.45638  -1.1463   -0.72513 
 H                    -2.37208   1.83334  -0.60611 
 O                    -1.24334  -0.96268   1.32379 
 H                    -2.10839  -1.75004   0.29144 
 O                     2.93971   0.10271   0.41124 
 H                     3.52852  -0.63243   0.17566 
 
 NAtoms=     16 NQM=     16 NQMF=      0 NMic=      0 NMicF=      0 NTot=     16.
                    Isotopes and Nuclear Properties:
 (Nuclear quadrupole moments (NQMom) in fm**2, nuclear magnetic moments (NMagM)
  in nuclear magnetons)

  Atom         1           2           3           4           5           6           7           8           9          10
 IAtWgt=          14           1          12           1          12          12           1           1          12          16
 AtmWgt=  14.0030740   1.0078250  12.0000000   1.0078250  12.0000000  12.0000000   1.0078250   1.0078250  12.0000000  15.9949146
 NucSpn=           2           1           0           1           0           0           1           1           0           0
 AtZEff=   0.0000000   0.0000000   0.0000000   0.0000000   0.0000000   0.0000000   0.0000000   0.0000000   0.0000000   0.0000000
 NQMom=    2.0440000   0.0000000   0.0000000   0.0000000   0.0000000   0.0000000   0.0000000   0.0000000   0.0000000   0.0000000
 NMagM=    0.4037610   2.7928460   0.0000000   2.7928460   0.0000000   0.0000000   2.7928460   2.7928460   0.0000000   0.0000000

  Atom        11          12          13          14          15          16
 IAtWgt=          16           1          16           1          16           1
 AtmWgt=  15.9949146   1.0078250  15.9949146   1.0078250  15.9949146   1.0078250
 NucSpn=           0           1           0           1           0           1
 AtZEff=   0.0000000   0.0000000   0.0000000   0.0000000   0.0000000   0.0000000
 NQMom=    0.0000000   0.0000000   0.0000000   0.0000000   0.0000000   0.0000000
 NMagM=    0.0000000   2.7928460   0.0000000   2.7928460   0.0000000   2.7928460
 Leave Link  101 at Sat Apr 16 16:35:18 2016, MaxMem=   33554432 cpu:       0.0
 (Enter c:\G09w04\l103.exe)

 GradGradGradGradGradGradGradGradGradGradGradGradGradGradGradGradGradGrad
 Berny optimization.
 Initialization pass.
                           ----------------------------
                           !    Initial Parameters    !
                           ! (Angstroms and Degrees)  !
 --------------------------                            --------------------------
 ! Name  Definition              Value          Derivative Info.                !
 --------------------------------------------------------------------------------
 ! R1    R(1,2)                  1.0162         estimate D2E/DX2                !
 ! R2    R(1,3)                  1.467          estimate D2E/DX2                !
 ! R3    R(1,12)                 1.0151         estimate D2E/DX2                !
 ! R4    R(3,4)                  1.0905         estimate D2E/DX2                !
 ! R5    R(3,5)                  1.5285         estimate D2E/DX2                !
 ! R6    R(3,6)                  1.513          estimate D2E/DX2                !
 ! R7    R(5,7)                  1.0926         estimate D2E/DX2                !
 ! R8    R(5,8)                  1.0944         estimate D2E/DX2                !
 ! R9    R(5,9)                  1.508          estimate D2E/DX2                !
 ! R10   R(6,10)                 1.2763         estimate D2E/DX2                !
 ! R11   R(6,13)                 1.2782         estimate D2E/DX2                !
 ! R12   R(9,11)                 1.2111         estimate D2E/DX2                !
 ! R13   R(9,15)                 1.3445         estimate D2E/DX2                !
 ! R14   R(10,14)                0.98           estimate D2E/DX2                !
 ! R15   R(15,16)                0.9709         estimate D2E/DX2                !
 ! A1    A(2,1,3)              111.4917         estimate D2E/DX2                !
 ! A2    A(2,1,12)             107.7507         estimate D2E/DX2                !
 ! A3    A(3,1,12)             111.0826         estimate D2E/DX2                !
 ! A4    A(1,3,4)              107.8617         estimate D2E/DX2                !
 ! A5    A(1,3,5)              109.6607         estimate D2E/DX2                !
 ! A6    A(1,3,6)              110.4388         estimate D2E/DX2                !
 ! A7    A(4,3,5)              109.7574         estimate D2E/DX2                !
 ! A8    A(4,3,6)              106.9639         estimate D2E/DX2                !
 ! A9    A(5,3,6)              112.0384         estimate D2E/DX2                !
 ! A10   A(3,5,7)              108.8383         estimate D2E/DX2                !
 ! A11   A(3,5,8)              110.992          estimate D2E/DX2                !
 ! A12   A(3,5,9)              113.1915         estimate D2E/DX2                !
 ! A13   A(7,5,8)              106.5803         estimate D2E/DX2                !
 ! A14   A(7,5,9)              108.7412         estimate D2E/DX2                !
 ! A15   A(8,5,9)              108.2655         estimate D2E/DX2                !
 ! A16   A(3,6,10)             124.9813         estimate D2E/DX2                !
 ! A17   A(3,6,13)             125.4243         estimate D2E/DX2                !
 ! A18   A(10,6,13)            109.4105         estimate D2E/DX2                !
 ! A19   A(5,9,11)             125.1593         estimate D2E/DX2                !
 ! A20   A(5,9,15)             111.766          estimate D2E/DX2                !
 ! A21   A(11,9,15)            123.0747         estimate D2E/DX2                !
 ! A22   A(6,10,14)             80.5717         estimate D2E/DX2                !
 ! A23   A(9,15,16)            108.6093         estimate D2E/DX2                !
 ! D1    D(2,1,3,4)            174.2005         estimate D2E/DX2                !
 ! D2    D(2,1,3,5)            -66.3091         estimate D2E/DX2                !
 ! D3    D(2,1,3,6)             57.6342         estimate D2E/DX2                !
 ! D4    D(12,1,3,4)            54.0045         estimate D2E/DX2                !
 ! D5    D(12,1,3,5)           173.4949         estimate D2E/DX2                !
 ! D6    D(12,1,3,6)           -62.5617         estimate D2E/DX2                !
 ! D7    D(1,3,5,7)            -53.9487         estimate D2E/DX2                !
 ! D8    D(1,3,5,8)             63.0426         estimate D2E/DX2                !
 ! D9    D(1,3,5,9)           -174.9789         estimate D2E/DX2                !
 ! D10   D(4,3,5,7)             64.3723         estimate D2E/DX2                !
 ! D11   D(4,3,5,8)           -178.6365         estimate D2E/DX2                !
 ! D12   D(4,3,5,9)            -56.6579         estimate D2E/DX2                !
 ! D13   D(6,3,5,7)           -176.9518         estimate D2E/DX2                !
 ! D14   D(6,3,5,8)            -59.9605         estimate D2E/DX2                !
 ! D15   D(6,3,5,9)             62.018          estimate D2E/DX2                !
 ! D16   D(1,3,6,10)            90.2335         estimate D2E/DX2                !
 ! D17   D(1,3,6,13)           -84.3091         estimate D2E/DX2                !
 ! D18   D(4,3,6,10)           -26.8891         estimate D2E/DX2                !
 ! D19   D(4,3,6,13)           158.5683         estimate D2E/DX2                !
 ! D20   D(5,3,6,10)          -147.2043         estimate D2E/DX2                !
 ! D21   D(5,3,6,13)            38.2531         estimate D2E/DX2                !
 ! D22   D(3,5,9,11)            -3.3844         estimate D2E/DX2                !
 ! D23   D(3,5,9,15)           176.622          estimate D2E/DX2                !
 ! D24   D(7,5,9,11)          -124.4695         estimate D2E/DX2                !
 ! D25   D(7,5,9,15)            55.5369         estimate D2E/DX2                !
 ! D26   D(8,5,9,11)           120.107          estimate D2E/DX2                !
 ! D27   D(8,5,9,15)           -59.8866         estimate D2E/DX2                !
 ! D28   D(3,6,10,14)         -178.4397         estimate D2E/DX2                !
 ! D29   D(13,6,10,14)          -3.1531         estimate D2E/DX2                !
 ! D30   D(5,9,15,16)          179.7933         estimate D2E/DX2                !
 ! D31   D(11,9,15,16)          -0.2005         estimate D2E/DX2                !
 --------------------------------------------------------------------------------
 Trust Radius=3.00D-01 FncErr=1.00D-07 GrdErr=1.00D-06
 Number of steps in this run=     79 maximum allowed number of steps=    100.
 GradGradGradGradGradGradGradGradGradGradGradGradGradGradGradGradGradGrad

 Leave Link  103 at Sat Apr 16 16:35:18 2016, MaxMem=   33554432 cpu:       0.0
 (Enter c:\G09w04\l202.exe)
                          Input orientation:                          
 ---------------------------------------------------------------------
 Center     Atomic      Atomic             Coordinates (Angstroms)
 Number     Number       Type             X           Y           Z
 ---------------------------------------------------------------------
      1          7           0       -1.487465    1.904049   -0.113264
      2          1           0       -1.691547    1.995712    0.878011
      3          6           0       -0.639087    0.737686   -0.381743
      4          1           0       -0.543465    0.635466   -1.463264
      5          6           0        0.740412    0.950880    0.241084
      6          6           0       -1.301418   -0.525107    0.124190
      7          1           0        1.146284    1.900045   -0.116934
      8          1           0        0.670538    1.032077    1.330208
      9          6           0        1.717532   -0.149241   -0.089131
     10          8           0       -2.085548   -1.264503   -0.559524
     11          8           0        1.456378   -1.146302   -0.725127
     12          1           0       -2.372076    1.833335   -0.606113
     13          8           0       -1.243337   -0.962679    1.323791
     14          1           0       -2.108389   -1.750039    0.291436
     15          8           0        2.939709    0.102709    0.411235
     16          1           0        3.528524   -0.632432    0.175664
 ---------------------------------------------------------------------
                    Distance matrix (angstroms):
                    1          2          3          4          5
     1  N    0.000000
     2  H    1.016208   0.000000
     3  C    1.467048   2.068159   0.000000
     4  H    2.079168   2.941076   1.090541   0.000000
     5  C    2.448985   2.722457   1.528523   2.156995   0.000000
     6  C    2.447815   2.659883   1.513042   2.107471   2.522156
     7  H    2.633755   3.008713   2.146800   2.503401   1.092622
     8  H    2.738781   2.590853   2.175445   3.071578   1.094379
     9  C    3.806388   4.142222   2.534939   2.759731   1.508003
    10  O    3.255238   3.584794   2.476412   2.608572   3.678987
    11  O    4.283133   4.727762   2.838714   2.778294   2.417508
    12  H    1.015105   1.640765   2.062532   2.348066   3.344256
    13  O    3.216031   3.025176   2.482983   3.288094   2.961287
    14  H    3.728497   3.814247   2.966613   3.349417   3.925960
    15  O    4.808305   5.024925   3.720187   3.991250   2.363314
    16  H    5.628264   5.886389   4.422319   4.568889   3.206981
                    6          7          8          9         10
     6  C    0.000000
     7  H    3.454091   0.000000
     8  H    2.787097   1.753261   0.000000
     9  C    3.049728   2.127597   2.122789   0.000000
    10  O    1.276335   4.544776   4.054797   3.991052   0.000000
    11  O    2.951722   3.121904   3.096334   1.211125   3.547765
    12  H    2.691078   3.552830   3.694435   4.574142   3.111410
    13  O    1.278235   3.997645   2.764419   3.380056   2.085016
    14  H    1.476357   4.907420   4.067143   4.164739   0.980000
    15  O    4.296941   2.593406   2.618659   1.344456   5.297627
    16  H    4.831408   3.489143   3.503091   1.892956   5.697176
                   11         12         13         14         15
    11  O    0.000000
    12  H    4.852779   0.000000
    13  O    3.394148   3.579983   0.000000
    14  H    3.755724   3.703471   1.560130   0.000000
    15  O    2.247580   5.678479   4.411993   5.378691   0.000000
    16  H    2.317170   6.442691   4.919138   5.747802   0.970891
                   16
    16  H    0.000000
 Symmetry turned off by external request.
 Stoichiometry    C4H7NO4
 Framework group  C1[X(C4H7NO4)]
 Deg. of freedom    42
 Full point group                 C1      NOp   1
 Rotational constants (GHZ):      2.5165842      1.1371252      0.9340166
 Leave Link  202 at Sat Apr 16 16:35:18 2016, MaxMem=   33554432 cpu:       0.0
 (Enter c:\G09w04\l301.exe)
 Standard basis: 6-311++G(d,p) (5D, 7F)
 Ernie: Thresh=  0.10000D-02 Tol=  0.10000D-05 Strict=F.
 Integral buffers will be    262144 words long.
 Raffenetti 2 integral format.
 Two-electron integral symmetry is turned off.
   247 basis functions,   387 primitive gaussians,   256 cartesian basis functions
    35 alpha electrons       35 beta electrons
       nuclear repulsion energy       472.3578186663 Hartrees.
 IExCor=  402 DFT=T Ex+Corr=B3LYP ExCW=0 ScaHFX=  0.200000
 ScaDFX=  0.800000  0.720000  1.000000  0.810000 ScalE2=  1.000000  1.000000
 IRadAn=      0 IRanWt=     -1 IRanGd=            0 ICorTp=0
 NAtoms=   16 NActive=   16 NUniq=   16 SFac= 1.00D+00 NAtFMM=   50 NAOKFM=F Big=F
 ------------------------------------------------------------------------------
 Polarizable Continuum Model (PCM)
 =================================
 Model                : C-PCM.
 Atomic radii         : UFF (Universal Force Field).
 Polarization charges : Total charges.
 Charge compensation  : None.
 Solution method      : Matrix inversion.
 Cavity type          : Scaled VdW (van der Waals Surface) (Alpha=1.100).
 Cavity algorithm     : GePol (No added spheres)
                        Default sphere list used, NSphG=   16.
                        Lebedev-Laikov grids with approx.  5.0 points / Ang**2.
                        Smoothing algorithm: Karplus/York (Gamma=1.0000).
                        Polarization charges: spherical gaussians, with
                                              point-specific exponents (IZeta= 3).
                        Self-potential: point-specific (ISelfS= 7).
                        Self-field    : sphere-specific E.n sum rule (ISelfD= 2).
 1st derivatives      : Analytical E(r).r(x)/FMM algorithm (CHGder, D1EAlg=3).
                        Cavity 1st derivative terms included.
 Solvent              : Water, Eps=  78.355300 Eps(inf)=   1.777849
 ------------------------------------------------------------------------------
 Spheres list:
 ISph  on   Nord    Re0     Alpha      Xe            Ye            Ze
    1   N      1    1.830   1.100     -1.487465      1.904049     -0.113264
    2   H      2    1.443   1.100     -1.691547      1.995712      0.878011
    3   C      3    1.926   1.100     -0.639087      0.737686     -0.381743
    4   H      4    1.443   1.100     -0.543465      0.635466     -1.463264
    5   C      5    1.926   1.100      0.740412      0.950880      0.241084
    6   C      6    1.926   1.100     -1.301418     -0.525107      0.124190
    7   H      7    1.443   1.100      1.146284      1.900045     -0.116934
    8   H      8    1.443   1.100      0.670538      1.032077      1.330208
    9   C      9    1.926   1.100      1.717532     -0.149241     -0.089131
   10   O     10    1.750   1.100     -2.085548     -1.264503     -0.559524
   11   O     11    1.750   1.100      1.456378     -1.146302     -0.725127
   12   H     12    1.443   1.100     -2.372076      1.833335     -0.606113
   13   O     13    1.750   1.100     -1.243337     -0.962679      1.323791
   14   H     14    1.443   1.100     -2.108389     -1.750039      0.291436
   15   O     15    1.750   1.100      2.939709      0.102709      0.411235
   16   H     16    1.443   1.100      3.528524     -0.632432      0.175664
 ------------------------------------------------------------------------------
 GePol: Number of generator spheres                  =      16
 GePol: Total number of spheres                      =      16
 GePol: Number of exposed spheres                    =      16 (100.00%)
 GePol: Number of points                             =    1388
 GePol: Average weight of points                     =       0.13
 GePol: Minimum weight of points                     =   0.83D-08
 GePol: Maximum weight of points                     =    0.20577
 GePol: Number of points with low weight             =      83
 GePol: Fraction of low-weight points (<1% of avg)   =       5.98%
 GePol: Cavity surface area                          =    185.326 Ang**2
 GePol: Cavity volume                                =    177.933 Ang**3
 Leave Link  301 at Sat Apr 16 16:35:18 2016, MaxMem=   33554432 cpu:       0.0
 (Enter c:\G09w04\l302.exe)
 NPDir=0 NMtPBC=     1 NCelOv=     1 NCel=       1 NClECP=     1 NCelD=      1
         NCelK=      1 NCelE2=     1 NClLst=     1 CellRange=     0.0.
 One-electron integrals computed using PRISM.
 NBasis=   247 RedAO= T  NBF=   247
 NBsUse=   247 1.00D-06 NBFU=   247
 Precomputing XC quadrature grid using
 IXCGrd= 2 IRadAn=           0 IRanWt=          -1 IRanGd=           0 AccXCQ= 0.00D+00.
 NRdTot=    1040 NPtTot=      132656 NUsed=      137508 NTot=      137524
 NSgBfM=   256   256   256   256   256 NAtAll=    16    16.
 Leave Link  302 at Sat Apr 16 16:35:19 2016, MaxMem=   33554432 cpu:       1.0
 (Enter c:\G09w04\l303.exe)
 DipDrv:  MaxL=1.
 Leave Link  303 at Sat Apr 16 16:35:19 2016, MaxMem=   33554432 cpu:       0.0
 (Enter c:\G09w04\l401.exe)
 Harris functional with IExCor=  402 diagonalized for initial guess.
 ExpMin= 3.60D-02 ExpMax= 8.59D+03 ExpMxC= 1.30D+03 IAcc=3 IRadAn=         0 AccDes= 0.00D+00
 HarFok:  IExCor=  402 AccDes= 0.00D+00 IRadAn=         0 IDoV= 1
 ScaDFX=  1.000000  1.000000  1.000000  1.000000
 FoFCou: FMM=F IPFlag=           0 FMFlag=      100000 FMFlg1=           0
         NFxFlg=           0 DoJE=T BraDBF=F KetDBF=T FulRan=T
         Omega=  0.000000  0.000000  1.000000  0.000000  0.000000 ICntrl=     500 IOpCl=  0
         NMat0=    1 NMatS0=    1 NMatT0=    0 NMatD0=    1 NMtDS0=    0 NMtDT0=    0
         I1Cent=           4 NGrid=           0.
 Symmetry not used in FoFCou.
 Harris En= -512.452138279274    
 Leave Link  401 at Sat Apr 16 16:35:27 2016, MaxMem=   33554432 cpu:       8.0
 (Enter c:\G09w04\l502.exe)
 Closed shell SCF:
 Requested convergence on RMS density matrix=1.00D-08 within 128 cycles.
 Requested convergence on MAX density matrix=1.00D-06.
 Requested convergence on             energy=1.00D-06.
 No special actions if energy rises.
 Using DIIS extrapolation, IDIIS=  1040.
 Two-electron integral symmetry not used.
       137368 words used for storage of precomputed grid.
 IEnd=      355072 IEndB=      355072 NGot=    33554432 MDV=    33281793
 LenX=    33281793 LenY=    33215816
 Fock matrices will be formed incrementally for  20 cycles.

 Cycle   1  Pass 1  IDiag  1:
 FoFCou: FMM=F IPFlag=           0 FMFlag=      100000 FMFlg1=           0
         NFxFlg=           0 DoJE=F BraDBF=F KetDBF=F FulRan=T
         Omega=  0.000000  0.000000  1.000000  0.000000  0.000000 ICntrl=       0 IOpCl=  0
         NMat0=    1 NMatS0=    1 NMatT0=    0 NMatD0=    1 NMtDS0=    0 NMtDT0=    0
         I1Cent=           0 NGrid=           0.
 Symmetry not used in FoFCou.
 E= -512.195294490777    
 DIIS: error= 2.76D-02 at cycle   1 NSaved=   1.
 NSaved= 1 IEnMin= 1 EnMin= -512.195294490777     IErMin= 1 ErrMin= 2.76D-02
 ErrMax= 2.76D-02 EMaxC= 1.00D-01 BMatC= 3.89D-01 BMatP= 3.89D-01
 IDIUse=3 WtCom= 7.24D-01 WtEn= 2.76D-01
 Coeff-Com:  0.100D+01
 Coeff-En:   0.100D+01
 Coeff:      0.100D+01
 Gap=     0.151 Goal=   None    Shift=    0.000
 GapD=    0.151 DampG=1.000 DampE=0.500 DampFc=0.5000 IDamp=-1.
 Damping current iteration by 5.00D-01
 RMSDP=6.68D-03 MaxDP=1.86D-01              OVMax= 2.33D-01

 Cycle   2  Pass 1  IDiag  1:
 RMSU=  2.36D-03    CP:  9.92D-01
 E= -512.252986476754     Delta-E=       -0.057691985977 Rises=F Damp=T
 DIIS: error= 1.22D-02 at cycle   2 NSaved=   2.
 NSaved= 2 IEnMin= 2 EnMin= -512.252986476754     IErMin= 2 ErrMin= 1.22D-02
 ErrMax= 1.22D-02 EMaxC= 1.00D-01 BMatC= 5.38D-02 BMatP= 3.89D-01
 IDIUse=3 WtCom= 8.78D-01 WtEn= 1.22D-01
 Coeff-Com:  0.228D+00 0.772D+00
 Coeff-En:   0.393D+00 0.607D+00
 Coeff:      0.248D+00 0.752D+00
 Gap=     0.243 Goal=   None    Shift=    0.000
 RMSDP=2.43D-03 MaxDP=2.27D-01 DE=-5.77D-02 OVMax= 1.83D-01

 Cycle   3  Pass 1  IDiag  1:
 RMSU=  1.32D-03    CP:  9.24D-01  7.18D-01
 E= -512.434361788402     Delta-E=       -0.181375311648 Rises=F Damp=F
 DIIS: error= 1.08D-02 at cycle   3 NSaved=   3.
 NSaved= 3 IEnMin= 3 EnMin= -512.434361788402     IErMin= 3 ErrMin= 1.08D-02
 ErrMax= 1.08D-02 EMaxC= 1.00D-01 BMatC= 3.11D-02 BMatP= 5.38D-02
 IDIUse=3 WtCom= 8.92D-01 WtEn= 1.08D-01
 Coeff-Com:  0.938D-01 0.447D+00 0.459D+00
 Coeff-En:   0.000D+00 0.000D+00 0.100D+01
 Coeff:      0.836D-01 0.399D+00 0.518D+00
 Gap=     0.244 Goal=   None    Shift=    0.000
 RMSDP=1.01D-03 MaxDP=3.09D-02 DE=-1.81D-01 OVMax= 7.06D-02

 Cycle   4  Pass 1  IDiag  1:
 RMSU=  6.86D-04    CP:  9.26D-01  7.44D-01  8.60D-01
 E= -512.452818500187     Delta-E=       -0.018456711784 Rises=F Damp=F
 DIIS: error= 5.64D-03 at cycle   4 NSaved=   4.
 NSaved= 4 IEnMin= 4 EnMin= -512.452818500187     IErMin= 4 ErrMin= 5.64D-03
 ErrMax= 5.64D-03 EMaxC= 1.00D-01 BMatC= 7.83D-03 BMatP= 3.11D-02
 IDIUse=3 WtCom= 9.44D-01 WtEn= 5.64D-02
 Coeff-Com:  0.101D-01 0.105D+00 0.340D+00 0.544D+00
 Coeff-En:   0.000D+00 0.000D+00 0.222D+00 0.778D+00
 Coeff:      0.955D-02 0.995D-01 0.334D+00 0.557D+00
 Gap=     0.238 Goal=   None    Shift=    0.000
 RMSDP=3.67D-04 MaxDP=2.24D-02 DE=-1.85D-02 OVMax= 2.82D-02

 Cycle   5  Pass 1  IDiag  1:
 RMSU=  1.56D-04    CP:  9.20D-01  7.44D-01  9.43D-01  7.66D-01
 E= -512.457891125855     Delta-E=       -0.005072625669 Rises=F Damp=F
 DIIS: error= 1.19D-03 at cycle   5 NSaved=   5.
 NSaved= 5 IEnMin= 5 EnMin= -512.457891125855     IErMin= 5 ErrMin= 1.19D-03
 ErrMax= 1.19D-03 EMaxC= 1.00D-01 BMatC= 5.05D-04 BMatP= 7.83D-03
 IDIUse=3 WtCom= 9.88D-01 WtEn= 1.19D-02
 Coeff-Com: -0.160D-02 0.209D-01 0.154D+00 0.328D+00 0.499D+00
 Coeff-En:   0.000D+00 0.000D+00 0.000D+00 0.000D+00 0.100D+01
 Coeff:     -0.158D-02 0.206D-01 0.152D+00 0.324D+00 0.505D+00
 Gap=     0.239 Goal=   None    Shift=    0.000
 RMSDP=1.81D-04 MaxDP=1.71D-02 DE=-5.07D-03 OVMax= 5.69D-03

 Cycle   6  Pass 1  IDiag  1:
 RMSU=  8.94D-05    CP:  9.16D-01  7.38D-01  9.62D-01  7.37D-01  6.16D-01
 E= -512.458289136366     Delta-E=       -0.000398010510 Rises=F Damp=F
 DIIS: error= 2.47D-04 at cycle   6 NSaved=   6.
 NSaved= 6 IEnMin= 6 EnMin= -512.458289136366     IErMin= 6 ErrMin= 2.47D-04
 ErrMax= 2.47D-04 EMaxC= 1.00D-01 BMatC= 2.44D-05 BMatP= 5.05D-04
 IDIUse=3 WtCom= 9.98D-01 WtEn= 2.47D-03
 Coeff-Com: -0.130D-02 0.324D-02 0.540D-01 0.123D+00 0.260D+00 0.561D+00
 Coeff-En:   0.000D+00 0.000D+00 0.000D+00 0.000D+00 0.000D+00 0.100D+01
 Coeff:     -0.129D-02 0.323D-02 0.539D-01 0.123D+00 0.259D+00 0.562D+00
 Gap=     0.239 Goal=   None    Shift=    0.000
 RMSDP=3.13D-05 MaxDP=1.15D-03 DE=-3.98D-04 OVMax= 1.58D-03

 Cycle   7  Pass 1  IDiag  1:
 RMSU=  1.57D-05    CP:  9.16D-01  7.38D-01  9.64D-01  7.49D-01  6.27D-01
                    CP:  8.57D-01
 E= -512.458302412065     Delta-E=       -0.000013275699 Rises=F Damp=F
 DIIS: error= 2.13D-04 at cycle   7 NSaved=   7.
 NSaved= 7 IEnMin= 7 EnMin= -512.458302412065     IErMin= 7 ErrMin= 2.13D-04
 ErrMax= 2.13D-04 EMaxC= 1.00D-01 BMatC= 6.97D-06 BMatP= 2.44D-05
 IDIUse=3 WtCom= 9.98D-01 WtEn= 2.13D-03
 Coeff-Com: -0.580D-03-0.371D-03 0.179D-01 0.427D-01 0.118D+00 0.390D+00
 Coeff-Com:  0.432D+00
 Coeff-En:   0.000D+00 0.000D+00 0.000D+00 0.000D+00 0.000D+00 0.212D+00
 Coeff-En:   0.788D+00
 Coeff:     -0.579D-03-0.370D-03 0.178D-01 0.426D-01 0.118D+00 0.390D+00
 Coeff:      0.433D+00
 Gap=     0.239 Goal=   None    Shift=    0.000
 RMSDP=1.43D-05 MaxDP=1.19D-03 DE=-1.33D-05 OVMax= 7.53D-04

 Cycle   8  Pass 1  IDiag  1:
 RMSU=  5.86D-06    CP:  9.16D-01  7.38D-01  9.64D-01  7.50D-01  6.39D-01
                    CP:  8.10D-01  6.25D-01
 E= -512.458307357519     Delta-E=       -0.000004945454 Rises=F Damp=F
 DIIS: error= 1.75D-05 at cycle   8 NSaved=   8.
 NSaved= 8 IEnMin= 8 EnMin= -512.458307357519     IErMin= 8 ErrMin= 1.75D-05
 ErrMax= 1.75D-05 EMaxC= 1.00D-01 BMatC= 1.47D-07 BMatP= 6.97D-06
 IDIUse=1 WtCom= 1.00D+00 WtEn= 0.00D+00
 Coeff-Com: -0.897D-04-0.442D-03 0.395D-02 0.966D-02 0.346D-01 0.133D+00
 Coeff-Com:  0.186D+00 0.633D+00
 Coeff:     -0.897D-04-0.442D-03 0.395D-02 0.966D-02 0.346D-01 0.133D+00
 Coeff:      0.186D+00 0.633D+00
 Gap=     0.239 Goal=   None    Shift=    0.000
 RMSDP=2.95D-06 MaxDP=1.24D-04 DE=-4.95D-06 OVMax= 7.33D-05

 Cycle   9  Pass 1  IDiag  1:
 RMSU=  1.50D-06    CP:  9.16D-01  7.39D-01  9.64D-01  7.49D-01  6.43D-01
                    CP:  8.16D-01  5.86D-01  8.83D-01
 E= -512.458307459916     Delta-E=       -0.000000102397 Rises=F Damp=F
 DIIS: error= 6.72D-06 at cycle   9 NSaved=   9.
 NSaved= 9 IEnMin= 9 EnMin= -512.458307459916     IErMin= 9 ErrMin= 6.72D-06
 ErrMax= 6.72D-06 EMaxC= 1.00D-01 BMatC= 1.90D-08 BMatP= 1.47D-07
 IDIUse=1 WtCom= 1.00D+00 WtEn= 0.00D+00
 Coeff-Com:  0.299D-04-0.184D-03-0.143D-03-0.291D-03 0.289D-02 0.149D-01
 Coeff-Com:  0.312D-01 0.296D+00 0.656D+00
 Coeff:      0.299D-04-0.184D-03-0.143D-03-0.291D-03 0.289D-02 0.149D-01
 Coeff:      0.312D-01 0.296D+00 0.656D+00
 Gap=     0.239 Goal=   None    Shift=    0.000
 RMSDP=9.84D-07 MaxDP=6.45D-05 DE=-1.02D-07 OVMax= 3.57D-05

 Cycle  10  Pass 1  IDiag  1:
 RMSU=  4.35D-07    CP:  9.16D-01  7.38D-01  9.65D-01  7.49D-01  6.43D-01
                    CP:  8.17D-01  5.90D-01  9.09D-01  8.57D-01
 E= -512.458307475038     Delta-E=       -0.000000015122 Rises=F Damp=F
 DIIS: error= 1.96D-06 at cycle  10 NSaved=  10.
 NSaved=10 IEnMin=10 EnMin= -512.458307475038     IErMin=10 ErrMin= 1.96D-06
 ErrMax= 1.96D-06 EMaxC= 1.00D-01 BMatC= 1.33D-09 BMatP= 1.90D-08
 IDIUse=1 WtCom= 1.00D+00 WtEn= 0.00D+00
 Coeff-Com:  0.143D-04-0.707D-04-0.187D-03-0.432D-03 0.187D-03 0.193D-02
 Coeff-Com:  0.693D-02 0.114D+00 0.317D+00 0.561D+00
 Coeff:      0.143D-04-0.707D-04-0.187D-03-0.432D-03 0.187D-03 0.193D-02
 Coeff:      0.693D-02 0.114D+00 0.317D+00 0.561D+00
 Gap=     0.239 Goal=   None    Shift=    0.000
 RMSDP=2.31D-07 MaxDP=1.20D-05 DE=-1.51D-08 OVMax= 1.21D-05

 Cycle  11  Pass 1  IDiag  1:
 RMSU=  9.28D-08    CP:  9.16D-01  7.38D-01  9.65D-01  7.49D-01  6.43D-01
                    CP:  8.17D-01  5.92D-01  9.21D-01  8.83D-01  8.56D-01
 E= -512.458307476004     Delta-E=       -0.000000000966 Rises=F Damp=F
 DIIS: error= 5.38D-07 at cycle  11 NSaved=  11.
 NSaved=11 IEnMin=11 EnMin= -512.458307476004     IErMin=11 ErrMin= 5.38D-07
 ErrMax= 5.38D-07 EMaxC= 1.00D-01 BMatC= 1.64D-10 BMatP= 1.33D-09
 IDIUse=1 WtCom= 1.00D+00 WtEn= 0.00D+00
 Coeff-Com:  0.296D-05-0.953D-05-0.960D-04-0.233D-03-0.415D-03-0.131D-02
 Coeff-Com: -0.113D-02 0.197D-01 0.762D-01 0.287D+00 0.620D+00
 Coeff:      0.296D-05-0.953D-05-0.960D-04-0.233D-03-0.415D-03-0.131D-02
 Coeff:     -0.113D-02 0.197D-01 0.762D-01 0.287D+00 0.620D+00
 Gap=     0.239 Goal=   None    Shift=    0.000
 RMSDP=7.80D-08 MaxDP=5.10D-06 DE=-9.66D-10 OVMax= 3.56D-06

 Cycle  12  Pass 1  IDiag  1:
 RMSU=  3.88D-08    CP:  9.16D-01  7.38D-01  9.65D-01  7.49D-01  6.43D-01
                    CP:  8.17D-01  5.92D-01  9.24D-01  8.84D-01  8.94D-01
                    CP:  8.62D-01
 E= -512.458307476138     Delta-E=       -0.000000000134 Rises=F Damp=F
 DIIS: error= 8.88D-08 at cycle  12 NSaved=  12.
 NSaved=12 IEnMin=12 EnMin= -512.458307476138     IErMin=12 ErrMin= 8.88D-08
 ErrMax= 8.88D-08 EMaxC= 1.00D-01 BMatC= 4.09D-12 BMatP= 1.64D-10
 IDIUse=1 WtCom= 1.00D+00 WtEn= 0.00D+00
 Coeff-Com: -0.896D-06 0.201D-05-0.116D-04-0.296D-04-0.116D-03-0.395D-03
 Coeff-Com: -0.786D-03-0.138D-02-0.153D-04 0.407D-01 0.176D+00 0.786D+00
 Coeff:     -0.896D-06 0.201D-05-0.116D-04-0.296D-04-0.116D-03-0.395D-03
 Coeff:     -0.786D-03-0.138D-02-0.153D-04 0.407D-01 0.176D+00 0.786D+00
 Gap=     0.239 Goal=   None    Shift=    0.000
 RMSDP=2.29D-08 MaxDP=1.33D-06 DE=-1.34D-10 OVMax= 3.65D-07

 Cycle  13  Pass 1  IDiag  1:
 RMSU=  7.88D-09    CP:  9.16D-01  7.38D-01  9.65D-01  7.49D-01  6.43D-01
                    CP:  8.17D-01  5.91D-01  9.25D-01  8.88D-01  9.08D-01
                    CP:  8.96D-01  8.74D-01
 E= -512.458307476136     Delta-E=        0.000000000002 Rises=F Damp=F
 DIIS: error= 2.84D-08 at cycle  13 NSaved=  13.
 NSaved=13 IEnMin=12 EnMin= -512.458307476138     IErMin=13 ErrMin= 2.84D-08
 ErrMax= 2.84D-08 EMaxC= 1.00D-01 BMatC= 3.94D-13 BMatP= 4.09D-12
 IDIUse=1 WtCom= 1.00D+00 WtEn= 0.00D+00
 Coeff-Com: -0.525D-06 0.123D-05-0.189D-05-0.544D-05-0.386D-04-0.128D-03
 Coeff-Com: -0.329D-03-0.133D-02-0.302D-02 0.722D-02 0.541D-01 0.350D+00
 Coeff-Com:  0.594D+00
 Coeff:     -0.525D-06 0.123D-05-0.189D-05-0.544D-05-0.386D-04-0.128D-03
 Coeff:     -0.329D-03-0.133D-02-0.302D-02 0.722D-02 0.541D-01 0.350D+00
 Coeff:      0.594D+00
 Gap=     0.239 Goal=   None    Shift=    0.000
 RMSDP=5.11D-09 MaxDP=3.30D-07 DE= 1.59D-12 OVMax= 1.12D-07

 Error on total polarization charges =  0.01155
 SCF Done:  E(RB3LYP) =  -512.458307476     A.U. after   13 cycles
             Convg  =    0.5114D-08             -V/T =  2.0032
 KE= 5.108201724111D+02 PE=-2.147644092981D+03 EE= 6.520077944277D+02
 Leave Link  502 at Sat Apr 16 16:43:02 2016, MaxMem=   33554432 cpu:     455.0
 (Enter c:\G09w04\l601.exe)
 Copying SCF densities to generalized density rwf, IOpCl= 0 IROHF=0.

 **********************************************************************

            Population analysis using the SCF density.

 **********************************************************************

 Alpha  occ. eigenvalues --  -19.18811 -19.18808 -19.13697 -19.12611 -14.32419
 Alpha  occ. eigenvalues --  -10.33024 -10.32947 -10.24523 -10.20463  -1.18350
 Alpha  occ. eigenvalues --   -1.13203  -1.04390  -1.00660  -0.92271  -0.79917
 Alpha  occ. eigenvalues --   -0.71913  -0.64100  -0.58408  -0.54265  -0.54064
 Alpha  occ. eigenvalues --   -0.52839  -0.51093  -0.49218  -0.48732  -0.47588
 Alpha  occ. eigenvalues --   -0.44368  -0.43036  -0.41054  -0.40500  -0.38277
 Alpha  occ. eigenvalues --   -0.34881  -0.32930  -0.31119  -0.30738  -0.27547
 Alpha virt. eigenvalues --   -0.03622  -0.02068  -0.01121   0.00245   0.01456
 Alpha virt. eigenvalues --    0.01817   0.02776   0.04619   0.05233   0.06357
 Alpha virt. eigenvalues --    0.06905   0.07952   0.08652   0.09318   0.10068
 Alpha virt. eigenvalues --    0.10274   0.10539   0.11631   0.12068   0.12553
 Alpha virt. eigenvalues --    0.13347   0.13706   0.14236   0.15422   0.16201
 Alpha virt. eigenvalues --    0.16481   0.16949   0.19085   0.19482   0.19907
 Alpha virt. eigenvalues --    0.20824   0.21763   0.22271   0.22711   0.22980
 Alpha virt. eigenvalues --    0.23853   0.24337   0.25347   0.26049   0.26419
 Alpha virt. eigenvalues --    0.27383   0.27800   0.28760   0.29327   0.29932
 Alpha virt. eigenvalues --    0.30505   0.30586   0.32538   0.33145   0.34240
 Alpha virt. eigenvalues --    0.35093   0.35232   0.36402   0.37253   0.38826
 Alpha virt. eigenvalues --    0.39040   0.40167   0.41180   0.45288   0.47852
 Alpha virt. eigenvalues --    0.50566   0.52029   0.53488   0.54232   0.55541
 Alpha virt. eigenvalues --    0.57679   0.58700   0.61167   0.62729   0.65114
 Alpha virt. eigenvalues --    0.65637   0.66346   0.68029   0.70566   0.70775
 Alpha virt. eigenvalues --    0.72381   0.73944   0.75027   0.78770   0.83702
 Alpha virt. eigenvalues --    0.85580   0.86866   0.90503   0.91771   0.97763
 Alpha virt. eigenvalues --    0.99864   1.02279   1.05596   1.06002   1.07245
 Alpha virt. eigenvalues --    1.10550   1.11373   1.13581   1.15293   1.15684
 Alpha virt. eigenvalues --    1.16247   1.18452   1.19083   1.21441   1.23832
 Alpha virt. eigenvalues --    1.25781   1.28124   1.29001   1.33264   1.35870
 Alpha virt. eigenvalues --    1.38144   1.40338   1.42400   1.47861   1.49177
 Alpha virt. eigenvalues --    1.49821   1.50813   1.55397   1.55952   1.57731
 Alpha virt. eigenvalues --    1.58770   1.60021   1.64829   1.67889   1.69843
 Alpha virt. eigenvalues --    1.71691   1.73306   1.76551   1.79011   1.81853
 Alpha virt. eigenvalues --    1.84570   1.86534   1.89025   1.93102   1.94739
 Alpha virt. eigenvalues --    1.95721   2.01585   2.02698   2.06361   2.08803
 Alpha virt. eigenvalues --    2.12834   2.18772   2.24128   2.28142   2.33836
 Alpha virt. eigenvalues --    2.38196   2.46227   2.53016   2.55051   2.55916
 Alpha virt. eigenvalues --    2.58480   2.60383   2.62636   2.65178   2.66780
 Alpha virt. eigenvalues --    2.71169   2.73965   2.76973   2.80117   2.82777
 Alpha virt. eigenvalues --    2.85335   2.87699   2.90127   2.91864   2.95232
 Alpha virt. eigenvalues --    2.98096   3.00267   3.03115   3.04463   3.06175
 Alpha virt. eigenvalues --    3.09199   3.10977   3.16227   3.19166   3.22057
 Alpha virt. eigenvalues --    3.23076   3.24522   3.30659   3.34572   3.35324
 Alpha virt. eigenvalues --    3.52093   3.57262   3.59071   3.66153   3.73607
 Alpha virt. eigenvalues --    3.75018   3.79985   3.81015   4.02858   4.05407
 Alpha virt. eigenvalues --    4.06732   4.09801   4.14707   4.33489   4.71782
 Alpha virt. eigenvalues --    4.83050   4.94966   4.97945   5.02480   5.07409
 Alpha virt. eigenvalues --    5.15730   5.19002   5.36385   5.47323   5.53396
 Alpha virt. eigenvalues --    5.59508   5.78426   5.84357  23.76456  23.78371
 Alpha virt. eigenvalues --   23.81301  23.90183  35.58486  49.85352  49.87440
 Alpha virt. eigenvalues --   49.97299  50.00298
          Condensed to atoms (all electrons):
              1          2          3          4          5          6
     1  N    6.646378   0.373659   0.091726  -0.052551  -0.041220  -0.089571
     2  H    0.373659   0.431330  -0.001593   0.008674  -0.019154  -0.017237
     3  C    0.091726  -0.001593   8.060648   0.582138  -0.642759  -1.487447
     4  H   -0.052551   0.008674   0.582138   0.494173  -0.063626  -0.196381
     5  C   -0.041220  -0.019154  -0.642759  -0.063626   7.153149   0.059083
     6  C   -0.089571  -0.017237  -1.487447  -0.196381   0.059083   7.034502
     7  H    0.002659   0.000186  -0.097390  -0.009152   0.412748   0.013912
     8  H   -0.006723   0.002244   0.088021   0.011476   0.415864  -0.106417
     9  C    0.038392   0.000115  -0.070245  -0.047360  -0.670381   0.216131
    10  O   -0.022391  -0.003103  -0.213587   0.000075   0.008039   0.298387
    11  O   -0.000740  -0.000112   0.102081  -0.004318  -0.140025  -0.015667
    12  H    0.394403  -0.041081  -0.073256  -0.014689   0.014396   0.027234
    13  O   -0.014268   0.006472  -0.099235   0.004002   0.042801   0.427641
    14  H   -0.001473   0.000197  -0.013088  -0.001008   0.003674   0.009898
    15  O    0.000571   0.000232   0.029068  -0.000828  -0.280163  -0.001925
    16  H    0.000320  -0.000119  -0.007719  -0.001711  -0.041948   0.003980
              7          8          9         10         11         12
     1  N    0.002659  -0.006723   0.038392  -0.022391  -0.000740   0.394403
     2  H    0.000186   0.002244   0.000115  -0.003103  -0.000112  -0.041081
     3  C   -0.097390   0.088021  -0.070245  -0.213587   0.102081  -0.073256
     4  H   -0.009152   0.011476  -0.047360   0.000075  -0.004318  -0.014689
     5  C    0.412748   0.415864  -0.670381   0.008039  -0.140025   0.014396
     6  C    0.013912  -0.106417   0.216131   0.298387  -0.015667   0.027234
     7  H    0.462994  -0.025182  -0.002196   0.000004   0.002728   0.001134
     8  H   -0.025182   0.440547  -0.064291  -0.000720   0.000283  -0.000967
     9  C   -0.002196  -0.064291   5.821018  -0.018561   0.439754   0.001507
    10  O    0.000004  -0.000720  -0.018561   8.012427  -0.000849   0.000405
    11  O    0.002728   0.000283   0.439754  -0.000849   8.066377   0.000323
    12  H    0.001134  -0.000967   0.001507   0.000405   0.000323   0.414921
    13  O    0.001380  -0.005825  -0.018255  -0.235776  -0.006324  -0.000794
    14  H    0.000605  -0.003305  -0.000261   0.268492  -0.000358   0.000827
    15  O   -0.001494  -0.005583   0.308359  -0.000041  -0.119596  -0.000023
    16  H    0.001854   0.000254   0.044409  -0.000225  -0.004282   0.000061
             13         14         15         16
     1  N   -0.014268  -0.001473   0.000571   0.000320
     2  H    0.006472   0.000197   0.000232  -0.000119
     3  C   -0.099235  -0.013088   0.029068  -0.007719
     4  H    0.004002  -0.001008  -0.000828  -0.001711
     5  C    0.042801   0.003674  -0.280163  -0.041948
     6  C    0.427641   0.009898  -0.001925   0.003980
     7  H    0.001380   0.000605  -0.001494   0.001854
     8  H   -0.005825  -0.003305  -0.005583   0.000254
     9  C   -0.018255  -0.000261   0.308359   0.044409
    10  O   -0.235776   0.268492  -0.000041  -0.000225
    11  O   -0.006324  -0.000358  -0.119596  -0.004282
    12  H   -0.000794   0.000827  -0.000023   0.000061
    13  O    8.241764   0.056722  -0.000720   0.000537
    14  H    0.056722   0.388977   0.000060   0.000034
    15  O   -0.000720   0.000060   7.989697   0.270613
    16  H    0.000537   0.000034   0.270613   0.413976
 Mulliken atomic charges:
              1
     1  N   -0.319172
     2  H    0.259290
     3  C   -0.247363
     4  H    0.291085
     5  C   -0.210479
     6  C   -0.176124
     7  H    0.235210
     8  H    0.260324
     9  C    0.021863
    10  O   -0.092578
    11  O   -0.319274
    12  H    0.275597
    13  O   -0.400122
    14  H    0.290007
    15  O   -0.188228
    16  H    0.319964
 Sum of Mulliken atomic charges =   0.00000
 Mulliken charges with hydrogens summed into heavy atoms:
              1
     1  N    0.215715
     3  C    0.043721
     5  C    0.285055
     6  C   -0.176124
     9  C    0.021863
    10  O    0.197429
    11  O   -0.319274
    13  O   -0.400122
    15  O    0.131736
 Sum of Mulliken charges with hydrogens summed into heavy atoms =   0.00000
 Electronic spatial extent (au):  <R**2>=           1262.5984
 Charge=              0.0000 electrons
 Dipole moment (field-independent basis, Debye):
    X=              0.3613    Y=              2.3913    Z=             -0.4449  Tot=              2.4590
 Quadrupole moment (field-independent basis, Debye-Ang):
   XX=            -41.9141   YY=            -56.8986   ZZ=            -57.3208
   XY=             -3.8985   XZ=              0.8220   YZ=             -0.0441
 Traceless Quadrupole moment (field-independent basis, Debye-Ang):
   XX=             10.1304   YY=             -4.8541   ZZ=             -5.2763
   XY=             -3.8985   XZ=              0.8220   YZ=             -0.0441
 Octapole moment (field-independent basis, Debye-Ang**2):
  XXX=             22.8520  YYY=            -14.8028  ZZZ=            -12.3287  XYY=             -3.7257
  XXY=             -6.4875  XXZ=             -2.3106  XZZ=              2.6714  YZZ=             10.5129
  YYZ=              6.1555  XYZ=             -5.0952
 Hexadecapole moment (field-independent basis, Debye-Ang**3):
 XXXX=           -758.3956 YYYY=           -460.2428 ZZZZ=           -183.4899 XXXY=            -84.9361
 XXXZ=            -14.3247 YYYX=             27.8813 YYYZ=              7.2042 ZZZX=              8.1816
 ZZZY=              6.8179 XXYY=           -200.6187 XXZZ=           -198.9546 YYZZ=           -103.4608
 XXYZ=            -17.1242 YYXZ=             -4.7057 ZZXY=            -10.2740
 N-N= 4.723578186663D+02 E-N=-2.147644090249D+03  KE= 5.108201724111D+02
 No NMR shielding tensors so no spin-rotation constants.
 Leave Link  601 at Sat Apr 16 16:43:02 2016, MaxMem=   33554432 cpu:       0.0
 (Enter c:\G09w04\l701.exe)
 Compute integral first derivatives.
 ... and contract with generalized density number  0.
 D1PCM: C-PCM CHGder 1st derivatives, ID1Alg=3 FixD1E=F DoIter=F DoCFld=F I1PDM=0.
 GePol: Maximum number of non-zero 1st derivatives   =     210
 Leave Link  701 at Sat Apr 16 16:43:11 2016, MaxMem=   33554432 cpu:       9.0
 (Enter c:\G09w04\l702.exe)
 L702 exits ... SP integral derivatives will be done elsewhere.
 Leave Link  702 at Sat Apr 16 16:43:11 2016, MaxMem=   33554432 cpu:       0.0
 (Enter c:\G09w04\l703.exe)
 Compute integral first derivatives, UseDBF=F ICtDFT=           0.
 Integral derivatives from FoFDir, PRISM(SPDF).
 Calling FoFJK, ICntrl=      2127 FMM=F ISym2X=0 I1Cent= 0 IOpClX= 0 NMat=1 NMatS=1 NMatT=0.
 FoFCou: FMM=F IPFlag=           0 FMFlag=      100000 FMFlg1=         800
         NFxFlg=           0 DoJE=F BraDBF=F KetDBF=F FulRan=T
         Omega=  0.000000  0.000000  1.000000  0.000000  0.000000 ICntrl=    2127 IOpCl=  0
         NMat0=    1 NMatS0=    1 NMatT0=    0 NMatD0=    1 NMtDS0=    0 NMtDT0=    0
         I1Cent=           0 NGrid=           0.
 Symmetry not used in FoFCou.
 Leave Link  703 at Sat Apr 16 16:45:14 2016, MaxMem=   33554432 cpu:     123.0
 (Enter c:\G09w04\l716.exe)
 Dipole        = 1.42154779D-01 9.40797186D-01-1.75035746D-01
 -------------------------------------------------------------------
 Center     Atomic                   Forces (Hartrees/Bohr)
 Number     Number              X              Y              Z
 -------------------------------------------------------------------
      1        7          -0.000251803    0.000506638   -0.000542682
      2        1           0.000089051   -0.000585268    0.000072965
      3        6          -0.002663079   -0.001080948   -0.003969962
      4        1           0.000589253    0.001103638   -0.001051219
      5        6          -0.000468879   -0.000850438    0.000204692
      6        6           0.035521293    0.020625199    0.072488644
      7        1          -0.000213924   -0.000045295   -0.000236296
      8        1          -0.000342683   -0.000323739   -0.000303944
      9        6          -0.000604386    0.000161791    0.000133410
     10        8          -0.015450912   -0.004117929   -0.048476915
     11        8           0.000094652   -0.000085852   -0.000230182
     12        1          -0.000047925    0.000387306   -0.000004610
     13        8           0.023461543    0.036464209   -0.018633810
     14        1          -0.039865235   -0.052099578    0.000522286
     15        8           0.000166744   -0.000070298    0.000026704
     16        1          -0.000013708    0.000010564    0.000000918
 -------------------------------------------------------------------
 Cartesian Forces:  Max     0.072488644 RMS     0.018319145
 Leave Link  716 at Sat Apr 16 16:45:14 2016, MaxMem=   33554432 cpu:       0.0
 (Enter c:\G09w04\l103.exe)

 GradGradGradGradGradGradGradGradGradGradGradGradGradGradGradGradGradGrad
 Berny optimization.
 Internal  Forces:  Max     0.110470272 RMS     0.020392347
 Search for a local minimum.
 Step number   1 out of a maximum of   79
 All quantities printed in internal units (Hartrees-Bohrs-Radians)
 RMS Force = .20392D-01 SwitMx=.10000D-02 MixMth= 1
 Mixed Optimization -- RFO/linear search
 Second derivative matrix not updated -- first step.
 ITU=  0
     Eigenvalues ---    0.00389   0.00593   0.00660   0.00805   0.01086
     Eigenvalues ---    0.01157   0.02427   0.03328   0.03975   0.04042
     Eigenvalues ---    0.04493   0.05137   0.05375   0.06579   0.09528
     Eigenvalues ---    0.12917   0.16000   0.16000   0.16000   0.16000
     Eigenvalues ---    0.17463   0.18473   0.21947   0.24965   0.25000
     Eigenvalues ---    0.25000   0.25000   0.29560   0.31047   0.31552
     Eigenvalues ---    0.34311   0.34511   0.34750   0.36096   0.44949
     Eigenvalues ---    0.45128   0.51385   0.53195   0.56218   0.73619
     Eigenvalues ---    0.74218   0.99426
 RFO step:  Lambda=-8.23403301D-02 EMin= 3.88642470D-03
 Linear search not attempted -- first point.
 Maximum step size (   0.300) exceeded in Quadratic search.
    -- Step size scaled by   0.565
 Iteration  1 RMS(Cart)=  0.05913030 RMS(Int)=  0.01062337
 Iteration  2 RMS(Cart)=  0.01654561 RMS(Int)=  0.00063308
 Iteration  3 RMS(Cart)=  0.00069135 RMS(Int)=  0.00000514
 Iteration  4 RMS(Cart)=  0.00000098 RMS(Int)=  0.00000510
 Variable       Old X    -DE/DX   Delta X   Delta X   Delta X     New X
                                 (Linear)    (Quad)   (Total)
    R1        1.92035   0.00000   0.00000   0.00000   0.00000   1.92035
    R2        2.77232   0.00028   0.00000   0.00035   0.00035   2.77267
    R3        1.91827   0.00002   0.00000   0.00002   0.00002   1.91829
    R4        2.06082   0.00099   0.00000   0.00131   0.00131   2.06213
    R5        2.88849  -0.00158   0.00000  -0.00236  -0.00236   2.88613
    R6        2.85924  -0.00035   0.00000  -0.00051  -0.00051   2.85873
    R7        2.06476  -0.00004   0.00000  -0.00005  -0.00005   2.06470
    R8        2.06808  -0.00031   0.00000  -0.00041  -0.00041   2.06767
    R9        2.84971  -0.00024   0.00000  -0.00034  -0.00034   2.84937
   R10        2.41192   0.09223   0.00000   0.06324   0.06324   2.47516
   R11        2.41551  -0.02890   0.00000  -0.01996  -0.01996   2.39555
   R12        2.28869   0.00017   0.00000   0.00009   0.00009   2.28878
   R13        2.54065   0.00014   0.00000   0.00013   0.00013   2.54078
   R14        1.85193   0.02720   0.00000   0.02579   0.02579   1.87773
   R15        1.83472  -0.00002   0.00000  -0.00002  -0.00002   1.83470
    A1        1.94590  -0.00099   0.00000  -0.00237  -0.00237   1.94352
    A2        1.88061   0.00008   0.00000   0.00008   0.00008   1.88068
    A3        1.93876   0.00070   0.00000   0.00159   0.00159   1.94034
    A4        1.88254  -0.00064   0.00000  -0.00102  -0.00102   1.88152
    A5        1.91394   0.00102   0.00000   0.00150   0.00150   1.91544
    A6        1.92752   0.00047   0.00000   0.00088   0.00088   1.92840
    A7        1.91563  -0.00008   0.00000  -0.00063  -0.00063   1.91500
    A8        1.86687   0.00135   0.00000   0.00421   0.00421   1.87108
    A9        1.95544  -0.00209   0.00000  -0.00479  -0.00479   1.95065
   A10        1.89959  -0.00003   0.00000  -0.00018  -0.00018   1.89941
   A11        1.93718  -0.00025   0.00000  -0.00086  -0.00086   1.93631
   A12        1.97557  -0.00028   0.00000  -0.00066  -0.00066   1.97491
   A13        1.86018   0.00019   0.00000   0.00083   0.00083   1.86101
   A14        1.89789   0.00015   0.00000   0.00041   0.00041   1.89831
   A15        1.88959   0.00025   0.00000   0.00057   0.00057   1.89016
   A16        2.18133  -0.03949   0.00000  -0.06699  -0.06698   2.11435
   A17        2.18907  -0.02520   0.00000  -0.04279  -0.04279   2.14628
   A18        1.90957   0.06463   0.00000   0.11017   0.11018   2.01975
   A19        2.18444   0.00008   0.00000   0.00013   0.00013   2.18458
   A20        1.95068   0.00006   0.00000   0.00010   0.00010   1.95079
   A21        2.14806  -0.00014   0.00000  -0.00024  -0.00024   2.14782
   A22        1.40624   0.11047   0.00000   0.25771   0.25771   1.66395
   A23        1.89559   0.00000   0.00000   0.00000   0.00000   1.89559
    D1        3.04037   0.00030   0.00000   0.00082   0.00082   3.04119
    D2       -1.15731   0.00041   0.00000   0.00031   0.00031  -1.15700
    D3        1.00591  -0.00122   0.00000  -0.00412  -0.00412   1.00178
    D4        0.94256   0.00039   0.00000   0.00125   0.00125   0.94380
    D5        3.02806   0.00050   0.00000   0.00074   0.00074   3.02880
    D6       -1.09191  -0.00112   0.00000  -0.00370  -0.00370  -1.09560
    D7       -0.94158   0.00006   0.00000   0.00009   0.00009  -0.94149
    D8        1.10030   0.00014   0.00000   0.00050   0.00050   1.10080
    D9       -3.05396   0.00008   0.00000   0.00012   0.00012  -3.05383
   D10        1.12351  -0.00015   0.00000  -0.00063  -0.00063   1.12288
   D11       -3.11779  -0.00008   0.00000  -0.00022  -0.00023  -3.11802
   D12       -0.98887  -0.00014   0.00000  -0.00060  -0.00060  -0.98947
   D13       -3.08839   0.00017   0.00000   0.00120   0.00120  -3.08719
   D14       -1.04651   0.00024   0.00000   0.00160   0.00160  -1.04491
   D15        1.08242   0.00018   0.00000   0.00123   0.00123   1.08365
   D16        1.57487   0.00137   0.00000   0.00742   0.00742   1.58229
   D17       -1.47147  -0.00103   0.00000  -0.00396  -0.00395  -1.47542
   D18       -0.46930   0.00110   0.00000   0.00575   0.00574  -0.46357
   D19        2.76754  -0.00130   0.00000  -0.00564  -0.00563   2.76191
   D20       -2.56920   0.00156   0.00000   0.00663   0.00662  -2.56258
   D21        0.66764  -0.00084   0.00000  -0.00476  -0.00475   0.66290
   D22       -0.05907   0.00017   0.00000   0.00086   0.00086  -0.05821
   D23        3.08264   0.00009   0.00000   0.00039   0.00039   3.08303
   D24       -2.17240   0.00028   0.00000   0.00123   0.00123  -2.17117
   D25        0.96930   0.00020   0.00000   0.00076   0.00076   0.97006
   D26        2.09626  -0.00016   0.00000  -0.00028  -0.00028   2.09599
   D27       -1.04522  -0.00023   0.00000  -0.00075  -0.00075  -1.04596
   D28       -3.11436   0.00281   0.00000   0.00854   0.00851  -3.10585
   D29       -0.05503   0.00152   0.00000   0.01265   0.01268  -0.04236
   D30        3.13799   0.00004   0.00000   0.00024   0.00024   3.13822
   D31       -0.00350  -0.00004   0.00000  -0.00022  -0.00022  -0.00372
         Item               Value     Threshold  Converged?
 Maximum Force            0.110470     0.000450     NO 
 RMS     Force            0.020392     0.000300     NO 
 Maximum Displacement     0.353386     0.001800     NO 
 RMS     Displacement     0.073668     0.001200     NO 
 Predicted change in Energy=-3.711650D-02
 GradGradGradGradGradGradGradGradGradGradGradGradGradGradGradGradGradGrad

 Leave Link  103 at Sat Apr 16 16:45:14 2016, MaxMem=   33554432 cpu:       0.0
 (Enter c:\G09w04\l202.exe)
                          Input orientation:                          
 ---------------------------------------------------------------------
 Center     Atomic      Atomic             Coordinates (Angstroms)
 Number     Number       Type             X           Y           Z
 ---------------------------------------------------------------------
      1          7           0       -1.482647    1.904266   -0.110731
      2          1           0       -1.675324    2.012980    0.881101
      3          6           0       -0.633715    0.734909   -0.365076
      4          1           0       -0.548993    0.612927   -1.446154
      5          6           0        0.750990    0.961531    0.238086
      6          6           0       -1.283347   -0.519056    0.177176
      7          1           0        1.151341    1.904259   -0.142368
      8          1           0        0.691914    1.062768    1.325953
      9          6           0        1.725343   -0.143696   -0.082289
     10          8           0       -2.078027   -1.246642   -0.567592
     11          8           0        1.458445   -1.152429   -0.697236
     12          1           0       -2.372766    1.822763   -0.591882
     13          8           0       -1.173172   -0.885886    1.385601
     14          1           0       -2.295393   -1.904602    0.144575
     15          8           0        2.952769    0.118235    0.399953
     16          1           0        3.539625   -0.620666    0.171404
 ---------------------------------------------------------------------
                    Distance matrix (angstroms):
                    1          2          3          4          5
     1  N    0.000000
     2  H    1.016205   0.000000
     3  C    1.467233   2.066730   0.000000
     4  H    2.079091   2.940218   1.091232   0.000000
     5  C    2.449399   2.721399   1.527275   2.155955   0.000000
     6  C    2.448490   2.657134   1.512775   2.110892   2.516819
     7  H    2.634178   3.008213   2.145555   2.501706   1.092595
     8  H    2.738776   2.589327   2.173560   3.070306   1.094164
     9  C    3.806068   4.140520   2.533194   2.757754   1.507823
    10  O    3.239047   3.589710   2.460405   2.562775   3.678108
    11  O    4.282218   4.725618   2.837165   2.776178   2.417467
    12  H    1.015117   1.640819   2.063775   2.349390   3.344910
    13  O    3.181153   2.984980   2.445989   3.264181   2.903815
    14  H    3.902975   4.034154   3.160369   3.452286   4.183767
    15  O    4.808703   5.024023   3.718659   3.989382   2.363299
    16  H    5.628330   5.885189   4.420652   4.566732   3.206911
                    6          7          8          9         10
     6  C    0.000000
     7  H    3.449967   0.000000
     8  H    2.779121   1.753610   0.000000
     9  C    3.043096   2.127724   2.122894   0.000000
    10  O    1.309800   4.531867   4.073261   3.989691   0.000000
    11  O    2.946724   3.121784   3.096443   1.211171   3.540101
    12  H    2.694885   3.553595   3.694313   4.573964   3.083620
    13  O    1.267672   3.939919   2.698028   3.332708   2.182629
    14  H    1.716110   5.144874   4.373206   4.395289   0.993650
    15  O    4.289575   2.594058   2.619367   1.344523   5.301693
    16  H    4.824046   3.489642   3.503768   1.893008   5.700524
                   11         12         13         14         15
    11  O    0.000000
    12  H    4.851912   0.000000
    13  O    3.366700   3.561776   0.000000
    14  H    3.919911   3.800211   1.958904   0.000000
    15  O    2.247536   5.678951   4.359261   5.630301   0.000000
    16  H    2.317028   6.442773   4.873918   5.974667   0.970880
                   16
    16  H    0.000000
 Symmetry turned off by external request.
 Stoichiometry    C4H7NO4
 Framework group  C1[X(C4H7NO4)]
 Deg. of freedom    42
 Full point group                 C1      NOp   1
 Rotational constants (GHZ):      2.5161894      1.1363136      0.9394101
 Leave Link  202 at Sat Apr 16 16:45:14 2016, MaxMem=   33554432 cpu:       0.0
 (Enter c:\G09w04\l301.exe)
 Standard basis: 6-311++G(d,p) (5D, 7F)
 Ernie: Thresh=  0.10000D-02 Tol=  0.10000D-05 Strict=F.
 Integral buffers will be    262144 words long.
 Raffenetti 2 integral format.
 Two-electron integral symmetry is turned off.
   247 basis functions,   387 primitive gaussians,   256 cartesian basis functions
    35 alpha electrons       35 beta electrons
       nuclear repulsion energy       471.1143938536 Hartrees.
 IExCor=  402 DFT=T Ex+Corr=B3LYP ExCW=0 ScaHFX=  0.200000
 ScaDFX=  0.800000  0.720000  1.000000  0.810000 ScalE2=  1.000000  1.000000
 IRadAn=      0 IRanWt=     -1 IRanGd=            0 ICorTp=0
 NAtoms=   16 NActive=   16 NUniq=   16 SFac= 1.00D+00 NAtFMM=   50 NAOKFM=F Big=F
 ------------------------------------------------------------------------------
 Polarizable Continuum Model (PCM)
 =================================
 Model                : C-PCM.
 Atomic radii         : UFF (Universal Force Field).
 Polarization charges : Total charges.
 Charge compensation  : None.
 Solution method      : Matrix inversion.
 Cavity type          : Scaled VdW (van der Waals Surface) (Alpha=1.100).
 Cavity algorithm     : GePol (No added spheres)
                        Default sphere list used, NSphG=   16.
                        Lebedev-Laikov grids with approx.  5.0 points / Ang**2.
                        Smoothing algorithm: Karplus/York (Gamma=1.0000).
                        Polarization charges: spherical gaussians, with
                                              point-specific exponents (IZeta= 3).
                        Self-potential: point-specific (ISelfS= 7).
                        Self-field    : sphere-specific E.n sum rule (ISelfD= 2).
 1st derivatives      : Analytical E(r).r(x)/FMM algorithm (CHGder, D1EAlg=3).
                        Cavity 1st derivative terms included.
 Solvent              : Water, Eps=  78.355300 Eps(inf)=   1.777849
 ------------------------------------------------------------------------------
 Spheres list:
 ISph  on   Nord    Re0     Alpha      Xe            Ye            Ze
    1   N      1    1.830   1.100     -1.482647      1.904266     -0.110731
    2   H      2    1.443   1.100     -1.675324      2.012980      0.881101
    3   C      3    1.926   1.100     -0.633715      0.734909     -0.365076
    4   H      4    1.443   1.100     -0.548993      0.612927     -1.446154
    5   C      5    1.926   1.100      0.750990      0.961531      0.238086
    6   C      6    1.926   1.100     -1.283347     -0.519056      0.177176
    7   H      7    1.443   1.100      1.151341      1.904259     -0.142368
    8   H      8    1.443   1.100      0.691914      1.062768      1.325953
    9   C      9    1.926   1.100      1.725343     -0.143696     -0.082289
   10   O     10    1.750   1.100     -2.078027     -1.246642     -0.567592
   11   O     11    1.750   1.100      1.458445     -1.152429     -0.697236
   12   H     12    1.443   1.100     -2.372766      1.822763     -0.591882
   13   O     13    1.750   1.100     -1.173172     -0.885886      1.385601
   14   H     14    1.443   1.100     -2.295393     -1.904602      0.144575
   15   O     15    1.750   1.100      2.952769      0.118235      0.399953
   16   H     16    1.443   1.100      3.539625     -0.620666      0.171404
 ------------------------------------------------------------------------------
 GePol: Number of generator spheres                  =      16
 GePol: Total number of spheres                      =      16
 GePol: Number of exposed spheres                    =      16 (100.00%)
 GePol: Number of points                             =    1384
 GePol: Average weight of points                     =       0.13
 GePol: Minimum weight of points                     =   0.15D-09
 GePol: Maximum weight of points                     =    0.20577
 GePol: Number of points with low weight             =      77
 GePol: Fraction of low-weight points (<1% of avg)   =       5.56%
 GePol: Cavity surface area                          =    186.538 Ang**2
 GePol: Cavity volume                                =    179.333 Ang**3
 Leave Link  301 at Sat Apr 16 16:45:15 2016, MaxMem=   33554432 cpu:       1.0
 (Enter c:\G09w04\l302.exe)
 NPDir=0 NMtPBC=     1 NCelOv=     1 NCel=       1 NClECP=     1 NCelD=      1
         NCelK=      1 NCelE2=     1 NClLst=     1 CellRange=     0.0.
 One-electron integrals computed using PRISM.
 NBasis=   247 RedAO= T  NBF=   247
 NBsUse=   247 1.00D-06 NBFU=   247
 Precomputing XC quadrature grid using
 IXCGrd= 2 IRadAn=           0 IRanWt=          -1 IRanGd=           0 AccXCQ= 0.00D+00.
 NRdTot=    1040 NPtTot=      132656 NUsed=      137508 NTot=      137524
 NSgBfM=   256   256   256   256   256 NAtAll=    16    16.
 Leave Link  302 at Sat Apr 16 16:45:15 2016, MaxMem=   33554432 cpu:       0.0
 (Enter c:\G09w04\l303.exe)
 DipDrv:  MaxL=1.
 Leave Link  303 at Sat Apr 16 16:45:15 2016, MaxMem=   33554432 cpu:       0.0
 (Enter c:\G09w04\l401.exe)
 Initial guess read from the read-write file.
 B after Tr=     0.000000    0.000000    0.000000
         Rot=    1.000000    0.000000    0.000000    0.000000 Ang=   0.00 deg.
 Guess basis will be translated and rotated to current coordinates.
 Generating alternative initial guess.
 Harris functional with IExCor=  402 diagonalized for initial guess.
 ExpMin= 3.60D-02 ExpMax= 8.59D+03 ExpMxC= 1.30D+03 IAcc=3 IRadAn=         0 AccDes= 0.00D+00
 HarFok:  IExCor=  402 AccDes= 0.00D+00 IRadAn=         0 IDoV= 1
 ScaDFX=  1.000000  1.000000  1.000000  1.000000
 FoFCou: FMM=F IPFlag=           0 FMFlag=      100000 FMFlg1=           0
         NFxFlg=           0 DoJE=T BraDBF=F KetDBF=T FulRan=T
         Omega=  0.000000  0.000000  1.000000  0.000000  0.000000 ICntrl=     500 IOpCl=  0
         NMat0=    1 NMatS0=    1 NMatT0=    0 NMatD0=    1 NMtDS0=    0 NMtDT0=    0
         I1Cent=           4 NGrid=           0.
 Symmetry not used in FoFCou.
 Harris En= -512.485784491752    
 Leave Link  401 at Sat Apr 16 16:45:25 2016, MaxMem=   33554432 cpu:      10.0
 (Enter c:\G09w04\l502.exe)
 Closed shell SCF:
 Requested convergence on RMS density matrix=1.00D-08 within 128 cycles.
 Requested convergence on MAX density matrix=1.00D-06.
 Requested convergence on             energy=1.00D-06.
 No special actions if energy rises.
 Using DIIS extrapolation, IDIIS=  1040.
 Two-electron integral symmetry not used.
       137368 words used for storage of precomputed grid.
 IEnd=      355072 IEndB=      355072 NGot=    33554432 MDV=    33281793
 LenX=    33281793 LenY=    33215816
 Fock matrices will be formed incrementally for  20 cycles.

 Cycle   1  Pass 1  IDiag  1:
 FoFCou: FMM=F IPFlag=           0 FMFlag=      100000 FMFlg1=           0
         NFxFlg=           0 DoJE=F BraDBF=F KetDBF=F FulRan=T
         Omega=  0.000000  0.000000  1.000000  0.000000  0.000000 ICntrl=       0 IOpCl=  0
         NMat0=    1 NMatS0=    1 NMatT0=    0 NMatD0=    1 NMtDS0=    0 NMtDT0=    0
         I1Cent=           0 NGrid=           0.
 Symmetry not used in FoFCou.
 E= -512.469677888195    
 DIIS: error= 4.48D-03 at cycle   1 NSaved=   1.
 NSaved= 1 IEnMin= 1 EnMin= -512.469677888195     IErMin= 1 ErrMin= 4.48D-03
 ErrMax= 4.48D-03 EMaxC= 1.00D-01 BMatC= 1.53D-02 BMatP= 1.53D-02
 IDIUse=3 WtCom= 9.55D-01 WtEn= 4.48D-02
 Coeff-Com:  0.100D+01
 Coeff-En:   0.100D+01
 Coeff:      0.100D+01
 Gap=     0.244 Goal=   None    Shift=    0.000
 GapD=    0.244 DampG=1.000 DampE=1.000 DampFc=1.0000 IDamp=-1.
 RMSDP=1.87D-03 MaxDP=1.10D-01              OVMax= 4.58D-02

 Cycle   2  Pass 1  IDiag  1:
 RMSU=  1.27D-03    CP:  9.70D-01
 E= -512.487872040026     Delta-E=       -0.018194151831 Rises=F Damp=F
 DIIS: error= 2.15D-03 at cycle   2 NSaved=   2.
 NSaved= 2 IEnMin= 2 EnMin= -512.487872040026     IErMin= 2 ErrMin= 2.15D-03
 ErrMax= 2.15D-03 EMaxC= 1.00D-01 BMatC= 1.75D-03 BMatP= 1.53D-02
 IDIUse=3 WtCom= 9.79D-01 WtEn= 2.15D-02
 Coeff-Com:  0.105D+00 0.895D+00
 Coeff-En:   0.000D+00 0.100D+01
 Coeff:      0.102D+00 0.898D+00
 Gap=     0.238 Goal=   None    Shift=    0.000
 RMSDP=4.19D-04 MaxDP=1.50D-02 DE=-1.82D-02 OVMax= 3.30D-02

 Cycle   3  Pass 1  IDiag  1:
 RMSU=  2.78D-04    CP:  9.74D-01  9.31D-01
 E= -512.485452946159     Delta-E=        0.002419093867 Rises=F Damp=F
 DIIS: error= 4.82D-03 at cycle   3 NSaved=   3.
 NSaved= 3 IEnMin= 2 EnMin= -512.487872040026     IErMin= 2 ErrMin= 2.15D-03
 ErrMax= 4.82D-03 EMaxC= 1.00D-01 BMatC= 5.32D-03 BMatP= 1.75D-03
 IDIUse=3 WtCom= 1.26D-01 WtEn= 8.74D-01
 Coeff-Com: -0.198D-01 0.651D+00 0.369D+00
 Coeff-En:   0.000D+00 0.698D+00 0.302D+00
 Coeff:     -0.250D-02 0.692D+00 0.310D+00
 Gap=     0.237 Goal=   None    Shift=    0.000
 RMSDP=1.98D-04 MaxDP=6.57D-03 DE= 2.42D-03 OVMax= 2.16D-02

 Cycle   4  Pass 1  IDiag  1:
 RMSU=  6.45D-05    CP:  9.73D-01  9.65D-01  5.84D-01
 E= -512.489124084822     Delta-E=       -0.003671138663 Rises=F Damp=F
 DIIS: error= 6.15D-04 at cycle   4 NSaved=   4.
 NSaved= 4 IEnMin= 4 EnMin= -512.489124084822     IErMin= 4 ErrMin= 6.15D-04
 ErrMax= 6.15D-04 EMaxC= 1.00D-01 BMatC= 1.09D-04 BMatP= 1.75D-03
 IDIUse=3 WtCom= 9.94D-01 WtEn= 6.15D-03
 Coeff-Com: -0.153D-01 0.249D+00 0.517D-01 0.714D+00
 Coeff-En:   0.000D+00 0.000D+00 0.000D+00 0.100D+01
 Coeff:     -0.152D-01 0.248D+00 0.514D-01 0.716D+00
 Gap=     0.238 Goal=   None    Shift=    0.000
 RMSDP=8.96D-05 MaxDP=7.34D-03 DE=-3.67D-03 OVMax= 2.75D-03

 Cycle   5  Pass 1  IDiag  1:
 RMSU=  3.53D-05    CP:  9.71D-01  9.86D-01  4.66D-01  7.74D-01
 E= -512.489204306742     Delta-E=       -0.000080221920 Rises=F Damp=F
 DIIS: error= 1.53D-04 at cycle   5 NSaved=   5.
 NSaved= 5 IEnMin= 5 EnMin= -512.489204306742     IErMin= 5 ErrMin= 1.53D-04
 ErrMax= 1.53D-04 EMaxC= 1.00D-01 BMatC= 5.61D-06 BMatP= 1.09D-04
 IDIUse=3 WtCom= 9.98D-01 WtEn= 1.53D-03
 Coeff-Com: -0.478D-02 0.673D-01-0.682D-02 0.343D+00 0.601D+00
 Coeff-En:   0.000D+00 0.000D+00 0.000D+00 0.000D+00 0.100D+01
 Coeff:     -0.477D-02 0.672D-01-0.681D-02 0.343D+00 0.602D+00
 Gap=     0.238 Goal=   None    Shift=    0.000
 RMSDP=1.99D-05 MaxDP=1.90D-03 DE=-8.02D-05 OVMax= 6.19D-04

 Cycle   6  Pass 1  IDiag  1:
 RMSU=  1.16D-05    CP:  9.71D-01  9.87D-01  4.66D-01  7.70D-01  8.33D-01
 E= -512.489208729300     Delta-E=       -0.000004422558 Rises=F Damp=F
 DIIS: error= 3.98D-05 at cycle   6 NSaved=   6.
 NSaved= 6 IEnMin= 6 EnMin= -512.489208729300     IErMin= 6 ErrMin= 3.98D-05
 ErrMax= 3.98D-05 EMaxC= 1.00D-01 BMatC= 6.99D-07 BMatP= 5.61D-06
 IDIUse=1 WtCom= 1.00D+00 WtEn= 0.00D+00
 Coeff-Com: -0.153D-02 0.186D-01-0.776D-02 0.138D+00 0.336D+00 0.517D+00
 Coeff:     -0.153D-02 0.186D-01-0.776D-02 0.138D+00 0.336D+00 0.517D+00
 Gap=     0.238 Goal=   None    Shift=    0.000
 RMSDP=3.44D-06 MaxDP=1.73D-04 DE=-4.42D-06 OVMax= 1.34D-04

 Cycle   7  Pass 1  IDiag  1:
 RMSU=  2.00D-06    CP:  9.71D-01  9.87D-01  4.67D-01  7.73D-01  8.59D-01
                    CP:  9.25D-01
 E= -512.489209178418     Delta-E=       -0.000000449118 Rises=F Damp=F
 DIIS: error= 1.09D-05 at cycle   7 NSaved=   7.
 NSaved= 7 IEnMin= 7 EnMin= -512.489209178418     IErMin= 7 ErrMin= 1.09D-05
 ErrMax= 1.09D-05 EMaxC= 1.00D-01 BMatC= 5.14D-08 BMatP= 6.99D-07
 IDIUse=1 WtCom= 1.00D+00 WtEn= 0.00D+00
 Coeff-Com:  0.154D-03-0.464D-02-0.276D-02 0.212D-02 0.607D-01 0.241D+00
 Coeff-Com:  0.704D+00
 Coeff:      0.154D-03-0.464D-02-0.276D-02 0.212D-02 0.607D-01 0.241D+00
 Coeff:      0.704D+00
 Gap=     0.238 Goal=   None    Shift=    0.000
 RMSDP=1.44D-06 MaxDP=5.25D-05 DE=-4.49D-07 OVMax= 5.65D-05

 Cycle   8  Pass 1  IDiag  1:
 RMSU=  7.66D-07    CP:  9.71D-01  9.87D-01  4.67D-01  7.76D-01  8.74D-01
                    CP:  9.32D-01  8.59D-01
 E= -512.489209210626     Delta-E=       -0.000000032208 Rises=F Damp=F
 DIIS: error= 5.35D-06 at cycle   8 NSaved=   8.
 NSaved= 8 IEnMin= 8 EnMin= -512.489209210626     IErMin= 8 ErrMin= 5.35D-06
 ErrMax= 5.35D-06 EMaxC= 1.00D-01 BMatC= 7.10D-09 BMatP= 5.14D-08
 IDIUse=1 WtCom= 1.00D+00 WtEn= 0.00D+00
 Coeff-Com:  0.147D-03-0.347D-02-0.126D-02-0.379D-02 0.255D-01 0.127D+00
 Coeff-Com:  0.425D+00 0.430D+00
 Coeff:      0.147D-03-0.347D-02-0.126D-02-0.379D-02 0.255D-01 0.127D+00
 Coeff:      0.425D+00 0.430D+00
 Gap=     0.238 Goal=   None    Shift=    0.000
 RMSDP=3.99D-07 MaxDP=1.25D-05 DE=-3.22D-08 OVMax= 3.12D-05

 Cycle   9  Pass 1  IDiag  1:
 RMSU=  2.21D-07    CP:  9.71D-01  9.87D-01  4.67D-01  7.76D-01  8.76D-01
                    CP:  9.37D-01  8.81D-01  8.44D-01
 E= -512.489209215202     Delta-E=       -0.000000004576 Rises=F Damp=F
 DIIS: error= 1.71D-06 at cycle   9 NSaved=   9.
 NSaved= 9 IEnMin= 9 EnMin= -512.489209215202     IErMin= 9 ErrMin= 1.71D-06
 ErrMax= 1.71D-06 EMaxC= 1.00D-01 BMatC= 7.35D-10 BMatP= 7.10D-09
 IDIUse=1 WtCom= 1.00D+00 WtEn= 0.00D+00
 Coeff-Com:  0.427D-04-0.800D-03 0.775D-04-0.265D-02 0.432D-03 0.147D-01
 Coeff-Com:  0.706D-01 0.243D+00 0.675D+00
 Coeff:      0.427D-04-0.800D-03 0.775D-04-0.265D-02 0.432D-03 0.147D-01
 Coeff:      0.706D-01 0.243D+00 0.675D+00
 Gap=     0.238 Goal=   None    Shift=    0.000
 RMSDP=2.08D-07 MaxDP=6.78D-06 DE=-4.58D-09 OVMax= 7.35D-06

 Cycle  10  Pass 1  IDiag  1:
 RMSU=  7.99D-08    CP:  9.71D-01  9.87D-01  4.67D-01  7.75D-01  8.78D-01
                    CP:  9.43D-01  8.95D-01  8.88D-01  8.16D-01
 E= -512.489209215712     Delta-E=       -0.000000000510 Rises=F Damp=F
 DIIS: error= 2.38D-07 at cycle  10 NSaved=  10.
 NSaved=10 IEnMin=10 EnMin= -512.489209215712     IErMin=10 ErrMin= 2.38D-07
 ErrMax= 2.38D-07 EMaxC= 1.00D-01 BMatC= 3.18D-11 BMatP= 7.35D-10
 IDIUse=1 WtCom= 1.00D+00 WtEn= 0.00D+00
 Coeff-Com:  0.922D-05-0.116D-03 0.137D-03-0.967D-03-0.145D-02-0.198D-02
 Coeff-Com:  0.212D-02 0.747D-01 0.286D+00 0.642D+00
 Coeff:      0.922D-05-0.116D-03 0.137D-03-0.967D-03-0.145D-02-0.198D-02
 Coeff:      0.212D-02 0.747D-01 0.286D+00 0.642D+00
 Gap=     0.238 Goal=   None    Shift=    0.000
 RMSDP=5.63D-08 MaxDP=1.85D-06 DE=-5.10D-10 OVMax= 1.64D-06

 Cycle  11  Pass 1  IDiag  1:
 RMSU=  2.59D-08    CP:  9.71D-01  9.87D-01  4.67D-01  7.75D-01  8.78D-01
                    CP:  9.44D-01  8.98D-01  9.00D-01  8.41D-01  8.02D-01
 E= -512.489209215742     Delta-E=       -0.000000000030 Rises=F Damp=F
 DIIS: error= 1.19D-07 at cycle  11 NSaved=  11.
 NSaved=11 IEnMin=11 EnMin= -512.489209215742     IErMin=11 ErrMin= 1.19D-07
 ErrMax= 1.19D-07 EMaxC= 1.00D-01 BMatC= 6.97D-12 BMatP= 3.18D-11
 IDIUse=1 WtCom= 1.00D+00 WtEn= 0.00D+00
 Coeff-Com: -0.942D-06 0.543D-04 0.699D-04-0.176D-03-0.910D-03-0.340D-02
 Coeff-Com: -0.958D-02 0.571D-02 0.594D-01 0.362D+00 0.587D+00
 Coeff:     -0.942D-06 0.543D-04 0.699D-04-0.176D-03-0.910D-03-0.340D-02
 Coeff:     -0.958D-02 0.571D-02 0.594D-01 0.362D+00 0.587D+00
 Gap=     0.238 Goal=   None    Shift=    0.000
 RMSDP=1.79D-08 MaxDP=7.47D-07 DE=-3.02D-11 OVMax= 6.93D-07

 Cycle  12  Pass 1  IDiag  1:
 RMSU=  8.54D-09    CP:  9.71D-01  9.87D-01  4.67D-01  7.75D-01  8.78D-01
                    CP:  9.44D-01  8.99D-01  9.07D-01  8.49D-01  8.61D-01
                    CP:  8.73D-01
 E= -512.489209215758     Delta-E=       -0.000000000016 Rises=F Damp=F
 DIIS: error= 2.30D-08 at cycle  12 NSaved=  12.
 NSaved=12 IEnMin=12 EnMin= -512.489209215758     IErMin=12 ErrMin= 2.30D-08
 ErrMax= 2.30D-08 EMaxC= 1.00D-01 BMatC= 2.48D-13 BMatP= 6.97D-12
 IDIUse=1 WtCom= 1.00D+00 WtEn= 0.00D+00
 Coeff-Com: -0.800D-06 0.274D-04 0.210D-04-0.270D-04-0.302D-03-0.127D-02
 Coeff-Com: -0.392D-02-0.151D-02 0.893D-02 0.117D+00 0.246D+00 0.636D+00
 Coeff:     -0.800D-06 0.274D-04 0.210D-04-0.270D-04-0.302D-03-0.127D-02
 Coeff:     -0.392D-02-0.151D-02 0.893D-02 0.117D+00 0.246D+00 0.636D+00
 Gap=     0.238 Goal=   None    Shift=    0.000
 RMSDP=3.51D-09 MaxDP=1.56D-07 DE=-1.61D-11 OVMax= 1.12D-07

 Error on total polarization charges =  0.01171
 SCF Done:  E(RB3LYP) =  -512.489209216     A.U. after   12 cycles
             Convg  =    0.3513D-08             -V/T =  2.0037
 KE= 5.106003831544D+02 PE=-2.145320494686D+03 EE= 6.511165084621D+02
 Leave Link  502 at Sat Apr 16 16:52:20 2016, MaxMem=   33554432 cpu:     414.0
 (Enter c:\G09w04\l701.exe)
 Compute integral first derivatives.
 ... and contract with generalized density number  0.
 D1PCM: C-PCM CHGder 1st derivatives, ID1Alg=3 FixD1E=F DoIter=F DoCFld=F I1PDM=0.
 GePol: Maximum number of non-zero 1st derivatives   =     199
 Leave Link  701 at Sat Apr 16 16:52:30 2016, MaxMem=   33554432 cpu:      10.0
 (Enter c:\G09w04\l702.exe)
 L702 exits ... SP integral derivatives will be done elsewhere.
 Leave Link  702 at Sat Apr 16 16:52:30 2016, MaxMem=   33554432 cpu:       0.0
 (Enter c:\G09w04\l703.exe)
 Compute integral first derivatives, UseDBF=F ICtDFT=           0.
 Integral derivatives from FoFDir, PRISM(SPDF).
 Calling FoFJK, ICntrl=      2127 FMM=F ISym2X=0 I1Cent= 0 IOpClX= 0 NMat=1 NMatS=1 NMatT=0.
 FoFCou: FMM=F IPFlag=           0 FMFlag=      100000 FMFlg1=         800
         NFxFlg=           0 DoJE=F BraDBF=F KetDBF=F FulRan=T
         Omega=  0.000000  0.000000  1.000000  0.000000  0.000000 ICntrl=    2127 IOpCl=  0
         NMat0=    1 NMatS0=    1 NMatT0=    0 NMatD0=    1 NMtDS0=    0 NMtDT0=    0
         I1Cent=           0 NGrid=           0.
 Symmetry not used in FoFCou.
 Leave Link  703 at Sat Apr 16 16:54:20 2016, MaxMem=   33554432 cpu:     110.0
 (Enter c:\G09w04\l716.exe)
 Dipole        =-9.03866774D-02 6.44698444D-01-2.22332219D-01
 -------------------------------------------------------------------
 Center     Atomic                   Forces (Hartrees/Bohr)
 Number     Number              X              Y              Z
 -------------------------------------------------------------------
      1        7           0.000164967    0.001381378   -0.000451025
      2        1          -0.000061356   -0.000726498    0.000091541
      3        6          -0.003512301   -0.000995089   -0.008194177
      4        1           0.000795513    0.001695344   -0.000958906
      5        6          -0.000375924   -0.000284426    0.000025615
      6        6           0.016103125   -0.009442681    0.075942852
      7        1           0.000013002   -0.000038429   -0.000227367
      8        1          -0.000280172   -0.000399196   -0.000305954
      9        6          -0.001154065    0.000284360    0.000017580
     10        8          -0.006511649   -0.012496984   -0.001186958
     11        8           0.000561647   -0.000110326   -0.000268248
     12        1           0.000069054    0.000130590    0.000042700
     13        8           0.004332685    0.022905745   -0.043364812
     14        1          -0.010643760   -0.001795273   -0.021300441
     15        8           0.000534529   -0.000125494    0.000150115
     16        1          -0.000035298    0.000016978   -0.000012516
 -------------------------------------------------------------------
 Cartesian Forces:  Max     0.075942852 RMS     0.013994267
 Leave Link  716 at Sat Apr 16 16:54:20 2016, MaxMem=   33554432 cpu:       0.0
 (Enter c:\G09w04\l103.exe)

 GradGradGradGradGradGradGradGradGradGradGradGradGradGradGradGradGradGrad
 Berny optimization.
 Using GEDIIS/GDIIS optimizer.
 Internal  Forces:  Max     0.047587586 RMS     0.009591765
 Search for a local minimum.
 Step number   2 out of a maximum of   79
 All quantities printed in internal units (Hartrees-Bohrs-Radians)
 RMS Force = .95918D-02 SwitMx=.10000D-02 MixMth= 1
 Mixed Optimization -- RFO/linear search
 Update second derivatives using D2CorX and points    1    2
 DE= -3.09D-02 DEPred=-3.71D-02 R= 8.33D-01
 SS=  1.41D+00  RLast= 3.01D-01 DXNew= 5.0454D-01 9.0237D-01
 Trust test= 8.33D-01 RLast= 3.01D-01 DXMaxT set to 5.05D-01
 ITU=  1  0
 Use linear search instead of GDIIS.
     Eigenvalues ---    0.00389   0.00593   0.00660   0.00805   0.01085
     Eigenvalues ---    0.01226   0.02427   0.03330   0.03980   0.04048
     Eigenvalues ---    0.04513   0.05144   0.05379   0.06556   0.09518
     Eigenvalues ---    0.12911   0.15998   0.16000   0.16000   0.17433
     Eigenvalues ---    0.18454   0.20523   0.21951   0.23344   0.25000
     Eigenvalues ---    0.25000   0.27887   0.29559   0.31173   0.31552
     Eigenvalues ---    0.34311   0.34511   0.34750   0.36096   0.44949
     Eigenvalues ---    0.45128   0.53195   0.55359   0.56221   0.67384
     Eigenvalues ---    0.85934   0.99426
 RFO step:  Lambda=-1.57395818D-02 EMin= 3.88634021D-03
 Quartic linear search produced a step of  1.09377.
 Iteration  1 RMS(Cart)=  0.07659418 RMS(Int)=  0.02112885
 Iteration  2 RMS(Cart)=  0.03059075 RMS(Int)=  0.00254049
 Iteration  3 RMS(Cart)=  0.00270623 RMS(Int)=  0.00022673
 Iteration  4 RMS(Cart)=  0.00001231 RMS(Int)=  0.00022656
 Iteration  5 RMS(Cart)=  0.00000000 RMS(Int)=  0.00022656
 Variable       Old X    -DE/DX   Delta X   Delta X   Delta X     New X
                                 (Linear)    (Quad)   (Total)
    R1        1.92035   0.00002  -0.00001   0.00009   0.00009   1.92044
[...]
 ! D6    D(12,1,3,6)           -62.8922         -DE/DX =    0.0                 !
 ! D7    D(1,3,5,7)            -52.5136         -DE/DX =    0.0                 !
 ! D8    D(1,3,5,8)             64.6456         -DE/DX =    0.0                 !
 ! D9    D(1,3,5,9)           -173.0917         -DE/DX =    0.0                 !
 ! D10   D(4,3,5,7)             65.4048         -DE/DX =    0.0                 !
 ! D11   D(4,3,5,8)           -177.436          -DE/DX =    0.0                 !
 ! D12   D(4,3,5,9)            -55.1734         -DE/DX =    0.0                 !
 ! D13   D(6,3,5,7)           -175.278          -DE/DX =    0.0                 !
 ! D14   D(6,3,5,8)            -58.1188         -DE/DX =    0.0                 !
 ! D15   D(6,3,5,9)             64.1439         -DE/DX =    0.0                 !
 ! D16   D(1,3,6,10)            86.119          -DE/DX =    0.0                 !
 ! D17   D(1,3,6,13)           -90.1198         -DE/DX =    0.0                 !
 ! D18   D(4,3,6,10)           -31.4453         -DE/DX =    0.0                 !
 ! D19   D(4,3,6,13)           152.3159         -DE/DX =    0.0                 !
 ! D20   D(5,3,6,10)          -151.8372         -DE/DX =    0.0                 !
 ! D21   D(5,3,6,13)            31.924          -DE/DX =    0.0                 !
 ! D22   D(3,5,9,11)             2.3628         -DE/DX =    0.0                 !
 ! D23   D(3,5,9,15)          -178.0883         -DE/DX =    0.0                 !
 ! D24   D(7,5,9,11)          -118.6751         -DE/DX =    0.0                 !
 ! D25   D(7,5,9,15)            60.8737         -DE/DX =    0.0                 !
 ! D26   D(8,5,9,11)           126.0905         -DE/DX =    0.0                 !
 ! D27   D(8,5,9,15)           -54.3606         -DE/DX =    0.0                 !
 ! D28   D(3,6,10,14)         -175.0376         -DE/DX =    0.0                 !
 ! D29   D(13,6,10,14)           1.303          -DE/DX =    0.0                 !
 ! D30   D(5,9,15,16)         -179.3746         -DE/DX =    0.0                 !
 ! D31   D(11,9,15,16)           0.1885         -DE/DX =    0.0                 !
 --------------------------------------------------------------------------------
 GradGradGradGradGradGradGradGradGradGradGradGradGradGradGradGradGradGrad

 Leave Link  103 at Sat Apr 16 19:07:44 2016, MaxMem=   33554432 cpu:       1.0
 (Enter c:\G09w04\l9999.exe)
 1|1|UNPC-WIN-20150318OUM|Freq|RB3LYP|6-311++G(d,p)|C4H7N1O4|ADMINISTRA
 TOR|16-Apr-2016|0||#P Geom=AllCheck Guess=TCheck SCRF=Check GenChk RB3
 LYP/6-311++G(d,p) Freq||Asp-S-opt-freq-cpcm-w-pa1-6-311++gdp||0,1|N,-1
 .4828563192,1.8735816529,-0.128839199|H,-1.6577445102,2.0270622793,0.8
 608329021|C,-0.6304536339,0.6946419954,-0.3377642377|H,-0.5664070914,0
 .5189711512,-1.4123559862|C,0.7623371388,0.9681100211,0.2222628967|C,-
 1.2552206588,-0.5463378661,0.3046790302|H,1.1377165283,1.9050809262,-0
 .1978015575|H,0.7297732241,1.1028614856,1.3071291804|C,1.7565601515,-0
 .1208482019,-0.0919310821|O,-2.1266744105,-1.149577009,-0.5253892835|O
 ,1.5313456785,-1.1088383877,-0.755205558|H,-2.3836566537,1.7512387499,
 -0.5808881695|O,-1.0614906293,-0.9185856735,1.4405438183|H,-2.55394568
 99,-1.8805487062,-0.0498683725|O,2.961996118,0.1333269292,0.4517811478
 |H,3.5657643779,-0.5884783965,0.2133364506||Version=IA32W-G09RevB.01|H
 F=-512.5016949|RMSD=3.500e-009|RMSF=1.965e-005|ZeroPoint=0.1226249|The
 rmal=0.1321768|Dipole=-0.3598767,0.4630354,-0.0591683|DipoleDeriv=-0.5
 904057,0.0421076,0.0698998,0.0517176,-0.8845882,0.1562511,0.047932,0.1
 334305,-0.3675248,0.2135462,0.0858671,0.0106733,0.0568394,0.3205316,0.
 0671964,0.0222203,-0.0109144,0.0577933,0.5255302,-0.2006697,-0.0756173
 ,-0.1306116,0.2947521,0.0159195,-0.0345715,0.0452771,0.2095181,0.03886
 96,-0.0126119,0.0028797,-0.0012524,0.0371473,-0.0254162,0.0113187,-0.0
 277317,-0.0846436,-0.0687153,0.1121244,0.0037499,0.2007457,-0.2151754,
 -0.1131474,0.058131,-0.0683457,0.0647591,1.088199,0.6896708,0.6971109,
 0.6219427,1.2036395,-0.0822267,0.6740111,-0.1884402,1.9956554,0.013769
 8,-0.0292177,0.0366206,-0.0595333,0.0107256,0.040968,0.0188939,0.06710
 78,0.1036008,0.0414051,0.0604562,0.0179931,0.0170687,0.1218909,-0.0082
 769,-0.0296121,-0.041619,-0.0411855,2.0543965,0.0862926,0.556301,0.048
 9545,1.5311782,0.7197532,0.5629067,0.7183416,0.9691703,-1.0098868,-0.4
 274329,-0.5800091,-0.4817152,-0.826006,-0.4504476,-0.3826685,-0.241985
 7,-0.8837392,-0.9112296,0.0437385,-0.0833697,-0.2005901,-1.2404871,-0.
 5490315,-0.2376963,-0.4716031,-0.8084823,0.0709885,0.0192824,-0.045022
 7,-0.055439,0.2731164,-0.1202964,0.0025586,-0.1112451,0.2546672,-0.669
 8104,-0.2009566,-0.1109137,-0.0610389,-0.7950513,0.3876091,-0.3455965,
 0.302457,-1.4825514,0.4130431,-0.0138294,0.0011434,-0.0165784,0.382661
 2,0.0649125,0.0060008,0.0792697,0.2813132,-1.6170184,-0.2529243,-0.499
 2126,-0.0039062,-0.5027618,-0.0340717,-0.3801245,-0.1085659,-0.6369906
 ,0.4073181,-0.0018973,-0.0022265,0.0133967,0.2884268,-0.0696953,0.0062
 963,-0.0754326,0.3686402|Polar=90.3642373,2.1714486,93.7896858,7.57762
 09,2.8874382,83.1792029|PG=C01 [X(C4H7N1O4)]|NImag=0||0.55419774,-0.08
 765268,0.25629575,0.09471048,0.12779149,0.61768706,-0.06475933,0.03151
 746,0.06697815,0.06356923,0.02088562,-0.02856625,-0.02669038,-0.028718
 69,0.04455989,0.04600672,-0.06949170,-0.40739325,-0.05413143,0.0657803
 5,0.42356767,-0.11418777,0.04826711,-0.00050300,-0.00348651,0.00656535
 ,0.00068632,0.48037425,0.07618594,-0.14711262,-0.03280446,-0.00028731,
 -0.01125129,0.00346878,0.01828786,0.43077398,-0.00535427,-0.01954813,-
 0.09491261,0.02355673,-0.03170699,-0.00363089,0.01598538,0.03650435,0.
 62583415,-0.00310701,0.00941849,0.02222146,-0.00226950,0.00321058,0.00
 062431,-0.05109439,-0.00222673,0.01002353,0.05905229,0.00513276,-0.010
 18253,-0.03224744,0.00393201,-0.00354679,-0.00072958,-0.00190505,-0.05
 323405,-0.03394625,-0.00366544,0.06718856,0.00196031,-0.00368977,-0.00
 203745,0.00035840,0.00014123,0.00178996,0.01579971,-0.03629262,-0.3081
 2597,-0.01604320,0.04272376,0.33115299,-0.02922120,0.00564565,-0.01144
 249,0.00100741,-0.00107460,0.00032578,-0.16057533,-0.02318112,-0.03558
 545,0.00032750,-0.00099118,-0.00189224,0.50056395,0.03423351,0.0011019
 6,0.01353610,-0.00012139,0.00099971,0.00019893,-0.02896711,-0.08274977
 ,-0.01148762,-0.00423462,-0.00096883,-0.00097215,0.02638107,0.53062969
 ,0.00523757,-0.00028453,0.00385169,0.00158862,0.00035339,0.00101942,-0
 .03964573,-0.01023789,-0.10391929,-0.03102089,-0.00648426,-0.00975965,
 -0.00154814,-0.01048555,0.55782740,0.00400542,0.02874363,-0.00882340,0
 .00052208,-0.00112875,-0.00085205,-0.10352722,-0.04225515,0.02581764,0
 .00002951,-0.00103742,-0.00162493,-0.01855765,-0.02665882,0.01096144,0
 .38759493,0.00789296,-0.03429466,0.00578173,-0.00071253,-0.00060886,0.
 00032593,-0.03460294,-0.11963545,0.02667606,0.00289776,0.00658673,-0.0
 0263179,-0.01203675,-0.00594833,-0.00331355,0.12896516,0.48120821,-0.0
 0473278,-0.00831089,0.00410454,0.00029587,-0.00372572,0.00146539,0.019
 88025,0.02346216,-0.09704411,0.01362944,0.02744366,-0.01608297,-0.0017
 6111,-0.00957630,0.00770268,0.10997311,-0.19183828,0.83795079,0.002610
 24,-0.00004880,0.00057066,-0.00020742,-0.00007744,0.00008323,-0.012590
 58,-0.02579303,0.01267940,0.00116474,0.00028586,-0.00014424,-0.0767823
 7,-0.07316257,0.03373218,-0.00376399,0.00232708,-0.00346601,0.08463404
 ,0.00143141,0.00114050,0.00025454,0.00002971,-0.00007213,-0.00005859,-
 0.00269907,-0.00543978,0.00192047,-0.00002767,0.00015234,-0.00014232,-
 0.07735401,-0.23828232,0.09137910,0.00037288,0.00045800,-0.00098570,0.
 08265611,0.26020319,0.00114815,-0.00004925,0.00015078,0.00009310,0.000
 13082,-0.00001099,-0.00643664,-0.01201915,0.00457188,0.00053267,-0.000
 16249,0.00053528,0.03492263,0.09046088,-0.08181131,-0.00222454,0.00132
 762,-0.00198314,-0.03697788,-0.09658913,0.08904834,0.00229210,-0.00087
 081,0.00058197,-0.00064153,0.00047834,0.00004712,0.00090936,-0.0036939
 6,-0.03240027,-0.00554111,-0.00096324,-0.00136491,-0.05015183,0.004303
 97,0.01091158,0.00071368,0.00036831,-0.00158552,-0.00081623,0.00137233
 ,0.01005430,0.05364192,0.00020019,0.00015983,0.00075079,0.00013804,0.0
 0023087,-0.00000438,0.00027220,-0.00156193,-0.00633047,-0.00076874,0.0
 0014052,-0.00037443,0.00356450,-0.04434171,-0.03180956,-0.00053602,-0.
 00020099,-0.00174012,-0.00155012,0.00421811,0.02778731,-0.00396940,0.0
 4979685,0.00024054,0.00020710,0.00103329,-0.00088140,0.00022206,0.0000
 5760,-0.00094110,-0.00213483,-0.01131341,-0.00176688,-0.00022238,0.000
 66854,0.00972698,-0.03233103,-0.30335634,0.00012381,0.00169393,-0.0017
 1868,0.00084361,-0.00133742,-0.01200817,-0.00889171,0.03581515,0.33043
 643,-0.00142790,-0.00246579,-0.00209926,-0.00021280,0.00006179,0.00014
 223,-0.02600477,0.02172834,0.00386806,0.00069014,0.00074926,0.00007263
 ,-0.13633028,0.04971511,0.01731756,-0.00652576,-0.00468775,0.00058358,
 0.01076733,-0.00902648,-0.00262096,0.00075134,0.00077823,0.00008837,0.
 54346040,-0.00510819,-0.00007606,-0.00292137,0.00096905,-0.00047363,-0
 .00021708,0.00616899,0.00657564,0.00967867,-0.00106124,-0.00004743,-0.
 00210127,0.04819463,-0.12868677,-0.00643861,-0.00324929,0.00567829,-0.
 00107912,0.01755630,-0.02393894,-0.00946282,-0.00287641,-0.00360099,-0
 .00254955,-0.02008716,0.74487978,-0.00477711,-0.00056445,-0.00224301,-
 0.00009171,-0.00002209,0.00002944,-0.00265997,0.01200195,0.00286717,-0
 .00129184,0.00052114,-0.00100026,0.01558837,-0.00659233,-0.09177140,-0
 .00128978,0.00144762,0.00092262,-0.01304697,0.00970214,0.00264989,0.02
 381156,-0.02835700,-0.00755965,0.08924496,0.30082786,0.43961084,-0.000
 55190,-0.00480720,0.00100882,-0.00006061,0.00042807,0.00012638,-0.0112
 4979,-0.01415421,-0.01611295,-0.00008094,0.00025328,-0.00062947,-0.000
 01635,-0.00329145,0.00246546,-0.14778293,-0.07346753,-0.06020959,-0.00
 147233,-0.00042271,-0.00030528,0.00038292,0.00036332,-0.00013277,0.002
 45150,-0.00136022,-0.00023743,0.27132602,-0.00107661,-0.00264352,0.000
 42757,0.00005948,0.00012943,0.00012974,-0.03097756,-0.01497986,-0.0176
 6319,-0.00077892,-0.00071702,-0.00102003,-0.00008260,-0.00503889,0.004
 34346,-0.07558673,-0.13948983,-0.02805108,-0.00228845,-0.00035114,-0.0
 0078025,0.00015449,0.00027322,-0.00033687,0.00288200,-0.00249501,-0.00
 076224,0.25643848,0.40652045,-0.00049397,0.00056649,0.00075040,-0.0001
 8463,0.00058353,-0.00002262,0.00522212,0.00398675,0.00800815,-0.000258
 58,-0.00064985,0.00180238,0.00080396,0.00177718,-0.00008091,-0.0493158
 3,-0.01437478,-0.14689316,0.00042018,0.00016054,0.00034903,0.00042016,
 0.00046430,0.00031613,0.00071844,-0.00010092,-0.00029706,0.03291391,-0
 .13250669,0.37960521,-0.00048744,0.00108088,0.00086273,-0.00018977,0.0
 0017752,-0.00014008,0.00092782,0.00018253,0.00027435,0.00009957,-0.000
 00433,0.00132016,0.01410480,0.01715855,0.00635898,0.00343101,0.0012049
 3,-0.00117752,-0.00228795,0.00364963,0.00171104,-0.00097161,0.00252366
 ,0.00134926,-0.11918396,-0.06877425,-0.05481446,-0.00127935,-0.0006995
 0,-0.00003173,0.12573237,0.00173648,0.00015250,0.00059017,-0.00048843,
 0.00008340,0.00017782,-0.00557391,-0.00065490,-0.00188473,0.00064201,0
 .00012949,0.00048874,-0.00104735,-0.03060326,-0.03371367,0.00107775,-0
 .00309005,0.00091669,0.00180313,-0.00056091,-0.00077246,0.00479644,-0.
 00529540,0.00044555,-0.05221982,-0.49749539,-0.26824822,0.00051560,0.0
 0131222,0.00003865,0.10474934,0.55030894,0.00098549,0.00014957,0.00108
 870,-0.00034831,0.00016153,0.00000858,-0.00280031,0.00065045,-0.001945
 00,0.00081632,-0.00003041,0.00123038,-0.00508701,-0.02692571,0.0085101
 9,-0.00009304,-0.00062943,-0.00078573,0.00428374,-0.00234507,-0.002025
 78,-0.00096090,0.00155393,0.00059055,-0.04443954,-0.27411565,-0.255450
 38,0.00040053,0.00064658,0.00033435,0.09329918,0.34414701,0.26657719,-
 0.34643156,-0.02188074,-0.16397373,0.00646443,-0.00129909,0.00710095,-
 0.01774683,-0.00847347,-0.00767990,0.00051651,-0.00039885,0.00033048,-
 0.00200993,0.00480410,0.00179796,0.00072501,0.00007454,-0.00097921,0.0
 0043096,0.00018423,0.00011399,0.00020702,-0.00004038,-0.00001975,-0.00
 013088,-0.00137889,-0.00127989,0.00013755,-0.00035443,0.00002716,0.000
 01380,0.00045608,0.00033551,0.35863818,-0.05583697,-0.03629527,-0.0557
 1752,-0.00639195,-0.00260942,0.00089226,0.03049516,-0.00265711,0.01578
 854,-0.00055587,0.00116149,-0.00018961,0.00126288,-0.00387809,-0.00121
 960,0.00268114,-0.00056034,0.00261186,0.00012471,0.00019650,-0.0001911
 7,-0.00008737,-0.00010428,0.00004810,0.00087102,0.00092294,0.00022475,
 0.00008622,0.00073798,-0.00039505,-0.00018539,0.00001124,0.00011373,0.
 02768615,0.04348598,-0.13628443,-0.03530621,-0.12072579,-0.03643547,-0
 .00504918,-0.01681504,0.00676231,0.00342798,0.00331800,0.00037866,0.00
 028138,0.00031974,0.00155984,-0.00198263,0.00022790,-0.00026068,0.0009
 1504,-0.00118457,-0.00019902,-0.00022823,-0.00015793,0.00023640,-0.000
 02292,0.00024199,-0.00001827,0.00036320,0.00092304,-0.00019210,-0.0006
 5835,0.00011844,0.00019209,-0.00020538,-0.00020305,0.16367785,0.038840
 20,0.13337239,0.00120656,-0.00601151,0.00144282,-0.00000311,0.00057418
 ,0.00002916,0.01534322,-0.00185385,0.00517682,-0.00012439,-0.00154155,
 0.00203098,0.00049637,-0.00000129,0.00008984,-0.10023207,0.01121991,-0
 .08210261,0.00021424,0.00002944,0.00102437,0.00011646,0.00049091,0.001
 30219,0.00271970,0.00017358,0.00027612,-0.00335814,-0.00328744,-0.0645
 5393,-0.00188574,-0.00055871,0.00082844,0.00001223,-0.00032989,-0.0001
 1653,0.08432080,-0.00073505,-0.00108310,0.00034803,0.00027502,0.001180
 94,-0.00041952,-0.00061697,0.00250715,0.03798058,-0.00329130,-0.007005
 32,0.00334410,0.00153311,-0.00058805,0.00180104,0.00722006,-0.16548330
 ,0.18405258,-0.00066168,0.00010471,0.00000774,0.00007637,0.00028630,0.
 00022511,0.00180440,-0.00275892,-0.00062903,-0.00444559,0.03252392,-0.
 01848893,-0.00010320,0.00175570,-0.00016009,-0.00006924,0.00004029,-0.
 00025475,-0.00597721,0.13688066,0.00118439,0.00789360,-0.00146823,-0.0
 0081936,-0.00013213,-0.00007213,-0.00787050,0.01195615,-0.02371629,0.0
 0201415,0.00370497,-0.00103521,-0.00325237,-0.00178359,-0.00130649,-0.
 06910345,0.20016455,-0.60520910,0.00035365,-0.00002520,0.00090786,0.00
 108767,0.00051082,0.00136749,-0.00065061,0.00072818,-0.00013075,-0.061
 90912,-0.01574775,-0.08253883,0.00086629,-0.00031296,0.00002724,0.0004
 7866,-0.00073116,0.00069554,0.13190678,-0.21002548,0.71470523,0.000304
 98,-0.00147828,0.00029718,0.00005940,-0.00001143,0.00002671,0.00044335
 ,-0.00113097,-0.00448159,0.00020987,0.00041309,-0.00017034,0.00005416,
 -0.00037377,0.00017882,-0.01923544,-0.03286444,0.01320129,-0.00009474,
 -0.00007625,-0.00007351,-0.00003752,-0.00004650,-0.00002997,-0.0001953
 8,-0.00021717,-0.00013492,-0.10698574,-0.14273901,0.07445892,0.0002441
 7,0.00017096,-0.00001236,0.00009801,-0.00024684,-0.00005142,0.00221844
 ,0.00623822,0.00452297,0.12285764,0.00064175,0.00133978,-0.00025150,-0
 .00001500,-0.00014848,-0.00007059,-0.00483546,0.00283697,-0.00247190,0
 .00032337,0.00040718,0.00024271,0.00008601,-0.00100786,0.00064326,-0.0
 1893808,-0.02304805,0.00641143,-0.00032276,0.00001975,-0.00024560,-0.0
 0008714,-0.00008089,-0.00003860,0.00002506,-0.00030725,-0.00012178,-0.
 15653563,-0.27650789,0.15889176,0.00015295,0.00017134,0.00005277,0.000
 20222,-0.00012042,0.00015023,0.00700111,0.00104382,0.00411171,0.172321
 56,0.29531952,0.00011426,0.00037037,-0.00005608,0.00000495,-0.00003333
 ,0.00001650,-0.00351878,-0.00072975,-0.00165715,-0.00015296,-0.0001363
 0,0.00030599,-0.00035964,-0.00066903,0.00080382,-0.01445901,-0.0256856
 7,0.01917387,-0.00030258,-0.00004235,-0.00008180,0.00012734,0.00003401
 ,-0.00000753,0.00009619,-0.00012697,-0.00004827,0.10318093,0.19216501,
 -0.16141951,-0.00001380,0.00004199,0.00003033,0.00000930,-0.00007568,-
 0.00007931,0.00315025,0.00219688,-0.00244977,-0.08780783,-0.16734891,0
 .14548325,-0.00390612,0.00057934,-0.00149616,0.00019005,-0.00006485,-0
 .00007866,0.00224173,0.00530707,0.00369556,0.00015123,-0.00028033,0.00
 009518,-0.03907544,0.00371754,-0.01420027,0.00284216,0.00327884,-0.001
 49999,-0.00219839,-0.00038351,-0.00086045,-0.00136927,-0.00101154,-0.0
 0115132,-0.22980684,-0.00569723,-0.05723699,-0.00150137,-0.00164246,-0
 .00017418,-0.02757633,-0.05589500,-0.05180214,-0.00081547,0.00036442,0
 .00065380,-0.00115907,-0.00118390,0.00116288,0.00007564,-0.00000646,-0
 .00006522,0.50056764,0.00217071,0.00008527,0.00116271,-0.00017523,0.00
 010232,0.00001176,0.00033559,-0.00383073,-0.00314655,0.00008715,-0.000
 05469,0.00045750,0.02984289,0.00685857,0.00663669,0.00014668,-0.001582
 86,0.00034218,-0.00030572,0.00180955,0.00055945,0.00120378,0.00034494,
 0.00063024,0.01018011,-0.10854114,-0.02402022,0.00041534,0.00072844,0.
 00006162,-0.05868554,-0.01164328,-0.04272557,0.00053023,-0.00034425,-0
 .00027391,0.00013255,0.00060348,-0.00032455,0.00003881,0.00007188,0.00
 003591,-0.16904012,0.40742578,0.00019271,0.00030778,0.00026812,-0.0000
 0094,-0.00000156,-0.00000998,0.00052669,-0.00139751,0.00075524,0.00019
 537,-0.00010510,0.00021933,0.00098529,-0.00115355,0.01049789,0.0012233
 8,0.00004630,-0.00037766,0.00089230,-0.00099870,0.00004740,-0.00174557
 ,0.00124680,0.00082277,-0.04774400,-0.02910836,-0.09650394,-0.00034551
 ,-0.00012826,-0.00002226,-0.05337076,-0.04188681,-0.01409712,0.0000925
 8,-0.00005566,-0.00003627,-0.00050552,0.00003958,0.00021577,0.00007807
 ,0.00005326,-0.00000897,0.04904545,0.16805064,0.15328344,-0.00053680,-
 0.00003674,-0.00033624,0.00001798,-0.00000661,0.00000333,0.00022347,0.
 00135806,0.00053696,-0.00002402,0.00002113,-0.00009853,-0.00383381,-0.
 00350282,-0.00422499,-0.00023875,0.00014247,-0.00004919,0.00039244,0.0
 0026396,-0.00010098,0.00051433,-0.00040835,0.00014015,-0.04102184,0.03
 674748,0.00794004,0.00004149,-0.00002073,0.00002799,0.00930863,-0.0001
 6456,0.00459442,-0.00010904,0.00006258,0.00009697,0.00011449,-0.000063
 04,0.00002796,-0.00001683,-0.00001350,-0.00000340,-0.19866014,0.183122
 77,0.05048046,0.23382839,-0.00010183,-0.00002159,-0.00001046,-0.000010
 24,-0.00000971,0.00000587,-0.00021418,0.00041375,-0.00036284,0.0000311
 7,-0.00000965,0.00001595,-0.00074314,0.00250395,-0.00116974,0.00018296
 ,0.00001150,0.00006664,-0.00054262,0.00034258,-0.00000151,-0.00020570,
 -0.00026445,-0.00033656,-0.00030832,0.01036489,0.00459191,-0.00001579,
 -0.00000250,-0.00001461,-0.00242776,-0.00458165,-0.00054365,-0.0000424
 5,0.00001276,0.00000354,-0.00006022,-0.00000829,0.00001283,0.00000201,
 0.00001059,0.00000382,0.22195820,-0.29203328,-0.09490884,-0.21750210,0
 .28327109,-0.00013805,-0.00004147,-0.00009816,0.00001743,-0.00001153,0
 .00000033,-0.00048674,0.00015764,0.00091013,0.00009845,0.00003915,0.00
 001694,-0.00298439,-0.00201358,0.00156440,-0.00005267,0.00009472,-0.00
 004077,0.00027775,-0.00066410,-0.00018133,-0.00032923,0.00047578,0.000
 42900,-0.01455939,0.01662382,0.00800171,-0.00002180,-0.00005764,-0.000
 00973,0.00331426,0.00017759,-0.00389044,-0.00003196,0.00005602,-0.0000
 1508,0.00002080,-0.00001786,0.00000766,-0.00000202,-0.00000826,-0.0000
 0536,0.07391251,-0.10745792,-0.05505377,-0.05903495,0.09264765,0.04836
 449||0.00001140,-0.00000109,-0.00002006,-0.00000096,0.00000117,-0.0000
 0247,0.00001057,0.00003058,-0.00000489,-0.00000207,-0.00000702,-0.0000
 0116,-0.00000768,-0.00000244,-0.00000698,-0.00005346,-0.00007184,-0.00
 000197,0.00000276,0.00000012,-0.00000206,-0.00000058,0.00000354,-0.000
 00095,-0.00001586,-0.00000289,-0.00000623,0.00004866,0.00002944,0.0000
 5910,0.00000423,-0.00000008,0.00000796,-0.00000733,-0.00000472,-0.0000
 0143,-0.00000809,0.00001216,-0.00003131,0.00000679,0.00000788,0.000004
 28,0.00001215,0.00000372,0.00000482,-0.00000055,0.00000147,0.00000334|
 ||@


 I CLAIM NOT TO HAVE CONTROLLED EVENTS,
 BUT CONFESS PLAINLY THAT EVENTS HAVE CONTROLLED ME.

                                         A. LINCOLN
 Job cpu time:  0 days  0 hours 45 minutes 11.0 seconds.
 File lengths (MBytes):  RWF=    123 Int=      0 D2E=      0 Chk=      9 Scr=      1
 Normal termination of Gaussian 09 at Sat Apr 16 19:07:44 2016.
