 Entering Link 1 = c:\G09w02\l1.exe PID=      7804.
  
 Copyright (c) 1988,1990,1992,1993,1995,1998,2003,2009,2010,
            Gaussian, Inc.  All Rights Reserved.
  
 This is part of the Gaussian(R) 09 program.  It is based on
 the Gaussian(R) 03 system (copyright 2003, Gaussian, Inc.),
 the Gaussian(R) 98 system (copyright 1998, Gaussian, Inc.),
 the Gaussian(R) 94 system (copyright 1995, Gaussian, Inc.),
 the Gaussian 92(TM) system (copyright 1992, Gaussian, Inc.),
 the Gaussian 90(TM) system (copyright 1990, Gaussian, Inc.),
 the Gaussian 88(TM) system (copyright 1988, Gaussian, Inc.),
 the Gaussian 86(TM) system (copyright 1986, Carnegie Mellon
 University), and the Gaussian 82(TM) system (copyright 1983,
 Carnegie Mellon University). Gaussian is a federally registered
 trademark of Gaussian, Inc.
  
 This software contains proprietary and confidential information,
 including trade secrets, belonging to Gaussian, Inc.
  
 This software is provided under written license and may be
 used, copied, transmitted, or stored only in accord with that
 written license.
  
 The following legend is applicable only to US Government
 contracts under FAR:
  
                    RESTRICTED RIGHTS LEGEND
  
 Use, reproduction and disclosure by the US Government is
 subject to restrictions as set forth in subparagraphs (a)
 and (c) of the Commercial Computer Software - Restricted
 Rights clause in FAR 52.227-19.
  
 Gaussian, Inc.
 340 Quinnipiac St., Bldg. 40, Wallingford CT 06492
  
  
 ---------------------------------------------------------------
 Warning -- This program may not be used in any manner that
 competes with the business of Gaussian, Inc. or will provide
 assistance to any competitor of Gaussian, Inc.  The licensee
 of this program is prohibited from giving any competitor of
 Gaussian, Inc. access to this program.  By using this program,
 the user acknowledges that Gaussian, Inc. is engaged in the
 business of creating and licensing software in the field of
 computational chemistry and represents and warrants to the
 licensee that it is not a competitor of Gaussian, Inc. and that
 it will not use this program in any manner prohibited above.
 ---------------------------------------------------------------
  

 Cite this work as:
 Gaussian 09, Revision B.01,
 M. J. Frisch, G. W. Trucks, H. B. Schlegel, G. E. Scuseria, 
 M. A. Robb, J. R. Cheeseman, G. Scalmani, V. Barone, B. Mennucci, 
 G. A. Petersson, H. Nakatsuji, M. Caricato, X. Li, H. P. Hratchian, 
 A. F. Izmaylov, J. Bloino, G. Zheng, J. L. Sonnenberg, M. Hada, 
 M. Ehara, K. Toyota, R. Fukuda, J. Hasegawa, M. Ishida, T. Nakajima, 
 Y. Honda, O. Kitao, H. Nakai, T. Vreven, J. A. Montgomery, Jr., 
 J. E. Peralta, F. Ogliaro, M. Bearpark, J. J. Heyd, E. Brothers, 
 K. N. Kudin, V. N. Staroverov, T. Keith, R. Kobayashi, J. Normand, 
 K. Raghavachari, A. Rendell, J. C. Burant, S. S. Iyengar, J. Tomasi, 
 M. Cossi, N. Rega, J. M. Millam, M. Klene, J. E. Knox, J. B. Cross, 
 V. Bakken, C. Adamo, J. Jaramillo, R. Gomperts, R. E. Stratmann, 
 O. Yazyev, A. J. Austin, R. Cammi, C. Pomelli, J. W. Ochterski, 
 R. L. Martin, K. Morokuma, V. G. Zakrzewski, G. A. Voth, 
 P. Salvador, J. J. Dannenberg, S. Dapprich, A. D. Daniels, 
 O. Farkas, J. B. Foresman, J. V. Ortiz, J. Cioslowski, 
 and D. J. Fox, Gaussian, Inc., Wallingford CT, 2010.
 
 ******************************************
 Gaussian 09:  IA32W-G09RevB.01 12-Aug-2010
                16-Apr-2016 
 ******************************************
 %chk=Asp-S-opt-freq-cpcm-w-pa1-6-311++gdp.chk
 -----------------------------------------------------------------
 #p opt freq rb3lyp/6-311++g(d,p) scrf=(cpcm,solvent=water) nosymm
 -----------------------------------------------------------------
 1/14=-1,18=20,19=15,26=3,38=1/1,3;
 2/9=110,12=2,15=1,17=6,18=5,40=1/2;
 3/5=4,6=6,7=1111,11=2,16=1,25=1,30=1,70=2101,71=1,72=1,74=-5,116=1/1,2,3;
 4//1;
 5/5=2,38=5,53=1/2;
 6/7=2,8=2,9=2,10=2,28=1/1;
 7/30=1/1,2,3,16;
 1/14=-1,18=20,19=15/3(2);
 2/9=110,15=1/2;
 99//99;
 2/9=110,15=1/2;
 3/5=4,6=6,7=1111,11=2,16=1,25=1,30=1,70=2105,71=1,72=1,74=-5,116=1/1,2,3;
 4/5=5,16=3/1;
 5/5=2,38=5,53=1/2;
 7/30=1/1,2,3,16;
 1/14=-1,18=20,19=15/3(-5);
 2/9=110,15=1/2;
 6/7=2,8=2,9=2,10=2,19=2,28=1/1;
 99/9=1/99;
 Leave Link    1 at Sat Apr 16 01:08:38 2016, MaxMem=          0 cpu:       1.0
 (Enter c:\G09w02\l101.exe)
 ------------------------------------
 Asp-S-opt-freq-cpcm-w-pa1-6-311++gdp
 ------------------------------------
 Symbolic Z-matrix:
 Charge =  0 Multiplicity = 1
 N                    -1.4863    1.92875  -0.15656 
 H                    -1.69039   2.02042   0.83472 
 C                    -0.63793   0.76239  -0.42504 
 H                    -0.5423    0.66017  -1.50656 
 C                     0.74157   0.97558   0.19779 
 C                    -1.30026  -0.5004    0.08089 
 H                     1.14745   1.92475  -0.16023 
 H                     0.6717    1.05678   1.28691 
 C                     1.71869  -0.12454  -0.13243 
 O                    -2.08439  -1.2398   -0.60282 
 O                     1.45754  -1.1216   -0.76842 
 H                    -2.37091   1.85804  -0.64941 
 O                    -1.24218  -0.93798   1.2805 
 H                    -2.01925  -1.83751   0.29165 
 O                     2.94087   0.12741   0.36794 
 H                     3.52969  -0.60773   0.13237 
 
 NAtoms=     16 NQM=     16 NQMF=      0 NMic=      0 NMicF=      0 NTot=     16.
                    Isotopes and Nuclear Properties:
 (Nuclear quadrupole moments (NQMom) in fm**2, nuclear magnetic moments (NMagM)
  in nuclear magnetons)

  Atom         1           2           3           4           5           6           7           8           9          10
 IAtWgt=          14           1          12           1          12          12           1           1          12          16
 AtmWgt=  14.0030740   1.0078250  12.0000000   1.0078250  12.0000000  12.0000000   1.0078250   1.0078250  12.0000000  15.9949146
 NucSpn=           2           1           0           1           0           0           1           1           0           0
 AtZEff=   0.0000000   0.0000000   0.0000000   0.0000000   0.0000000   0.0000000   0.0000000   0.0000000   0.0000000   0.0000000
 NQMom=    2.0440000   0.0000000   0.0000000   0.0000000   0.0000000   0.0000000   0.0000000   0.0000000   0.0000000   0.0000000
 NMagM=    0.4037610   2.7928460   0.0000000   2.7928460   0.0000000   0.0000000   2.7928460   2.7928460   0.0000000   0.0000000

  Atom        11          12          13          14          15          16
 IAtWgt=          16           1          16           1          16           1
 AtmWgt=  15.9949146   1.0078250  15.9949146   1.0078250  15.9949146   1.0078250
 NucSpn=           0           1           0           1           0           1
 AtZEff=   0.0000000   0.0000000   0.0000000   0.0000000   0.0000000   0.0000000
 NQMom=    0.0000000   0.0000000   0.0000000   0.0000000   0.0000000   0.0000000
 NMagM=    0.0000000   2.7928460   0.0000000   2.7928460   0.0000000   2.7928460
 Leave Link  101 at Sat Apr 16 01:08:38 2016, MaxMem=   33554432 cpu:       0.0
 (Enter c:\G09w02\l103.exe)

 GradGradGradGradGradGradGradGradGradGradGradGradGradGradGradGradGradGrad
 Berny optimization.
 Initialization pass.
                           ----------------------------
                           !    Initial Parameters    !
                           ! (Angstroms and Degrees)  !
 --------------------------                            --------------------------
 ! Name  Definition              Value          Derivative Info.                !
 --------------------------------------------------------------------------------
 ! R1    R(1,2)                  1.0162         estimate D2E/DX2                !
 ! R2    R(1,3)                  1.467          estimate D2E/DX2                !
 ! R3    R(1,12)                 1.0151         estimate D2E/DX2                !
 ! R4    R(3,4)                  1.0905         estimate D2E/DX2                !
 ! R5    R(3,5)                  1.5285         estimate D2E/DX2                !
 ! R6    R(3,6)                  1.513          estimate D2E/DX2                !
 ! R7    R(5,7)                  1.0926         estimate D2E/DX2                !
 ! R8    R(5,8)                  1.0944         estimate D2E/DX2                !
 ! R9    R(5,9)                  1.508          estimate D2E/DX2                !
 ! R10   R(6,10)                 1.2763         estimate D2E/DX2                !
 ! R11   R(6,13)                 1.2782         estimate D2E/DX2                !
 ! R12   R(9,11)                 1.2111         estimate D2E/DX2                !
 ! R13   R(9,15)                 1.3445         estimate D2E/DX2                !
 ! R14   R(10,14)                1.0778         estimate D2E/DX2                !
 ! R15   R(15,16)                0.9709         estimate D2E/DX2                !
 ! A1    A(2,1,3)              111.4917         estimate D2E/DX2                !
 ! A2    A(2,1,12)             107.7507         estimate D2E/DX2                !
 ! A3    A(3,1,12)             111.0826         estimate D2E/DX2                !
 ! A4    A(1,3,4)              107.8617         estimate D2E/DX2                !
 ! A5    A(1,3,5)              109.6607         estimate D2E/DX2                !
 ! A6    A(1,3,6)              110.4388         estimate D2E/DX2                !
 ! A7    A(4,3,5)              109.7574         estimate D2E/DX2                !
 ! A8    A(4,3,6)              106.9639         estimate D2E/DX2                !
 ! A9    A(5,3,6)              112.0384         estimate D2E/DX2                !
 ! A10   A(3,5,7)              108.8383         estimate D2E/DX2                !
 ! A11   A(3,5,8)              110.992          estimate D2E/DX2                !
 ! A12   A(3,5,9)              113.1915         estimate D2E/DX2                !
 ! A13   A(7,5,8)              106.5803         estimate D2E/DX2                !
 ! A14   A(7,5,9)              108.7412         estimate D2E/DX2                !
 ! A15   A(8,5,9)              108.2655         estimate D2E/DX2                !
 ! A16   A(3,6,10)             124.9813         estimate D2E/DX2                !
 ! A17   A(3,6,13)             125.4243         estimate D2E/DX2                !
 ! A18   A(10,6,13)            109.4105         estimate D2E/DX2                !
 ! A19   A(5,9,11)             125.1593         estimate D2E/DX2                !
 ! A20   A(5,9,15)             111.766          estimate D2E/DX2                !
 ! A21   A(11,9,15)            123.0747         estimate D2E/DX2                !
 ! A22   A(6,10,14)             80.7676         estimate D2E/DX2                !
 ! A23   A(9,15,16)            108.6093         estimate D2E/DX2                !
 ! D1    D(2,1,3,4)            174.2005         estimate D2E/DX2                !
 ! D2    D(2,1,3,5)            -66.3091         estimate D2E/DX2                !
 ! D3    D(2,1,3,6)             57.6342         estimate D2E/DX2                !
 ! D4    D(12,1,3,4)            54.0045         estimate D2E/DX2                !
 ! D5    D(12,1,3,5)           173.4949         estimate D2E/DX2                !
 ! D6    D(12,1,3,6)           -62.5617         estimate D2E/DX2                !
 ! D7    D(1,3,5,7)            -53.9487         estimate D2E/DX2                !
 ! D8    D(1,3,5,8)             63.0426         estimate D2E/DX2                !
 ! D9    D(1,3,5,9)           -174.9789         estimate D2E/DX2                !
 ! D10   D(4,3,5,7)             64.3723         estimate D2E/DX2                !
 ! D11   D(4,3,5,8)           -178.6365         estimate D2E/DX2                !
 ! D12   D(4,3,5,9)            -56.6579         estimate D2E/DX2                !
 ! D13   D(6,3,5,7)           -176.9518         estimate D2E/DX2                !
 ! D14   D(6,3,5,8)            -59.9605         estimate D2E/DX2                !
 ! D15   D(6,3,5,9)             62.018          estimate D2E/DX2                !
 ! D16   D(1,3,6,10)            90.2335         estimate D2E/DX2                !
 ! D17   D(1,3,6,13)           -84.3091         estimate D2E/DX2                !
 ! D18   D(4,3,6,10)           -26.8891         estimate D2E/DX2                !
 ! D19   D(4,3,6,13)           158.5683         estimate D2E/DX2                !
 ! D20   D(5,3,6,10)          -147.2043         estimate D2E/DX2                !
 ! D21   D(5,3,6,13)            38.2531         estimate D2E/DX2                !
 ! D22   D(3,5,9,11)            -3.3844         estimate D2E/DX2                !
 ! D23   D(3,5,9,15)           176.622          estimate D2E/DX2                !
 ! D24   D(7,5,9,11)          -124.4695         estimate D2E/DX2                !
 ! D25   D(7,5,9,15)            55.5369         estimate D2E/DX2                !
 ! D26   D(8,5,9,11)           120.107          estimate D2E/DX2                !
 ! D27   D(8,5,9,15)           -59.8866         estimate D2E/DX2                !
 ! D28   D(3,6,10,14)          175.2036         estimate D2E/DX2                !
 ! D29   D(13,6,10,14)          -9.5098         estimate D2E/DX2                !
 ! D30   D(5,9,15,16)          179.7933         estimate D2E/DX2                !
 ! D31   D(11,9,15,16)          -0.2005         estimate D2E/DX2                !
 --------------------------------------------------------------------------------
 Trust Radius=3.00D-01 FncErr=1.00D-07 GrdErr=1.00D-06
 Number of steps in this run=     79 maximum allowed number of steps=    100.
 GradGradGradGradGradGradGradGradGradGradGradGradGradGradGradGradGradGrad

 Leave Link  103 at Sat Apr 16 01:08:38 2016, MaxMem=   33554432 cpu:       0.0
 (Enter c:\G09w02\l202.exe)
                          Input orientation:                          
 ---------------------------------------------------------------------
 Center     Atomic      Atomic             Coordinates (Angstroms)
 Number     Number       Type             X           Y           Z
 ---------------------------------------------------------------------
      1          7           0       -1.486303    1.928753   -0.156560
      2          1           0       -1.690385    2.020416    0.834715
      3          6           0       -0.637925    0.762390   -0.425039
      4          1           0       -0.542303    0.660170   -1.506560
      5          6           0        0.741574    0.975584    0.197788
      6          6           0       -1.300256   -0.500403    0.080894
      7          1           0        1.147446    1.924749   -0.160230
      8          1           0        0.671700    1.056781    1.286912
      9          6           0        1.718694   -0.124537   -0.132427
     10          8           0       -2.084386   -1.239799   -0.602820
     11          8           0        1.457540   -1.121598   -0.768423
     12          1           0       -2.370914    1.858039   -0.649409
     13          8           0       -1.242175   -0.937975    1.280495
     14          1           0       -2.019246   -1.837507    0.291652
     15          8           0        2.940871    0.127413    0.367939
     16          1           0        3.529686   -0.607728    0.132368
 ---------------------------------------------------------------------
                    Distance matrix (angstroms):
                    1          2          3          4          5
     1  N    0.000000
     2  H    1.016208   0.000000
     3  C    1.467048   2.068159   0.000000
     4  H    2.079168   2.941076   1.090541   0.000000
     5  C    2.448985   2.722457   1.528523   2.156995   0.000000
     6  C    2.447815   2.659883   1.513042   2.107471   2.522156
     7  H    2.633755   3.008713   2.146800   2.503401   1.092622
     8  H    2.738781   2.590853   2.175445   3.071578   1.094379
     9  C    3.806388   4.142222   2.534939   2.759731   1.508003
    10  O    3.255238   3.584794   2.476412   2.608572   3.678987
    11  O    4.283133   4.727762   2.838714   2.778294   2.417508
    12  H    1.015105   1.640765   2.062532   2.348066   3.344256
    13  O    3.216031   3.025176   2.482983   3.288094   2.961287
    14  H    3.830096   3.909813   3.030042   3.413695   3.942641
    15  O    4.808305   5.024925   3.720187   3.991250   2.363314
    16  H    5.628264   5.886389   4.422319   4.568889   3.206981
                    6          7          8          9         10
     6  C    0.000000
     7  H    3.454091   0.000000
     8  H    2.787097   1.753261   0.000000
     9  C    3.049728   2.127597   2.122789   0.000000
    10  O    1.276335   4.544776   4.054797   3.991052   0.000000
    11  O    2.951722   3.121904   3.096334   1.211125   3.547765
    12  H    2.691078   3.552830   3.694435   4.574142   3.111410
    13  O    1.278235   3.997645   2.764419   3.380056   2.085016
    14  H    1.532714   4.938290   4.075369   4.133558   1.077765
    15  O    4.296941   2.593406   2.618659   1.344456   5.297627
    16  H    4.831408   3.489143   3.503091   1.892956   5.697176
                   11         12         13         14         15
    11  O    0.000000
    12  H    4.852779   0.000000
    13  O    3.394148   3.579983   0.000000
    14  H    3.704636   3.829664   1.546224   0.000000
    15  O    2.247580   5.678479   4.411993   5.335681   0.000000
    16  H    2.317170   6.442691   4.919138   5.685805   0.970891
                   16
    16  H    0.000000
 Symmetry turned off by external request.
 Stoichiometry    C4H7NO4
 Framework group  C1[X(C4H7NO4)]
 Deg. of freedom    42
 Full point group                 C1      NOp   1
 Rotational constants (GHZ):      2.5113906      1.1379905      0.9339754
 Leave Link  202 at Sat Apr 16 01:08:38 2016, MaxMem=   33554432 cpu:       0.0
 (Enter c:\G09w02\l301.exe)
 Standard basis: 6-311++G(d,p) (5D, 7F)
 Ernie: Thresh=  0.10000D-02 Tol=  0.10000D-05 Strict=F.
 Integral buffers will be    262144 words long.
 Raffenetti 2 integral format.
 Two-electron integral symmetry is turned off.
   247 basis functions,   387 primitive gaussians,   256 cartesian basis functions
    35 alpha electrons       35 beta electrons
       nuclear repulsion energy       471.8757461779 Hartrees.
 IExCor=  402 DFT=T Ex+Corr=B3LYP ExCW=0 ScaHFX=  0.200000
 ScaDFX=  0.800000  0.720000  1.000000  0.810000 ScalE2=  1.000000  1.000000
 IRadAn=      0 IRanWt=     -1 IRanGd=            0 ICorTp=0
 NAtoms=   16 NActive=   16 NUniq=   16 SFac= 1.00D+00 NAtFMM=   50 NAOKFM=F Big=F
 ------------------------------------------------------------------------------
 Polarizable Continuum Model (PCM)
 =================================
 Model                : C-PCM.
 Atomic radii         : UFF (Universal Force Field).
 Polarization charges : Total charges.
 Charge compensation  : None.
 Solution method      : Matrix inversion.
 Cavity type          : Scaled VdW (van der Waals Surface) (Alpha=1.100).
 Cavity algorithm     : GePol (No added spheres)
                        Default sphere list used, NSphG=   16.
                        Lebedev-Laikov grids with approx.  5.0 points / Ang**2.
                        Smoothing algorithm: Karplus/York (Gamma=1.0000).
                        Polarization charges: spherical gaussians, with
                                              point-specific exponents (IZeta= 3).
                        Self-potential: point-specific (ISelfS= 7).
                        Self-field    : sphere-specific E.n sum rule (ISelfD= 2).
 1st derivatives      : Analytical E(r).r(x)/FMM algorithm (CHGder, D1EAlg=3).
                        Cavity 1st derivative terms included.
 Solvent              : Water, Eps=  78.355300 Eps(inf)=   1.777849
 ------------------------------------------------------------------------------
 Spheres list:
 ISph  on   Nord    Re0     Alpha      Xe            Ye            Ze
    1   N      1    1.830   1.100     -1.486303      1.928753     -0.156560
    2   H      2    1.443   1.100     -1.690385      2.020416      0.834715
    3   C      3    1.926   1.100     -0.637925      0.762390     -0.425039
    4   H      4    1.443   1.100     -0.542303      0.660170     -1.506560
    5   C      5    1.926   1.100      0.741574      0.975584      0.197788
    6   C      6    1.926   1.100     -1.300256     -0.500403      0.080894
    7   H      7    1.443   1.100      1.147446      1.924749     -0.160230
    8   H      8    1.443   1.100      0.671700      1.056781      1.286912
    9   C      9    1.926   1.100      1.718694     -0.124537     -0.132427
   10   O     10    1.750   1.100     -2.084386     -1.239799     -0.602820
   11   O     11    1.750   1.100      1.457540     -1.121598     -0.768423
   12   H     12    1.443   1.100     -2.370914      1.858039     -0.649409
   13   O     13    1.750   1.100     -1.242175     -0.937975      1.280495
   14   H     14    1.443   1.100     -2.019246     -1.837507      0.291652
   15   O     15    1.750   1.100      2.940871      0.127413      0.367939
   16   H     16    1.443   1.100      3.529686     -0.607728      0.132368
 ------------------------------------------------------------------------------
 GePol: Number of generator spheres                  =      16
 GePol: Total number of spheres                      =      16
 GePol: Number of exposed spheres                    =      16 (100.00%)
 GePol: Number of points                             =    1382
 GePol: Average weight of points                     =       0.13
 GePol: Minimum weight of points                     =   0.83D-08
 GePol: Maximum weight of points                     =    0.20577
 GePol: Number of points with low weight             =      78
 GePol: Fraction of low-weight points (<1% of avg)   =       5.64%
 GePol: Cavity surface area                          =    186.003 Ang**2
 GePol: Cavity volume                                =    178.577 Ang**3
 Leave Link  301 at Sat Apr 16 01:08:39 2016, MaxMem=   33554432 cpu:       1.0
 (Enter c:\G09w02\l302.exe)
 NPDir=0 NMtPBC=     1 NCelOv=     1 NCel=       1 NClECP=     1 NCelD=      1
         NCelK=      1 NCelE2=     1 NClLst=     1 CellRange=     0.0.
 One-electron integrals computed using PRISM.
 NBasis=   247 RedAO= T  NBF=   247
 NBsUse=   247 1.00D-06 NBFU=   247
 Precomputing XC quadrature grid using
 IXCGrd= 2 IRadAn=           0 IRanWt=          -1 IRanGd=           0 AccXCQ= 0.00D+00.
 NRdTot=    1040 NPtTot=      132656 NUsed=      137508 NTot=      137524
 NSgBfM=   256   256   256   256   256 NAtAll=    16    16.
 Leave Link  302 at Sat Apr 16 01:08:41 2016, MaxMem=   33554432 cpu:       2.0
 (Enter c:\G09w02\l303.exe)
 DipDrv:  MaxL=1.
 Leave Link  303 at Sat Apr 16 01:08:41 2016, MaxMem=   33554432 cpu:       0.0
 (Enter c:\G09w02\l401.exe)
 Harris functional with IExCor=  402 diagonalized for initial guess.
 ExpMin= 3.60D-02 ExpMax= 8.59D+03 ExpMxC= 1.30D+03 IAcc=3 IRadAn=         0 AccDes= 0.00D+00
 HarFok:  IExCor=  402 AccDes= 0.00D+00 IRadAn=         0 IDoV= 1
 ScaDFX=  1.000000  1.000000  1.000000  1.000000
 FoFCou: FMM=F IPFlag=           0 FMFlag=      100000 FMFlg1=           0
         NFxFlg=           0 DoJE=T BraDBF=F KetDBF=T FulRan=T
         Omega=  0.000000  0.000000  1.000000  0.000000  0.000000 ICntrl=     500 IOpCl=  0
         NMat0=    1 NMatS0=    1 NMatT0=    0 NMatD0=    1 NMtDS0=    0 NMtDT0=    0
         I1Cent=           4 NGrid=           0.
 Symmetry not used in FoFCou.
 Harris En= -512.451017615462    
 Leave Link  401 at Sat Apr 16 01:08:49 2016, MaxMem=   33554432 cpu:       8.0
 (Enter c:\G09w02\l502.exe)
 Closed shell SCF:
 Requested convergence on RMS density matrix=1.00D-08 within 128 cycles.
 Requested convergence on MAX density matrix=1.00D-06.
 Requested convergence on             energy=1.00D-06.
 No special actions if energy rises.
 Using DIIS extrapolation, IDIIS=  1040.
 Two-electron integral symmetry not used.
       137368 words used for storage of precomputed grid.
 IEnd=      355072 IEndB=      355072 NGot=    33554432 MDV=    33281793
 LenX=    33281793 LenY=    33215816
 Fock matrices will be formed incrementally for  20 cycles.

 Cycle   1  Pass 1  IDiag  1:
 FoFCou: FMM=F IPFlag=           0 FMFlag=      100000 FMFlg1=           0
         NFxFlg=           0 DoJE=F BraDBF=F KetDBF=F FulRan=T
         Omega=  0.000000  0.000000  1.000000  0.000000  0.000000 ICntrl=       0 IOpCl=  0
         NMat0=    1 NMatS0=    1 NMatT0=    0 NMatD0=    1 NMtDS0=    0 NMtDT0=    0
         I1Cent=           0 NGrid=           0.
 Symmetry not used in FoFCou.
 E= -512.196191372955    
 DIIS: error= 2.86D-02 at cycle   1 NSaved=   1.
 NSaved= 1 IEnMin= 1 EnMin= -512.196191372955     IErMin= 1 ErrMin= 2.86D-02
 ErrMax= 2.86D-02 EMaxC= 1.00D-01 BMatC= 3.84D-01 BMatP= 3.84D-01
 IDIUse=3 WtCom= 7.14D-01 WtEn= 2.86D-01
 Coeff-Com:  0.100D+01
 Coeff-En:   0.100D+01
 Coeff:      0.100D+01
 Gap=     0.152 Goal=   None    Shift=    0.000
 GapD=    0.152 DampG=1.000 DampE=0.500 DampFc=0.5000 IDamp=-1.
 Damping current iteration by 5.00D-01
 RMSDP=6.67D-03 MaxDP=1.77D-01              OVMax= 2.25D-01

 Cycle   2  Pass 1  IDiag  1:
 RMSU=  2.35D-03    CP:  9.88D-01
 E= -512.253963751018     Delta-E=       -0.057772378063 Rises=F Damp=T
 DIIS: error= 1.18D-02 at cycle   2 NSaved=   2.
 NSaved= 2 IEnMin= 2 EnMin= -512.253963751018     IErMin= 2 ErrMin= 1.18D-02
 ErrMax= 1.18D-02 EMaxC= 1.00D-01 BMatC= 5.27D-02 BMatP= 3.84D-01
 IDIUse=3 WtCom= 8.82D-01 WtEn= 1.18D-01
 Coeff-Com:  0.228D+00 0.772D+00
 Coeff-En:   0.391D+00 0.609D+00
 Coeff:      0.247D+00 0.753D+00
 Gap=     0.242 Goal=   None    Shift=    0.000
 RMSDP=2.39D-03 MaxDP=2.15D-01 DE=-5.78D-02 OVMax= 1.70D-01

 Cycle   3  Pass 1  IDiag  1:
 RMSU=  1.32D-03    CP:  9.24D-01  7.27D-01
 E= -512.433327100680     Delta-E=       -0.179363349663 Rises=F Damp=F
 DIIS: error= 1.33D-02 at cycle   3 NSaved=   3.
 NSaved= 3 IEnMin= 3 EnMin= -512.433327100680     IErMin= 2 ErrMin= 1.18D-02
 ErrMax= 1.33D-02 EMaxC= 1.00D-01 BMatC= 3.07D-02 BMatP= 5.27D-02
 IDIUse=3 WtCom= 8.67D-01 WtEn= 1.33D-01
 Coeff-Com:  0.940D-01 0.449D+00 0.457D+00
 Coeff-En:   0.000D+00 0.000D+00 0.100D+01
 Coeff:      0.815D-01 0.389D+00 0.529D+00
 Gap=     0.244 Goal=   None    Shift=    0.000
 RMSDP=1.02D-03 MaxDP=2.96D-02 DE=-1.79D-01 OVMax= 7.24D-02

 Cycle   4  Pass 1  IDiag  1:
 RMSU=  6.98D-04    CP:  9.25D-01  7.48D-01  8.77D-01
 E= -512.450148348807     Delta-E=       -0.016821248127 Rises=F Damp=F
 DIIS: error= 8.18D-03 at cycle   4 NSaved=   4.
 NSaved= 4 IEnMin= 4 EnMin= -512.450148348807     IErMin= 4 ErrMin= 8.18D-03
 ErrMax= 8.18D-03 EMaxC= 1.00D-01 BMatC= 9.72D-03 BMatP= 3.07D-02
 IDIUse=3 WtCom= 9.18D-01 WtEn= 8.18D-02
 Coeff-Com:  0.118D-01 0.107D+00 0.361D+00 0.520D+00
 Coeff-En:   0.000D+00 0.000D+00 0.265D+00 0.735D+00
 Coeff:      0.108D-01 0.986D-01 0.353D+00 0.537D+00
 Gap=     0.238 Goal=   None    Shift=    0.000
 RMSDP=3.93D-04 MaxDP=2.25D-02 DE=-1.68D-02 OVMax= 3.21D-02

 Cycle   5  Pass 1  IDiag  1:
 RMSU=  1.62D-04    CP:  9.19D-01  7.46D-01  9.61D-01  7.40D-01
 E= -512.456486567143     Delta-E=       -0.006338218336 Rises=F Damp=F
 DIIS: error= 1.62D-03 at cycle   5 NSaved=   5.
 NSaved= 5 IEnMin= 5 EnMin= -512.456486567143     IErMin= 5 ErrMin= 1.62D-03
 ErrMax= 1.62D-03 EMaxC= 1.00D-01 BMatC= 6.15D-04 BMatP= 9.72D-03
 IDIUse=3 WtCom= 9.84D-01 WtEn= 1.62D-02
 Coeff-Com: -0.853D-03 0.209D-01 0.170D+00 0.326D+00 0.484D+00
 Coeff-En:   0.000D+00 0.000D+00 0.000D+00 0.000D+00 0.100D+01
 Coeff:     -0.839D-03 0.206D-01 0.167D+00 0.321D+00 0.492D+00
 Gap=     0.239 Goal=   None    Shift=    0.000
 RMSDP=1.81D-04 MaxDP=1.65D-02 DE=-6.34D-03 OVMax= 6.89D-03

 Cycle   6  Pass 1  IDiag  1:
 RMSU=  9.35D-05    CP:  9.15D-01  7.42D-01  9.75D-01  7.10D-01  6.29D-01
 E= -512.456957726416     Delta-E=       -0.000471159273 Rises=F Damp=F
 DIIS: error= 3.70D-04 at cycle   6 NSaved=   6.
 NSaved= 6 IEnMin= 6 EnMin= -512.456957726416     IErMin= 6 ErrMin= 3.70D-04
 ErrMax= 3.70D-04 EMaxC= 1.00D-01 BMatC= 3.52D-05 BMatP= 6.15D-04
 IDIUse=3 WtCom= 9.96D-01 WtEn= 3.70D-03
 Coeff-Com: -0.112D-02 0.359D-02 0.653D-01 0.133D+00 0.272D+00 0.527D+00
 Coeff-En:   0.000D+00 0.000D+00 0.000D+00 0.000D+00 0.000D+00 0.100D+01
 Coeff:     -0.111D-02 0.358D-02 0.650D-01 0.133D+00 0.271D+00 0.529D+00
 Gap=     0.240 Goal=   None    Shift=    0.000
 RMSDP=3.27D-05 MaxDP=1.19D-03 DE=-4.71D-04 OVMax= 1.94D-03

 Cycle   7  Pass 1  IDiag  1:
 RMSU=  1.77D-05    CP:  9.15D-01  7.42D-01  9.78D-01  7.20D-01  6.33D-01
                    CP:  8.67D-01
 E= -512.456977666751     Delta-E=       -0.000019940335 Rises=F Damp=F
 DIIS: error= 2.07D-04 at cycle   7 NSaved=   7.
 NSaved= 7 IEnMin= 7 EnMin= -512.456977666751     IErMin= 7 ErrMin= 2.07D-04
 ErrMax= 2.07D-04 EMaxC= 1.00D-01 BMatC= 8.08D-06 BMatP= 3.52D-05
 IDIUse=3 WtCom= 9.98D-01 WtEn= 2.07D-03
 Coeff-Com: -0.520D-03-0.570D-03 0.196D-01 0.420D-01 0.116D+00 0.365D+00
 Coeff-Com:  0.458D+00
 Coeff-En:   0.000D+00 0.000D+00 0.000D+00 0.000D+00 0.000D+00 0.184D+00
 Coeff-En:   0.816D+00
 Coeff:     -0.519D-03-0.569D-03 0.196D-01 0.419D-01 0.116D+00 0.365D+00
 Coeff:      0.459D+00
 Gap=     0.239 Goal=   None    Shift=    0.000
 RMSDP=1.63D-05 MaxDP=1.37D-03 DE=-1.99D-05 OVMax= 8.00D-04

 Cycle   8  Pass 1  IDiag  1:
 RMSU=  6.15D-06    CP:  9.15D-01  7.42D-01  9.78D-01  7.23D-01  6.44D-01
                    CP:  8.12D-01  6.08D-01
 E= -512.456983462638     Delta-E=       -0.000005795887 Rises=F Damp=F
 DIIS: error= 2.04D-05 at cycle   8 NSaved=   8.
 NSaved= 8 IEnMin= 8 EnMin= -512.456983462638     IErMin= 8 ErrMin= 2.04D-05
 ErrMax= 2.04D-05 EMaxC= 1.00D-01 BMatC= 1.51D-07 BMatP= 8.08D-06
 IDIUse=1 WtCom= 1.00D+00 WtEn= 0.00D+00
 Coeff-Com: -0.799D-04-0.497D-03 0.439D-02 0.959D-02 0.343D-01 0.124D+00
 Coeff-Com:  0.190D+00 0.638D+00
 Coeff:     -0.799D-04-0.497D-03 0.439D-02 0.959D-02 0.343D-01 0.124D+00
 Coeff:      0.190D+00 0.638D+00
 Gap=     0.239 Goal=   None    Shift=    0.000
 RMSDP=3.15D-06 MaxDP=1.47D-04 DE=-5.80D-06 OVMax= 7.28D-05

 Cycle   9  Pass 1  IDiag  1:
 RMSU=  1.55D-06    CP:  9.15D-01  7.42D-01  9.78D-01  7.21D-01  6.48D-01
                    CP:  8.19D-01  5.75D-01  8.74D-01
 E= -512.456983565231     Delta-E=       -0.000000102594 Rises=F Damp=F
 DIIS: error= 9.02D-06 at cycle   9 NSaved=   9.
 NSaved= 9 IEnMin= 9 EnMin= -512.456983565231     IErMin= 9 ErrMin= 9.02D-06
 ErrMax= 9.02D-06 EMaxC= 1.00D-01 BMatC= 2.47D-08 BMatP= 1.51D-07
 IDIUse=1 WtCom= 1.00D+00 WtEn= 0.00D+00
 Coeff-Com:  0.296D-04-0.196D-03-0.132D-03-0.221D-03 0.324D-02 0.163D-01
 Coeff-Com:  0.337D-01 0.316D+00 0.631D+00
 Coeff:      0.296D-04-0.196D-03-0.132D-03-0.221D-03 0.324D-02 0.163D-01
 Coeff:      0.337D-01 0.316D+00 0.631D+00
 Gap=     0.239 Goal=   None    Shift=    0.000
 RMSDP=1.05D-06 MaxDP=4.97D-05 DE=-1.03D-07 OVMax= 4.51D-05

 Cycle  10  Pass 1  IDiag  1:
 RMSU=  5.08D-07    CP:  9.15D-01  7.42D-01  9.78D-01  7.22D-01  6.48D-01
                    CP:  8.19D-01  5.77D-01  8.96D-01  8.23D-01
 E= -512.456983584109     Delta-E=       -0.000000018877 Rises=F Damp=F
 DIIS: error= 2.20D-06 at cycle  10 NSaved=  10.
 NSaved=10 IEnMin=10 EnMin= -512.456983584109     IErMin=10 ErrMin= 2.20D-06
 ErrMax= 2.20D-06 EMaxC= 1.00D-01 BMatC= 2.14D-09 BMatP= 2.47D-08
 IDIUse=1 WtCom= 1.00D+00 WtEn= 0.00D+00
 Coeff-Com:  0.143D-04-0.770D-04-0.209D-03-0.421D-03 0.294D-03 0.272D-02
 Coeff-Com:  0.768D-02 0.128D+00 0.327D+00 0.535D+00
 Coeff:      0.143D-04-0.770D-04-0.209D-03-0.421D-03 0.294D-03 0.272D-02
 Coeff:      0.768D-02 0.128D+00 0.327D+00 0.535D+00
 Gap=     0.239 Goal=   None    Shift=    0.000
 RMSDP=2.60D-07 MaxDP=1.20D-05 DE=-1.89D-08 OVMax= 1.30D-05

 Cycle  11  Pass 1  IDiag  1:
 RMSU=  1.06D-07    CP:  9.15D-01  7.42D-01  9.78D-01  7.22D-01  6.48D-01
                    CP:  8.20D-01  5.79D-01  9.09D-01  8.47D-01  8.48D-01
 E= -512.456983585706     Delta-E=       -0.000000001597 Rises=F Damp=F
 DIIS: error= 6.55D-07 at cycle  11 NSaved=  11.
 NSaved=11 IEnMin=11 EnMin= -512.456983585706     IErMin=11 ErrMin= 6.55D-07
 ErrMax= 6.55D-07 EMaxC= 1.00D-01 BMatC= 1.63D-10 BMatP= 2.14D-09
 IDIUse=1 WtCom= 1.00D+00 WtEn= 0.00D+00
 Coeff-Com:  0.250D-05-0.877D-05-0.112D-03-0.237D-03-0.437D-03-0.117D-02
 Coeff-Com: -0.136D-02 0.207D-01 0.768D-01 0.249D+00 0.657D+00
 Coeff:      0.250D-05-0.877D-05-0.112D-03-0.237D-03-0.437D-03-0.117D-02
 Coeff:     -0.136D-02 0.207D-01 0.768D-01 0.249D+00 0.657D+00
 Gap=     0.239 Goal=   None    Shift=    0.000
 RMSDP=8.23D-08 MaxDP=5.38D-06 DE=-1.60D-09 OVMax= 2.63D-06

 Cycle  12  Pass 1  IDiag  1:
 RMSU=  4.23D-08    CP:  9.15D-01  7.42D-01  9.78D-01  7.22D-01  6.48D-01
                    CP:  8.19D-01  5.79D-01  9.13D-01  8.51D-01  8.83D-01
                    CP:  8.59D-01
 E= -512.456983585835     Delta-E=       -0.000000000129 Rises=F Damp=F
 DIIS: error= 1.04D-07 at cycle  12 NSaved=  12.
 NSaved=12 IEnMin=12 EnMin= -512.456983585835     IErMin=12 ErrMin= 1.04D-07
 ErrMax= 1.04D-07 EMaxC= 1.00D-01 BMatC= 5.39D-12 BMatP= 1.63D-10
 IDIUse=1 WtCom= 1.00D+00 WtEn= 0.00D+00
 Coeff-Com: -0.903D-06 0.206D-05-0.187D-04-0.405D-04-0.140D-03-0.418D-03
 Coeff-Com: -0.861D-03-0.670D-03 0.359D-02 0.413D-01 0.198D+00 0.759D+00
 Coeff:     -0.903D-06 0.206D-05-0.187D-04-0.405D-04-0.140D-03-0.418D-03
 Coeff:     -0.861D-03-0.670D-03 0.359D-02 0.413D-01 0.198D+00 0.759D+00
 Gap=     0.239 Goal=   None    Shift=    0.000
 RMSDP=2.11D-08 MaxDP=8.25D-07 DE=-1.29D-10 OVMax= 4.48D-07

 Cycle  13  Pass 1  IDiag  1:
 RMSU=  8.06D-09    CP:  9.15D-01  7.42D-01  9.78D-01  7.22D-01  6.48D-01
                    CP:  8.19D-01  5.78D-01  9.13D-01  8.54D-01  8.96D-01
                    CP:  8.96D-01  8.87D-01
 E= -512.456983585827     Delta-E=        0.000000000008 Rises=F Damp=F
 DIIS: error= 3.98D-08 at cycle  13 NSaved=  13.
 NSaved=13 IEnMin=12 EnMin= -512.456983585835     IErMin=13 ErrMin= 3.98D-08
 ErrMax= 3.98D-08 EMaxC= 1.00D-01 BMatC= 1.27D-12 BMatP= 5.39D-12
 IDIUse=1 WtCom= 1.00D+00 WtEn= 0.00D+00
 Coeff-Com: -0.726D-06 0.170D-05-0.343D-05-0.779D-05-0.519D-04-0.158D-03
 Coeff-Com: -0.416D-03-0.173D-02-0.322D-02 0.712D-02 0.682D-01 0.425D+00
 Coeff-Com:  0.505D+00
 Coeff:     -0.726D-06 0.170D-05-0.343D-05-0.779D-05-0.519D-04-0.158D-03
 Coeff:     -0.416D-03-0.173D-02-0.322D-02 0.712D-02 0.682D-01 0.425D+00
 Coeff:      0.505D+00
 Gap=     0.239 Goal=   None    Shift=    0.000
 RMSDP=6.85D-09 MaxDP=3.79D-07 DE= 7.96D-12 OVMax= 1.67D-07

 Error on total polarization charges =  0.01163
 SCF Done:  E(RB3LYP) =  -512.456983586     A.U. after   13 cycles
             Convg  =    0.6852D-08             -V/T =  2.0035
 KE= 5.106882447002D+02 PE=-2.146674676825D+03 EE= 6.516537023612D+02
 Leave Link  502 at Sat Apr 16 01:15:26 2016, MaxMem=   33554432 cpu:     397.0
 (Enter c:\G09w02\l601.exe)
 Copying SCF densities to generalized density rwf, IOpCl= 0 IROHF=0.

 **********************************************************************

            Population analysis using the SCF density.

 **********************************************************************

 Alpha  occ. eigenvalues --  -19.18815 -19.18559 -19.13707 -19.12874 -14.32398
 Alpha  occ. eigenvalues --  -10.32959 -10.32876 -10.24552 -10.20485  -1.16574
 Alpha  occ. eigenvalues --   -1.13211  -1.04398  -1.00341  -0.92258  -0.79919
 Alpha  occ. eigenvalues --   -0.71645  -0.63803  -0.57957  -0.54105  -0.53633
 Alpha  occ. eigenvalues --   -0.52420  -0.51026  -0.49060  -0.48438  -0.47551
 Alpha  occ. eigenvalues --   -0.43966  -0.43080  -0.41021  -0.40514  -0.38284
 Alpha  occ. eigenvalues --   -0.34874  -0.32802  -0.30956  -0.30719  -0.27570
 Alpha virt. eigenvalues --   -0.03628  -0.02080  -0.01169   0.00216   0.01237
 Alpha virt. eigenvalues --    0.01800   0.02744   0.04585   0.05235   0.06346
 Alpha virt. eigenvalues --    0.06911   0.07884   0.08399   0.09276   0.09734
 Alpha virt. eigenvalues --    0.10285   0.10530   0.11637   0.11762   0.12159
 Alpha virt. eigenvalues --    0.13312   0.13602   0.13771   0.15503   0.16176
 Alpha virt. eigenvalues --    0.16352   0.16914   0.18870   0.19208   0.19850
 Alpha virt. eigenvalues --    0.20554   0.21772   0.21865   0.22715   0.22952
 Alpha virt. eigenvalues --    0.23218   0.24371   0.25354   0.26076   0.26451
 Alpha virt. eigenvalues --    0.27363   0.27956   0.28724   0.29301   0.29958
 Alpha virt. eigenvalues --    0.30433   0.30669   0.32479   0.33141   0.34301
 Alpha virt. eigenvalues --    0.35135   0.35212   0.36555   0.37107   0.38564
 Alpha virt. eigenvalues --    0.39150   0.39982   0.40871   0.45150   0.47229
 Alpha virt. eigenvalues --    0.50242   0.51081   0.53375   0.53420   0.55412
 Alpha virt. eigenvalues --    0.57799   0.58697   0.60979   0.62683   0.65131
 Alpha virt. eigenvalues --    0.65691   0.66239   0.68105   0.70616   0.70797
 Alpha virt. eigenvalues --    0.72352   0.73981   0.75007   0.78352   0.83674
 Alpha virt. eigenvalues --    0.85860   0.86834   0.90521   0.92081   0.98209
 Alpha virt. eigenvalues --    0.99996   1.02071   1.05440   1.06212   1.07273
 Alpha virt. eigenvalues --    1.10948   1.11307   1.13790   1.14795   1.15532
 Alpha virt. eigenvalues --    1.16273   1.18347   1.19142   1.21132   1.24561
 Alpha virt. eigenvalues --    1.25640   1.27185   1.30170   1.33532   1.35881
 Alpha virt. eigenvalues --    1.38389   1.39751   1.42112   1.48296   1.49130
 Alpha virt. eigenvalues --    1.49921   1.50582   1.55327   1.55821   1.57652
 Alpha virt. eigenvalues --    1.58866   1.60385   1.64803   1.67942   1.69837
 Alpha virt. eigenvalues --    1.71519   1.72994   1.76474   1.78505   1.81184
 Alpha virt. eigenvalues --    1.84086   1.85576   1.88069   1.90152   1.94656
 Alpha virt. eigenvalues --    1.95397   1.97743   2.01576   2.06004   2.08793
 Alpha virt. eigenvalues --    2.12540   2.18152   2.23800   2.28021   2.32593
 Alpha virt. eigenvalues --    2.38243   2.46163   2.52733   2.55068   2.55928
 Alpha virt. eigenvalues --    2.58406   2.60005   2.61367   2.65045   2.65802
 Alpha virt. eigenvalues --    2.70088   2.74110   2.77013   2.80092   2.82448
 Alpha virt. eigenvalues --    2.85007   2.87686   2.90245   2.91824   2.94173
 Alpha virt. eigenvalues --    2.95598   3.00491   3.02700   3.04144   3.04972
 Alpha virt. eigenvalues --    3.09240   3.11599   3.16309   3.19458   3.21376
 Alpha virt. eigenvalues --    3.22863   3.24356   3.30114   3.34226   3.35257
 Alpha virt. eigenvalues --    3.50330   3.57203   3.59260   3.65279   3.70760
 Alpha virt. eigenvalues --    3.73199   3.79958   3.80977   4.02642   4.05367
 Alpha virt. eigenvalues --    4.06697   4.08669   4.14656   4.33466   4.71792
 Alpha virt. eigenvalues --    4.83019   4.95069   4.98264   5.02406   5.07458
 Alpha virt. eigenvalues --    5.12358   5.18894   5.35920   5.38504   5.51526
 Alpha virt. eigenvalues --    5.59329   5.78439   5.84344  23.76416  23.78415
 Alpha virt. eigenvalues --   23.81218  23.90165  35.58501  49.85338  49.86371
 Alpha virt. eigenvalues --   49.97104  50.00061
          Condensed to atoms (all electrons):
              1          2          3          4          5          6
     1  N    6.638500   0.374797   0.083169  -0.051203  -0.050309  -0.065705
     2  H    0.374797   0.430885   0.002090   0.008595  -0.014544  -0.024939
     3  C    0.083169   0.002090   8.002341   0.584680  -0.638156  -1.498689
     4  H   -0.051203   0.008595   0.584680   0.493343  -0.066055  -0.199737
     5  C   -0.050309  -0.014544  -0.638156  -0.066055   7.179712   0.055854
     6  C   -0.065705  -0.024939  -1.498689  -0.199737   0.055854   7.066571
     7  H    0.002325   0.000505  -0.096094  -0.009038   0.413976   0.012555
     8  H   -0.006110   0.001739   0.084982   0.011361   0.410989  -0.102161
     9  C    0.040230  -0.001531  -0.066223  -0.045908  -0.688807   0.222603
    10  O   -0.024766  -0.002631  -0.162897   0.000720   0.009577   0.281366
    11  O   -0.000596  -0.000205   0.110055  -0.003501  -0.139482  -0.024705
    12  H    0.395326  -0.041356  -0.075349  -0.014881   0.014311   0.028747
    13  O   -0.014924   0.006732  -0.085319   0.003349   0.044986   0.384308
    14  H   -0.001194   0.000115  -0.001058  -0.001052   0.004432   0.004695
    15  O    0.000583   0.000223   0.028997  -0.000689  -0.282419  -0.001923
    16  H    0.000303  -0.000140  -0.006755  -0.001610  -0.043445   0.003743
              7          8          9         10         11         12
     1  N    0.002325  -0.006110   0.040230  -0.024766  -0.000596   0.395326
     2  H    0.000505   0.001739  -0.001531  -0.002631  -0.000205  -0.041356
     3  C   -0.096094   0.084982  -0.066223  -0.162897   0.110055  -0.075349
     4  H   -0.009038   0.011361  -0.045908   0.000720  -0.003501  -0.014881
     5  C    0.413976   0.410989  -0.688807   0.009577  -0.139482   0.014311
     6  C    0.012555  -0.102161   0.222603   0.281366  -0.024705   0.028747
     7  H    0.463973  -0.025890  -0.003285   0.000208   0.002809   0.001048
     8  H   -0.025890   0.441616  -0.061859  -0.000850   0.000450  -0.000956
     9  C   -0.003285  -0.061859   5.830610  -0.020928   0.438878   0.001658
    10  O    0.000208  -0.000850  -0.020928   8.056976  -0.000119  -0.000383
    11  O    0.002809   0.000450   0.438878  -0.000119   8.066247   0.000314
    12  H    0.001048  -0.000956   0.001658  -0.000383   0.000314   0.415280
    13  O    0.001812  -0.005977  -0.018197  -0.237971  -0.005482  -0.000929
    14  H    0.000641  -0.002968  -0.000917   0.236779  -0.000965   0.000715
    15  O   -0.001056  -0.005555   0.309761  -0.000059  -0.119950  -0.000022
    16  H    0.001738   0.000506   0.044646  -0.000279  -0.004237   0.000060
             13         14         15         16
     1  N   -0.014924  -0.001194   0.000583   0.000303
     2  H    0.006732   0.000115   0.000223  -0.000140
     3  C   -0.085319  -0.001058   0.028997  -0.006755
     4  H    0.003349  -0.001052  -0.000689  -0.001610
     5  C    0.044986   0.004432  -0.282419  -0.043445
     6  C    0.384308   0.004695  -0.001923   0.003743
     7  H    0.001812   0.000641  -0.001056   0.001738
     8  H   -0.005977  -0.002968  -0.005555   0.000506
     9  C   -0.018197  -0.000917   0.309761   0.044646
    10  O   -0.237971   0.236779  -0.000059  -0.000279
    11  O   -0.005482  -0.000965  -0.119950  -0.004237
    12  H   -0.000929   0.000715  -0.000022   0.000060
    13  O    8.264759   0.058841  -0.000659   0.000545
    14  H    0.058841   0.385685   0.000083  -0.000009
    15  O   -0.000659   0.000083   7.989898   0.270834
    16  H    0.000545  -0.000009   0.270834   0.414129
 Mulliken atomic charges:
              1
     1  N   -0.320428
     2  H    0.259665
     3  C   -0.265774
     4  H    0.291626
     5  C   -0.210620
     6  C   -0.142583
     7  H    0.233773
     8  H    0.260683
     9  C    0.019269
    10  O   -0.134742
    11  O   -0.319512
    12  H    0.276416
    13  O   -0.395874
    14  H    0.316176
    15  O   -0.188048
    16  H    0.319972
 Sum of Mulliken atomic charges =   0.00000
 Mulliken charges with hydrogens summed into heavy atoms:
              1
     1  N    0.215654
     3  C    0.025852
     5  C    0.283837
     6  C   -0.142583
     9  C    0.019269
    10  O    0.181434
    11  O   -0.319512
    13  O   -0.395874
    15  O    0.131923
 Sum of Mulliken charges with hydrogens summed into heavy atoms =   0.00000
 Electronic spatial extent (au):  <R**2>=           1262.4352
 Charge=              0.0000 electrons
 Dipole moment (field-independent basis, Debye):
    X=              0.5666    Y=              2.2367    Z=             -0.2871  Tot=              2.3252
 Quadrupole moment (field-independent basis, Debye-Ang):
   XX=            -42.8037   YY=            -56.1863   ZZ=            -57.3223
   XY=             -3.8851   XZ=              0.5698   YZ=             -0.4499
 Traceless Quadrupole moment (field-independent basis, Debye-Ang):
   XX=              9.3004   YY=             -4.0822   ZZ=             -5.2182
   XY=             -3.8851   XZ=              0.5698   YZ=             -0.4499
 Octapole moment (field-independent basis, Debye-Ang**2):
  XXX=             25.7227  YYY=            -20.5688  ZZZ=             -4.6511  XYY=             -4.6288
  XXY=             -6.6158  XXZ=             -0.1947  XZZ=              2.5949  YZZ=              9.2444
  YYZ=              9.2260  XYZ=             -4.4160
 Hexadecapole moment (field-independent basis, Debye-Ang**3):
 XXXX=           -766.7931 YYYY=           -459.4245 ZZZZ=           -182.3369 XXXY=            -88.4590
 XXXZ=            -15.6000 YYYX=             29.8325 YYYZ=              7.2498 ZZZX=              7.3827
 ZZZY=              5.1750 XXYY=           -201.2618 XXZZ=           -198.9203 YYZZ=           -103.8633
 XXYZ=            -17.5890 YYXZ=             -5.8862 ZZXY=             -9.9197
 N-N= 4.718757461779D+02 E-N=-2.146674672425D+03  KE= 5.106882447002D+02
 No NMR shielding tensors so no spin-rotation constants.
 Leave Link  601 at Sat Apr 16 01:15:27 2016, MaxMem=   33554432 cpu:       0.0
 (Enter c:\G09w02\l701.exe)
 Compute integral first derivatives.
 ... and contract with generalized density number  0.
 D1PCM: C-PCM CHGder 1st derivatives, ID1Alg=3 FixD1E=F DoIter=F DoCFld=F I1PDM=0.
 GePol: Maximum number of non-zero 1st derivatives   =     205
 Leave Link  701 at Sat Apr 16 01:15:36 2016, MaxMem=   33554432 cpu:       9.0
 (Enter c:\G09w02\l702.exe)
 L702 exits ... SP integral derivatives will be done elsewhere.
 Leave Link  702 at Sat Apr 16 01:15:36 2016, MaxMem=   33554432 cpu:       0.0
 (Enter c:\G09w02\l703.exe)
 Compute integral first derivatives, UseDBF=F ICtDFT=           0.
 Integral derivatives from FoFDir, PRISM(SPDF).
 Calling FoFJK, ICntrl=      2127 FMM=F ISym2X=0 I1Cent= 0 IOpClX= 0 NMat=1 NMatS=1 NMatT=0.
 FoFCou: FMM=F IPFlag=           0 FMFlag=      100000 FMFlg1=         800
         NFxFlg=           0 DoJE=F BraDBF=F KetDBF=F FulRan=T
         Omega=  0.000000  0.000000  1.000000  0.000000  0.000000 ICntrl=    2127 IOpCl=  0
         NMat0=    1 NMatS0=    1 NMatT0=    0 NMatD0=    1 NMtDS0=    0 NMtDT0=    0
         I1Cent=           0 NGrid=           0.
 Symmetry not used in FoFCou.
 Leave Link  703 at Sat Apr 16 01:17:34 2016, MaxMem=   33554432 cpu:     118.0
 (Enter c:\G09w02\l716.exe)
 Dipole        = 2.22924906D-01 8.79992994D-01-1.12969226D-01
 -------------------------------------------------------------------
 Center     Atomic                   Forces (Hartrees/Bohr)
 Number     Number              X              Y              Z
 -------------------------------------------------------------------
      1        7          -0.000128496    0.001000519   -0.000548682
      2        1           0.000072500   -0.000550745    0.000035463
      3        6          -0.003801896   -0.000181265   -0.003223075
      4        1           0.000534248    0.000942838   -0.000823811
      5        6          -0.000406225   -0.000924715    0.000273525
      6        6           0.020664847    0.012518384    0.066676427
      7        1          -0.000237274   -0.000034704   -0.000270250
      8        1          -0.000321372   -0.000300751   -0.000283287
      9        6          -0.000499605    0.000145478    0.000141140
     10        8          -0.008295593   -0.034405437   -0.010990248
     11        8           0.000066417   -0.000082648   -0.000198413
     12        1          -0.000011439    0.000322792    0.000026916
     13        8           0.024708263    0.029954279   -0.015942267
     14        1          -0.032464433   -0.008353129   -0.034891501
     15        8           0.000131506   -0.000060194    0.000016762
     16        1          -0.000011448    0.000009297    0.000001302
 -------------------------------------------------------------------
 Cartesian Forces:  Max     0.066676427 RMS     0.014815671
 Leave Link  716 at Sat Apr 16 01:17:34 2016, MaxMem=   33554432 cpu:       0.0
 (Enter c:\G09w02\l103.exe)

 GradGradGradGradGradGradGradGradGradGradGradGradGradGradGradGradGradGrad
 Berny optimization.
 Internal  Forces:  Max     0.080997499 RMS     0.016500902
 Search for a local minimum.
 Step number   1 out of a maximum of   79
 All quantities printed in internal units (Hartrees-Bohrs-Radians)
 RMS Force = .16501D-01 SwitMx=.10000D-02 MixMth= 1
 Mixed Optimization -- RFO/linear search
 Second derivative matrix not updated -- first step.
 ITU=  0
     Eigenvalues ---    0.00389   0.00593   0.00660   0.00805   0.01086
     Eigenvalues ---    0.01157   0.02427   0.03328   0.03975   0.04042
     Eigenvalues ---    0.04493   0.05137   0.05375   0.06579   0.09528
     Eigenvalues ---    0.12917   0.16000   0.16000   0.16000   0.16000
     Eigenvalues ---    0.17463   0.18473   0.21947   0.24965   0.25000
     Eigenvalues ---    0.25000   0.25000   0.29560   0.31047   0.31552
     Eigenvalues ---    0.34311   0.34511   0.34750   0.36096   0.36266
     Eigenvalues ---    0.44949   0.45128   0.53195   0.56218   0.73619
     Eigenvalues ---    0.74218   0.99426
 RFO step:  Lambda=-5.82314343D-02 EMin= 3.88642470D-03
 Linear search not attempted -- first point.
 Maximum step size (   0.300) exceeded in Quadratic search.
    -- Step size scaled by   0.659
 Iteration  1 RMS(Cart)=  0.06855698 RMS(Int)=  0.00996121
 Iteration  2 RMS(Cart)=  0.01304197 RMS(Int)=  0.00036238
 Iteration  3 RMS(Cart)=  0.00045845 RMS(Int)=  0.00011037
 Iteration  4 RMS(Cart)=  0.00000044 RMS(Int)=  0.00011037
 Variable       Old X    -DE/DX   Delta X   Delta X   Delta X     New X
                                 (Linear)    (Quad)   (Total)
    R1        1.92035  -0.00003   0.00000  -0.00004  -0.00004   1.92031
    R2        2.77232   0.00056   0.00000   0.00088   0.00088   2.77320
    R3        1.91827  -0.00002   0.00000  -0.00003  -0.00003   1.91824
    R4        2.06082   0.00078   0.00000   0.00126   0.00126   2.06209
    R5        2.88849  -0.00146   0.00000  -0.00271  -0.00271   2.88577
    R6        2.85924  -0.00015   0.00000  -0.00027  -0.00027   2.85897
    R7        2.06476  -0.00003   0.00000  -0.00005  -0.00005   2.06471
    R8        2.06808  -0.00029   0.00000  -0.00047  -0.00047   2.06761
    R9        2.84971  -0.00021   0.00000  -0.00037  -0.00037   2.84934
   R10        2.41192   0.07438   0.00000   0.06128   0.06128   2.47321
   R11        2.41551  -0.02409   0.00000  -0.02000  -0.02000   2.39552
   R12        2.28869   0.00016   0.00000   0.00010   0.00010   2.28879
   R13        2.54065   0.00011   0.00000   0.00012   0.00012   2.54077
   R14        2.03668  -0.02628   0.00000  -0.04118  -0.04118   1.99551
   R15        1.83472  -0.00002   0.00000  -0.00002  -0.00002   1.83470
    A1        1.94590  -0.00091   0.00000  -0.00287  -0.00287   1.94303
    A2        1.88061   0.00007   0.00000   0.00001   0.00001   1.88062
    A3        1.93876   0.00060   0.00000   0.00170   0.00170   1.94046
    A4        1.88254  -0.00064   0.00000  -0.00116  -0.00117   1.88138
    A5        1.91394   0.00075   0.00000   0.00120   0.00120   1.91514
    A6        1.92752   0.00098   0.00000   0.00271   0.00271   1.93023
    A7        1.91563   0.00005   0.00000  -0.00082  -0.00081   1.91482
    A8        1.86687   0.00114   0.00000   0.00484   0.00483   1.87170
    A9        1.95544  -0.00222   0.00000  -0.00655  -0.00655   1.94889
   A10        1.89959  -0.00010   0.00000  -0.00051  -0.00051   1.89908
   A11        1.93718  -0.00022   0.00000  -0.00105  -0.00105   1.93613
   A12        1.97557  -0.00022   0.00000  -0.00070  -0.00070   1.97487
   A13        1.86018   0.00020   0.00000   0.00118   0.00118   1.86136
   A14        1.89789   0.00016   0.00000   0.00059   0.00059   1.89848
   A15        1.88959   0.00021   0.00000   0.00063   0.00063   1.89022
   A16        2.18133  -0.03580   0.00000  -0.07605  -0.07610   2.10524
   A17        2.18907  -0.02283   0.00000  -0.04848  -0.04854   2.14052
   A18        1.90957   0.05868   0.00000   0.12617   0.12614   2.03572
   A19        2.18444   0.00005   0.00000   0.00011   0.00011   2.18455
   A20        1.95068   0.00006   0.00000   0.00013   0.00013   1.95081
   A21        2.14806  -0.00011   0.00000  -0.00024  -0.00024   2.14782
   A22        1.40966   0.08100   0.00000   0.24475   0.24475   1.65442
   A23        1.89559   0.00000   0.00000   0.00000   0.00000   1.89559
    D1        3.04037   0.00030   0.00000   0.00103   0.00103   3.04140
    D2       -1.15731   0.00041   0.00000   0.00005   0.00005  -1.15727
    D3        1.00591  -0.00122   0.00000  -0.00558  -0.00558   1.00033
    D4        0.94256   0.00042   0.00000   0.00180   0.00180   0.94436
    D5        3.02806   0.00053   0.00000   0.00082   0.00082   3.02887
    D6       -1.09191  -0.00111   0.00000  -0.00481  -0.00481  -1.09672
    D7       -0.94158   0.00020   0.00000   0.00057   0.00057  -0.94101
    D8        1.10030   0.00026   0.00000   0.00109   0.00109   1.10140
    D9       -3.05396   0.00021   0.00000   0.00063   0.00064  -3.05332
   D10        1.12351  -0.00010   0.00000  -0.00061  -0.00061   1.12289
   D11       -3.11779  -0.00004   0.00000  -0.00009  -0.00009  -3.11789
   D12       -0.98887  -0.00009   0.00000  -0.00055  -0.00055  -0.98942
   D13       -3.08839  -0.00005   0.00000   0.00076   0.00076  -3.08763
   D14       -1.04651   0.00001   0.00000   0.00128   0.00129  -1.04522
   D15        1.08242  -0.00004   0.00000   0.00083   0.00083   1.08325
   D16        1.57487   0.00212   0.00000   0.01820   0.01803   1.59290
   D17       -1.47147  -0.00161   0.00000  -0.01244  -0.01225  -1.48372
   D18       -0.46930   0.00171   0.00000   0.01535   0.01517  -0.45414
   D19        2.76754  -0.00203   0.00000  -0.01528  -0.01511   2.75243
   D20       -2.56920   0.00223   0.00000   0.01709   0.01692  -2.55228
   D21        0.66764  -0.00151   0.00000  -0.01354  -0.01336   0.65428
   D22       -0.05907   0.00012   0.00000   0.00101   0.00102  -0.05805
   D23        3.08264   0.00005   0.00000   0.00036   0.00036   3.08300
   D24       -2.17240   0.00027   0.00000   0.00170   0.00170  -2.17070
   D25        0.96930   0.00021   0.00000   0.00105   0.00105   0.97035
   D26        2.09626  -0.00016   0.00000  -0.00034  -0.00034   2.09592
   D27       -1.04522  -0.00023   0.00000  -0.00099  -0.00099  -1.04621
   D28        3.05788   0.00821   0.00000   0.04987   0.04930   3.10718
   D29       -0.16598   0.00839   0.00000   0.06980   0.07036  -0.09561
   D30        3.13799   0.00004   0.00000   0.00034   0.00034   3.13833
   D31       -0.00350  -0.00003   0.00000  -0.00029  -0.00029  -0.00379
         Item               Value     Threshold  Converged?
 Maximum Force            0.080997     0.000450     NO 
 RMS     Force            0.016501     0.000300     NO 
 Maximum Displacement     0.405240     0.001800     NO 
 RMS     Displacement     0.078940     0.001200     NO 
 Predicted change in Energy=-2.861325D-02
 GradGradGradGradGradGradGradGradGradGradGradGradGradGradGradGradGradGrad

 Leave Link  103 at Sat Apr 16 01:17:35 2016, MaxMem=   33554432 cpu:       0.0
 (Enter c:\G09w02\l202.exe)
                          Input orientation:                          
 ---------------------------------------------------------------------
 Center     Atomic      Atomic             Coordinates (Angstroms)
 Number     Number       Type             X           Y           Z
 ---------------------------------------------------------------------
      1          7           0       -1.483967    1.924746   -0.154514
      2          1           0       -1.675393    2.035738    0.837287
      3          6           0       -0.633827    0.755385   -0.406415
      4          1           0       -0.550074    0.630585   -1.487224
      5          6           0        0.751095    0.985887    0.194294
      6          6           0       -1.278389   -0.499018    0.141199
      7          1           0        1.149129    1.928271   -0.189442
      8          1           0        0.693041    1.089868    1.281925
      9          6           0        1.726803   -0.118620   -0.124345
     10          8           0       -2.061139   -1.229438   -0.611565
     11          8           0        1.460747   -1.129366   -0.736354
     12          1           0       -2.374658    1.840780   -0.634126
     13          8           0       -1.152695   -0.860740    1.349629
     14          1           0       -2.233690   -1.963946    0.127224
     15          8           0        2.954439    0.146577    0.355561
     16          1           0        3.542197   -0.591961    0.128162
 ---------------------------------------------------------------------
                    Distance matrix (angstroms):
                    1          2          3          4          5
     1  N    0.000000
     2  H    1.016185   0.000000
     3  C    1.467514   2.066630   0.000000
     4  H    2.079212   2.940093   1.091209   0.000000
     5  C    2.449209   2.720932   1.527086   2.155640   0.000000
     6  C    2.450375   2.658409   1.512900   2.111446   2.515267
     7  H    2.633330   3.007266   2.145150   2.501103   1.092598
     8  H    2.738566   2.588794   2.173235   3.069929   1.094131
     9  C    3.805956   4.140161   2.532987   2.757339   1.507804
    10  O    3.238966   3.592958   2.453330   2.551428   3.669569
    11  O    4.282228   4.725421   2.836968   2.775722   2.417438
    12  H    1.015090   1.640742   2.064080   2.349778   3.344765
    13  O    3.182942   2.987522   2.442289   3.261125   2.892965
    14  H    3.970313   4.100409   3.199858   3.488925   4.197017
    15  O    4.808483   5.023577   3.718455   3.988951   2.363297
    16  H    5.628147   5.884803   4.420440   4.566264   3.206903
                    6          7          8          9         10
     6  C    0.000000
     7  H    3.448753   0.000000
     8  H    2.777111   1.753812   0.000000
     9  C    3.040788   2.127841   2.122900   0.000000
    10  O    1.308765   4.522735   4.068168   3.977412   0.000000
    11  O    2.944537   3.121756   3.096421   1.211176   3.525517
    12  H    2.697701   3.552812   3.694035   4.573960   3.086266
    13  O    1.267653   3.930103   2.686297   3.318863   2.192599
    14  H    1.748945   5.166536   4.384617   4.376530   1.055976
    15  O    4.287140   2.594341   2.619517   1.344518   5.290064
    16  H    4.821499   3.489873   3.503913   1.893004   5.687789
                   11         12         13         14         15
    11  O    0.000000
    12  H    4.852066   0.000000
    13  O    3.354633   3.567448   0.000000
    14  H    3.884733   3.882713   1.969743   0.000000
    15  O    2.247537   5.678827   4.344123   5.605633   0.000000
    16  H    2.317029   6.442708   4.858625   5.936599   0.970880
                   16
    16  H    0.000000
 Symmetry turned off by external request.
 Stoichiometry    C4H7NO4
 Framework group  C1[X(C4H7NO4)]
 Deg. of freedom    42
 Full point group                 C1      NOp   1
 Rotational constants (GHZ):      2.5090300      1.1407506      0.9421865
 Leave Link  202 at Sat Apr 16 01:17:35 2016, MaxMem=   33554432 cpu:       0.0
 (Enter c:\G09w02\l301.exe)
 Standard basis: 6-311++G(d,p) (5D, 7F)
 Ernie: Thresh=  0.10000D-02 Tol=  0.10000D-05 Strict=F.
 Integral buffers will be    262144 words long.
 Raffenetti 2 integral format.
 Two-electron integral symmetry is turned off.
   247 basis functions,   387 primitive gaussians,   256 cartesian basis functions
    35 alpha electrons       35 beta electrons
       nuclear repulsion energy       471.0321315680 Hartrees.
 IExCor=  402 DFT=T Ex+Corr=B3LYP ExCW=0 ScaHFX=  0.200000
 ScaDFX=  0.800000  0.720000  1.000000  0.810000 ScalE2=  1.000000  1.000000
 IRadAn=      0 IRanWt=     -1 IRanGd=            0 ICorTp=0
 NAtoms=   16 NActive=   16 NUniq=   16 SFac= 1.00D+00 NAtFMM=   50 NAOKFM=F Big=F
 ------------------------------------------------------------------------------
 Polarizable Continuum Model (PCM)
 =================================
 Model                : C-PCM.
 Atomic radii         : UFF (Universal Force Field).
 Polarization charges : Total charges.
 Charge compensation  : None.
 Solution method      : Matrix inversion.
 Cavity type          : Scaled VdW (van der Waals Surface) (Alpha=1.100).
 Cavity algorithm     : GePol (No added spheres)
                        Default sphere list used, NSphG=   16.
                        Lebedev-Laikov grids with approx.  5.0 points / Ang**2.
                        Smoothing algorithm: Karplus/York (Gamma=1.0000).
                        Polarization charges: spherical gaussians, with
                                              point-specific exponents (IZeta= 3).
                        Self-potential: point-specific (ISelfS= 7).
                        Self-field    : sphere-specific E.n sum rule (ISelfD= 2).
 1st derivatives      : Analytical E(r).r(x)/FMM algorithm (CHGder, D1EAlg=3).
                        Cavity 1st derivative terms included.
 Solvent              : Water, Eps=  78.355300 Eps(inf)=   1.777849
 ------------------------------------------------------------------------------
 Spheres list:
 ISph  on   Nord    Re0     Alpha      Xe            Ye            Ze
    1   N      1    1.830   1.100     -1.483967      1.924746     -0.154514
    2   H      2    1.443   1.100     -1.675393      2.035738      0.837287
    3   C      3    1.926   1.100     -0.633827      0.755385     -0.406415
    4   H      4    1.443   1.100     -0.550074      0.630585     -1.487224
    5   C      5    1.926   1.100      0.751095      0.985887      0.194294
    6   C      6    1.926   1.100     -1.278389     -0.499018      0.141199
    7   H      7    1.443   1.100      1.149129      1.928271     -0.189442
    8   H      8    1.443   1.100      0.693041      1.089868      1.281925
    9   C      9    1.926   1.100      1.726803     -0.118620     -0.124345
   10   O     10    1.750   1.100     -2.061139     -1.229438     -0.611565
   11   O     11    1.750   1.100      1.460747     -1.129366     -0.736354
   12   H     12    1.443   1.100     -2.374658      1.840780     -0.634126
   13   O     13    1.750   1.100     -1.152695     -0.860740      1.349629
   14   H     14    1.443   1.100     -2.233690     -1.963946      0.127224
   15   O     15    1.750   1.100      2.954439      0.146577      0.355561
   16   H     16    1.443   1.100      3.542197     -0.591961      0.128162
 ------------------------------------------------------------------------------
 GePol: Number of generator spheres                  =      16
 GePol: Total number of spheres                      =      16
 GePol: Number of exposed spheres                    =      16 (100.00%)
 GePol: Number of points                             =    1379
 GePol: Average weight of points                     =       0.14
 GePol: Minimum weight of points                     =   0.16D-09
 GePol: Maximum weight of points                     =    0.20577
 GePol: Number of points with low weight             =      68
 GePol: Fraction of low-weight points (<1% of avg)   =       4.93%
 GePol: Cavity surface area                          =    186.687 Ang**2
 GePol: Cavity volume                                =    179.630 Ang**3
 Leave Link  301 at Sat Apr 16 01:17:35 2016, MaxMem=   33554432 cpu:       0.0
 (Enter c:\G09w02\l302.exe)
 NPDir=0 NMtPBC=     1 NCelOv=     1 NCel=       1 NClECP=     1 NCelD=      1
         NCelK=      1 NCelE2=     1 NClLst=     1 CellRange=     0.0.
 One-electron integrals computed using PRISM.
 NBasis=   247 RedAO= T  NBF=   247
 NBsUse=   247 1.00D-06 NBFU=   247
 Precomputing XC quadrature grid using
 IXCGrd= 2 IRadAn=           0 IRanWt=          -1 IRanGd=           0 AccXCQ= 0.00D+00.
 NRdTot=    1040 NPtTot=      132656 NUsed=      137508 NTot=      137524
 NSgBfM=   256   256   256   256   256 NAtAll=    16    16.
 Leave Link  302 at Sat Apr 16 01:17:36 2016, MaxMem=   33554432 cpu:       1.0
 (Enter c:\G09w02\l303.exe)
 DipDrv:  MaxL=1.
 Leave Link  303 at Sat Apr 16 01:17:36 2016, MaxMem=   33554432 cpu:       0.0
 (Enter c:\G09w02\l401.exe)
 Initial guess read from the read-write file.
 B after Tr=     0.000000    0.000000    0.000000
         Rot=    1.000000    0.000000    0.000000    0.000000 Ang=   0.00 deg.
 Guess basis will be translated and rotated to current coordinates.
 Generating alternative initial guess.
 Harris functional with IExCor=  402 diagonalized for initial guess.
 ExpMin= 3.60D-02 ExpMax= 8.59D+03 ExpMxC= 1.30D+03 IAcc=3 IRadAn=         0 AccDes= 0.00D+00
 HarFok:  IExCor=  402 AccDes= 0.00D+00 IRadAn=         0 IDoV= 1
 ScaDFX=  1.000000  1.000000  1.000000  1.000000
 FoFCou: FMM=F IPFlag=           0 FMFlag=      100000 FMFlg1=           0
         NFxFlg=           0 DoJE=T BraDBF=F KetDBF=T FulRan=T
         Omega=  0.000000  0.000000  1.000000  0.000000  0.000000 ICntrl=     500 IOpCl=  0
         NMat0=    1 NMatS0=    1 NMatT0=    0 NMatD0=    1 NMtDS0=    0 NMtDT0=    0
         I1Cent=           4 NGrid=           0.
 Symmetry not used in FoFCou.
 Harris En= -512.482463146276    
 Leave Link  401 at Sat Apr 16 01:17:48 2016, MaxMem=   33554432 cpu:      12.0
 (Enter c:\G09w02\l502.exe)
 Closed shell SCF:
 Requested convergence on RMS density matrix=1.00D-08 within 128 cycles.
 Requested convergence on MAX density matrix=1.00D-06.
 Requested convergence on             energy=1.00D-06.
 No special actions if energy rises.
 Using DIIS extrapolation, IDIIS=  1040.
 Two-electron integral symmetry not used.
       137368 words used for storage of precomputed grid.
 IEnd=      355072 IEndB=      355072 NGot=    33554432 MDV=    33281793
 LenX=    33281793 LenY=    33215816
 Fock matrices will be formed incrementally for  20 cycles.

 Cycle   1  Pass 1  IDiag  1:
 FoFCou: FMM=F IPFlag=           0 FMFlag=      100000 FMFlg1=           0
         NFxFlg=           0 DoJE=F BraDBF=F KetDBF=F FulRan=T
         Omega=  0.000000  0.000000  1.000000  0.000000  0.000000 ICntrl=       0 IOpCl=  0
         NMat0=    1 NMatS0=    1 NMatT0=    0 NMatD0=    1 NMtDS0=    0 NMtDT0=    0
         I1Cent=           0 NGrid=           0.
 Symmetry not used in FoFCou.
 E= -512.462502831020    
 DIIS: error= 4.63D-03 at cycle   1 NSaved=   1.
 NSaved= 1 IEnMin= 1 EnMin= -512.462502831020     IErMin= 1 ErrMin= 4.63D-03
 ErrMax= 4.63D-03 EMaxC= 1.00D-01 BMatC= 1.63D-02 BMatP= 1.63D-02
 IDIUse=3 WtCom= 9.54D-01 WtEn= 4.63D-02
 Coeff-Com:  0.100D+01
 Coeff-En:   0.100D+01
 Coeff:      0.100D+01
 Gap=     0.245 Goal=   None    Shift=    0.000
 GapD=    0.245 DampG=1.000 DampE=1.000 DampFc=1.0000 IDamp=-1.
 RMSDP=1.94D-03 MaxDP=1.12D-01              OVMax= 5.85D-02

 Cycle   2  Pass 1  IDiag  1:
 RMSU=  1.33D-03    CP:  9.72D-01
 E= -512.482885924504     Delta-E=       -0.020383093484 Rises=F Damp=F
 DIIS: error= 2.58D-03 at cycle   2 NSaved=   2.
 NSaved= 2 IEnMin= 2 EnMin= -512.482885924504     IErMin= 2 ErrMin= 2.58D-03
 ErrMax= 2.58D-03 EMaxC= 1.00D-01 BMatC= 3.26D-03 BMatP= 1.63D-02
 IDIUse=3 WtCom= 9.74D-01 WtEn= 2.58D-02
 Coeff-Com:  0.188D+00 0.812D+00
 Coeff-En:   0.000D+00 0.100D+01
 Coeff:      0.183D+00 0.817D+00
 Gap=     0.240 Goal=   None    Shift=    0.000
 RMSDP=4.94D-04 MaxDP=1.50D-02 DE=-2.04D-02 OVMax= 4.41D-02

 Cycle   3  Pass 1  IDiag  1:
 RMSU=  3.36D-04    CP:  9.75D-01  9.34D-01
 E= -512.479496292753     Delta-E=        0.003389631751 Rises=F Damp=F
 DIIS: error= 4.97D-03 at cycle   3 NSaved=   3.
 NSaved= 3 IEnMin= 2 EnMin= -512.482885924504     IErMin= 2 ErrMin= 2.58D-03
 ErrMax= 4.97D-03 EMaxC= 1.00D-01 BMatC= 8.26D-03 BMatP= 3.26D-03
 IDIUse=3 WtCom= 1.24D-01 WtEn= 8.76D-01
 Coeff-Com: -0.195D-01 0.626D+00 0.393D+00
 Coeff-En:   0.000D+00 0.663D+00 0.337D+00
 Coeff:     -0.242D-02 0.659D+00 0.344D+00
 Gap=     0.237 Goal=   None    Shift=    0.000
 RMSDP=2.41D-04 MaxDP=7.78D-03 DE= 3.39D-03 OVMax= 2.76D-02

 Cycle   4  Pass 1  IDiag  1:
 RMSU=  7.77D-05    CP:  9.74D-01  9.71D-01  5.74D-01
 E= -512.485219905396     Delta-E=       -0.005723612642 Rises=F Damp=F
 DIIS: error= 6.59D-04 at cycle   4 NSaved=   4.
 NSaved= 4 IEnMin= 4 EnMin= -512.485219905396     IErMin= 4 ErrMin= 6.59D-04
 ErrMax= 6.59D-04 EMaxC= 1.00D-01 BMatC= 1.42D-04 BMatP= 3.26D-03
 IDIUse=3 WtCom= 9.93D-01 WtEn= 6.59D-03
 Coeff-Com: -0.159D-01 0.234D+00 0.652D-01 0.716D+00
 Coeff-En:   0.000D+00 0.000D+00 0.000D+00 0.100D+01
 Coeff:     -0.158D-01 0.233D+00 0.648D-01 0.718D+00
 Gap=     0.238 Goal=   None    Shift=    0.000
 RMSDP=9.49D-05 MaxDP=7.82D-03 DE=-5.72D-03 OVMax= 3.43D-03

 Cycle   5  Pass 1  IDiag  1:
 RMSU=  4.11D-05    CP:  9.72D-01  9.86D-01  4.68D-01  7.76D-01
 E= -512.485322507656     Delta-E=       -0.000102602260 Rises=F Damp=F
 DIIS: error= 2.02D-04 at cycle   5 NSaved=   5.
 NSaved= 5 IEnMin= 5 EnMin= -512.485322507656     IErMin= 5 ErrMin= 2.02D-04
 ErrMax= 2.02D-04 EMaxC= 1.00D-01 BMatC= 7.96D-06 BMatP= 1.42D-04
 IDIUse=3 WtCom= 9.98D-01 WtEn= 2.02D-03
 Coeff-Com: -0.516D-02 0.639D-01-0.185D-02 0.356D+00 0.587D+00
 Coeff-En:   0.000D+00 0.000D+00 0.000D+00 0.000D+00 0.100D+01
 Coeff:     -0.515D-02 0.638D-01-0.185D-02 0.355D+00 0.588D+00
 Gap=     0.238 Goal=   None    Shift=    0.000
 RMSDP=2.31D-05 MaxDP=2.24D-03 DE=-1.03D-04 OVMax= 7.29D-04

 Cycle   6  Pass 1  IDiag  1:
 RMSU=  1.35D-05    CP:  9.73D-01  9.87D-01  4.68D-01  7.68D-01  8.31D-01
 E= -512.485328743960     Delta-E=       -0.000006236305 Rises=F Damp=F
 DIIS: error= 4.81D-05 at cycle   6 NSaved=   6.
 NSaved= 6 IEnMin= 6 EnMin= -512.485328743960     IErMin= 6 ErrMin= 4.81D-05
 ErrMax= 4.81D-05 EMaxC= 1.00D-01 BMatC= 9.84D-07 BMatP= 7.96D-06
 IDIUse=1 WtCom= 1.00D+00 WtEn= 0.00D+00
 Coeff-Com: -0.167D-02 0.174D-01-0.597D-02 0.142D+00 0.329D+00 0.519D+00
 Coeff:     -0.167D-02 0.174D-01-0.597D-02 0.142D+00 0.329D+00 0.519D+00
 Gap=     0.238 Goal=   None    Shift=    0.000
 RMSDP=4.09D-06 MaxDP=1.87D-04 DE=-6.24D-06 OVMax= 1.63D-04

 Cycle   7  Pass 1  IDiag  1:
 RMSU=  2.37D-06    CP:  9.73D-01  9.87D-01  4.69D-01  7.73D-01  8.58D-01
                    CP:  9.34D-01
 E= -512.485329376775     Delta-E=       -0.000000632815 Rises=F Damp=F
 DIIS: error= 1.32D-05 at cycle   7 NSaved=   7.
 NSaved= 7 IEnMin= 7 EnMin= -512.485329376775     IErMin= 7 ErrMin= 1.32D-05
 ErrMax= 1.32D-05 EMaxC= 1.00D-01 BMatC= 7.33D-08 BMatP= 9.84D-07
 IDIUse=1 WtCom= 1.00D+00 WtEn= 0.00D+00
 Coeff-Com:  0.205D-03-0.518D-02-0.297D-02-0.770D-03 0.544D-01 0.239D+00
 Coeff-Com:  0.716D+00
 Coeff:      0.205D-03-0.518D-02-0.297D-02-0.770D-03 0.544D-01 0.239D+00
 Coeff:      0.716D+00
 Gap=     0.238 Goal=   None    Shift=    0.000
 RMSDP=1.88D-06 MaxDP=1.05D-04 DE=-6.33D-07 OVMax= 7.18D-05

 Cycle   8  Pass 1  IDiag  1:
 RMSU=  9.33D-07    CP:  9.73D-01  9.87D-01  4.69D-01  7.76D-01  8.77D-01
                    CP:  9.46D-01  8.73D-01
 E= -512.485329424496     Delta-E=       -0.000000047721 Rises=F Damp=F
 DIIS: error= 7.05D-06 at cycle   8 NSaved=   8.
 NSaved= 8 IEnMin= 8 EnMin= -512.485329424496     IErMin= 8 ErrMin= 7.05D-06
 ErrMax= 7.05D-06 EMaxC= 1.00D-01 BMatC= 1.15D-08 BMatP= 7.33D-08
 IDIUse=1 WtCom= 1.00D+00 WtEn= 0.00D+00
 Coeff-Com:  0.186D-03-0.381D-02-0.149D-02-0.593D-02 0.213D-01 0.125D+00
 Coeff-Com:  0.439D+00 0.426D+00
 Coeff:      0.186D-03-0.381D-02-0.149D-02-0.593D-02 0.213D-01 0.125D+00
 Coeff:      0.439D+00 0.426D+00
 Gap=     0.238 Goal=   None    Shift=    0.000
 RMSDP=5.11D-07 MaxDP=1.46D-05 DE=-4.77D-08 OVMax= 3.93D-05

 Cycle   9  Pass 1  IDiag  1:
 RMSU=  2.75D-07    CP:  9.73D-01  9.87D-01  4.69D-01  7.75D-01  8.79D-01
                    CP:  9.52D-01  9.01D-01  8.30D-01
 E= -512.485329432048     Delta-E=       -0.000000007551 Rises=F Damp=F
 DIIS: error= 1.92D-06 at cycle   9 NSaved=   9.
 NSaved= 9 IEnMin= 9 EnMin= -512.485329432048     IErMin= 9 ErrMin= 1.92D-06
 ErrMax= 1.92D-06 EMaxC= 1.00D-01 BMatC= 9.85D-10 BMatP= 1.15D-08
 IDIUse=1 WtCom= 1.00D+00 WtEn= 0.00D+00
 Coeff-Com:  0.472D-04-0.758D-03 0.101D-04-0.287D-02-0.647D-03 0.115D-01
 Coeff-Com:  0.711D-01 0.232D+00 0.690D+00
 Coeff:      0.472D-04-0.758D-03 0.101D-04-0.287D-02-0.647D-03 0.115D-01
 Coeff:      0.711D-01 0.232D+00 0.690D+00
 Gap=     0.238 Goal=   None    Shift=    0.000
 RMSDP=2.62D-07 MaxDP=9.47D-06 DE=-7.55D-09 OVMax= 8.63D-06

 Cycle  10  Pass 1  IDiag  1:
 RMSU=  9.79D-08    CP:  9.73D-01  9.87D-01  4.69D-01  7.74D-01  8.80D-01
                    CP:  9.59D-01  9.19D-01  8.69D-01  8.09D-01
 E= -512.485329432754     Delta-E=       -0.000000000707 Rises=F Damp=F
 DIIS: error= 3.25D-07 at cycle  10 NSaved=  10.
 NSaved=10 IEnMin=10 EnMin= -512.485329432754     IErMin=10 ErrMin= 3.25D-07
 ErrMax= 3.25D-07 EMaxC= 1.00D-01 BMatC= 5.00D-11 BMatP= 9.85D-10
 IDIUse=1 WtCom= 1.00D+00 WtEn= 0.00D+00
 Coeff-Com:  0.987D-05-0.968D-04 0.115D-03-0.987D-03-0.172D-02-0.315D-02
 Coeff-Com:  0.250D-02 0.741D-01 0.305D+00 0.625D+00
 Coeff:      0.987D-05-0.968D-04 0.115D-03-0.987D-03-0.172D-02-0.315D-02
 Coeff:      0.250D-02 0.741D-01 0.305D+00 0.625D+00
 Gap=     0.238 Goal=   None    Shift=    0.000
 RMSDP=6.44D-08 MaxDP=1.96D-06 DE=-7.07D-10 OVMax= 2.30D-06

 Cycle  11  Pass 1  IDiag  1:
 RMSU=  3.01D-08    CP:  9.73D-01  9.87D-01  4.69D-01  7.74D-01  8.81D-01
                    CP:  9.60D-01  9.23D-01  8.83D-01  8.42D-01  8.61D-01
 E= -512.485329432799     Delta-E=       -0.000000000045 Rises=F Damp=F
 DIIS: error= 1.58D-07 at cycle  11 NSaved=  11.
 NSaved=11 IEnMin=11 EnMin= -512.485329432799     IErMin=11 ErrMin= 1.58D-07
 ErrMax= 1.58D-07 EMaxC= 1.00D-01 BMatC= 1.01D-11 BMatP= 5.00D-11
 IDIUse=1 WtCom= 1.00D+00 WtEn= 0.00D+00
 Coeff-Com: -0.118D-05 0.588D-04 0.703D-04-0.173D-03-0.943D-03-0.366D-02
 Coeff-Com: -0.967D-02 0.839D-02 0.740D-01 0.349D+00 0.583D+00
 Coeff:     -0.118D-05 0.588D-04 0.703D-04-0.173D-03-0.943D-03-0.366D-02
 Coeff:     -0.967D-02 0.839D-02 0.740D-01 0.349D+00 0.583D+00
 Gap=     0.238 Goal=   None    Shift=    0.000
 RMSDP=2.16D-08 MaxDP=9.67D-07 DE=-4.46D-11 OVMax= 8.89D-07

 Cycle  12  Pass 1  IDiag  1:
 RMSU=  1.04D-08    CP:  9.73D-01  9.87D-01  4.69D-01  7.74D-01  8.81D-01
                    CP:  9.60D-01  9.24D-01  8.90D-01  8.51D-01  9.16D-01
                    CP:  8.60D-01
 E= -512.485329432802     Delta-E=       -0.000000000004 Rises=F Damp=F
 DIIS: error= 2.25D-08 at cycle  12 NSaved=  12.
 NSaved=12 IEnMin=12 EnMin= -512.485329432802     IErMin=12 ErrMin= 2.25D-08
 ErrMax= 2.25D-08 EMaxC= 1.00D-01 BMatC= 2.93D-13 BMatP= 1.01D-11
 IDIUse=1 WtCom= 1.00D+00 WtEn= 0.00D+00
 Coeff-Com: -0.891D-06 0.265D-04 0.208D-04-0.221D-04-0.274D-03-0.119D-02
 Coeff-Com: -0.376D-02-0.522D-03 0.125D-01 0.101D+00 0.229D+00 0.663D+00
 Coeff:     -0.891D-06 0.265D-04 0.208D-04-0.221D-04-0.274D-03-0.119D-02
 Coeff:     -0.376D-02-0.522D-03 0.125D-01 0.101D+00 0.229D+00 0.663D+00
 Gap=     0.238 Goal=   None    Shift=    0.000
 RMSDP=4.01D-09 MaxDP=1.95D-07 DE=-3.52D-12 OVMax= 1.48D-07

 Error on total polarization charges =  0.01179
 SCF Done:  E(RB3LYP) =  -512.485329433     A.U. after   12 cycles
             Convg  =    0.4006D-08             -V/T =  2.0039
 KE= 5.105143136510D+02 PE=-2.145155098031D+03 EE= 6.511233233794D+02
 Leave Link  502 at Sat Apr 16 01:25:44 2016, MaxMem=   33554432 cpu:     476.0
 (Enter c:\G09w02\l701.exe)
 Compute integral first derivatives.
 ... and contract with generalized density number  0.
 D1PCM: C-PCM CHGder 1st derivatives, ID1Alg=3 FixD1E=F DoIter=F DoCFld=F I1PDM=0.
 GePol: Maximum number of non-zero 1st derivatives   =     196
 Leave Link  701 at Sat Apr 16 01:25:54 2016, MaxMem=   33554432 cpu:      10.0
 (Enter c:\G09w02\l702.exe)
 L702 exits ... SP integral derivatives will be done elsewhere.
 Leave Link  702 at Sat Apr 16 01:25:54 2016, MaxMem=   33554432 cpu:       0.0
 (Enter c:\G09w02\l703.exe)
 Compute integral first derivatives, UseDBF=F ICtDFT=           0.
 Integral derivatives from FoFDir, PRISM(SPDF).
 Calling FoFJK, ICntrl=      2127 FMM=F ISym2X=0 I1Cent= 0 IOpClX= 0 NMat=1 NMatS=1 NMatT=0.
 FoFCou: FMM=F IPFlag=           0 FMFlag=      100000 FMFlg1=         800
         NFxFlg=           0 DoJE=F BraDBF=F KetDBF=F FulRan=T
         Omega=  0.000000  0.000000  1.000000  0.000000  0.000000 ICntrl=    2127 IOpCl=  0
         NMat0=    1 NMatS0=    1 NMatT0=    0 NMatD0=    1 NMtDS0=    0 NMtDT0=    0
         I1Cent=           0 NGrid=           0.
 Symmetry not used in FoFCou.
 Leave Link  703 at Sat Apr 16 01:27:56 2016, MaxMem=   33554432 cpu:     122.0
 (Enter c:\G09w02\l716.exe)
 Dipole        =-7.94584926D-02 5.75409767D-01-2.08731880D-01
 -------------------------------------------------------------------
 Center     Atomic                   Forces (Hartrees/Bohr)
 Number     Number              X              Y              Z
 -------------------------------------------------------------------
      1        7           0.000329379    0.001677701   -0.000475786
      2        1          -0.000094076   -0.000714637    0.000096149
      3        6          -0.004226710    0.000008312   -0.007734574
      4        1           0.000748185    0.001644800   -0.000892634
      5        6          -0.000258473   -0.000152648   -0.000016653
      6        6           0.016617499   -0.008996037    0.073306825
      7        1           0.000077891   -0.000023244   -0.000233118
      8        1          -0.000260580   -0.000389275   -0.000310152
      9        6          -0.001215030    0.000308413   -0.000020149
     10        8          -0.010459803   -0.041709233    0.026417784
     11        8           0.000661595   -0.000101494   -0.000271413
     12        1           0.000076635    0.000060987    0.000065761
     13        8           0.001968913    0.020542576   -0.044108581
     14        1          -0.004523944    0.027959588   -0.045986620
     15        8           0.000597951   -0.000133140    0.000177089
     16        1          -0.000039432    0.000017331   -0.000013929
 -------------------------------------------------------------------
 Cartesian Forces:  Max     0.073306825 RMS     0.016866358
 Leave Link  716 at Sat Apr 16 01:27:56 2016, MaxMem=   33554432 cpu:       0.0
 (Enter c:\G09w02\l103.exe)

 GradGradGradGradGradGradGradGradGradGradGradGradGradGradGradGradGradGrad
 Berny optimization.
 Using GEDIIS/GDIIS optimizer.
 Internal  Forces:  Max     0.050875175 RMS     0.010771080
 Search for a local minimum.
 Step number   2 out of a maximum of   79
 All quantities printed in internal units (Hartrees-Bohrs-Radians)
 RMS Force = .10771D-01 SwitMx=.10000D-02 MixMth= 1
 Mixed Optimization -- RFO/linear search
 Update second derivatives using D2CorX and points    1    2
 DE= -2.83D-02 DEPred=-2.86D-02 R= 9.91D-01
 SS=  1.41D+00  RLast= 3.14D-01 DXNew= 5.0454D-01 9.4282D-01
 Trust test= 9.91D-01 RLast= 3.14D-01 DXMaxT set to 5.05D-01
 ITU=  1  0
 Use linear search instead of GDIIS.
     Eigenvalues ---    0.00389   0.00593   0.00660   0.00805   0.01085
     Eigenvalues ---    0.01242   0.02427   0.03435   0.03982   0.04050
     Eigenvalues ---    0.04517   0.05150   0.05381   0.06539   0.09517
     Eigenvalues ---    0.12895   0.13472   0.16000   0.16000   0.16005
     Eigenvalues ---    0.17416   0.18468   0.21937   0.22078   0.25000
     Eigenvalues ---    0.25000   0.25879   0.29559   0.31095   0.31552
     Eigenvalues ---    0.34311   0.34511   0.34750   0.36096   0.42410
     Eigenvalues ---    0.44949   0.45128   0.53195   0.56219   0.67531
     Eigenvalues ---    0.87594   0.99426
 RFO step:  Lambda=-2.51730607D-02 EMin= 3.88616427D-03
 Quartic linear search produced a step of  0.99908.
 Iteration  1 RMS(Cart)=  0.09391559 RMS(Int)=  0.02517749
 Iteration  2 RMS(Cart)=  0.02994224 RMS(Int)=  0.00224520
 Iteration  3 RMS(Cart)=  0.00277532 RMS(Int)=  0.00023971
 Iteration  4 RMS(Cart)=  0.00001791 RMS(Int)=  0.00023922
 Iteration  5 RMS(Cart)=  0.00000000 RMS(Int)=  0.00023922
 Variable       Old X    -DE/DX   Delta X   Delta X   Delta X     New X
                                 (Linear)    (Quad)   (Total)
    R1        1.92031   0.00003  -0.00004   0.00016   0.00011   1.92042
[...]
     9  C    3.800576   4.144626   2.536169   2.746824   1.507406
    10  O    3.188993   3.563855   2.383909   2.444899   3.627455
    11  O    4.287438   4.745205   2.847221   2.757289   2.420453
    12  H    1.015018   1.637343   2.061121   2.342615   3.335551
    13  O    3.157797   2.943949   2.431990   3.258953   2.918468
    14  H    3.986455   4.191892   3.252629   3.414761   4.382212
    15  O    4.799856   5.020541   3.722060   3.989731   2.363646
    16  H    5.620395   5.885356   4.423974   4.562637   3.206515
                    6          7          8          9         10
     6  C    0.000000
     7  H    3.461586   0.000000
     8  H    2.753431   1.754824   0.000000
     9  C    3.077368   2.123383   2.121141   0.000000
    10  O    1.340898   4.465556   4.044412   3.961627   0.000000
    11  O    3.021225   3.113706   3.104779   1.211317   3.537732
    12  H    2.717740   3.530831   3.697286   4.567922   3.028408
    13  O    1.211573   3.942960   2.692149   3.403525   2.246145
    14  H    1.923353   5.300705   4.644359   4.615079   0.980948
    15  O    4.305157   2.598155   2.607680   1.345889   5.275559
    16  H    4.849746   3.489897   3.494891   1.893197   5.684458
                   11         12         13         14         15
    11  O    0.000000
    12  H    4.856443   0.000000
    13  O    3.486419   3.531904   0.000000
    14  H    4.114916   3.788231   2.356519   0.000000
    15  O    2.245979   5.670921   4.412137   5.877071   0.000000
    16  H    2.312403   6.435599   4.947640   6.219444   0.970791
                   16
    16  H    0.000000
 Symmetry turned off by external request.
 Stoichiometry    C4H7NO4
 Framework group  C1[X(C4H7NO4)]
 Deg. of freedom    42
 Full point group                 C1      NOp   1
 Rotational constants (GHZ):      2.5150559      1.1173613      0.9414546
 Leave Link  202 at Sat Apr 16 01:38:11 2016, MaxMem=   33554432 cpu:       0.0
 (Enter c:\G09w02\l301.exe)
 Standard basis: 6-311++G(d,p) (5D, 7F)
 Ernie: Thresh=  0.10000D-02 Tol=  0.10000D-05 Strict=F.
 Integral buffers will be    262144 words long.
 Raffenetti 2 integral format.
 Two-electron integral symmetry is turned off.
   247 basis functions,   387 primitive gaussians,   256 cartesian basis functions
    35 alpha electrons       35 beta electrons
       nuclear repulsion energy       470.1712518114 Hartrees.
 IExCor=  402 DFT=T Ex+Corr=B3LYP ExCW=0 ScaHFX=  0.200000
 ScaDFX=  0.800000  0.720000  1.000000  0.810000 ScalE2=  1.000000  1.000000
 IRadAn=      0 IRanWt=     -1 IRanGd=            0 ICorTp=0
 NAtoms=   16 NActive=   16 NUniq=   16 SFac= 1.00D+00 NAtFMM=   50 NAOKFM=F Big=F
 ------------------------------------------------------------------------------
 Polarizable Continuum Model (PCM)
 =================================
 Model                : C-PCM.
 Atomic radii         : UFF (Universal Force Field).
 Polarization charges : Total charges.
 Charge compensation  : None.
 Solution method      : Matrix inversion.
 Cavity type          : Scaled VdW (van der Waals Surface) (Alpha=1.100).
 Cavity algorithm     : GePol (No added spheres)
                        Default sphere list used, NSphG=   16.
                        Lebedev-Laikov grids with approx.  5.0 points / Ang**2.
                        Smoothing algorithm: Karplus/York (Gamma=1.0000).
                        Polarization charges: spherical gaussians, with
                                              point-specific exponents (IZeta= 3).
                        Self-potential: point-specific (ISelfS= 7).
                        Self-field    : sphere-specific E.n sum rule (ISelfD= 2).
 1st derivatives      : Analytical E(r).r(x)/FMM algorithm (CHGder, D1EAlg=3).
                        Cavity 1st derivative terms included.
 Solvent              : Water, Eps=  78.355300 Eps(inf)=   1.777849
 ------------------------------------------------------------------------------
 Spheres list:
 ISph  on   Nord    Re0     Alpha      Xe            Ye            Ze
    1   N      1    1.830   1.100     -1.472361      1.900835     -0.160237
    2   H      2    1.443   1.100     -1.657008      2.040763      0.829556
    3   C      3    1.925   1.100     -0.632516      0.714064     -0.371910
    4   H      4    1.443   1.100     -0.565176      0.548568     -1.448820
    5   C      5    1.925   1.100      0.762705      0.983099      0.187466
    6   C      6    1.925   1.100     -1.265093     -0.516583      0.282209
    7   H      7    1.443   1.100      1.136607      1.924720     -0.222229
    8   H      8    1.443   1.100      0.727563      1.104207      1.274049
    9   C      9    1.925   1.100      1.756093     -0.104343     -0.133350
   10   O     10    1.750   1.100     -2.021161     -1.212516     -0.579212
   11   O     11    1.750   1.100      1.511624     -1.122145     -0.742943
   12   H     12    1.443   1.100     -2.368864      1.795526     -0.624409
   13   O     13    1.750   1.100     -1.172388     -0.794228      1.457891
   14   H     14    1.443   1.100     -2.470091     -1.958606     -0.127470
   15   O     15    1.750   1.100      2.982158      0.184724      0.340592
   16   H     16    1.443   1.100      3.581525     -0.543338      0.110111
 ------------------------------------------------------------------------------
 GePol: Number of generator spheres                  =      16
 GePol: Total number of spheres                      =      16
 GePol: Number of exposed spheres                    =      16 (100.00%)
 GePol: Number of points                             =    1390
 GePol: Average weight of points                     =       0.14
 GePol: Minimum weight of points                     =   0.22D-08
 GePol: Maximum weight of points                     =    0.20577
 GePol: Number of points with low weight             =      72
 GePol: Fraction of low-weight points (<1% of avg)   =       5.18%
 GePol: Cavity surface area                          =    187.725 Ang**2
 GePol: Cavity volume                                =    180.111 Ang**3
 Leave Link  301 at Sat Apr 16 01:38:12 2016, MaxMem=   33554432 cpu:       0.0
 (Enter c:\G09w02\l302.exe)
 NPDir=0 NMtPBC=     1 NCelOv=     1 NCel=       1 NClECP=     1 NCelD=      1
         NCelK=      1 NCelE2=     1 NClLst=     1 CellRange=     0.0.
 One-electron integrals computed using PRISM.
 NBasis=   247 RedAO= T  NBF=   247
 NBsUse=   247 1.00D-06 NBFU=   247
 Precomputing XC quadrature grid using
 IXCGrd= 2 IRadAn=           0 IRanWt=          -1 IRanGd=           0 AccXCQ= 0.00D+00.
 NRdTot=    1040 NPtTot=      132802 NUsed=      137654 NTot=      137670
 NSgBfM=   256   256   256   256   256 NAtAll=    16    16.
 Leave Link  302 at Sat Apr 16 01:38:12 2016, MaxMem=   33554432 cpu:       0.0
 (Enter c:\G09w02\l303.exe)
 DipDrv:  MaxL=1.
 Leave Link  303 at Sat Apr 16 01:38:12 2016, MaxMem=   33554432 cpu:       0.0
 (Enter c:\G09w02\l401.exe)
 Initial guess read from the read-write file.
 B after Tr=     0.000000    0.000000    0.000000
         Rot=    1.000000    0.000000    0.000000    0.000000 Ang=   0.00 deg.
 Guess basis will be translated and rotated to current coordinates.
 Generating alternative initial guess.
 Harris functional with IExCor=  402 diagonalized for initial guess.
 ExpMin= 3.60D-02 ExpMax= 8.59D+03 ExpMxC= 1.30D+03 IAcc=3 IRadAn=         0 AccDes= 0.00D+00
 HarFok:  IExCor=  402 AccDes= 0.00D+00 IRadAn=         0 IDoV= 1
 ScaDFX=  1.000000  1.000000  1.000000  1.000000
 FoFCou: FMM=F IPFlag=           0 FMFlag=      100000 FMFlg1=           0
         NFxFlg=           0 DoJE=T BraDBF=F KetDBF=T FulRan=T
         Omega=  0.000000  0.000000  1.000000  0.000000  0.000000 ICntrl=     500 IOpCl=  0
         NMat0=    1 NMatS0=    1 NMatT0=    0 NMatD0=    1 NMtDS0=    0 NMtDT0=    0
         I1Cent=           4 NGrid=           0.
 Symmetry not used in FoFCou.
 Harris En= -512.500238209427    
 Leave Link  401 at Sat Apr 16 01:38:24 2016, MaxMem=   33554432 cpu:      12.0
 (Enter c:\G09w02\l502.exe)
 Closed shell SCF:
 Requested convergence on RMS density matrix=1.00D-08 within 128 cycles.
 Requested convergence on MAX density matrix=1.00D-06.
 Requested convergence on             energy=1.00D-06.
 No special actions if energy rises.
 Using DIIS extrapolation, IDIIS=  1040.
 Two-electron integral symmetry not used.
       137514 words used for storage of precomputed grid.
 IEnd=      355218 IEndB=      355218 NGot=    33554432 MDV=    33281647
 LenX=    33281647 LenY=    33215670
 Fock matrices will be formed incrementally for  20 cycles.

 Cycle   1  Pass 1  IDiag  1:
 FoFCou: FMM=F IPFlag=           0 FMFlag=      100000 FMFlg1=           0
         NFxFlg=           0 DoJE=F BraDBF=F KetDBF=F FulRan=T
         Omega=  0.000000  0.000000  1.000000  0.000000  0.000000 ICntrl=       0 IOpCl=  0
         NMat0=    1 NMatS0=    1 NMatT0=    0 NMatD0=    1 NMtDS0=    0 NMtDT0=    0
         I1Cent=           0 NGrid=           0.
 Symmetry not used in FoFCou.
 E= -512.495352964574    
 DIIS: error= 2.54D-03 at cycle   1 NSaved=   1.
 NSaved= 1 IEnMin= 1 EnMin= -512.495352964574     IErMin= 1 ErrMin= 2.54D-03
 ErrMax= 2.54D-03 EMaxC= 1.00D-01 BMatC= 4.96D-03 BMatP= 4.96D-03
 IDIUse=3 WtCom= 9.75D-01 WtEn= 2.54D-02
 Coeff-Com:  0.100D+01
 Coeff-En:   0.100D+01
 Coeff:      0.100D+01
 Gap=     0.251 Goal=   None    Shift=    0.000
 GapD=    0.251 DampG=1.000 DampE=1.000 DampFc=1.0000 IDamp=-1.
 RMSDP=7.56D-04 MaxDP=5.49D-02              OVMax= 1.56D-02

 Cycle   2  Pass 1  IDiag  1:
 RMSU=  5.27D-04    CP:  9.92D-01
 E= -512.501112337660     Delta-E=       -0.005759373086 Rises=F Damp=F
 DIIS: error= 9.16D-04 at cycle   2 NSaved=   2.
 NSaved= 2 IEnMin= 2 EnMin= -512.501112337660     IErMin= 2 ErrMin= 9.16D-04
 ErrMax= 9.16D-04 EMaxC= 1.00D-01 BMatC= 3.31D-04 BMatP= 4.96D-03
 IDIUse=3 WtCom= 9.91D-01 WtEn= 9.16D-03
 Coeff-Com:  0.529D-01 0.947D+00
 Coeff-En:   0.000D+00 0.100D+01
 Coeff:      0.524D-01 0.948D+00
 Gap=     0.245 Goal=   None    Shift=    0.000
 RMSDP=1.40D-04 MaxDP=6.64D-03 DE=-5.76D-03 OVMax= 7.68D-03

 Cycle   3  Pass 1  IDiag  1:
 RMSU=  9.46D-05    CP:  9.93D-01  9.49D-01
 E= -512.500918475075     Delta-E=        0.000193862585 Rises=F Damp=F
 DIIS: error= 1.09D-03 at cycle   3 NSaved=   3.
 NSaved= 3 IEnMin= 2 EnMin= -512.501112337660     IErMin= 2 ErrMin= 9.16D-04
 ErrMax= 1.09D-03 EMaxC= 1.00D-01 BMatC= 6.54D-04 BMatP= 3.31D-04
 IDIUse=3 WtCom= 2.33D-01 WtEn= 7.67D-01
 Coeff-Com: -0.220D-01 0.601D+00 0.421D+00
 Coeff-En:   0.000D+00 0.632D+00 0.368D+00
 Coeff:     -0.512D-02 0.625D+00 0.380D+00
 Gap=     0.245 Goal=   None    Shift=    0.000
 RMSDP=7.20D-05 MaxDP=3.39D-03 DE= 1.94D-04 OVMax= 5.20D-03

 Cycle   4  Pass 1  IDiag  1:
 RMSU=  3.91D-05    CP:  9.94D-01  9.54D-01  6.62D-01
 E= -512.501352555094     Delta-E=       -0.000434080018 Rises=F Damp=F
 DIIS: error= 1.38D-04 at cycle   4 NSaved=   4.
 NSaved= 4 IEnMin= 4 EnMin= -512.501352555094     IErMin= 4 ErrMin= 1.38D-04
 ErrMax= 1.38D-04 EMaxC= 1.00D-01 BMatC= 8.36D-06 BMatP= 3.31D-04
 IDIUse=3 WtCom= 9.99D-01 WtEn= 1.38D-03
 Coeff-Com: -0.132D-01 0.199D+00 0.135D+00 0.679D+00
 Coeff-En:   0.000D+00 0.000D+00 0.000D+00 0.100D+01
 Coeff:     -0.132D-01 0.199D+00 0.135D+00 0.680D+00
 Gap=     0.245 Goal=   None    Shift=    0.000
 RMSDP=1.84D-05 MaxDP=6.04D-04 DE=-4.34D-04 OVMax= 1.07D-03

 Cycle   5  Pass 1  IDiag  1:
 RMSU=  1.11D-05    CP:  9.94D-01  9.61D-01  6.48D-01  8.62D-01
 E= -512.501353999577     Delta-E=       -0.000001444484 Rises=F Damp=F
 DIIS: error= 1.25D-04 at cycle   5 NSaved=   5.
 NSaved= 5 IEnMin= 5 EnMin= -512.501353999577     IErMin= 5 ErrMin= 1.25D-04
 ErrMax= 1.25D-04 EMaxC= 1.00D-01 BMatC= 6.24D-06 BMatP= 8.36D-06
 IDIUse=3 WtCom= 9.99D-01 WtEn= 1.25D-03
 Coeff-Com: -0.586D-02 0.681D-01 0.444D-01 0.467D+00 0.426D+00
 Coeff-En:   0.000D+00 0.000D+00 0.000D+00 0.438D+00 0.562D+00
 Coeff:     -0.585D-02 0.680D-01 0.444D-01 0.467D+00 0.426D+00
 Gap=     0.245 Goal=   None    Shift=    0.000
 RMSDP=9.77D-06 MaxDP=5.85D-04 DE=-1.44D-06 OVMax= 6.08D-04

 Cycle   6  Pass 1  IDiag  1:
 RMSU=  5.07D-06    CP:  9.93D-01  9.64D-01  6.40D-01  8.63D-01  6.35D-01
 E= -512.501358309472     Delta-E=       -0.000004309895 Rises=F Damp=F
 DIIS: error= 1.14D-05 at cycle   6 NSaved=   6.
 NSaved= 6 IEnMin= 6 EnMin= -512.501358309472     IErMin= 6 ErrMin= 1.14D-05
 ErrMax= 1.14D-05 EMaxC= 1.00D-01 BMatC= 5.72D-08 BMatP= 6.24D-06
 IDIUse=1 WtCom= 1.00D+00 WtEn= 0.00D+00
 Coeff-Com: -0.483D-03-0.874D-03-0.569D-03 0.669D-01 0.119D+00 0.816D+00
 Coeff:     -0.483D-03-0.874D-03-0.569D-03 0.669D-01 0.119D+00 0.816D+00
 Gap=     0.245 Goal=   None    Shift=    0.000
 RMSDP=2.79D-06 MaxDP=2.47D-04 DE=-4.31D-06 OVMax= 5.15D-05

 Cycle   7  Pass 1  IDiag  1:
 RMSU=  1.10D-06    CP:  9.93D-01  9.63D-01  6.46D-01  8.91D-01  6.76D-01
                    CP:  9.24D-01
 E= -512.501358349234     Delta-E=       -0.000000039762 Rises=F Damp=F
 DIIS: error= 5.13D-06 at cycle   7 NSaved=   7.
 NSaved= 7 IEnMin= 7 EnMin= -512.501358349234     IErMin= 7 ErrMin= 5.13D-06
 ErrMax= 5.13D-06 EMaxC= 1.00D-01 BMatC= 1.22D-08 BMatP= 5.72D-08
 IDIUse=1 WtCom= 1.00D+00 WtEn= 0.00D+00
 Coeff-Com:  0.108D-03-0.479D-02-0.284D-02 0.559D-02 0.370D-01 0.416D+00
 Coeff-Com:  0.549D+00
 Coeff:      0.108D-03-0.479D-02-0.284D-02 0.559D-02 0.370D-01 0.416D+00
 Coeff:      0.549D+00
 Gap=     0.245 Goal=   None    Shift=    0.000
 RMSDP=8.73D-07 MaxDP=6.12D-05 DE=-3.98D-08 OVMax= 1.97D-05

 Cycle   8  Pass 1  IDiag  1:
 RMSU=  3.95D-07    CP:  9.93D-01  9.63D-01  6.47D-01  8.89D-01  6.72D-01
                    CP:  9.64D-01  6.89D-01
 E= -512.501358360193     Delta-E=       -0.000000010959 Rises=F Damp=F
 DIIS: error= 1.11D-06 at cycle   8 NSaved=   8.
 NSaved= 8 IEnMin= 8 EnMin= -512.501358360193     IErMin= 8 ErrMin= 1.11D-06
 ErrMax= 1.11D-06 EMaxC= 1.00D-01 BMatC= 5.56D-10 BMatP= 1.22D-08
 IDIUse=1 WtCom= 1.00D+00 WtEn= 0.00D+00
 Coeff-Com:  0.787D-04-0.186D-02-0.101D-02-0.324D-02 0.677D-02 0.988D-01
 Coeff-Com:  0.212D+00 0.688D+00
 Coeff:      0.787D-04-0.186D-02-0.101D-02-0.324D-02 0.677D-02 0.988D-01
 Coeff:      0.212D+00 0.688D+00
 Gap=     0.245 Goal=   None    Shift=    0.000
 RMSDP=1.63D-07 MaxDP=5.91D-06 DE=-1.10D-08 OVMax= 7.59D-06

 Cycle   9  Pass 1  IDiag  1:
 RMSU=  9.45D-08    CP:  9.93D-01  9.63D-01  6.47D-01  8.89D-01  6.75D-01
                    CP:  9.70D-01  7.12D-01  9.69D-01
 E= -512.501358360485     Delta-E=       -0.000000000292 Rises=F Damp=F
 DIIS: error= 1.17D-06 at cycle   9 NSaved=   9.
 NSaved= 9 IEnMin= 9 EnMin= -512.501358360485     IErMin= 8 ErrMin= 1.11D-06
 ErrMax= 1.17D-06 EMaxC= 1.00D-01 BMatC= 2.32D-10 BMatP= 5.56D-10
 IDIUse=1 WtCom= 1.00D+00 WtEn= 0.00D+00
 Coeff-Com:  0.356D-04-0.527D-03-0.250D-03-0.290D-02-0.649D-03 0.518D-02
 Coeff-Com:  0.593D-01 0.442D+00 0.498D+00
 Coeff:      0.356D-04-0.527D-03-0.250D-03-0.290D-02-0.649D-03 0.518D-02
 Coeff:      0.593D-01 0.442D+00 0.498D+00
 Gap=     0.245 Goal=   None    Shift=    0.000
 RMSDP=7.14D-08 MaxDP=2.05D-06 DE=-2.92D-10 OVMax= 4.29D-06

 Cycle  10  Pass 1  IDiag  1:
 RMSU=  3.69D-08    CP:  9.93D-01  9.63D-01  6.47D-01  8.90D-01  6.75D-01
                    CP:  9.71D-01  7.29D-01  9.95D-01  7.80D-01
 E= -512.501358360671     Delta-E=       -0.000000000186 Rises=F Damp=F
 DIIS: error= 2.83D-07 at cycle  10 NSaved=  10.
 NSaved=10 IEnMin=10 EnMin= -512.501358360671     IErMin=10 ErrMin= 2.83D-07
 ErrMax= 2.83D-07 EMaxC= 1.00D-01 BMatC= 1.66D-11 BMatP= 2.32D-10
 IDIUse=1 WtCom= 1.00D+00 WtEn= 0.00D+00
 Coeff-Com:  0.118D-04-0.961D-04-0.411D-04-0.116D-02-0.986D-03-0.623D-02
 Coeff-Com:  0.112D-01 0.167D+00 0.270D+00 0.560D+00
 Coeff:      0.118D-04-0.961D-04-0.411D-04-0.116D-02-0.986D-03-0.623D-02
 Coeff:      0.112D-01 0.167D+00 0.270D+00 0.560D+00
 Gap=     0.245 Goal=   None    Shift=    0.000
 RMSDP=2.09D-08 MaxDP=6.14D-07 DE=-1.86D-10 OVMax= 1.22D-06

 Cycle  11  Pass 1  IDiag  1:
 RMSU=  1.11D-08    CP:  9.93D-01  9.63D-01  6.47D-01  8.89D-01  6.75D-01
                    CP:  9.71D-01  7.29D-01  1.00D+00  8.07D-01  7.79D-01
 E= -512.501358360670     Delta-E=        0.000000000001 Rises=F Damp=F
 DIIS: error= 1.04D-07 at cycle  11 NSaved=  11.
 NSaved=11 IEnMin=10 EnMin= -512.501358360671     IErMin=11 ErrMin= 1.04D-07
 ErrMax= 1.04D-07 EMaxC= 1.00D-01 BMatC= 3.25D-12 BMatP= 1.66D-11
 IDIUse=1 WtCom= 1.00D+00 WtEn= 0.00D+00
 Coeff-Com:  0.831D-06 0.423D-04 0.214D-04-0.199D-03-0.551D-03-0.501D-02
 Coeff-Com: -0.368D-02 0.273D-01 0.809D-01 0.342D+00 0.559D+00
 Coeff:      0.831D-06 0.423D-04 0.214D-04-0.199D-03-0.551D-03-0.501D-02
 Coeff:     -0.368D-02 0.273D-01 0.809D-01 0.342D+00 0.559D+00
 Gap=     0.245 Goal=   None    Shift=    0.000
 RMSDP=9.47D-09 MaxDP=4.07D-07 DE= 5.68D-13 OVMax= 3.33D-07

 Error on total polarization charges =  0.01175
 SCF Done:  E(RB3LYP) =  -512.501358361     A.U. after   11 cycles
             Convg  =    0.9468D-08             -V/T =  2.0036
 KE= 5.106474717449D+02 PE=-2.143649720754D+03 EE= 6.503296388366D+02
 Leave Link  502 at Sat Apr 16 01:45:30 2016, MaxMem=   33554432 cpu:     426.0
 (Enter c:\G09w02\l701.exe)
 Compute integral first derivatives.
 ... and contract with generalized density number  0.
 D1PCM: C-PCM CHGder 1st derivatives, ID1Alg=3 FixD1E=F DoIter=F DoCFld=F I1PDM=0.
 GePol: Maximum number of non-zero 1st derivatives   =     209
 Leave Link  701 at Sat Apr 16 01:45:40 2016, MaxMem=   33554432 cpu:      10.0
 (Enter c:\G09w02\l702.exe)
 L702 exits ... SP integral derivatives will be done elsewhere.
 Leave Link  702 at Sat Apr 16 01:45:40 2016, MaxMem=   33554432 cpu:       0.0
 (Enter c:\G09w02\l703.exe)
 Compute integral first derivatives, UseDBF=F ICtDFT=           0.
 Integral derivatives from FoFDir, PRISM(SPDF).
 Calling FoFJK, ICntrl=      2127 FMM=F ISym2X=0 I1Cent= 0 IOpClX= 0 NMat=1 NMatS=1 NMatT=0.
 FoFCou: FMM=F IPFlag=           0 FMFlag=      100000 FMFlg1=         800
         NFxFlg=           0 DoJE=F BraDBF=F KetDBF=F FulRan=T
         Omega=  0.000000  0.000000  1.000000  0.000000  0.000000 ICntrl=    2127 IOpCl=  0
         NMat0=    1 NMatS0=    1 NMatT0=    0 NMatD0=    1 NMtDS0=    0 NMtDT0=    0
         I1Cent=           0 NGrid=           0.
 Symmetry not used in FoFCou.
 Leave Link  703 at Sat Apr 16 01:47:40 2016, MaxMem=   33554432 cpu:     120.0
 (Enter c:\G09w02\l716.exe)
 Dipole        =-2.95753665D-01 3.78006479D-01-1.62481592D-01
 -------------------------------------------------------------------
 Center     Atomic                   Forces (Hartrees/Bohr)
 Number     Number              X              Y              Z
 -------------------------------------------------------------------
      1        7          -0.000214455    0.000006596    0.000368459
      2        1          -0.000142034    0.000293196    0.000098771
      3        6           0.001051432    0.001488133   -0.001499756
      4        1          -0.000656955   -0.001280318    0.001034329
      5        6           0.000151844   -0.000411144    0.000088217
      6        6          -0.001101286   -0.000633084    0.002502224
      7        1          -0.000080683    0.000054109    0.000102507
      8        1           0.000190020    0.000207796    0.000221883
      9        6          -0.000320106   -0.000256682   -0.000009360
     10        8          -0.005369051   -0.007418432   -0.001984041
     11        8          -0.000050719   -0.000038916    0.000101285
     12        1          -0.000312295   -0.000071923   -0.000044738
     13        8           0.000897698   -0.000429275    0.000133232
     14        1           0.005600550    0.008359621   -0.001284047
     15        8           0.000380478    0.000116322    0.000230126
     16        1          -0.000024438    0.000014002   -0.000059091
 -------------------------------------------------------------------
 Cartesian Forces:  Max     0.008359621 RMS     0.002088840
 Leave Link  716 at Sat Apr 16 01:47:40 2016, MaxMem=   33554432 cpu:       0.0
