 Entering Gaussian System, Link 0=g09
 Input=Ala-S-opt-freq-tsb1-6-31g.com
 Output=Ala-S-opt-freq-tsb1-6-31g.log
 Initial command:
 /usr/local/gau/g09/l1.exe "/tmp/Gau-4870.inp" -scrdir="/tmp/"
 Entering Link 1 = /usr/local/gau/g09/l1.exe PID=      4872.
  
 Copyright (c) 1988,1990,1992,1993,1995,1998,2003,2009,2013,
            Gaussian, Inc.  All Rights Reserved.
  
 This is part of the Gaussian(R) 09 program.  It is based on
 the Gaussian(R) 03 system (copyright 2003, Gaussian, Inc.),
 the Gaussian(R) 98 system (copyright 1998, Gaussian, Inc.),
 the Gaussian(R) 94 system (copyright 1995, Gaussian, Inc.),
 the Gaussian 92(TM) system (copyright 1992, Gaussian, Inc.),
 the Gaussian 90(TM) system (copyright 1990, Gaussian, Inc.),
 the Gaussian 88(TM) system (copyright 1988, Gaussian, Inc.),
 the Gaussian 86(TM) system (copyright 1986, Carnegie Mellon
 University), and the Gaussian 82(TM) system (copyright 1983,
 Carnegie Mellon University). Gaussian is a federally registered
 trademark of Gaussian, Inc.
  
 This software contains proprietary and confidential information,
 including trade secrets, belonging to Gaussian, Inc.
  
 This software is provided under written license and may be
 used, copied, transmitted, or stored only in accord with that
 written license.
  
 The following legend is applicable only to US Government
 contracts under FAR:
  
                    RESTRICTED RIGHTS LEGEND
  
 Use, reproduction and disclosure by the US Government is
 subject to restrictions as set forth in subparagraphs (a)
 and (c) of the Commercial Computer Software - Restricted
 Rights clause in FAR 52.227-19.
  
 Gaussian, Inc.
 340 Quinnipiac St., Bldg. 40, Wallingford CT 06492
  
  
 ---------------------------------------------------------------
 Warning -- This program may not be used in any manner that
 competes with the business of Gaussian, Inc. or will provide
 assistance to any competitor of Gaussian, Inc.  The licensee
 of this program is prohibited from giving any competitor of
 Gaussian, Inc. access to this program.  By using this program,
 the user acknowledges that Gaussian, Inc. is engaged in the
 business of creating and licensing software in the field of
 computational chemistry and represents and warrants to the
 licensee that it is not a competitor of Gaussian, Inc. and that
 it will not use this program in any manner prohibited above.
 ---------------------------------------------------------------
  

 Cite this work as:
 Gaussian 09, Revision D.01,
 M. J. Frisch, G. W. Trucks, H. B. Schlegel, G. E. Scuseria, 
 M. A. Robb, J. R. Cheeseman, G. Scalmani, V. Barone, B. Mennucci, 
 G. A. Petersson, H. Nakatsuji, M. Caricato, X. Li, H. P. Hratchian, 
 A. F. Izmaylov, J. Bloino, G. Zheng, J. L. Sonnenberg, M. Hada, 
 M. Ehara, K. Toyota, R. Fukuda, J. Hasegawa, M. Ishida, T. Nakajima, 
 Y. Honda, O. Kitao, H. Nakai, T. Vreven, J. A. Montgomery, Jr., 
 J. E. Peralta, F. Ogliaro, M. Bearpark, J. J. Heyd, E. Brothers, 
 K. N. Kudin, V. N. Staroverov, T. Keith, R. Kobayashi, J. Normand, 
 K. Raghavachari, A. Rendell, J. C. Burant, S. S. Iyengar, J. Tomasi, 
 M. Cossi, N. Rega, J. M. Millam, M. Klene, J. E. Knox, J. B. Cross, 
 V. Bakken, C. Adamo, J. Jaramillo, R. Gomperts, R. E. Stratmann, 
 O. Yazyev, A. J. Austin, R. Cammi, C. Pomelli, J. W. Ochterski, 
 R. L. Martin, K. Morokuma, V. G. Zakrzewski, G. A. Voth, 
 P. Salvador, J. J. Dannenberg, S. Dapprich, A. D. Daniels, 
 O. Farkas, J. B. Foresman, J. V. Ortiz, J. Cioslowski, 
 and D. J. Fox, Gaussian, Inc., Wallingford CT, 2013.
 
 ******************************************
 Gaussian 09:  ES64L-G09RevD.01 24-Apr-2013
                10-Apr-2016 
 ******************************************
 %chk=Ala-S-opt-freq-tab1-6-31g.chk
 -----------------------------------------------
 # opt=(calcfc,ts) freq rb3lyp/6-31g iop(1/11=1)
 -----------------------------------------------
 1/5=1,10=4,11=1,14=-1,18=20,26=3,38=1/1,3;
 2/9=110,12=2,17=6,18=5,40=1/2;
 3/5=1,6=6,11=2,16=1,25=1,30=1,71=2,74=-5,116=1,140=1/1,2,3;
 4//1;
 5/5=2,38=5/2;
 8/6=4,10=90,11=11/1;
 11/6=1,8=1,9=11,15=111,16=1/1,2,10;
 10/6=1,13=1/2;
 6/7=2,8=2,9=2,10=2,28=1/1;
 7/10=1,18=20,25=1/1,2,3,16;
 1/5=1,10=4,11=1,14=-1,18=20,26=3/3(2);
 2/9=110/2;
 99//99;
 2/9=110/2;
 3/5=1,6=6,11=2,16=1,25=1,30=1,71=1,74=-5,116=1/1,2,3;
 4/5=5,16=3,69=1/1;
 5/5=2,38=5/2;
 7//1,2,3,16;
 1/5=1,11=1,14=-1,18=20,26=3/3(-5);
 2/9=110/2;
 6/7=2,8=2,9=2,10=2,19=2,28=1/1;
 99/9=1/99;
 -------------------------
 Ala-S-opt-freq-tsb1-6-31g
 -------------------------
 Symbolic Z-matrix:
 Charge =  0 Multiplicity = 1
 N                    -1.41515  -1.08616  -0.44237 
 H                    -1.19241  -1.6585    0.3664 
 C                    -0.65403   0.15792  -0.40998 
 H                     0.22075  -1.17912  -0.74551 
 C                    -1.19795   1.24002   0.55106 
 C                     0.77509  -0.16871  -0.01055 
 H                    -1.20783   0.87043   1.58011 
 H                    -0.59729   2.15221   0.50792 
 H                    -2.22253   1.49551   0.26808 
 O                     1.10761  -1.09841   0.68073 
 H                    -2.41213  -0.90308  -0.44562 
 O                     1.65384   0.74679  -0.48074 
 H                     2.52999   0.5041   -0.1444 
 
 Add virtual bond connecting atoms C6         and H4         Dist= 2.58D+00.

 GradGradGradGradGradGradGradGradGradGradGradGradGradGradGradGradGradGrad
 Berny optimization.
 Initialization pass.
                           ----------------------------
                           !    Initial Parameters    !
                           ! (Angstroms and Degrees)  !
 --------------------------                            --------------------------
 ! Name  Definition              Value          Derivative Info.                !
 --------------------------------------------------------------------------------
 ! R1    R(1,2)                  1.0155         calculate D2E/DX2 analytically  !
 ! R2    R(1,3)                  1.4588         calculate D2E/DX2 analytically  !
 ! R3    R(1,11)                 1.0137         calculate D2E/DX2 analytically  !
 ! R4    R(3,5)                  1.5461         calculate D2E/DX2 analytically  !
 ! R5    R(3,6)                  1.5194         calculate D2E/DX2 analytically  !
 ! R6    R(4,6)                  1.3669         calculate D2E/DX2 analytically  !
 ! R7    R(5,7)                  1.0935         calculate D2E/DX2 analytically  !
 ! R8    R(5,8)                  1.093          calculate D2E/DX2 analytically  !
 ! R9    R(5,9)                  1.0932         calculate D2E/DX2 analytically  !
 ! R10   R(6,10)                 1.2053         calculate D2E/DX2 analytically  !
 ! R11   R(6,12)                 1.3533         calculate D2E/DX2 analytically  !
 ! R12   R(12,13)                0.9694         calculate D2E/DX2 analytically  !
 ! A1    A(2,1,3)              110.397          calculate D2E/DX2 analytically  !
 ! A2    A(2,1,11)             108.6676         calculate D2E/DX2 analytically  !
 ! A3    A(3,1,11)             111.0515         calculate D2E/DX2 analytically  !
 ! A4    A(1,3,5)              115.2856         calculate D2E/DX2 analytically  !
 ! A5    A(1,3,6)              108.2548         calculate D2E/DX2 analytically  !
 ! A6    A(5,3,6)              108.5388         calculate D2E/DX2 analytically  !
 ! A7    A(3,5,7)              110.5846         calculate D2E/DX2 analytically  !
 ! A8    A(3,5,8)              111.4838         calculate D2E/DX2 analytically  !
 ! A9    A(3,5,9)              109.4138         calculate D2E/DX2 analytically  !
 ! A10   A(7,5,8)              108.9163         calculate D2E/DX2 analytically  !
 ! A11   A(7,5,9)              108.308          calculate D2E/DX2 analytically  !
 ! A12   A(8,5,9)              108.0458         calculate D2E/DX2 analytically  !
 ! A13   A(3,6,4)               68.6609         calculate D2E/DX2 analytically  !
 ! A14   A(3,6,10)             125.1745         calculate D2E/DX2 analytically  !
 ! A15   A(3,6,12)             111.962          calculate D2E/DX2 analytically  !
 ! A16   A(4,6,10)              81.378          calculate D2E/DX2 analytically  !
 ! A17   A(4,6,12)             125.2114         calculate D2E/DX2 analytically  !
 ! A18   A(10,6,12)            122.815          calculate D2E/DX2 analytically  !
 ! A19   A(6,12,13)            107.2766         calculate D2E/DX2 analytically  !
 ! D1    D(2,1,3,5)            -78.2711         calculate D2E/DX2 analytically  !
 ! D2    D(2,1,3,6)             43.4703         calculate D2E/DX2 analytically  !
 ! D3    D(11,1,3,5)            42.328          calculate D2E/DX2 analytically  !
 ! D4    D(11,1,3,6)           164.0694         calculate D2E/DX2 analytically  !
 ! D5    D(1,3,5,7)             60.0762         calculate D2E/DX2 analytically  !
 ! D6    D(1,3,5,8)           -178.5935         calculate D2E/DX2 analytically  !
 ! D7    D(1,3,5,9)            -59.1421         calculate D2E/DX2 analytically  !
 ! D8    D(6,3,5,7)            -61.5121         calculate D2E/DX2 analytically  !
 ! D9    D(6,3,5,8)             59.8182         calculate D2E/DX2 analytically  !
 ! D10   D(6,3,5,9)            179.2696         calculate D2E/DX2 analytically  !
 ! D11   D(1,3,6,4)             33.2267         calculate D2E/DX2 analytically  !
 ! D12   D(1,3,6,10)           -28.5941         calculate D2E/DX2 analytically  !
 ! D13   D(1,3,6,12)           153.8859         calculate D2E/DX2 analytically  !
 ! D14   D(5,3,6,4)            159.0293         calculate D2E/DX2 analytically  !
 ! D15   D(5,3,6,10)            97.2085         calculate D2E/DX2 analytically  !
 ! D16   D(5,3,6,12)           -80.3115         calculate D2E/DX2 analytically  !
 ! D17   D(3,6,12,13)          176.6707         calculate D2E/DX2 analytically  !
 ! D18   D(4,6,12,13)         -104.6114         calculate D2E/DX2 analytically  !
 ! D19   D(10,6,12,13)          -0.9173         calculate D2E/DX2 analytically  !
 --------------------------------------------------------------------------------
 Trust Radius=3.00D-01 FncErr=1.00D-07 GrdErr=1.00D-06
 Number of steps in this run=     60 maximum allowed number of steps=    100.
 Search for a saddle point of order  1.
 GradGradGradGradGradGradGradGradGradGradGradGradGradGradGradGradGradGrad

                          Input orientation:                          
 ---------------------------------------------------------------------
 Center     Atomic      Atomic             Coordinates (Angstroms)
 Number     Number       Type             X           Y           Z
 ---------------------------------------------------------------------
      1          7           0       -1.415151   -1.086156   -0.442365
      2          1           0       -1.192406   -1.658501    0.366399
      3          6           0       -0.654033    0.157924   -0.409981
      4          1           0        0.220748   -1.179125   -0.745513
      5          6           0       -1.197946    1.240022    0.551056
      6          6           0        0.775088   -0.168707   -0.010554
      7          1           0       -1.207825    0.870425    1.580108
      8          1           0       -0.597288    2.152211    0.507920
      9          1           0       -2.222529    1.495513    0.268083
     10          8           0        1.107609   -1.098412    0.680733
     11          1           0       -2.412134   -0.903080   -0.445618
     12          8           0        1.653842    0.746790   -0.480741
     13          1           0        2.529992    0.504102   -0.144397
 ---------------------------------------------------------------------
                    Distance matrix (angstroms):
                    1          2          3          4          5
     1  N    0.000000
     2  H    1.015526   0.000000
     3  C    1.458796   2.047440   0.000000
     4  H    1.666346   1.860955   1.632643   0.000000
     5  C    2.538733   2.904404   1.546082   3.089669   0.000000
     6  C    2.413570   2.496520   1.519413   1.366895   2.488531
     7  H    2.821629   2.805137   2.185131   3.413208   1.093457
     8  H    3.472602   3.859497   2.196120   3.652133   1.093041
     9  H    2.796714   3.319431   2.170045   3.761737   1.093215
    10  O    2.761488   2.388006   2.423101   1.681433   3.286438
    11  H    1.013658   1.648566   2.053757   2.664246   2.657160
    12  O    3.574896   3.821544   2.382867   2.415163   3.072552
    13  H    4.264019   4.335206   3.213781   2.920137   3.862998
                    6          7          8          9         10
     6  C    0.000000
     7  H    2.746260   0.000000
     8  H    2.745704   1.779134   0.000000
     9  H    3.439909   1.772504   1.769232   0.000000
    10  O    1.205321   3.169610   3.674655   4.241291   0.000000
    11  H    3.299541   2.949448   3.679362   2.509695   3.700731
    12  O    1.353299   3.528671   2.832004   4.018405   2.247702
    13  H    1.884217   4.132721   3.594671   4.872319   2.296098
                   11         12         13
    11  H    0.000000
    12  O    4.388105   0.000000
    13  H    5.147378   0.969362   0.000000
 Stoichiometry    C3H7NO2
 Framework group  C1[X(C3H7NO2)]
 Deg. of freedom    33
 Full point group                 C1      NOp   1
 Largest Abelian subgroup         C1      NOp   1
 Largest concise Abelian subgroup C1      NOp   1
                         Standard orientation:                         
 ---------------------------------------------------------------------
 Center     Atomic      Atomic             Coordinates (Angstroms)
 Number     Number       Type             X           Y           Z
 ---------------------------------------------------------------------
      1          7           0       -1.428418   -1.070195   -0.420385
      2          1           0       -1.219984   -1.597515    0.422100
      3          6           0       -0.664321    0.172244   -0.444621
      4          1           0        0.211743   -1.183032   -0.692133
      5          6           0       -1.220066    1.306786    0.446632
      6          6           0        0.757439   -0.134738   -0.005330
      7          1           0       -1.247084    0.994521    1.494205
      8          1           0       -0.616184    2.213997    0.362763
      9          1           0       -2.239363    1.548344    0.133899
     10          8           0        1.076442   -1.025573    0.741296
     11          1           0       -2.424697   -0.885571   -0.449433
     12          8           0        1.646063    0.751666   -0.511348
     13          1           0        2.516149    0.526133   -0.148376
 ---------------------------------------------------------------------
 Rotational constants (GHZ):      5.0655887      3.0740749      2.3222946
 Standard basis: 6-31G (6D, 7F)
 There are    68 symmetry adapted cartesian basis functions of A   symmetry.
 There are    68 symmetry adapted basis functions of A   symmetry.
    68 basis functions,   160 primitive gaussians,    68 cartesian basis functions
    24 alpha electrons       24 beta electrons
       nuclear repulsion energy       250.2532402241 Hartrees.
 NAtoms=   13 NActive=   13 NUniq=   13 SFac= 1.00D+00 NAtFMM=   60 NAOKFM=F Big=F
 Integral buffers will be    131072 words long.
 Raffenetti 2 integral format.
 Two-electron integral symmetry is turned on.
 One-electron integrals computed using PRISM.
 NBasis=    68 RedAO= T EigKep=  4.19D-03  NBF=    68
 NBsUse=    68 1.00D-06 EigRej= -1.00D+00 NBFU=    68
 ExpMin= 1.61D-01 ExpMax= 5.48D+03 ExpMxC= 8.25D+02 IAcc=1 IRadAn=         1 AccDes= 0.00D+00
 Harris functional with IExCor=  402 and IRadAn=       1 diagonalized for initial guess.
 HarFok:  IExCor=  402 AccDes= 0.00D+00 IRadAn=         1 IDoV= 1 UseB2=F ITyADJ=14
 ICtDFT=  3500011 ScaDFX=  1.000000  1.000000  1.000000  1.000000
 FoFCou: FMM=F IPFlag=           0 FMFlag=      100000 FMFlg1=           0
         NFxFlg=           0 DoJE=T BraDBF=F KetDBF=T FulRan=T
         wScrn=  0.000000 ICntrl=     500 IOpCl=  0 I1Cent=   200000004 NGrid=           0
         NMat0=    1 NMatS0=      1 NMatT0=    0 NMatD0=    1 NMtDS0=    0 NMtDT0=    0
 Petite list used in FoFCou.
 Keep R1 ints in memory in canonical form, NReq=3676491.
 Requested convergence on RMS density matrix=1.00D-08 within 128 cycles.
 Requested convergence on MAX density matrix=1.00D-06.
 Requested convergence on             energy=1.00D-06.
 No special actions if energy rises.
 Integral accuracy reduced to 1.0D-05 until final iterations.
 EnCoef did     2 forward-backward iterations
 Problem detected with inexpensive integrals.
 Switching to full accuracy and repeating last cycle.
 EnCoef did   100 forward-backward iterations
 EnCoef did     3 forward-backward iterations
 EnCoef did     2 forward-backward iterations
 SCF Done:  E(RB3LYP) =  -323.371850594     A.U. after   20 cycles
            NFock= 20  Conv=0.60D-08     -V/T= 2.0039
 DoSCS=F DFT=T ScalE2(SS,OS)=  1.000000  1.000000
 Range of M.O.s used for correlation:     1    68
 NBasis=    68 NAE=    24 NBE=    24 NFC=     0 NFV=     0
 NROrb=     68 NOA=    24 NOB=    24 NVA=    44 NVB=    44

 **** Warning!!: The smallest alpha delta epsilon is  0.59853147D-01

 Symmetrizing basis deriv contribution to polar:
 IMax=3 JMax=2 DiffMx= 0.00D+00
 G2DrvN: will do    14 centers at a time, making    1 passes.
 Calling FoFCou, ICntrl=  3107 FMM=F I1Cent=   0 AccDes= 0.00D+00.
 End of G2Drv F.D. properties file   721 does not exist.
 End of G2Drv F.D. properties file   722 does not exist.
 End of G2Drv F.D. properties file   788 does not exist.
          IDoAtm=1111111111111
          Differentiating once with respect to nuclear coordinates.
 Keep R1 ints in memory in canonical form, NReq=3645290.
          There are    42 degrees of freedom in the 1st order CPHF.  IDoFFX=6 NUNeed=     0.
     36 vectors produced by pass  0 Test12= 2.51D-15 2.38D-09 XBig12= 2.98D-01 4.53D-01.
 AX will form    36 AO Fock derivatives at one time.
     36 vectors produced by pass  1 Test12= 2.51D-15 2.38D-09 XBig12= 1.00D-01 6.62D-02.
     36 vectors produced by pass  2 Test12= 2.51D-15 2.38D-09 XBig12= 6.10D-04 4.38D-03.
     36 vectors produced by pass  3 Test12= 2.51D-15 2.38D-09 XBig12= 8.74D-07 1.64D-04.
     36 vectors produced by pass  4 Test12= 2.51D-15 2.38D-09 XBig12= 6.69D-10 3.53D-06.
     19 vectors produced by pass  5 Test12= 2.51D-15 2.38D-09 XBig12= 4.26D-13 9.95D-08.
 InvSVY:  IOpt=1 It=  1 EMax= 2.00D-15
 Solved reduced A of dimension   199 with    36 vectors.
 End of Minotr F.D. properties file   721 does not exist.
 End of Minotr F.D. properties file   722 does not exist.
 End of Minotr F.D. properties file   788 does not exist.

 **********************************************************************

            Population analysis using the SCF density.

 **********************************************************************

 Orbital symmetries:
       Occupied  (A) (A) (A) (A) (A) (A) (A) (A) (A) (A) (A) (A)
                 (A) (A) (A) (A) (A) (A) (A) (A) (A) (A) (A) (A)
       Virtual   (A) (A) (A) (A) (A) (A) (A) (A) (A) (A) (A) (A)
                 (A) (A) (A) (A) (A) (A) (A) (A) (A) (A) (A) (A)
                 (A) (A) (A) (A) (A) (A) (A) (A) (A) (A) (A) (A)
                 (A) (A) (A) (A) (A) (A) (A) (A)
 The electronic state is 1-A.
 Alpha  occ. eigenvalues --  -19.18747 -19.16732 -14.33769 -10.32439 -10.22174
 Alpha  occ. eigenvalues --  -10.19111  -1.15110  -1.05765  -0.92464  -0.75457
 Alpha  occ. eigenvalues --   -0.69509  -0.60353  -0.53421  -0.51122  -0.48804
 Alpha  occ. eigenvalues --   -0.46941  -0.41972  -0.41536  -0.40941  -0.37755
 Alpha  occ. eigenvalues --   -0.33715  -0.31056  -0.28170  -0.16774
 Alpha virt. eigenvalues --   -0.10789   0.03653   0.07142   0.09605   0.13719
 Alpha virt. eigenvalues --    0.13865   0.16751   0.17601   0.22625   0.24298
 Alpha virt. eigenvalues --    0.26030   0.30521   0.37673   0.53227   0.55029
 Alpha virt. eigenvalues --    0.56826   0.57191   0.62390   0.63840   0.68398
 Alpha virt. eigenvalues --    0.70526   0.71651   0.76159   0.79182   0.81587
 Alpha virt. eigenvalues --    0.83798   0.86193   0.91474   0.92042   0.94101
 Alpha virt. eigenvalues --    0.95529   0.96577   0.99013   1.00173   1.03886
 Alpha virt. eigenvalues --    1.05904   1.08186   1.15618   1.25796   1.31651
 Alpha virt. eigenvalues --    1.48196   1.62301   1.81839   1.97190
          Condensed to atoms (all electrons):
               1          2          3          4          5          6
     1  N    7.185037   0.247208   0.164210   0.011441  -0.088386  -0.097767
     2  H    0.247208   0.518771  -0.084748   0.021573   0.011710  -0.005592
     3  C    0.164210  -0.084748   5.646100  -0.039676   0.345138   0.274236
     4  H    0.011441   0.021573  -0.039676   0.494239   0.015228   0.088756
     5  C   -0.088386   0.011710   0.345138   0.015228   5.124815  -0.053947
     6  C   -0.097767  -0.005592   0.274236   0.088756  -0.053947   5.249049
     7  H    0.001917   0.007544  -0.094183   0.002782   0.373793  -0.013417
     8  H    0.005317   0.000008  -0.024333  -0.000612   0.349121  -0.002599
     9  H   -0.002705  -0.001846  -0.031416  -0.000780   0.362705   0.004702
    10  O   -0.000024   0.015524  -0.146561   0.029053   0.002808   0.297796
    11  H    0.322468  -0.025606  -0.028736   0.001643  -0.000919   0.007573
    12  O    0.004354   0.000131  -0.110490  -0.018217  -0.003181   0.099991
    13  H   -0.000352   0.000012   0.009361   0.000554  -0.000239  -0.013568
               7          8          9         10         11         12
     1  N    0.001917   0.005317  -0.002705  -0.000024   0.322468   0.004354
     2  H    0.007544   0.000008  -0.001846   0.015524  -0.025606   0.000131
     3  C   -0.094183  -0.024333  -0.031416  -0.146561  -0.028736  -0.110490
     4  H    0.002782  -0.000612  -0.000780   0.029053   0.001643  -0.018217
     5  C    0.373793   0.349121   0.362705   0.002808  -0.000919  -0.003181
     6  C   -0.013417  -0.002599   0.004702   0.297796   0.007573   0.099991
     7  H    0.661184  -0.024586  -0.055218   0.005605   0.000712  -0.000226
     8  H   -0.024586   0.547541  -0.025296   0.000051  -0.000086   0.004420
     9  H   -0.055218  -0.025296   0.605375  -0.000190   0.003573   0.000015
    10  O    0.005605   0.000051  -0.000190   8.309793   0.000048  -0.113815
    11  H    0.000712  -0.000086   0.003573   0.000048   0.405305  -0.000095
    12  O   -0.000226   0.004420   0.000015  -0.113815  -0.000095   8.424745
    13  H    0.000034  -0.000137   0.000009   0.004090   0.000008   0.225408
              13
     1  N   -0.000352
     2  H    0.000012
     3  C    0.009361
     4  H    0.000554
     5  C   -0.000239
     6  C   -0.013568
     7  H    0.000034
     8  H   -0.000137
     9  H    0.000009
    10  O    0.004090
    11  H    0.000008
    12  O    0.225408
    13  H    0.401881
 Mulliken charges:
               1
     1  N   -0.752718
     2  H    0.295311
     3  C    0.121098
     4  H    0.394016
     5  C   -0.438646
     6  C    0.164789
     7  H    0.134058
     8  H    0.171190
     9  H    0.141070
    10  O   -0.404177
    11  H    0.314111
    12  O   -0.513041
    13  H    0.372939
 Sum of Mulliken charges =   0.00000
 Mulliken charges with hydrogens summed into heavy atoms:
               1
     1  N   -0.143296
     3  C    0.121098
     5  C    0.007672
     6  C    0.558805
    10  O   -0.404177
    12  O   -0.140102
 APT charges:
               1
     1  N   -1.144519
     2  H    0.378093
     3  C    0.264817
     4  H    0.328987
     5  C   -1.266299
     6  C   -0.124675
     7  H    0.312740
     8  H    0.377995
     9  H    0.471469
    10  O   -0.263825
    11  H    0.647863
    12  O   -0.653195
    13  H    0.670549
 Sum of APT charges =   0.00000
 APT charges with hydrogens summed into heavy atoms:
               1
     1  N   -0.118564
     3  C    0.264817
     5  C   -0.104095
     6  C    0.204312
    10  O   -0.263825
    12  O    0.017354
 Electronic spatial extent (au):  <R**2>=            577.1152
 Charge=              0.0000 electrons
 Dipole moment (field-independent basis, Debye):
    X=             -0.6553    Y=              0.1956    Z=              1.2380  Tot=              1.4143
 Quadrupole moment (field-independent basis, Debye-Ang):
   XX=            -27.9476   YY=            -38.9415   ZZ=            -41.2227
   XY=              1.5104   XZ=             -2.1688   YZ=              2.3870
 Traceless Quadrupole moment (field-independent basis, Debye-Ang):
   XX=              8.0897   YY=             -2.9043   ZZ=             -5.1854
   XY=              1.5104   XZ=             -2.1688   YZ=              2.3870
 Octapole moment (field-independent basis, Debye-Ang**2):
  XXX=             12.7951  YYY=             -0.0379  ZZZ=              5.2742  XYY=             -1.0019
  XXY=              0.6328  XXZ=              0.7247  XZZ=              2.5769  YZZ=              0.3266
  YYZ=              2.5501  XYZ=              6.8389
 Hexadecapole moment (field-independent basis, Debye-Ang**3):
 XXXX=           -277.0566 YYYY=           -237.1086 ZZZZ=           -100.6394 XXXY=             26.8246
 XXXZ=              3.8104 YYYX=              5.1282 YYYZ=             -5.1559 ZZZX=             -3.0605
 ZZZY=             -3.0911 XXYY=           -106.4393 XXZZ=            -85.4938 YYZZ=            -60.7454
 XXYZ=              1.3170 YYXZ=             -6.8105 ZZXY=              0.2522
 N-N= 2.502532402241D+02 E-N=-1.257704172821D+03  KE= 3.221026345614D+02
  Exact polarizability:   0.000   0.000   0.000   0.000   0.000   0.000
 Approx polarizability: 126.760 -36.519 104.813  31.363 -25.642  66.241
 Calling FoFJK, ICntrl=    100147 FMM=F ISym2X=0 I1Cent= 0 IOpClX= 0 NMat=1 NMatS=1 NMatT=0.
 ***** Axes restored to original set *****
 -------------------------------------------------------------------
 Center     Atomic                   Forces (Hartrees/Bohr)
 Number     Number              X              Y              Z
 -------------------------------------------------------------------
      1        7           0.000272867   -0.011223779    0.018136612
      2        1          -0.007246041   -0.009107377    0.020013319
      3        6           0.040790197    0.008843401    0.039094325
      4        1          -0.005614459    0.008152938   -0.033655589
      5        6          -0.001572776    0.013277911   -0.034173083
      6        6          -0.095943369    0.098187140   -0.084819681
      7        1           0.002719018   -0.006735894    0.005604722
      8        1          -0.000653137    0.000967400    0.001207587
      9        1          -0.002006892    0.004257655    0.000582064
     10        8           0.047516879   -0.122449189    0.080290103
     11        1          -0.004334031   -0.007265534   -0.014616997
     12        8           0.010586748    0.019536938   -0.001361709
     13        1           0.015484997    0.003558391    0.003698326
 -------------------------------------------------------------------
 Cartesian Forces:  Max     0.122449189 RMS     0.038475266
 FormGI is forming the generalized inverse of G from B-inverse, IUseBI=4.

 GradGradGradGradGradGradGradGradGradGradGradGradGradGradGradGradGradGrad
 Berny optimization.
 Internal  Forces:  Max     0.153604219 RMS     0.026150957
 Search for a saddle point.
 Step number   1 out of a maximum of   60
 All quantities printed in internal units (Hartrees-Bohrs-Radians)
 Swapping is turned off.
 Second derivative matrix not updated -- analytic derivatives used.
 ITU=  0
     Eigenvalues ---   -0.40373  -0.10263  -0.00760   0.00336   0.00776
     Eigenvalues ---    0.00937   0.01453   0.04557   0.05097   0.06093
     Eigenvalues ---    0.06420   0.07357   0.10581   0.11548   0.12374
     Eigenvalues ---    0.14004   0.15795   0.16190   0.17984   0.19577
     Eigenvalues ---    0.21436   0.22555   0.28637   0.30931   0.33707
     Eigenvalues ---    0.34567   0.35172   0.38418   0.44725   0.46489
     Eigenvalues ---    0.47245   0.52153   0.98883
 Eigenvectors required to have negative eigenvalues:
                          R6        A13       A5        A6        A17
   1                    0.40871  -0.39164  -0.35563   0.22412   0.22340
                          R5        D11       D14       D18       D17
   1                   -0.21556  -0.20074  -0.19277  -0.18827   0.18005
 RFO step:  Lambda0=2.202550886D-03 Lambda=-1.09134493D-01.
 Linear search not attempted -- option 19 set.
 Maximum step size (   0.300) exceeded in Quadratic search.
    -- Step size scaled by   0.539
 Iteration  1 RMS(Cart)=  0.09173610 RMS(Int)=  0.01432524
 Iteration  2 RMS(Cart)=  0.01789234 RMS(Int)=  0.00094670
 Iteration  3 RMS(Cart)=  0.00039620 RMS(Int)=  0.00086785
 Iteration  4 RMS(Cart)=  0.00000044 RMS(Int)=  0.00086785
 Variable       Old X    -DE/DX   Delta X   Delta X   Delta X     New X
                                 (Linear)    (Quad)   (Total)
    R1        1.91907   0.01948   0.00000   0.00426   0.00426   1.92333
    R2        2.75672   0.02891   0.00000   0.03942   0.03942   2.79614
    R3        1.91554   0.00299   0.00000   0.00146   0.00146   1.91700
    R4        2.92167  -0.00788   0.00000  -0.02428  -0.02428   2.89739
    R5        2.87127  -0.03723   0.00000  -0.07694  -0.07694   2.79434
    R6        2.58306   0.01434   0.00000   0.02249   0.02249   2.60555
    R7        2.06633   0.00753   0.00000   0.00284   0.00284   2.06917
    R8        2.06555   0.00040   0.00000  -0.00004  -0.00004   2.06551
    R9        2.06588   0.00273   0.00000   0.00111   0.00111   2.06699
   R10        2.27773   0.15360   0.00000   0.05626   0.05626   2.33399
   R11        2.55737   0.03175   0.00000   0.03596   0.03596   2.59332
   R12        1.83183   0.01439   0.00000   0.00615   0.00615   1.83798
    A1        1.92679   0.00616   0.00000   0.00730   0.00719   1.93398
    A2        1.89661  -0.00504   0.00000   0.02031   0.02012   1.91672
    A3        1.93821   0.01318   0.00000   0.00661   0.00651   1.94472
    A4        2.01211  -0.00205   0.00000  -0.01416  -0.01659   1.99552
    A5        1.88940  -0.02297   0.00000   0.01453   0.01348   1.90288
    A6        1.89436   0.03306   0.00000   0.08276   0.08240   1.97676
    A7        1.93007  -0.00899   0.00000  -0.05538  -0.05528   1.87478
    A8        1.94576   0.00261   0.00000   0.01250   0.01224   1.95800
    A9        1.90963   0.00624   0.00000   0.02809   0.02803   1.93767
   A10        1.90095   0.00142   0.00000   0.00857   0.00845   1.90940
   A11        1.89033   0.00185   0.00000   0.01067   0.01099   1.90132
   A12        1.88575  -0.00301   0.00000  -0.00330  -0.00367   1.88209
   A13        1.19836  -0.01139   0.00000  -0.11009  -0.11178   1.08658
   A14        2.18471  -0.00395   0.00000  -0.00232  -0.00185   2.18286
   A15        1.95411   0.01019   0.00000   0.01660   0.01532   1.96943
   A16        1.42031   0.01426   0.00000   0.18810   0.18858   1.60889
   A17        2.18535  -0.00619   0.00000  -0.12095  -0.11840   2.06695
   A18        2.14353  -0.00628   0.00000  -0.01447  -0.01366   2.12986
   A19        1.87233   0.01325   0.00000   0.00333   0.00333   1.87566
    D1       -1.36609  -0.00359   0.00000  -0.09867  -0.09815  -1.46424
    D2        0.75870   0.02049   0.00000   0.01018   0.00951   0.76821
    D3        0.73876   0.00286   0.00000  -0.06389  -0.06322   0.67554
    D4        2.86355   0.02694   0.00000   0.04496   0.04444   2.90799
    D5        1.04853  -0.00236   0.00000   0.03203   0.03184   1.08037
    D6       -3.11704  -0.00498   0.00000   0.01323   0.01313  -3.10392
    D7       -1.03222  -0.00304   0.00000   0.03525   0.03552  -0.99671
    D8       -1.07359   0.00377   0.00000  -0.04014  -0.04031  -1.11390
    D9        1.04402   0.00114   0.00000  -0.05893  -0.05902   0.98500
   D10        3.12885   0.00309   0.00000  -0.03692  -0.03663   3.09221
   D11        0.57992   0.02535   0.00000   0.24384   0.24418   0.82410
   D12       -0.49906   0.01259   0.00000   0.07588   0.07457  -0.42449
   D13        2.68582   0.01365   0.00000   0.08117   0.07961   2.76543
   D14        2.77559   0.02929   0.00000   0.28944   0.29147   3.06706
   D15        1.69661   0.01653   0.00000   0.12148   0.12186   1.81847
   D16       -1.40170   0.01760   0.00000   0.12677   0.12690  -1.27480
   D17        3.08349   0.00129   0.00000   0.06324   0.06223  -3.13747
   D18       -1.82581  -0.00815   0.00000  -0.09686  -0.09458  -1.92039
   D19       -0.01601   0.00227   0.00000   0.06806   0.06679   0.05078
         Item               Value     Threshold  Converged?
 Maximum Force            0.153604     0.000450     NO 
 RMS     Force            0.026151     0.000300     NO 
 Maximum Displacement     0.397276     0.001800     NO 
 RMS     Displacement     0.103691     0.001200     NO 
 Predicted change in Energy=-4.993624D-02
 GradGradGradGradGradGradGradGradGradGradGradGradGradGradGradGradGradGrad

                          Input orientation:                          
 ---------------------------------------------------------------------
 Center     Atomic      Atomic             Coordinates (Angstroms)
 Number     Number       Type             X           Y           Z
 ---------------------------------------------------------------------
      1          7           0       -1.413644   -1.116412   -0.359236
      2          1           0       -1.193315   -1.696883    0.447229
      3          6           0       -0.616229    0.129886   -0.343432
      4          1           0        0.165453   -0.968896   -0.952597
      5          6           0       -1.211737    1.250084    0.517570
      6          6           0        0.782143   -0.196954    0.009114
      7          1           0       -1.245990    0.886936    1.549988
      8          1           0       -0.615651    2.165227    0.474179
      9          1           0       -2.227197    1.496032    0.193908
     10          8           0        1.139031   -1.192611    0.646886
     11          1           0       -2.408568   -0.919497   -0.379775
     12          8           0        1.672684    0.764830   -0.397317
     13          1           0        2.560987    0.471264   -0.131387
 ---------------------------------------------------------------------
                    Distance matrix (angstroms):
                    1          2          3          4          5
     1  N    0.000000
     2  H    1.017781   0.000000
     3  C    1.479656   2.072501   0.000000
     4  H    1.693336   2.082242   1.479672   0.000000
     5  C    2.531770   2.947863   1.533232   2.996984   0.000000
     6  C    2.408851   2.518762   1.478701   1.378799   2.515552
     7  H    2.772481   2.809799   2.134189   3.420412   1.094959
     8  H    3.478582   3.905165   2.193423   3.531082   1.093018
     9  H    2.791541   3.365678   2.179520   3.621480   1.093804
    10  O    2.744857   2.394575   2.410533   1.885802   3.392579
    11  H    1.014431   1.662860   2.077259   2.637452   2.635282
    12  O    3.614685   3.871335   2.375959   2.363447   3.064699
    13  H    4.286062   4.373836   3.202531   2.913251   3.906553
                    6          7          8          9         10
     6  C    0.000000
     7  H    2.768110   0.000000
     8  H    2.783885   1.785698   0.000000
     9  H    3.457814   1.781213   1.767330   0.000000
    10  O    1.235094   3.290659   3.792600   4.331915   0.000000
    11  H    3.294531   2.887693   3.668693   2.489335   3.703253
    12  O    1.372326   3.510778   2.820833   4.011643   2.281824
    13  H    1.905399   4.182449   3.650651   4.907410   2.322961
                   11         12         13
    11  H    0.000000
    12  O    4.415188   0.000000
    13  H    5.166468   0.972616   0.000000
 Stoichiometry    C3H7NO2
 Framework group  C1[X(C3H7NO2)]
 Deg. of freedom    33
 Full point group                 C1      NOp   1
 Largest Abelian subgroup         C1      NOp   1
 Largest concise Abelian subgroup C1      NOp   1
                         Standard orientation:                         
 ---------------------------------------------------------------------
 Center     Atomic      Atomic             Coordinates (Angstroms)
 Number     Number       Type             X           Y           Z
 ---------------------------------------------------------------------
      1          7           0       -1.420028   -1.092364   -0.387750
      2          1           0       -1.204637   -1.645625    0.438922
      3          6           0       -0.640833    0.165478   -0.396115
      4          1           0        0.166282   -0.939055   -0.960031
      5          6           0       -1.266234    1.301545    0.421824
      6          6           0        0.756116   -0.130240   -0.011875
      7          1           0       -1.312154    0.968363    1.463849
      8          1           0       -0.682632    2.223708    0.360884
      9          1           0       -2.279679    1.522905    0.074930
     10          8           0        1.116709   -1.101399    0.660643
     11          1           0       -2.417191   -0.910818   -0.429915
     12          8           0        1.639366    0.832231   -0.432347
     13          1           0        2.527306    0.559713   -0.143766
 ---------------------------------------------------------------------
 Rotational constants (GHZ):      5.0181960      3.1051053      2.2522570
 Standard basis: 6-31G (6D, 7F)
 There are    68 symmetry adapted cartesian basis functions of A   symmetry.
 There are    68 symmetry adapted basis functions of A   symmetry.
    68 basis functions,   160 primitive gaussians,    68 cartesian basis functions
    24 alpha electrons       24 beta electrons
       nuclear repulsion energy       248.9811085568 Hartrees.
 NAtoms=   13 NActive=   13 NUniq=   13 SFac= 1.00D+00 NAtFMM=   60 NAOKFM=F Big=F
 Integral buffers will be    131072 words long.
 Raffenetti 2 integral format.
 Two-electron integral symmetry is turned on.
 One-electron integrals computed using PRISM.
 NBasis=    68 RedAO= T EigKep=  4.65D-03  NBF=    68
 NBsUse=    68 1.00D-06 EigRej= -1.00D+00 NBFU=    68
 Initial guess from the checkpoint file:  "Ala-S-opt-freq-tab1-6-31g.chk"
 B after Tr=     0.000000    0.000000    0.000000
         Rot=    0.999843   -0.015753    0.000396   -0.008129 Ang=  -2.03 deg.
 ExpMin= 1.61D-01 ExpMax= 5.48D+03 ExpMxC= 8.25D+02 IAcc=1 IRadAn=         1 AccDes= 0.00D+00
 Harris functional with IExCor=  402 and IRadAn=       1 diagonalized for initial guess.
 HarFok:  IExCor=  402 AccDes= 0.00D+00 IRadAn=         1 IDoV= 1 UseB2=F ITyADJ=14
 ICtDFT=  3500011 ScaDFX=  1.000000  1.000000  1.000000  1.000000
 FoFCou: FMM=F IPFlag=           0 FMFlag=      100000 FMFlg1=           0
         NFxFlg=           0 DoJE=T BraDBF=F KetDBF=T FulRan=T
         wScrn=  0.000000 ICntrl=     500 IOpCl=  0 I1Cent=   200000004 NGrid=           0
         NMat0=    1 NMatS0=      1 NMatT0=    0 NMatD0=    1 NMtDS0=    0 NMtDT0=    0
 Petite list used in FoFCou.
 Keep R1 ints in memory in canonical form, NReq=3676491.
 Requested convergence on RMS density matrix=1.00D-08 within 128 cycles.
 Requested convergence on MAX density matrix=1.00D-06.
 Requested convergence on             energy=1.00D-06.
 No special actions if energy rises.
 Integral accuracy reduced to 1.0D-05 until final iterations.
 Initial convergence to 1.0D-05 achieved.  Increase integral accuracy.
 SCF Done:  E(RB3LYP) =  -323.421271459     A.U. after   17 cycles
            NFock= 17  Conv=0.35D-08     -V/T= 2.0046
 Calling FoFJK, ICntrl=      2127 FMM=F ISym2X=0 I1Cent= 0 IOpClX= 0 NMat=1 NMatS=1 NMatT=0.
 ***** Axes restored to original set *****
 -------------------------------------------------------------------
 Center     Atomic                   Forces (Hartrees/Bohr)
 Number     Number              X              Y              Z
 -------------------------------------------------------------------
      1        7          -0.009387590   -0.003008737    0.024148903
      2        1          -0.002849442   -0.006442195    0.009641472
      3        6           0.025660095   -0.031605054    0.031796933
      4        1          -0.008911764    0.035615597   -0.043333110
      5        6          -0.000913360    0.019359630   -0.036453026
      6        6          -0.043364963    0.038737182   -0.019361566
      7        1           0.002354119   -0.005154690    0.002376219
      8        1           0.000102391    0.000337665    0.001764483
      9        1          -0.001067516    0.002446366    0.000706097
     10        8           0.028286195   -0.061631746    0.036453086
     11        1          -0.001930566   -0.003619384   -0.009608254
     12        8           0.003086717    0.013353028   -0.000629954
     13        1           0.008935684    0.001612336    0.002498718
 -------------------------------------------------------------------
 Cartesian Forces:  Max     0.061631746 RMS     0.021802990

 GradGradGradGradGradGradGradGradGradGradGradGradGradGradGradGradGradGrad
 Berny optimization.
 FormGI is forming the generalized inverse of G from B-inverse, IUseBI=4.
 Internal  Forces:  Max     0.076678528 RMS     0.017401064
 Search for a saddle point.
 Step number   2 out of a maximum of   60
 All quantities printed in internal units (Hartrees-Bohrs-Radians)
 Swapping is turned off.
 Update second derivatives using D2CorX and points    1    2
 ITU=  0  0
     Eigenvalues ---   -0.40179  -0.09858  -0.01600   0.00342   0.00790
     Eigenvalues ---    0.01202   0.01917   0.04616   0.05111   0.06063
     Eigenvalues ---    0.06418   0.07294   0.10665   0.11645   0.12626
     Eigenvalues ---    0.14000   0.15790   0.16174   0.17964   0.19472
     Eigenvalues ---    0.21391   0.22587   0.28628   0.30889   0.33707
     Eigenvalues ---    0.34567   0.35172   0.38411   0.44714   0.46489
     Eigenvalues ---    0.47225   0.52137   0.98833
 Eigenvectors required to have negative eigenvalues:
                          R6        A13       A5        A6        A17
   1                    0.40993  -0.40453  -0.36161   0.23021   0.22035
                          R5        D18       D17       D11       D14
   1                   -0.21872  -0.19463   0.18159  -0.18055  -0.18019
 RFO step:  Lambda0=1.084612741D-03 Lambda=-1.29171742D-01.
 Linear search not attempted -- option 19 set.
 Maximum step size (   0.300) exceeded in Quadratic search.
    -- Step size scaled by   0.613
 Iteration  1 RMS(Cart)=  0.09133212 RMS(Int)=  0.01584249
 Iteration  2 RMS(Cart)=  0.01885259 RMS(Int)=  0.00145931
 Iteration  3 RMS(Cart)=  0.00046713 RMS(Int)=  0.00138702
 Iteration  4 RMS(Cart)=  0.00000095 RMS(Int)=  0.00138702
 Variable       Old X    -DE/DX   Delta X   Delta X   Delta X     New X
                                 (Linear)    (Quad)   (Total)
    R1        1.92333   0.01070   0.00000  -0.00088  -0.00088   1.92245
    R2        2.79614   0.01839   0.00000   0.02556   0.02556   2.82170
    R3        1.91700   0.00138   0.00000  -0.00021  -0.00021   1.91679
    R4        2.89739  -0.00552   0.00000  -0.01153  -0.01153   2.88586
    R5        2.79434  -0.02325   0.00000  -0.04048  -0.04048   2.75385
    R6        2.60555   0.01427   0.00000   0.03055   0.03055   2.63611
    R7        2.06917   0.00388   0.00000  -0.00128  -0.00128   2.06789
    R8        2.06551   0.00026   0.00000   0.00007   0.00007   2.06558
    R9        2.06699   0.00133   0.00000   0.00001   0.00001   2.06700
   R10        2.33399   0.07668   0.00000   0.02214   0.02214   2.35613
   R11        2.59332   0.01774   0.00000   0.01944   0.01944   2.61276
   R12        1.83798   0.00836   0.00000   0.00388   0.00388   1.84186
    A1        1.93398   0.00532   0.00000   0.02280   0.02276   1.95674
    A2        1.91672  -0.00176   0.00000   0.02108   0.02100   1.93772
    A3        1.94472   0.00663   0.00000  -0.01322  -0.01327   1.93145
    A4        1.99552  -0.00498   0.00000  -0.03559  -0.03782   1.95770
    A5        1.90288  -0.00978   0.00000   0.04875   0.04875   1.95164
    A6        1.97676   0.02291   0.00000   0.04753   0.04745   2.02421
    A7        1.87478  -0.00826   0.00000  -0.04562  -0.04557   1.82921
    A8        1.95800   0.00219   0.00000   0.01131   0.01116   1.96916
    A9        1.93767   0.00471   0.00000   0.01903   0.01896   1.95662
   A10        1.90940   0.00114   0.00000   0.00745   0.00742   1.91682
   A11        1.90132   0.00181   0.00000   0.00851   0.00865   1.90997
   A12        1.88209  -0.00152   0.00000  -0.00043  -0.00067   1.88142
   A13        1.08658  -0.02333   0.00000  -0.15402  -0.15514   0.93144
   A14        2.18286  -0.00453   0.00000  -0.01467  -0.01288   2.16997
   A15        1.96943   0.00838   0.00000   0.01918   0.01626   1.98569
   A16        1.60889   0.02851   0.00000   0.18722   0.18487   1.79376
   A17        2.06695  -0.01454   0.00000  -0.11831  -0.11269   1.95426
   A18        2.12986  -0.00375   0.00000  -0.00279  -0.00237   2.12750
   A19        1.87566   0.00710   0.00000  -0.00053  -0.00053   1.87513
    D1       -1.46424  -0.00634   0.00000  -0.09834  -0.09783  -1.56207
    D2        0.76821   0.01246   0.00000  -0.02114  -0.02171   0.74650
    D3        0.67554  -0.00017   0.00000  -0.06441  -0.06384   0.61171
    D4        2.90799   0.01863   0.00000   0.01279   0.01228   2.92027
    D5        1.08037   0.00135   0.00000   0.03386   0.03329   1.11366
    D6       -3.10392  -0.00134   0.00000   0.01998   0.01941  -3.08450
    D7       -0.99671   0.00153   0.00000   0.04062   0.04028  -0.95643
    D8       -1.11390  -0.00063   0.00000  -0.04470  -0.04428  -1.15818
    D9        0.98500  -0.00332   0.00000  -0.05858  -0.05817   0.92684
   D10        3.09221  -0.00045   0.00000  -0.03794  -0.03730   3.05491
   D11        0.82410   0.03810   0.00000   0.26652   0.26855   1.09264
   D12       -0.42449   0.01444   0.00000   0.12369   0.12135  -0.30314
   D13        2.76543   0.01215   0.00000   0.08387   0.08098   2.84641
   D14        3.06706   0.04130   0.00000   0.29617   0.30033  -2.91580
   D15        1.81847   0.01763   0.00000   0.15334   0.15313   1.97160
   D16       -1.27480   0.01535   0.00000   0.11351   0.11276  -1.16204
   D17       -3.13747   0.00864   0.00000   0.08993   0.08980  -3.04767
   D18       -1.92039  -0.01861   0.00000  -0.11075  -0.10963  -2.03002
   D19        0.05078   0.00647   0.00000   0.05188   0.05088   0.10166
         Item               Value     Threshold  Converged?
 Maximum Force            0.076679     0.000450     NO 
 RMS     Force            0.017401     0.000300     NO 
 Maximum Displacement     0.516497     0.001800     NO 
 RMS     Displacement     0.105181     0.001200     NO 
 Predicted change in Energy=-5.917205D-02
 GradGradGradGradGradGradGradGradGradGradGradGradGradGradGradGradGradGrad

                          Input orientation:                          
 ---------------------------------------------------------------------
 Center     Atomic      Atomic             Coordinates (Angstroms)
 Number     Number       Type             X           Y           Z
 ---------------------------------------------------------------------
      1          7           0       -1.431024   -1.145150   -0.282839
      2          1           0       -1.227469   -1.744844    0.513315
      3          6           0       -0.578292    0.080521   -0.295861
      4          1           0        0.094929   -0.695577   -1.062735
      5          6           0       -1.216446    1.234670    0.474094
      6          6           0        0.807904   -0.220449    0.038107
      7          1           0       -1.269765    0.884491    1.509461
      8          1           0       -0.628219    2.154574    0.423699
      9          1           0       -2.224112    1.462065    0.114480
     10          8           0        1.184838   -1.269723    0.596210
     11          1           0       -2.414263   -0.897437   -0.309829
     12          8           0        1.695551    0.779765   -0.312988
     13          1           0        2.594335    0.450100   -0.129983
 ---------------------------------------------------------------------
                    Distance matrix (angstroms):
                    1          2          3          4          5
     1  N    0.000000
     2  H    1.017314   0.000000
     3  C    1.493182   2.099560   0.000000
     4  H    1.771691   2.309466   1.282050   0.000000
     5  C    2.506498   2.979792   1.527131   2.794173   0.000000
     6  C    2.443538   2.586957   1.457277   1.394967   2.530899
     7  H    2.712524   2.812027   2.093726   3.312884   1.094283
     8  H    3.468699   3.946212   2.195895   3.294813   1.093058
     9  H    2.753983   3.381808   2.187639   3.379232   1.093809
    10  O    2.762423   2.460049   2.393235   2.066311   3.471752
    11  H    1.014322   1.674558   2.080237   2.627482   2.568108
    12  O    3.671740   3.949743   2.378991   2.302334   3.050601
    13  H    4.332633   4.453965   3.198385   2.903383   3.937323
                    6          7          8          9         10
     6  C    0.000000
     7  H    2.775335   0.000000
     8  H    2.802117   1.789853   0.000000
     9  H    3.468401   1.786152   1.766935   0.000000
    10  O    1.246809   3.391127   3.878497   4.394959   0.000000
    11  H    3.310851   2.791946   3.611480   2.404880   3.730018
    12  O    1.382611   3.482153   2.798698   4.001502   2.299536
    13  H    1.915523   4.219923   3.687363   4.929631   2.339194
                   11         12         13
    11  H    0.000000
    12  O    4.438872   0.000000
    13  H    5.189823   0.974671   0.000000
 Stoichiometry    C3H7NO2
 Framework group  C1[X(C3H7NO2)]
 Deg. of freedom    33
 Full point group                 C1      NOp   1
 Largest Abelian subgroup         C1      NOp   1
 Largest concise Abelian subgroup C1      NOp   1
                         Standard orientation:                         
 ---------------------------------------------------------------------
 Center     Atomic      Atomic             Coordinates (Angstroms)
 Number     Number       Type             X           Y           Z
 ---------------------------------------------------------------------
      1          7           0       -1.454017   -1.089913   -0.348057
      2          1           0       -1.251484   -1.681452    0.454433
      3          6           0       -0.618562    0.147617   -0.359243
      4          1           0        0.074588   -0.623843   -1.112931
      5          6           0       -1.282019    1.297599    0.395406
      6          6           0        0.767682   -0.131479   -0.006978
      7          1           0       -1.342673    0.953462    1.432395
      8          1           0       -0.706267    2.225404    0.345783
      9          1           0       -2.288454    1.508330    0.022445
     10          8           0        1.152730   -1.171637    0.562532
     11          1           0       -2.440263   -0.856350   -0.388274
     12          8           0        1.645236    0.878911   -0.354287
     13          1           0        2.546346    0.563226   -0.158515
 ---------------------------------------------------------------------
 Rotational constants (GHZ):      5.0522432      3.1028506      2.1865302
 Standard basis: 6-31G (6D, 7F)
 There are    68 symmetry adapted cartesian basis functions of A   symmetry.
 There are    68 symmetry adapted basis functions of A   symmetry.
    68 basis functions,   160 primitive gaussians,    68 cartesian basis functions
    24 alpha electrons       24 beta electrons
       nuclear repulsion energy       248.2706455443 Hartrees.
 NAtoms=   13 NActive=   13 NUniq=   13 SFac= 1.00D+00 NAtFMM=   60 NAOKFM=F Big=F
 Integral buffers will be    131072 words long.
 Raffenetti 2 integral format.
 Two-electron integral symmetry is turned on.
 One-electron integrals computed using PRISM.
 NBasis=    68 RedAO= T EigKep=  5.20D-03  NBF=    68
 NBsUse=    68 1.00D-06 EigRej= -1.00D+00 NBFU=    68
 Initial guess from the checkpoint file:  "Ala-S-opt-freq-tab1-6-31g.chk"
 B after Tr=     0.000000    0.000000    0.000000
         Rot=    0.999891   -0.014659   -0.001954   -0.000410 Ang=  -1.70 deg.
 ExpMin= 1.61D-01 ExpMax= 5.48D+03 ExpMxC= 8.25D+02 IAcc=1 IRadAn=         1 AccDes= 0.00D+00
 Harris functional with IExCor=  402 and IRadAn=       1 diagonalized for initial guess.
 HarFok:  IExCor=  402 AccDes= 0.00D+00 IRadAn=         1 IDoV= 1 UseB2=F ITyADJ=14
 ICtDFT=  3500011 ScaDFX=  1.000000  1.000000  1.000000  1.000000
 FoFCou: FMM=F IPFlag=           0 FMFlag=      100000 FMFlg1=           0
         NFxFlg=           0 DoJE=T BraDBF=F KetDBF=T FulRan=T
         wScrn=  0.000000 ICntrl=     500 IOpCl=  0 I1Cent=   200000004 NGrid=           0
         NMat0=    1 NMatS0=      1 NMatT0=    0 NMatD0=    1 NMtDS0=    0 NMtDT0=    0
 Petite list used in FoFCou.
 Keep R1 ints in memory in canonical form, NReq=3676491.
 Requested convergence on RMS density matrix=1.00D-08 within 128 cycles.
 Requested convergence on MAX density matrix=1.00D-06.
 Requested convergence on             energy=1.00D-06.
 No special actions if energy rises.
 Integral accuracy reduced to 1.0D-05 until final iterations.
 Initial convergence to 1.0D-05 achieved.  Increase integral accuracy.
 SCF Done:  E(RB3LYP) =  -323.477315898     A.U. after   15 cycles
            NFock= 15  Conv=0.58D-08     -V/T= 2.0049
 Calling FoFJK, ICntrl=      2127 FMM=F ISym2X=0 I1Cent= 0 IOpClX= 0 NMat=1 NMatS=1 NMatT=0.
 ***** Axes restored to original set *****
 -------------------------------------------------------------------
 Center     Atomic                   Forces (Hartrees/Bohr)
 Number     Number              X              Y              Z
 -------------------------------------------------------------------
      1        7          -0.007038098    0.002192826    0.029259808
      2        1          -0.000551325   -0.005552107    0.003628807
      3        6           0.011136478   -0.055922064    0.010096244
      4        1          -0.023802367    0.054371074   -0.055821007
      5        6           0.002838176    0.019801178   -0.035021444
      6        6          -0.001055835    0.003631116    0.040694577
      7        1           0.000887970   -0.001704772    0.001243709
      8        1           0.000415244    0.000128438    0.001948736
      9        1          -0.000516130    0.000838479    0.000409648
     10        8           0.016510269   -0.023187701    0.008008299
     11        1          -0.000917947   -0.001928196   -0.004617045
     12        8          -0.003910420    0.006577666   -0.001780289
     13        1           0.006003986    0.000754063    0.001949957
 -------------------------------------------------------------------
 Cartesian Forces:  Max     0.055922064 RMS     0.019778603

 GradGradGradGradGradGradGradGradGradGradGradGradGradGradGradGradGradGrad
 Berny optimization.
 FormGI is forming the generalized inverse of G from B-inverse, IUseBI=4.
 Internal  Forces:  Max     0.049522451 RMS     0.016105699
 Search for a saddle point.
 Step number   3 out of a maximum of   60
 All quantities printed in internal units (Hartrees-Bohrs-Radians)
 Swapping is turned off.
 Update second derivatives using D2CorX and points    2    3
 ITU=  0  0  0
     Eigenvalues ---   -0.38930  -0.07022  -0.02358   0.00343   0.00796
     Eigenvalues ---    0.01690   0.01829   0.04592   0.05108   0.06062
     Eigenvalues ---    0.06415   0.07558   0.11243   0.11650   0.12859
     Eigenvalues ---    0.14008   0.15925   0.16118   0.17875   0.19136
     Eigenvalues ---    0.21096   0.22604   0.28621   0.30742   0.33706
     Eigenvalues ---    0.34565   0.35171   0.38424   0.44707   0.46488
     Eigenvalues ---    0.47208   0.52110   0.98843
 Eigenvectors required to have negative eigenvalues:
                          A13       R6        A5        A6        D18
   1                   -0.45570   0.40328  -0.35182   0.23621  -0.22889
                          R5        D17       A17       D4        D12
   1                   -0.22046   0.20517   0.20410   0.17173   0.16375
 RFO step:  Lambda0=5.603088777D-03 Lambda=-1.26645029D-01.
 Linear search not attempted -- option 19 set.
 Maximum step size (   0.300) exceeded in Quadratic search.
    -- Step size scaled by   0.477
 Iteration  1 RMS(Cart)=  0.07193207 RMS(Int)=  0.01419196
 Iteration  2 RMS(Cart)=  0.01691507 RMS(Int)=  0.00130085
 Iteration  3 RMS(Cart)=  0.00034446 RMS(Int)=  0.00126114
 Iteration  4 RMS(Cart)=  0.00000057 RMS(Int)=  0.00126113
 Variable       Old X    -DE/DX   Delta X   Delta X   Delta X     New X
                                 (Linear)    (Quad)   (Total)
    R1        1.92245   0.00600   0.00000  -0.00131  -0.00131   1.92113
    R2        2.82170   0.00945   0.00000  -0.01199  -0.01199   2.80972
    R3        1.91679   0.00054   0.00000   0.00211   0.00211   1.91890
    R4        2.88586  -0.00295   0.00000   0.00012   0.00012   2.88598
    R5        2.75385  -0.01624   0.00000   0.02301   0.02301   2.77687
    R6        2.63611   0.03770   0.00000   0.09623   0.09623   2.73233
    R7        2.06789   0.00168   0.00000  -0.00338  -0.00338   2.06451
    R8        2.06558   0.00024   0.00000   0.00052   0.00052   2.06610
    R9        2.06700   0.00052   0.00000  -0.00099  -0.00099   2.06601
   R10        2.35613   0.02809   0.00000  -0.00691  -0.00691   2.34922
   R11        2.61276   0.00661   0.00000   0.00338   0.00338   2.61614
   R12        1.84186   0.00565   0.00000   0.00341   0.00341   1.84528
    A1        1.95674   0.00501   0.00000   0.01202   0.01205   1.96879
    A2        1.93772  -0.00084   0.00000   0.01012   0.01017   1.94789
    A3        1.93145   0.00336   0.00000  -0.01978  -0.01975   1.91171
    A4        1.95770  -0.00179   0.00000  -0.02829  -0.02829   1.92941
    A5        1.95164  -0.01045   0.00000   0.07928   0.07943   2.03106
    A6        2.02421   0.01731   0.00000  -0.02496  -0.02493   1.99928
    A7        1.82921  -0.00309   0.00000  -0.02812  -0.02808   1.80113
    A8        1.96916   0.00143   0.00000   0.00925   0.00918   1.97835
    A9        1.95662   0.00190   0.00000   0.01221   0.01216   1.96878
   A10        1.91682  -0.00040   0.00000   0.00197   0.00198   1.91879
   A11        1.90997   0.00049   0.00000   0.00464   0.00470   1.91467
   A12        1.88142  -0.00040   0.00000  -0.00037  -0.00050   1.88091
   A13        0.93144  -0.03592   0.00000  -0.09097  -0.08947   0.84196
   A14        2.16997  -0.00431   0.00000  -0.00494  -0.00299   2.16699
   A15        1.98569   0.00624   0.00000  -0.00601  -0.00896   1.97673
   A16        1.79376   0.03588   0.00000   0.18862   0.18685   1.98061
   A17        1.95426  -0.01756   0.00000  -0.15645  -0.15037   1.80389
   A18        2.12750  -0.00186   0.00000   0.01105   0.01196   2.13945
   A19        1.87513   0.00428   0.00000   0.00328   0.00328   1.87841
    D1       -1.56207  -0.00727   0.00000  -0.07607  -0.07607  -1.63814
    D2        0.74650   0.00599   0.00000  -0.06462  -0.06459   0.68191
    D3        0.61171  -0.00214   0.00000  -0.06886  -0.06890   0.54281
    D4        2.92027   0.01112   0.00000  -0.05741  -0.05742   2.86286
    D5        1.11366  -0.00034   0.00000   0.03264   0.03255   1.14622
    D6       -3.08450  -0.00201   0.00000   0.02224   0.02213  -3.06238
    D7       -0.95643  -0.00005   0.00000   0.03775   0.03776  -0.91867
    D8       -1.15818   0.00033   0.00000  -0.03171  -0.03166  -1.18984
    D9        0.92684  -0.00135   0.00000  -0.04210  -0.04209   0.88475
   D10        3.05491   0.00062   0.00000  -0.02659  -0.02645   3.02846
   D11        1.09264   0.04612   0.00000   0.27090   0.27356   1.36621
   D12       -0.30314   0.01836   0.00000   0.05973   0.05887  -0.24427
   D13        2.84641   0.00821   0.00000   0.04582   0.04390   2.89030
   D14       -2.91580   0.04952   0.00000   0.28391   0.28665  -2.62915
   D15        1.97160   0.02177   0.00000   0.07274   0.07196   2.04356
   D16       -1.16204   0.01161   0.00000   0.05883   0.05698  -1.10506
   D17       -3.04767   0.01670   0.00000   0.05822   0.05894  -2.98873
   D18       -2.03002  -0.02667   0.00000  -0.08610  -0.08635  -2.11637
   D19        0.10166   0.00684   0.00000   0.04476   0.04430   0.14596
         Item               Value     Threshold  Converged?
 Maximum Force            0.049522     0.000450     NO 
 RMS     Force            0.016106     0.000300     NO 
 Maximum Displacement     0.389254     0.001800     NO 
 RMS     Displacement     0.081976     0.001200     NO 
 Predicted change in Energy=-5.644893D-02
 GradGradGradGradGradGradGradGradGradGradGradGradGradGradGradGradGradGrad

                          Input orientation:                          
 ---------------------------------------------------------------------
 Center     Atomic      Atomic             Coordinates (Angstroms)
 Number     Number       Type             X           Y           Z
 ---------------------------------------------------------------------
      1          7           0       -1.482057   -1.164104   -0.247760
      2          1           0       -1.292970   -1.788805    0.531670
      3          6           0       -0.569428    0.009239   -0.280360
      4          1           0        0.087888   -0.489593   -1.139977
      5          6           0       -1.200271    1.199140    0.439707
      6          6           0        0.833695   -0.245150    0.074361
      7          1           0       -1.255543    0.861993    1.477405
      8          1           0       -0.601442    2.111644    0.375544
      9          1           0       -2.203835    1.432255    0.073938
     10          8           0        1.237058   -1.283890    0.625493
     11          1           0       -2.445907   -0.844574   -0.245528
     12          8           0        1.682390    0.791379   -0.274769
     13          1           0        2.598389    0.483472   -0.134596
 ---------------------------------------------------------------------
                    Distance matrix (angstroms):
                    1          2          3          4          5
     1  N    0.000000
     2  H    1.016620   0.000000
     3  C    1.486838   2.101397   0.000000
     4  H    1.927626   2.527671   1.191570   0.000000
     5  C    2.477284   2.990797   1.527195   2.646993   0.000000
     6  C    2.512159   2.667340   1.469454   1.445889   2.521204
     7  H    2.670688   2.814702   2.070672   3.237635   1.092493
     8  H    3.448842   3.964352   2.202576   3.088432   1.093333
     9  H    2.713951   3.378523   2.195857   3.227861   1.093285
    10  O    2.858409   2.581624   2.399197   2.251306   3.484325
    11  H    1.015436   1.680736   2.061888   2.710381   2.489563
    12  O    3.719995   4.020007   2.383791   2.220790   2.997745
    13  H    4.401971   4.555197   3.206432   2.874066   3.907917
                    6          7          8          9         10
     6  C    0.000000
     7  H    2.749403   0.000000
     8  H    2.775753   1.789853   0.000000
     9  H    3.469910   1.787226   1.766409   0.000000
    10  O    1.243152   3.397591   3.869393   4.418302   0.000000
    11  H    3.349242   2.701451   3.539351   2.311840   3.809974
    12  O    1.384401   3.421483   2.716964   3.954120   2.305544
    13  H    1.920598   4.194594   3.626306   4.899493   2.356804
                   11         12         13
    11  H    0.000000
    12  O    4.440724   0.000000
    13  H    5.217368   0.976478   0.000000
 Stoichiometry    C3H7NO2
 Framework group  C1[X(C3H7NO2)]
 Deg. of freedom    33
 Full point group                 C1      NOp   1
 Largest Abelian subgroup         C1      NOp   1
 Largest concise Abelian subgroup C1      NOp   1
                         Standard orientation:                         
 ---------------------------------------------------------------------
 Center     Atomic      Atomic             Coordinates (Angstroms)
 Number     Number       Type             X           Y           Z
 ---------------------------------------------------------------------
      1          7           0       -1.541802   -1.045200   -0.336968
      2          1           0       -1.356810   -1.689358    0.427463
      3          6           0       -0.616417    0.118525   -0.346646
      4          1           0        0.032263   -0.367948   -1.219799
      5          6           0       -1.231509    1.298708    0.402456
      6          6           0        0.785084   -0.159137   -0.003142
      7          1           0       -1.286761    0.938860    1.432504
      8          1           0       -0.622892    2.205821    0.356556
      9          1           0       -2.233752    1.550980    0.045892
     10          8           0        1.178951   -1.214397    0.522903
     11          1           0       -2.502057   -0.715277   -0.323834
     12          8           0        1.643891    0.875658   -0.332102
     13          1           0        2.556939    0.554665   -0.202422
 ---------------------------------------------------------------------
 Rotational constants (GHZ):      5.1081383      3.0535538      2.1562567
 Standard basis: 6-31G (6D, 7F)
 There are    68 symmetry adapted cartesian basis functions of A   symmetry.
 There are    68 symmetry adapted basis functions of A   symmetry.
    68 basis functions,   160 primitive gaussians,    68 cartesian basis functions
    24 alpha electrons       24 beta electrons
       nuclear repulsion energy       247.6254327343 Hartrees.
 NAtoms=   13 NActive=   13 NUniq=   13 SFac= 1.00D+00 NAtFMM=   60 NAOKFM=F Big=F
 Integral buffers will be    131072 words long.
 Raffenetti 2 integral format.
 Two-electron integral symmetry is turned on.
 One-electron integrals computed using PRISM.
 NBasis=    68 RedAO= T EigKep=  5.35D-03  NBF=    68
 NBsUse=    68 1.00D-06 EigRej= -1.00D+00 NBFU=    68
 Initial guess from the checkpoint file:  "Ala-S-opt-freq-tab1-6-31g.chk"
 B after Tr=     0.000000    0.000000    0.000000
         Rot=    0.999877   -0.010323   -0.006094    0.010138 Ang=  -1.80 deg.
 ExpMin= 1.61D-01 ExpMax= 5.48D+03 ExpMxC= 8.25D+02 IAcc=1 IRadAn=         1 AccDes= 0.00D+00
 Harris functional with IExCor=  402 and IRadAn=       1 diagonalized for initial guess.
 HarFok:  IExCor=  402 AccDes= 0.00D+00 IRadAn=         1 IDoV= 1 UseB2=F ITyADJ=14
 ICtDFT=  3500011 ScaDFX=  1.000000  1.000000  1.000000  1.000000
 FoFCou: FMM=F IPFlag=           0 FMFlag=      100000 FMFlg1=           0
         NFxFlg=           0 DoJE=T BraDBF=F KetDBF=T FulRan=T
         wScrn=  0.000000 ICntrl=     500 IOpCl=  0 I1Cent=   200000004 NGrid=           0
         NMat0=    1 NMatS0=      1 NMatT0=    0 NMatD0=    1 NMtDS0=    0 NMtDT0=    0
 Petite list used in FoFCou.
 Keep R1 ints in memory in canonical form, NReq=3676491.
 Requested convergence on RMS density matrix=1.00D-08 within 128 cycles.
 Requested convergence on MAX density matrix=1.00D-06.
 Requested convergence on             energy=1.00D-06.
 No special actions if energy rises.
 Integral accuracy reduced to 1.0D-05 until final iterations.
 Initial convergence to 1.0D-05 achieved.  Increase integral accuracy.
 SCF Done:  E(RB3LYP) =  -323.523432764     A.U. after   14 cycles
            NFock= 14  Conv=0.87D-08     -V/T= 2.0051
 Calling FoFJK, ICntrl=      2127 FMM=F ISym2X=0 I1Cent= 0 IOpClX= 0 NMat=1 NMatS=1 NMatT=0.
 ***** Axes restored to original set *****
 -------------------------------------------------------------------
 Center     Atomic                   Forces (Hartrees/Bohr)
 Number     Number              X              Y              Z
 -------------------------------------------------------------------
      1        7           0.006079317    0.005823857    0.024448591
      2        1          -0.000291450   -0.005278035    0.001256960
      3        6           0.011203080   -0.049116233   -0.003457904
      4        1          -0.038894527    0.052133016   -0.054962104
      5        6           0.006923862    0.016786032   -0.030649471
      6        6           0.001403089   -0.010582950    0.063714137
      7        1          -0.001049323    0.001681948    0.002574916
      8        1           0.000506422   -0.000246301    0.001801142
      9        1          -0.000650458   -0.000193417   -0.000252747
     10        8           0.013438459   -0.010744863   -0.001653350
     11        1           0.000000157   -0.003421057   -0.002257500
     12        8          -0.003460828    0.001617443   -0.002588009
     13        1           0.004792202    0.001540560    0.002025340
 -------------------------------------------------------------------
 Cartesian Forces:  Max     0.063714137 RMS     0.020458203

 GradGradGradGradGradGradGradGradGradGradGradGradGradGradGradGradGradGrad
 Berny optimization.
 FormGI is forming the generalized inverse of G from B-inverse, IUseBI=4.
 Internal  Forces:  Max     0.057404473 RMS     0.016477132
 Search for a saddle point.
 Step number   4 out of a maximum of   60
 All quantities printed in internal units (Hartrees-Bohrs-Radians)
 Swapping is turned off.
 Update second derivatives using D2CorX and points    3    4
 ITU=  0  0  0  0
     Eigenvalues ---   -0.35702  -0.03093  -0.00535   0.00344   0.00796
     Eigenvalues ---    0.01466   0.03316   0.04611   0.05171   0.06084
     Eigenvalues ---    0.06411   0.07566   0.11607   0.12192   0.12919
     Eigenvalues ---    0.14110   0.15859   0.16185   0.17689   0.18769
     Eigenvalues ---    0.21039   0.22725   0.28611   0.30596   0.33707
     Eigenvalues ---    0.34566   0.35172   0.38732   0.44750   0.46487
     Eigenvalues ---    0.47254   0.52086   0.98812
 Eigenvectors required to have negative eigenvalues:
                          A13       R6        A5        D18       D17
   1                    0.51549  -0.42557   0.31494   0.27012  -0.23320
                          A6        R5        D12       A17       D15
   1                   -0.22072   0.19601  -0.17251  -0.17077  -0.16937
 RFO step:  Lambda0=1.967205026D-02 Lambda=-7.25054742D-02.
 Linear search not attempted -- option 19 set.
 Maximum step size (   0.300) exceeded in Quadratic search.
    -- Step size scaled by   0.678
 Iteration  1 RMS(Cart)=  0.11518777 RMS(Int)=  0.02240753
 Iteration  2 RMS(Cart)=  0.03302909 RMS(Int)=  0.00202707
 Iteration  3 RMS(Cart)=  0.00093117 RMS(Int)=  0.00187319
 Iteration  4 RMS(Cart)=  0.00000236 RMS(Int)=  0.00187319
 Iteration  5 RMS(Cart)=  0.00000001 RMS(Int)=  0.00187319
 Variable       Old X    -DE/DX   Delta X   Delta X   Delta X     New X
                                 (Linear)    (Quad)   (Total)
    R1        1.92113   0.00414   0.00000  -0.00604  -0.00604   1.91509
    R2        2.80972  -0.00077   0.00000  -0.08997  -0.08997   2.71975
    R3        1.91890  -0.00108   0.00000  -0.00141  -0.00141   1.91748
    R4        2.88598  -0.00083   0.00000  -0.00366  -0.00366   2.88232
    R5        2.77687  -0.02598   0.00000  -0.05971  -0.05971   2.71716
    R6        2.73233   0.05740   0.00000   0.13545   0.13545   2.86779
    R7        2.06451   0.00198   0.00000  -0.00149  -0.00149   2.06302
    R8        2.06610  -0.00004   0.00000  -0.00077  -0.00077   2.06533
    R9        2.06601   0.00064   0.00000   0.00114   0.00114   2.06715
   R10        2.34922   0.01261   0.00000   0.03962   0.03962   2.38884
   R11        2.61614   0.00332   0.00000   0.00675   0.00675   2.62289
   R12        1.84528   0.00430   0.00000   0.00479   0.00479   1.85006
    A1        1.96879   0.00479   0.00000   0.02441   0.02429   1.99308
    A2        1.94789  -0.00175   0.00000   0.01646   0.01625   1.96415
    A3        1.91171   0.00511   0.00000  -0.00638  -0.00651   1.90520
    A4        1.92941   0.01024   0.00000   0.01482   0.01005   1.93947
    A5        2.03106  -0.02357   0.00000   0.11536   0.11409   2.14515
    A6        1.99928   0.01710   0.00000  -0.01207  -0.01762   1.98166
    A7        1.80113   0.00350   0.00000  -0.00911  -0.00910   1.79203
    A8        1.97835   0.00034   0.00000  -0.00159  -0.00171   1.97664
    A9        1.96878  -0.00085   0.00000   0.02747   0.02740   1.99618
   A10        1.91879  -0.00225   0.00000  -0.00677  -0.00682   1.91198
   A11        1.91467  -0.00126   0.00000  -0.01150  -0.01144   1.90324
   A12        1.88091   0.00041   0.00000  -0.00005  -0.00020   1.88071
   A13        0.84196  -0.04027   0.00000   0.16400   0.16473   1.00670
   A14        2.16699   0.00004   0.00000  -0.00355  -0.00424   2.16275
   A15        1.97673   0.00239   0.00000   0.00711   0.00911   1.98584
   A16        1.98061   0.03066   0.00000  -0.02736  -0.02897   1.95164
   A17        1.80389  -0.00939   0.00000  -0.10261  -0.10809   1.69580
   A18        2.13945  -0.00253   0.00000  -0.00360  -0.00493   2.13453
   A19        1.87841   0.00441   0.00000   0.01858   0.01858   1.89698
    D1       -1.63814  -0.00873   0.00000  -0.18348  -0.18581  -1.82394
    D2        0.68191   0.00416   0.00000  -0.07389  -0.07172   0.61019
    D3        0.54281  -0.00366   0.00000  -0.14910  -0.15127   0.39154
    D4        2.86286   0.00924   0.00000  -0.03951  -0.03718   2.82568
    D5        1.14622  -0.00420   0.00000   0.07582   0.07411   1.22033
    D6       -3.06238  -0.00455   0.00000   0.06122   0.05952  -3.00286
    D7       -0.91867  -0.00440   0.00000   0.08148   0.07990  -0.83877
    D8       -1.18984   0.00361   0.00000  -0.09559  -0.09397  -1.28381
    D9        0.88475   0.00327   0.00000  -0.11019  -0.10856   0.77619
   D10        3.02846   0.00342   0.00000  -0.08993  -0.08818   2.94028
   D11        1.36621   0.03541   0.00000   0.18892   0.18590   1.55211
   D12       -0.24427   0.01578   0.00000   0.12097   0.12076  -0.12351
   D13        2.89030   0.00087   0.00000   0.11401   0.11478   3.00508
   D14       -2.62915   0.04460   0.00000   0.31854   0.31716  -2.31199
   D15        2.04356   0.02497   0.00000   0.25059   0.25202   2.29557
   D16       -1.10506   0.01007   0.00000   0.24362   0.24604  -0.85902
   D17       -2.98873   0.01932   0.00000  -0.02291  -0.02141  -3.01015
   D18       -2.11637  -0.02807   0.00000   0.11829   0.11431  -2.00206
   D19        0.14596   0.00470   0.00000  -0.02976  -0.02728   0.11868
         Item               Value     Threshold  Converged?
 Maximum Force            0.057404     0.000450     NO 
 RMS     Force            0.016477     0.000300     NO 
 Maximum Displacement     0.333940     0.001800     NO 
 RMS     Displacement     0.124814     0.001200     NO 
 Predicted change in Energy=-3.488225D-02
 GradGradGradGradGradGradGradGradGradGradGradGradGradGradGradGradGradGrad

                          Input orientation:                          
 ---------------------------------------------------------------------
 Center     Atomic      Atomic             Coordinates (Angstroms)
 Number     Number       Type             X           Y           Z
 ---------------------------------------------------------------------
      1          7           0       -1.544449   -1.165550   -0.178739
      2          1           0       -1.363819   -1.864303    0.532697
      3          6           0       -0.587867   -0.090569   -0.206028
      4          1           0        0.242328   -0.428760   -1.316690
      5          6           0       -1.170636    1.179450    0.405406
      6          6           0        0.807809   -0.279294    0.083633
      7          1           0       -1.238679    0.925777    1.465048
      8          1           0       -0.527019    2.053709    0.279271
      9          1           0       -2.166380    1.442241    0.036584
     10          8           0        1.299449   -1.363038    0.509993
     11          1           0       -2.479764   -0.777478   -0.114112
     12          8           0        1.587299    0.842260   -0.163310
     13          1           0        2.529696    0.598561   -0.058624
 ---------------------------------------------------------------------
                    Distance matrix (angstroms):
                    1          2          3          4          5
     1  N    0.000000
     2  H    1.013422   0.000000
     3  C    1.439229   2.072185   0.000000
     4  H    2.242847   2.839142   1.427294   0.000000
     5  C    2.445402   3.052533   1.525260   2.747439   0.000000
     6  C    2.527332   2.725781   1.437857   1.517568   2.479056
     7  H    2.677533   2.944399   2.061313   3.430192   1.091706
     8  H    3.407135   4.014385   2.199351   3.049859   1.092924
     9  H    2.689561   3.438527   2.213610   3.336745   1.093890
    10  O    2.932765   2.710126   2.386175   2.308062   3.546337
    11  H    1.014688   1.686678   2.014837   2.996262   2.411075
    12  O    3.720133   4.064359   2.367138   2.180533   2.836079
    13  H    4.441304   4.644871   3.196221   2.805383   3.774284
                    6          7          8          9         10
     6  C    0.000000
     7  H    2.747474   0.000000
     8  H    2.694985   1.784589   0.000000
     9  H    3.436815   1.779852   1.766437   0.000000
    10  O    1.264118   3.548648   3.881157   4.483936   0.000000
    11  H    3.330980   2.633461   3.461732   2.246792   3.874899
    12  O    1.387973   3.262619   2.476656   3.806579   2.323690
    13  H    1.937979   4.077904   3.402225   4.772211   2.384262
                   11         12         13
    11  H    0.000000
    12  O    4.378011   0.000000
    13  H    5.195311   0.979010   0.000000
 Stoichiometry    C3H7NO2
 Framework group  C1[X(C3H7NO2)]
 Deg. of freedom    33
 Full point group                 C1      NOp   1
 Largest Abelian subgroup         C1      NOp   1
 Largest concise Abelian subgroup C1      NOp   1
                         Standard orientation:                         
 ---------------------------------------------------------------------
 Center     Atomic      Atomic             Coordinates (Angstroms)
 Number     Number       Type             X           Y           Z
 ---------------------------------------------------------------------
      1          7           0       -1.593551   -1.025756   -0.262869
      2          1           0       -1.419842   -1.731996    0.442874
      3          6           0       -0.621582    0.035406   -0.287209
      4          1           0        0.198521   -0.307039   -1.404048
      5          6           0       -1.183030    1.309449    0.335695
      6          6           0        0.772515   -0.175552   -0.005385
      7          1           0       -1.249904    1.049410    1.393867
      8          1           0       -0.527358    2.175142    0.212591
      9          1           0       -2.176526    1.589216   -0.026645
     10          8           0        1.250298   -1.269257    0.411180
     11          1           0       -2.522822   -0.624622   -0.191193
     12          8           0        1.567084    0.936275   -0.248222
     13          1           0        2.506309    0.678212   -0.149628
 ---------------------------------------------------------------------
 Rotational constants (GHZ):      5.1053476      3.1428453      2.1282726
 Standard basis: 6-31G (6D, 7F)
 There are    68 symmetry adapted cartesian basis functions of A   symmetry.
 There are    68 symmetry adapted basis functions of A   symmetry.
    68 basis functions,   160 primitive gaussians,    68 cartesian basis functions
    24 alpha electrons       24 beta electrons
       nuclear repulsion energy       247.6388594770 Hartrees.
 NAtoms=   13 NActive=   13 NUniq=   13 SFac= 1.00D+00 NAtFMM=   60 NAOKFM=F Big=F
 Integral buffers will be    131072 words long.
 Raffenetti 2 integral format.
 Two-electron integral symmetry is turned on.
 One-electron integrals computed using PRISM.
 NBasis=    68 RedAO= T EigKep=  5.32D-03  NBF=    68
[...]
    A3        2.15332   0.00000   0.00000  -0.00002  -0.00002   2.15329
    A4        2.13723   0.00000   0.00000  -0.00001  -0.00001   2.13722
    A5        1.98284   0.00000   0.00000   0.00003   0.00003   1.98286
    A6        2.16258   0.00000   0.00000  -0.00001  -0.00001   2.16257
    A7        1.92654   0.00000   0.00000  -0.00002  -0.00002   1.92652
    A8        1.96328   0.00000   0.00000  -0.00002  -0.00002   1.96326
    A9        1.89460   0.00000   0.00000   0.00002   0.00002   1.89462
   A10        1.91121   0.00000   0.00000   0.00000   0.00000   1.91121
   A11        1.88056   0.00000   0.00000   0.00001   0.00001   1.88057
   A12        1.88530   0.00000   0.00000   0.00000   0.00000   1.88530
   A13        1.24465   0.00000   0.00000  -0.00004  -0.00004   1.24461
   A14        2.12474   0.00000   0.00000   0.00001   0.00001   2.12476
   A15        1.95680   0.00000   0.00000   0.00000   0.00000   1.95680
   A16        2.00784   0.00000   0.00000   0.00003   0.00003   2.00787
   A17        1.80578   0.00000   0.00000  -0.00004  -0.00004   1.80574
   A18        2.10764   0.00000   0.00000   0.00001   0.00001   2.10765
   A19        1.85441   0.00000   0.00000  -0.00001  -0.00001   1.85439
    D1       -2.95516   0.00000   0.00000   0.00003   0.00003  -2.95513
    D2        0.15231   0.00000   0.00000   0.00010   0.00010   0.15240
    D3        0.35508   0.00000   0.00000  -0.00013  -0.00013   0.35495
    D4       -2.82063   0.00000   0.00000  -0.00006  -0.00006  -2.82070
    D5       -2.85782   0.00000   0.00000  -0.00008  -0.00008  -2.85791
    D6       -0.71742   0.00000   0.00000  -0.00010  -0.00010  -0.71753
    D7        1.36786   0.00000   0.00000  -0.00010  -0.00010   1.36776
    D8        0.32144   0.00000   0.00000  -0.00016  -0.00016   0.32129
    D9        2.46185   0.00000   0.00000  -0.00018  -0.00018   2.46167
   D10       -1.73606   0.00000   0.00000  -0.00017  -0.00017  -1.73623
   D11        1.76345   0.00000   0.00000  -0.00002  -0.00002   1.76343
   D12       -0.12905   0.00000   0.00000  -0.00002  -0.00002  -0.12907
   D13       -2.82073   0.00000   0.00000  -0.00008  -0.00008  -2.82081
   D14       -1.41284   0.00000   0.00000   0.00005   0.00005  -1.41279
   D15        2.97785   0.00000   0.00000   0.00004   0.00004   2.97790
   D16        0.28617   0.00000   0.00000  -0.00001  -0.00001   0.28615
   D17        3.04030   0.00000   0.00000  -0.00013  -0.00013   3.04018
   D18       -1.93337   0.00000   0.00000  -0.00019  -0.00019  -1.93356
   D19        0.34364   0.00000   0.00000  -0.00018  -0.00018   0.34345
         Item               Value     Threshold  Converged?
 Maximum Force            0.000013     0.000450     YES
 RMS     Force            0.000003     0.000300     YES
 Maximum Displacement     0.000247     0.001800     YES
 RMS     Displacement     0.000082     0.001200     YES
 Predicted change in Energy=-1.345158D-09
 Optimization completed.
    -- Stationary point found.
                           ----------------------------
                           !   Optimized Parameters   !
                           ! (Angstroms and Degrees)  !
 --------------------------                            --------------------------
 ! Name  Definition              Value          Derivative Info.                !
 --------------------------------------------------------------------------------
 ! R1    R(1,2)                  1.0182         -DE/DX =    0.0                 !
 ! R2    R(1,3)                  1.3389         -DE/DX =    0.0                 !
 ! R3    R(1,11)                 1.0074         -DE/DX =    0.0                 !
 ! R4    R(3,5)                  1.4939         -DE/DX =    0.0                 !
 ! R5    R(3,6)                  1.4699         -DE/DX =    0.0                 !
 ! R6    R(4,6)                  1.3209         -DE/DX =    0.0                 !
 ! R7    R(5,7)                  1.0897         -DE/DX =    0.0                 !
 ! R8    R(5,8)                  1.0963         -DE/DX =    0.0                 !
 ! R9    R(5,9)                  1.0983         -DE/DX =    0.0                 !
 ! R10   R(6,10)                 1.2841         -DE/DX =    0.0                 !
 ! R11   R(6,12)                 1.4308         -DE/DX =    0.0                 !
 ! R12   R(12,13)                0.9786         -DE/DX =    0.0                 !
 ! A1    A(2,1,3)              115.3375         -DE/DX =    0.0                 !
 ! A2    A(2,1,11)             120.5713         -DE/DX =    0.0                 !
 ! A3    A(3,1,11)             123.3759         -DE/DX =    0.0                 !
 ! A4    A(1,3,5)              122.4542         -DE/DX =    0.0                 !
 ! A5    A(1,3,6)              113.6081         -DE/DX =    0.0                 !
 ! A6    A(5,3,6)              123.9066         -DE/DX =    0.0                 !
 ! A7    A(3,5,7)              110.3826         -DE/DX =    0.0                 !
 ! A8    A(3,5,8)              112.4877         -DE/DX =    0.0                 !
 ! A9    A(3,5,9)              108.5524         -DE/DX =    0.0                 !
 ! A10   A(7,5,8)              109.5044         -DE/DX =    0.0                 !
 ! A11   A(7,5,9)              107.7482         -DE/DX =    0.0                 !
 ! A12   A(8,5,9)              108.0196         -DE/DX =    0.0                 !
 ! A13   A(3,6,4)               71.3131         -DE/DX =    0.0                 !
 ! A14   A(3,6,10)             121.7388         -DE/DX =    0.0                 !
 ! A15   A(3,6,12)             112.1164         -DE/DX =    0.0                 !
 ! A16   A(4,6,10)             115.0408         -DE/DX =    0.0                 !
 ! A17   A(4,6,12)             103.4638         -DE/DX =    0.0                 !
 ! A18   A(10,6,12)            120.7588         -DE/DX =    0.0                 !
 ! A19   A(6,12,13)            106.2496         -DE/DX =    0.0                 !
 ! D1    D(2,1,3,5)           -169.3184         -DE/DX =    0.0                 !
 ! D2    D(2,1,3,6)              8.7266         -DE/DX =    0.0                 !
 ! D3    D(11,1,3,5)            20.3446         -DE/DX =    0.0                 !
 ! D4    D(11,1,3,6)          -161.6105         -DE/DX =    0.0                 !
 ! D5    D(1,3,5,7)           -163.7412         -DE/DX =    0.0                 !
 ! D6    D(1,3,5,8)            -41.1052         -DE/DX =    0.0                 !
 ! D7    D(1,3,5,9)             78.3725         -DE/DX =    0.0                 !
 ! D8    D(6,3,5,7)             18.4174         -DE/DX =    0.0                 !
 ! D9    D(6,3,5,8)            141.0534         -DE/DX =    0.0                 !
 ! D10   D(6,3,5,9)            -99.4689         -DE/DX =    0.0                 !
 ! D11   D(1,3,6,4)            101.0381         -DE/DX =    0.0                 !
 ! D12   D(1,3,6,10)            -7.3938         -DE/DX =    0.0                 !
 ! D13   D(1,3,6,12)          -161.6161         -DE/DX =    0.0                 !
 ! D14   D(5,3,6,4)            -80.9497         -DE/DX =    0.0                 !
 ! D15   D(5,3,6,10)           170.6184         -DE/DX =    0.0                 !
 ! D16   D(5,3,6,12)            16.3961         -DE/DX =    0.0                 !
 ! D17   D(3,6,12,13)          174.1966         -DE/DX =    0.0                 !
 ! D18   D(4,6,12,13)         -110.7739         -DE/DX =    0.0                 !
 ! D19   D(10,6,12,13)          19.689          -DE/DX =    0.0                 !
 --------------------------------------------------------------------------------
 GradGradGradGradGradGradGradGradGradGradGradGradGradGradGradGradGradGrad


 Test job not archived.
 1\1\GINC-KALI\Freq\RB3LYP\6-31G\C3H7N1O2\ROOT\10-Apr-2016\0\\#N Geom=A
 llCheck Guess=TCheck SCRF=Check Test GenChk RB3LYP/6-31G Freq\\Ala-S-o
 pt-freq-tsb1-6-31g\\0,1\N,-1.5046576318,-1.1000767415,-0.124444133\H,-
 1.0566027028,-2.0138627451,-0.0932450533\C,-0.6891945079,-0.0552871651
 ,0.065569898\H,0.4418632843,0.0925147651,-1.1006705945\C,-1.2004155522
 ,1.3313290326,0.2841850596\C,0.7356386757,-0.4160743586,0.0824845515\H
 ,-0.4031741381,2.0582540749,0.1313023026\H,-2.0470713054,1.5738868961,
 -0.3686733638\H,-1.538332753,1.4190664116,1.325543511\O,1.122691546,-1
 .640385172,0.0669117419\H,-2.461547562,-1.0086181135,-0.4259994564\O,1
 .541004034,0.598311028,0.6904845879\H,2.4477655431,0.2339481476,0.7416
 804684\\Version=ES64L-G09RevD.01\State=1-A\HF=-323.5570892\RMSD=3.048e
 -09\RMSF=4.942e-06\ZeroPoint=0.1026957\Thermal=0.1091889\Dipole=-1.660
 7985,0.6772293,-0.2442042\DipoleDeriv=-0.7991665,-0.2675492,0.2151159,
 -0.6464835,-0.604627,0.0784872,0.1117272,-0.1065523,-0.5992424,0.21958
 53,0.0645777,0.0016438,0.0144319,0.2439918,-0.0317335,0.0004473,-0.025
 0377,0.3316579,0.9325351,0.3175614,-0.3571945,0.7801391,0.5197437,0.02
 07777,-0.7482511,0.1838918,0.159728,-0.6238534,0.0518766,-0.0456219,0.
 0708788,-0.1541251,0.1555701,0.0208324,0.1606837,-0.3693198,0.0451168,
 0.0199616,0.0673849,-0.0767752,-0.0823592,-0.0391927,0.1619738,-0.1002
 853,0.0756606,1.1289253,-0.234745,0.5570422,-0.2818401,1.3310789,-0.01
 18012,1.286984,-0.0414324,0.6981754,0.0452657,-0.0767968,0.0198002,-0.
 0309063,0.0590272,-0.0091672,0.0238121,0.0411846,0.0993924,-0.0752289,
 0.0728571,-0.0886945,0.0346529,0.0259292,-0.0280014,-0.1261485,0.03717
 14,0.0176293,0.0502932,0.0473596,0.0532535,0.0546825,0.046076,-0.00097
 26,0.0709669,-0.014908,-0.0507844,-0.721107,0.1893129,-0.1141978,0.383
 6856,-1.1733719,0.061691,-0.2552342,0.0021828,-0.4784414,0.2294552,0.0
 357102,-0.065426,0.0248284,0.205516,0.0232146,-0.1443963,0.0121247,0.3
 843244,-0.6790379,-0.2954004,-0.239088,-0.4929952,-0.6647453,-0.190112
 8,-0.4407104,-0.1030813,-0.6423057,0.2472173,0.0752742,-0.0040177,0.16
 5701,0.2478658,-0.0287592,0.0379969,-0.0459421,0.3735257\Polar=63.6660
 03,-1.6003836,50.5411377,1.0062151,1.353169,32.9176745\PG=C01 [X(C3H7N
 1O2)]\NImag=1\\0.85120800,-0.00979434,0.77535416,0.18833381,0.03127123
 ,0.12946430,-0.13919538,0.13523421,-0.01735585,0.12286107,0.13635982,-
 0.35211151,0.00736777,-0.13634103,0.38709487,-0.01688756,-0.00082765,-
 0.02720643,0.01527421,-0.00438972,0.02488929,-0.23604190,-0.11778954,-
 0.05348946,0.02267085,0.00311697,0.00919568,0.60858277,-0.13597092,-0.
 30896150,-0.04608719,-0.01751168,-0.03813246,-0.00478501,0.03146706,0.
 71587171,-0.04898149,-0.06750054,-0.06799663,-0.00577878,-0.00037302,0
 .00741992,0.12294638,0.10626952,0.15978478,-0.02060851,-0.02891519,0.0
 0809003,-0.00693188,0.00272357,0.00108725,0.03464283,0.01555805,-0.034
 07120,0.01294442,-0.00291719,-0.00098723,0.00402528,0.00070344,-0.0008
 4148,0.00184856,-0.01485683,-0.00674841,0.02092996,0.01342275,0.046475
 26,-0.00052960,0.00073911,0.01376710,0.00010065,0.00072864,-0.00461878
 ,0.01570243,0.00519739,-0.05818644,-0.01247053,-0.00525562,0.08690607,
 0.01234401,-0.02784278,-0.00603501,-0.00336203,-0.00325025,-0.00286599
 ,-0.11214625,0.04800780,0.01066247,-0.00185896,0.00301119,-0.00017361,
 0.58540202,0.01161822,-0.03143175,-0.00465546,-0.00234650,0.00037025,-
 0.00222332,0.03723845,-0.20780641,-0.01676418,0.00383608,-0.00177863,-
 0.00006853,0.03948535,0.52226158,-0.00025865,-0.00582960,0.00360117,-0
 .00133817,0.00097595,0.00466103,-0.01217761,-0.01409911,-0.06434616,0.
 01305065,-0.01247752,0.00231347,0.01112235,-0.01999266,0.53914734,-0.0
 4254664,-0.00523906,-0.00033722,0.00294323,0.00002584,-0.00268910,-0.2
 3742330,0.03180418,-0.02074929,-0.01543043,-0.00472605,0.01701759,-0.0
 0357157,0.00673518,0.00888117,0.60258712,-0.04560446,-0.01525434,-0.00
 444878,-0.02216219,-0.00071481,-0.00007688,0.08049840,-0.08028592,-0.0
 3232082,-0.02825175,-0.00518424,-0.01114336,0.02632538,-0.00207050,0.0
 0776190,-0.09300487,0.63289536,0.02041602,0.04477036,-0.00586460,0.010
 61079,-0.00507653,0.00052472,-0.10371179,-0.04305428,0.04753373,0.0797
 0208,-0.01987898,-0.03612630,0.00543572,-0.00370650,-0.01723090,0.0471
 0066,0.09542800,0.13808910,-0.00146972,0.00292139,0.00047890,0.0004168
 9,0.00061441,0.00032384,0.01157831,0.00997611,-0.00301379,-0.00067253,
 0.00058578,-0.00004032,-0.20156700,-0.13956622,0.02921160,0.00087259,0
 .00049006,0.00211024,0.21639949,0.00466209,-0.00473487,-0.00025919,-0.
 00108792,-0.00062235,-0.00108873,-0.02741629,-0.02379152,0.00594152,0.
 00086113,0.00044139,-0.00143992,-0.13185662,-0.17218690,0.02654763,-0.
 00172317,-0.00165990,-0.00093093,0.14744024,0.19108491,0.00111113,-0.0
 0093119,0.00176986,-0.00016841,-0.00045966,0.00026348,-0.00506733,-0.0
 0721258,-0.00228421,-0.00036260,0.00034809,-0.00067950,0.02809820,0.02
 859548,-0.05312094,0.00127999,0.00018033,0.00199949,-0.03317844,-0.027
 66517,0.05516167,0.00170373,-0.00096076,0.00111158,-0.00043584,0.00022
 486,0.00020391,-0.01324673,0.00361889,-0.00365062,0.00135647,-0.001096
 60,0.00054583,-0.20154899,0.03893253,-0.12020615,0.00222022,0.00137295
 ,-0.00366153,-0.01683405,0.00696981,-0.01544993,0.22034503,-0.00006247
 ,0.00326803,-0.00028865,0.00048104,0.00012564,-0.00035996,0.03368363,-
 0.01084294,0.01801719,-0.00121258,0.00083539,-0.00098949,0.03882689,-0
 .06215749,0.03306000,-0.00523406,-0.00459589,0.00193340,-0.01645485,0.
 00606501,-0.01481960,-0.04872594,0.06757236,0.00094532,0.00115744,0.00
 017474,0.00003926,0.00012361,-0.00001769,0.00769614,-0.00447910,0.0040
 8501,-0.00052719,0.00034867,0.00073161,-0.12184216,0.03384843,-0.14264
 464,0.00096103,-0.00248438,0.00091051,0.00519348,-0.00120077,0.0029058
 8,0.13370046,-0.03497224,0.15331389,0.00004384,-0.00107585,-0.00012832
 ,-0.00020390,0.00007886,-0.00005094,-0.00454270,0.00214642,0.01146128,
 -0.00094345,0.00193595,-0.00090631,-0.06994610,0.00539669,0.07508612,0
 .00021065,0.00077688,0.00386586,-0.00663392,0.00247480,0.02398014,0.00
 759293,-0.00188006,-0.02630192,0.07442179,-0.00047003,0.00011855,0.002
 23699,-0.00006745,0.00008876,0.00088255,0.01031999,-0.00724446,-0.0321
 0107,0.00146514,-0.00142591,0.00031021,0.00568260,-0.04762470,-0.01796
 674,0.00096380,-0.00067923,-0.00399258,-0.00616275,0.00227602,0.022149
 57,-0.00261744,0.00068772,0.00650910,-0.00944275,0.05373174,-0.0001447
 5,0.00092510,0.00119995,0.00015374,-0.00020707,0.00004762,0.00374697,-
 0.00322852,-0.00405051,-0.00049429,-0.00027214,0.00054316,0.07393525,-
 0.01565569,-0.27906603,-0.00057531,-0.00030641,-0.00090241,0.00002557,
 -0.00099248,-0.00469053,0.00711911,-0.00081945,-0.01939981,-0.08432638
 ,0.02065431,0.30651750,-0.00209339,0.00827524,0.00043533,0.00601002,0.
 00186072,0.00039666,-0.02350712,0.04183164,-0.00163449,0.00070020,0.01
 015951,-0.00677915,-0.00429338,-0.00151095,-0.00345262,-0.13517835,0.1
 0913824,-0.00563564,0.00006285,-0.00004918,-0.00041568,-0.00065259,0.0
 0227064,0.00047438,-0.00039705,0.00008293,0.00018993,0.13449014,0.0009
 2274,0.01542260,-0.00203979,0.01350649,-0.00217009,0.00042021,-0.00048
 187,-0.04077079,0.01724594,0.03152157,-0.03344760,0.02415923,0.0008895
 3,0.00196389,-0.00015660,0.11202319,-0.40452226,-0.04521775,-0.0001314
 2,0.00106489,0.00030359,0.00069783,-0.00127263,0.00050409,0.00063601,-
 0.00022108,-0.00024384,-0.15300111,0.51904651,-0.00665738,-0.00700473,
 0.00103103,-0.00139452,0.00124439,-0.00465796,0.01271082,0.00479325,-0
 .00248424,-0.01885193,0.02018836,0.00745993,-0.00026797,-0.00069269,0.
 00695416,-0.00342990,-0.00438262,-0.07249082,-0.00046207,0.00022466,-0
 .00041984,0.00057437,-0.00068871,-0.00033979,-0.00121972,0.00172129,0.
 00008964,0.01319456,0.01224914,0.05565311,-0.41700117,0.04028447,-0.12
 051012,-0.00516561,-0.00602530,-0.00305493,-0.02032828,0.00216607,-0.0
 0110399,0.00400826,0.00019861,-0.00019791,0.00127631,0.00039581,0.0014
 6098,-0.00017190,0.00119492,-0.00917441,-0.00001467,0.00020672,0.00014
 161,0.00025644,-0.00103522,-0.00041806,0.00009279,0.00020831,0.0000102
 7,-0.00028125,-0.00270548,0.00115190,0.43811122,0.04217907,-0.08132249
 ,0.01218567,0.02636097,0.00710492,0.01034642,-0.03560486,0.00692273,-0
 .00964744,0.00013326,0.00019185,0.00024130,-0.00034264,0.00244932,-0.0
 0067300,0.00145023,-0.00764901,-0.00209557,0.00022853,0.00018555,0.000
 35634,0.00086009,-0.00085638,0.00081105,-0.00011068,-0.00023416,-0.000
 01375,0.00235804,0.00261217,-0.00017609,-0.03539278,0.07026365,-0.1311
 0986,0.01103731,-0.05349744,0.00106848,-0.00104403,-0.00125965,-0.0083
 4830,0.00454107,-0.00391752,-0.00202464,-0.00057839,0.00374175,0.00215
 127,0.00101059,-0.00244819,0.00630044,-0.00380132,0.00615713,-0.000017
 97,0.00056402,-0.00013513,-0.00051973,-0.00003612,0.00021707,-0.000233
 22,-0.00111701,-0.00060471,0.00175880,0.00231557,-0.00042479,0.1303873
 0,-0.01147799,0.05268104,-0.00711576,0.00276039,0.00019889,0.00061176,
 0.00074342,-0.00077992,-0.02731729,-0.02829697,-0.02649493,-0.00979662
 ,-0.00616137,-0.01365498,-0.00128024,0.00012006,-0.00110740,-0.1371046
 1,-0.04543961,-0.04111842,-0.00217531,-0.00050770,-0.00008273,-0.00086
 634,-0.00057338,0.00002137,0.00020023,0.00017133,0.00045431,0.01920614
 ,-0.00533125,0.00147600,-0.00060261,-0.00172397,0.00032076,0.56480302,
 0.00043391,0.00012806,0.00089436,0.00388437,-0.00035642,0.00040423,0.0
 0196615,0.00840807,-0.00784966,-0.01195063,0.00317399,-0.01282323,0.00
 061343,-0.00148210,0.00261492,0.00040419,-0.12246497,-0.00828775,0.000
 16867,0.00115200,-0.00054089,0.00040758,0.00100979,-0.00014391,-0.0008
 9345,0.00055425,0.00019339,-0.02708071,-0.05720284,-0.03050755,0.00082
 700,0.00074492,-0.00139301,-0.09602791,0.26301419,-0.00606877,-0.00824
 500,0.00277436,-0.00115599,0.00104087,0.00023429,0.01011453,0.00401932
 ,-0.01492218,-0.03189176,-0.00824206,-0.01591880,0.00001875,0.00034926
 ,0.00250630,-0.02942793,-0.04915246,-0.05954874,-0.00079891,0.00022055
 ,-0.00074950,0.00024899,0.00001528,0.00002234,-0.00127230,0.00063601,0
 .00040176,-0.00149537,-0.01104540,0.01159327,0.00141793,0.00023917,-0.
 00130051,0.09630002,0.06737473,0.08808839,0.00077289,0.00214182,-0.000
 79257,-0.00021918,-0.00013190,-0.00015312,-0.00292118,-0.00479666,0.00
 040846,0.00259020,-0.00025920,0.00138590,0.00055217,-0.00033471,-0.000
 27225,-0.03740699,0.01466604,-0.00593955,0.00003707,0.00002608,0.00011
 405,0.00010971,-0.00008367,0.00005789,0.00010487,-0.00013368,-0.000094
 42,0.00593377,0.00145378,0.00317585,-0.00017952,-0.00039525,0.00026667
 ,-0.39856238,0.12724739,-0.03598920,0.42918856,-0.00135645,0.00051226,
 -0.00020226,-0.00065375,0.00016467,-0.00015069,-0.00214127,-0.00661810
 ,-0.00184738,0.00080860,-0.00070437,0.00034426,0.00045011,-0.00050658,
 0.00023483,-0.04347940,0.01218571,-0.00989089,-0.00010994,0.00072575,-
 0.00030430,0.00031619,0.00016139,-0.00002200,-0.00004283,-0.00002752,-
 0.00003346,0.00566499,-0.00050279,0.00303131,-0.00032314,-0.00041306,-
 0.00002069,0.18026695,-0.09667895,0.00278974,-0.13940004,0.09170158,-0
 .00016820,0.00043817,0.00078260,-0.00005542,0.00006879,-0.00027983,0.0
 0068155,-0.00187476,-0.00063555,-0.00123586,-0.00098421,0.00006674,-0.
 00023928,-0.00004473,-0.00032663,-0.02433213,0.00474680,-0.00305091,0.
 00016788,0.00007882,-0.00002073,-0.00001629,-0.00005165,0.00004087,0.0
 0004570,0.00007736,-0.00008564,0.00296327,0.00150561,-0.00196371,-0.00
 011057,-0.00009612,0.00079093,-0.01553297,-0.00993562,-0.01318097,0.03
 783231,0.00607153,0.01786283\\0.00000144,0.00000388,0.00000571,0.00000
 373,-0.00000267,-0.00000478,0.00000655,0.00000343,-0.00001070,-0.00000
 124,0.00000054,0.00000238,-0.00000180,-0.00000038,-0.00000052,0.000000
 50,0.00001565,0.00000922,-0.00000272,0.00000008,0.00000176,-0.00000013
 ,0.00000022,-0.00000037,-0.00000231,-0.00000241,-0.00000007,0.00000637
 ,-0.00000825,0.00000148,-0.00000117,-0.00000249,-0.00000662,-0.0000085
 6,-0.00000904,-0.00000010,-0.00000065,0.00000144,0.00000261\\\@


 TOWERING GENIUS DISDAINS A BEATEN PATH.  IT SEEKS 
 REGIONS HITHERTO UNEXPLORED.

                                -- ABRAHAM LINCOLN
 Job cpu time:       0 days  0 hours  0 minutes 58.9 seconds.
 File lengths (MBytes):  RWF=     12 Int=      0 D2E=      0 Chk=      2 Scr=      1
 Normal termination of Gaussian 09 at Sun Apr 10 14:05:14 2016.
