 Entering Gaussian System, Link 0=g09
 Input=Ala-S-opt-freq-tsa3-6-31g.com
 Output=Ala-S-opt-freq-tsa3-6-31g.log
 Initial command:
 /usr/local/gau/g09/l1.exe "/tmp/Gau-2031.inp" -scrdir="/tmp/"
 Entering Link 1 = /usr/local/gau/g09/l1.exe PID=      2033.
  
 Copyright (c) 1988,1990,1992,1993,1995,1998,2003,2009,2013,
            Gaussian, Inc.  All Rights Reserved.
  
 This is part of the Gaussian(R) 09 program.  It is based on
 the Gaussian(R) 03 system (copyright 2003, Gaussian, Inc.),
 the Gaussian(R) 98 system (copyright 1998, Gaussian, Inc.),
 the Gaussian(R) 94 system (copyright 1995, Gaussian, Inc.),
 the Gaussian 92(TM) system (copyright 1992, Gaussian, Inc.),
 the Gaussian 90(TM) system (copyright 1990, Gaussian, Inc.),
 the Gaussian 88(TM) system (copyright 1988, Gaussian, Inc.),
 the Gaussian 86(TM) system (copyright 1986, Carnegie Mellon
 University), and the Gaussian 82(TM) system (copyright 1983,
 Carnegie Mellon University). Gaussian is a federally registered
 trademark of Gaussian, Inc.
  
 This software contains proprietary and confidential information,
 including trade secrets, belonging to Gaussian, Inc.
  
 This software is provided under written license and may be
 used, copied, transmitted, or stored only in accord with that
 written license.
  
 The following legend is applicable only to US Government
 contracts under FAR:
  
                    RESTRICTED RIGHTS LEGEND
  
 Use, reproduction and disclosure by the US Government is
 subject to restrictions as set forth in subparagraphs (a)
 and (c) of the Commercial Computer Software - Restricted
 Rights clause in FAR 52.227-19.
  
 Gaussian, Inc.
 340 Quinnipiac St., Bldg. 40, Wallingford CT 06492
  
  
 ---------------------------------------------------------------
 Warning -- This program may not be used in any manner that
 competes with the business of Gaussian, Inc. or will provide
 assistance to any competitor of Gaussian, Inc.  The licensee
 of this program is prohibited from giving any competitor of
 Gaussian, Inc. access to this program.  By using this program,
 the user acknowledges that Gaussian, Inc. is engaged in the
 business of creating and licensing software in the field of
 computational chemistry and represents and warrants to the
 licensee that it is not a competitor of Gaussian, Inc. and that
 it will not use this program in any manner prohibited above.
 ---------------------------------------------------------------
  

 Cite this work as:
 Gaussian 09, Revision D.01,
 M. J. Frisch, G. W. Trucks, H. B. Schlegel, G. E. Scuseria, 
 M. A. Robb, J. R. Cheeseman, G. Scalmani, V. Barone, B. Mennucci, 
 G. A. Petersson, H. Nakatsuji, M. Caricato, X. Li, H. P. Hratchian, 
 A. F. Izmaylov, J. Bloino, G. Zheng, J. L. Sonnenberg, M. Hada, 
 M. Ehara, K. Toyota, R. Fukuda, J. Hasegawa, M. Ishida, T. Nakajima, 
 Y. Honda, O. Kitao, H. Nakai, T. Vreven, J. A. Montgomery, Jr., 
 J. E. Peralta, F. Ogliaro, M. Bearpark, J. J. Heyd, E. Brothers, 
 K. N. Kudin, V. N. Staroverov, T. Keith, R. Kobayashi, J. Normand, 
 K. Raghavachari, A. Rendell, J. C. Burant, S. S. Iyengar, J. Tomasi, 
 M. Cossi, N. Rega, J. M. Millam, M. Klene, J. E. Knox, J. B. Cross, 
 V. Bakken, C. Adamo, J. Jaramillo, R. Gomperts, R. E. Stratmann, 
 O. Yazyev, A. J. Austin, R. Cammi, C. Pomelli, J. W. Ochterski, 
 R. L. Martin, K. Morokuma, V. G. Zakrzewski, G. A. Voth, 
 P. Salvador, J. J. Dannenberg, S. Dapprich, A. D. Daniels, 
 O. Farkas, J. B. Foresman, J. V. Ortiz, J. Cioslowski, 
 and D. J. Fox, Gaussian, Inc., Wallingford CT, 2013.
 
 ******************************************
 Gaussian 09:  ES64L-G09RevD.01 24-Apr-2013
                12-Apr-2016 
 ******************************************
 %chk=Ala-S-opt-freq-tsa3-6-31g.chk
 ------------------------------------------------
 #p opt=(calcfc,ts) freq rb3lyp/6-31g iop(1/11=1)
 ------------------------------------------------
 1/5=1,10=4,11=1,14=-1,18=20,26=3,38=1/1,3;
 2/9=110,12=2,17=6,18=5,40=1/2;
 3/5=1,6=6,11=2,16=1,25=1,30=1,71=2,74=-5,116=1,140=1/1,2,3;
 4//1;
 5/5=2,38=5/2;
 8/6=4,10=90,11=11/1;
 11/6=1,8=1,9=11,15=111,16=1/1,2,10;
 10/6=1,13=1/2;
 6/7=2,8=2,9=2,10=2,28=1/1;
 7/10=1,18=20,25=1/1,2,3,16;
 1/5=1,10=4,11=1,14=-1,18=20,26=3/3(2);
 2/9=110/2;
 99//99;
 2/9=110/2;
 3/5=1,6=6,11=2,16=1,25=1,30=1,71=1,74=-5,116=1/1,2,3;
 4/5=5,16=3,69=1/1;
 5/5=2,38=5/2;
 7//1,2,3,16;
 1/5=1,11=1,14=-1,18=20,26=3/3(-5);
 2/9=110/2;
 6/7=2,8=2,9=2,10=2,19=2,28=1/1;
 99/9=1/99;
 Leave Link    1 at Tue Apr 12 08:23:02 2016, MaxMem=           0 cpu:         0.0
 (Enter /usr/local/gau/g09/l101.exe)
 -------------------------
 Ala-S-opt-freq-tsa3-6-31g
 -------------------------
 Symbolic Z-matrix:
 Charge =  0 Multiplicity = 1
 N                     0.84227   1.72561   0.79917 
 H                     1.78266   1.92362   1.08812 
 C                     0.48965   0.44839   0.36858 
 H                    -1.41536  -1.13084  -1.41844 
 C                     1.53995  -0.61876   0.50285 
 C                    -0.73559   0.20135  -0.12896 
 H                     1.84762  -0.73016   1.55135 
 H                     1.15846  -1.57913   0.15493 
 H                     2.43767  -0.36428  -0.07815 
 O                    -1.65362   1.25335  -0.32663 
 H                     0.21056   2.49039   0.6353 
 O                    -1.20354  -1.07757  -0.46088 
 H                    -0.55566   1.18925   0.70917 
 
 Add virtual bond connecting atoms H13        and C3         Dist= 2.51D+00.
 Add virtual bond connecting atoms H13        and C6         Dist= 2.47D+00.
 NAtoms=     13 NQM=       13 NQMF=       0 NMMI=      0 NMMIF=      0
                NMic=       0 NMicF=      0.
                    Isotopes and Nuclear Properties:
 (Nuclear quadrupole moments (NQMom) in fm**2, nuclear magnetic moments (NMagM)
  in nuclear magnetons)

  Atom         1           2           3           4           5           6           7           8           9          10
 IAtWgt=          14           1          12           1          12          12           1           1           1          16
 AtmWgt=  14.0030740   1.0078250  12.0000000   1.0078250  12.0000000  12.0000000   1.0078250   1.0078250   1.0078250  15.9949146
 NucSpn=           2           1           0           1           0           0           1           1           1           0
 AtZEff=   0.0000000   0.0000000   0.0000000   0.0000000   0.0000000   0.0000000   0.0000000   0.0000000   0.0000000   0.0000000
 NQMom=    2.0440000   0.0000000   0.0000000   0.0000000   0.0000000   0.0000000   0.0000000   0.0000000   0.0000000   0.0000000
 NMagM=    0.4037610   2.7928460   0.0000000   2.7928460   0.0000000   0.0000000   2.7928460   2.7928460   2.7928460   0.0000000
 AtZNuc=   7.0000000   1.0000000   6.0000000   1.0000000   6.0000000   6.0000000   1.0000000   1.0000000   1.0000000   8.0000000

  Atom        11          12          13
 IAtWgt=           1          16           1
 AtmWgt=   1.0078250  15.9949146   1.0078250
 NucSpn=           1           0           1
 AtZEff=   0.0000000   0.0000000   0.0000000
 NQMom=    0.0000000   0.0000000   0.0000000
 NMagM=    2.7928460   0.0000000   2.7928460
 AtZNuc=   1.0000000   8.0000000   1.0000000
 Leave Link  101 at Tue Apr 12 08:23:03 2016, MaxMem=    33554432 cpu:         0.4
 (Enter /usr/local/gau/g09/l103.exe)

 GradGradGradGradGradGradGradGradGradGradGradGradGradGradGradGradGradGrad
 Berny optimization.
 Initialization pass.
                           ----------------------------
                           !    Initial Parameters    !
                           ! (Angstroms and Degrees)  !
 --------------------------                            --------------------------
 ! Name  Definition              Value          Derivative Info.                !
 --------------------------------------------------------------------------------
 ! R1    R(1,2)                  1.0035         calculate D2E/DX2 analytically  !
 ! R2    R(1,3)                  1.3932         calculate D2E/DX2 analytically  !
 ! R3    R(1,11)                 1.0054         calculate D2E/DX2 analytically  !
 ! R4    R(3,5)                  1.5033         calculate D2E/DX2 analytically  !
 ! R5    R(3,6)                  1.3453         calculate D2E/DX2 analytically  !
 ! R6    R(3,13)                 1.3257         calculate D2E/DX2 analytically  !
 ! R7    R(4,12)                 0.9822         calculate D2E/DX2 analytically  !
 ! R8    R(5,7)                  1.0984         calculate D2E/DX2 analytically  !
 ! R9    R(5,8)                  1.0904         calculate D2E/DX2 analytically  !
 ! R10   R(5,9)                  1.0992         calculate D2E/DX2 analytically  !
 ! R11   R(6,10)                 1.4102         calculate D2E/DX2 analytically  !
 ! R12   R(6,12)                 1.4017         calculate D2E/DX2 analytically  !
 ! R13   R(6,13)                 1.308          calculate D2E/DX2 analytically  !
 ! A1    A(2,1,3)              120.4689         calculate D2E/DX2 analytically  !
 ! A2    A(2,1,11)             119.0538         calculate D2E/DX2 analytically  !
 ! A3    A(3,1,11)             119.2059         calculate D2E/DX2 analytically  !
 ! A4    A(1,3,5)              116.508          calculate D2E/DX2 analytically  !
 ! A5    A(1,3,6)              120.8748         calculate D2E/DX2 analytically  !
 ! A6    A(1,3,13)              66.9122         calculate D2E/DX2 analytically  !
 ! A7    A(5,3,6)              122.6153         calculate D2E/DX2 analytically  !
 ! A8    A(5,3,13)             157.6119         calculate D2E/DX2 analytically  !
 ! A9    A(3,5,7)              110.6686         calculate D2E/DX2 analytically  !
 ! A10   A(3,5,8)              110.6273         calculate D2E/DX2 analytically  !
 ! A11   A(3,5,9)              111.0413         calculate D2E/DX2 analytically  !
 ! A12   A(7,5,8)              108.2564         calculate D2E/DX2 analytically  !
 ! A13   A(7,5,9)              107.4144         calculate D2E/DX2 analytically  !
 ! A14   A(8,5,9)              108.7238         calculate D2E/DX2 analytically  !
 ! A15   A(3,6,10)             120.5154         calculate D2E/DX2 analytically  !
 ! A16   A(3,6,12)             123.9986         calculate D2E/DX2 analytically  !
 ! A17   A(10,6,12)            115.4764         calculate D2E/DX2 analytically  !
 ! A18   A(10,6,13)             67.4133         calculate D2E/DX2 analytically  !
 ! A19   A(12,6,13)            152.4727         calculate D2E/DX2 analytically  !
 ! A20   A(4,12,6)             110.6311         calculate D2E/DX2 analytically  !
 ! D1    D(2,1,3,5)              6.2762         calculate D2E/DX2 analytically  !
 ! D2    D(2,1,3,6)           -174.2135         calculate D2E/DX2 analytically  !
 ! D3    D(2,1,3,13)           161.8646         calculate D2E/DX2 analytically  !
 ! D4    D(11,1,3,5)           173.2777         calculate D2E/DX2 analytically  !
 ! D5    D(11,1,3,6)            -7.2119         calculate D2E/DX2 analytically  !
 ! D6    D(11,1,3,13)          -31.1339         calculate D2E/DX2 analytically  !
 ! D7    D(1,3,5,7)             59.0596         calculate D2E/DX2 analytically  !
 ! D8    D(1,3,5,8)            179.0434         calculate D2E/DX2 analytically  !
 ! D9    D(1,3,5,9)            -60.1392         calculate D2E/DX2 analytically  !
 ! D10   D(6,3,5,7)           -120.4415         calculate D2E/DX2 analytically  !
 ! D11   D(6,3,5,8)             -0.4577         calculate D2E/DX2 analytically  !
 ! D12   D(6,3,5,9)            120.3597         calculate D2E/DX2 analytically  !
 ! D13   D(13,3,5,7)           -34.3954         calculate D2E/DX2 analytically  !
 ! D14   D(13,3,5,8)            85.5884         calculate D2E/DX2 analytically  !
 ! D15   D(13,3,5,9)          -153.5942         calculate D2E/DX2 analytically  !
 ! D16   D(1,3,6,10)             5.1914         calculate D2E/DX2 analytically  !
 ! D17   D(1,3,6,12)          -173.6291         calculate D2E/DX2 analytically  !
 ! D18   D(5,3,6,10)          -175.3288         calculate D2E/DX2 analytically  !
 ! D19   D(5,3,6,12)             5.8507         calculate D2E/DX2 analytically  !
 ! D20   D(3,6,12,4)          -118.4765         calculate D2E/DX2 analytically  !
 ! D21   D(10,6,12,4)           62.649          calculate D2E/DX2 analytically  !
 ! D22   D(13,6,12,4)          152.2868         calculate D2E/DX2 analytically  !
 --------------------------------------------------------------------------------
 Trust Radius=3.00D-01 FncErr=1.00D-07 GrdErr=1.00D-06
 Number of steps in this run=     65 maximum allowed number of steps=    100.
 Search for a saddle point of order  1.
 GradGradGradGradGradGradGradGradGradGradGradGradGradGradGradGradGradGrad

 Leave Link  103 at Tue Apr 12 08:23:03 2016, MaxMem=    33554432 cpu:         0.0
 (Enter /usr/local/gau/g09/l202.exe)
                          Input orientation:                          
 ---------------------------------------------------------------------
 Center     Atomic      Atomic             Coordinates (Angstroms)
 Number     Number       Type             X           Y           Z
 ---------------------------------------------------------------------
      1          7           0        0.842274    1.725605    0.799170
      2          1           0        1.782662    1.923623    1.088118
      3          6           0        0.489647    0.448387    0.368578
      4          1           0       -1.415360   -1.130839   -1.418436
      5          6           0        1.539951   -0.618762    0.502853
      6          6           0       -0.735590    0.201354   -0.128961
      7          1           0        1.847617   -0.730163    1.551348
      8          1           0        1.158458   -1.579134    0.154932
      9          1           0        2.437673   -0.364275   -0.078145
     10          8           0       -1.653617    1.253354   -0.326629
     11          1           0        0.210560    2.490394    0.635303
     12          8           0       -1.203540   -1.077571   -0.460880
     13          1           0       -0.555660    1.189246    0.709165
 ---------------------------------------------------------------------
                    Distance matrix (angstroms):
                    1          2          3          4          5
     1  N    0.000000
     2  H    1.003510   0.000000
     3  C    1.393212   2.089484   0.000000
     4  H    4.263093   5.083296   3.052283   0.000000
     5  C    2.463862   2.620145   1.503321   3.561944   0.000000
     6  C    2.382105   3.284674   1.345280   1.974733   2.499974
     7  H    2.758131   2.694695   2.152210   4.430257   1.098367
     8  H    3.381762   3.678284   2.145646   3.049753   1.090367
     9  H    2.771747   2.650224   2.157496   4.150887   1.099194
    10  O    2.778474   3.776081   2.392669   2.633094   3.793644
    11  H    1.005394   1.731409   2.078178   4.469317   3.384032
    12  O    3.692001   4.508210   2.425579   0.982151   2.943812
    13  H    1.500000   2.480053   1.325722   3.263214   2.775436
                    6          7          8          9         10
     6  C    0.000000
     7  H    3.219335   0.000000
     8  H    2.614986   1.773604   0.000000
     9  H    3.223681   1.771240   1.779493   0.000000
    10  O    1.410159   4.440695   4.020281   4.406487   0.000000
    11  H    2.592104   3.727074   4.205987   3.690282   2.435311
    12  O    1.401712   3.671418   2.491952   3.730108   2.377772
    13  H    1.307961   3.188909   3.302924   3.463139   1.510791
                   11         12         13
    11  H    0.000000
    12  O    3.991449   0.000000
    13  H    1.511798   2.631960   0.000000
 Stoichiometry    C3H7NO2
 Framework group  C1[X(C3H7NO2)]
 Deg. of freedom    33
 Full point group                 C1      NOp   1
 Largest Abelian subgroup         C1      NOp   1
 Largest concise Abelian subgroup C1      NOp   1
                         Standard orientation:                         
 ---------------------------------------------------------------------
 Center     Atomic      Atomic             Coordinates (Angstroms)
 Number     Number       Type             X           Y           Z
 ---------------------------------------------------------------------
      1          7           0        1.353064   -1.195080   -0.016633
      2          1           0        2.351641   -1.183361    0.082058
      3          6           0        0.627047   -0.006181    0.004798
      4          1           0       -2.078062    1.238604    0.675115
      5          6           0        1.425569    1.267197    0.033872
      6          6           0       -0.718090   -0.018345   -0.010543
      7          1           0        2.082586    1.332918   -0.843864
      8          1           0        0.765196    2.134840    0.031965
      9          1           0        2.064515    1.312045    0.927160
     10          8           0       -1.424002   -1.236986    0.061242
     11          1           0        0.864464   -2.069835    0.066376
     12          8           0       -1.511131    1.132282   -0.119810
     13          1           0       -0.047887   -1.018043   -0.522592
 ---------------------------------------------------------------------
 Rotational constants (GHZ):      4.8927952      3.3237265      2.0206108
 Leave Link  202 at Tue Apr 12 08:23:03 2016, MaxMem=    33554432 cpu:         0.0
 (Enter /usr/local/gau/g09/l301.exe)
 Standard basis: 6-31G (6D, 7F)
 Ernie: Thresh=  0.10000D-02 Tol=  0.10000D-05 Strict=F.
 There are    68 symmetry adapted cartesian basis functions of A   symmetry.
 There are    68 symmetry adapted basis functions of A   symmetry.
    68 basis functions,   160 primitive gaussians,    68 cartesian basis functions
    24 alpha electrons       24 beta electrons
       nuclear repulsion energy       248.0649059529 Hartrees.
 IExCor=  402 DFT=T Ex+Corr=B3LYP ExCW=0 ScaHFX=  0.200000
 ScaDFX=  0.800000  0.720000  1.000000  0.810000 ScalE2=  1.000000  1.000000
 IRadAn=      0 IRanWt=     -1 IRanGd=            0 ICorTp=0 IEmpDi=  4
 NAtoms=   13 NActive=   13 NUniq=   13 SFac= 1.00D+00 NAtFMM=   60 NAOKFM=F Big=F
 Integral buffers will be    131072 words long.
 Raffenetti 2 integral format.
 Two-electron integral symmetry is turned on.
 Leave Link  301 at Tue Apr 12 08:23:03 2016, MaxMem=    33554432 cpu:         0.0
 (Enter /usr/local/gau/g09/l302.exe)
 NPDir=0 NMtPBC=     1 NCelOv=     1 NCel=       1 NClECP=     1 NCelD=      1
         NCelK=      1 NCelE2=     1 NClLst=     1 CellRange=     0.0.
 One-electron integrals computed using PRISM.
 NBasis=    68 RedAO= T EigKep=  2.78D-03  NBF=    68
 NBsUse=    68 1.00D-06 EigRej= -1.00D+00 NBFU=    68
 Precomputing XC quadrature grid using
 IXCGrd= 4 IRadAn=           0 IRanWt=          -1 IRanGd=           0 AccXCQ= 0.00D+00.
 Generated NRdTot=       0 NPtTot=           0 NUsed=           0 NTot=          32
 NSgBfM=    68    68    68    68    68 MxSgAt=    13 MxSgA2=    13.
 Leave Link  302 at Tue Apr 12 08:23:03 2016, MaxMem=    33554432 cpu:         0.2
 (Enter /usr/local/gau/g09/l303.exe)
 DipDrv:  MaxL=1.
 Leave Link  303 at Tue Apr 12 08:23:03 2016, MaxMem=    33554432 cpu:         0.0
 (Enter /usr/local/gau/g09/l401.exe)
 ExpMin= 1.61D-01 ExpMax= 5.48D+03 ExpMxC= 8.25D+02 IAcc=1 IRadAn=         1 AccDes= 0.00D+00
 Harris functional with IExCor=  402 and IRadAn=       1 diagonalized for initial guess.
 HarFok:  IExCor=  402 AccDes= 0.00D+00 IRadAn=         1 IDoV= 1 UseB2=F ITyADJ=14
 ICtDFT=  3500011 ScaDFX=  1.000000  1.000000  1.000000  1.000000
 FoFCou: FMM=F IPFlag=           0 FMFlag=      100000 FMFlg1=           0
         NFxFlg=           0 DoJE=T BraDBF=F KetDBF=T FulRan=T
         wScrn=  0.000000 ICntrl=     500 IOpCl=  0 I1Cent=   200000004 NGrid=           0
         NMat0=    1 NMatS0=      1 NMatT0=    0 NMatD0=    1 NMtDS0=    0 NMtDT0=    0
 Petite list used in FoFCou.
 Harris En= -323.484555757016    
 JPrj=0 DoOrth=F DoCkMO=F.
 Leave Link  401 at Tue Apr 12 08:23:04 2016, MaxMem=    33554432 cpu:         0.4
 (Enter /usr/local/gau/g09/l502.exe)
 Closed shell SCF:
 Using DIIS extrapolation, IDIIS=  1040.
 Integral symmetry usage will be decided dynamically.
 Keep R1 ints in memory in canonical form, NReq=3676491.
 IVT=       33364 IEndB=       33364 NGot=    33554432 MDV=    30768038
 LenX=    30768038 LenY=    30762973
 Requested convergence on RMS density matrix=1.00D-08 within 128 cycles.
 Requested convergence on MAX density matrix=1.00D-06.
 Requested convergence on             energy=1.00D-06.
 No special actions if energy rises.
 FoFCou: FMM=F IPFlag=           0 FMFlag=           0 FMFlg1=           0
         NFxFlg=           0 DoJE=F BraDBF=F KetDBF=F FulRan=T
         wScrn=  0.000000 ICntrl=     600 IOpCl=  0 I1Cent=           0 NGrid=           0
         NMat0=    1 NMatS0=   2346 NMatT0=    0 NMatD0=    1 NMtDS0=    0 NMtDT0=    0
 Symmetry not used in FoFCou.
 Integral accuracy reduced to 1.0D-05 until final iterations.

 Cycle   1  Pass 0  IDiag  1:
 E= -323.216977874066    
 DIIS: error= 3.91D-02 at cycle   1 NSaved=   1.
 NSaved= 1 IEnMin= 1 EnMin= -323.216977874066     IErMin= 1 ErrMin= 3.91D-02
 ErrMax= 3.91D-02  0.00D+00 EMaxC= 1.00D-01 BMatC= 2.21D-01 BMatP= 2.21D-01
 IDIUse=3 WtCom= 6.09D-01 WtEn= 3.91D-01
 Coeff-Com:  0.100D+01
 Coeff-En:   0.100D+01
 Coeff:      0.100D+01
 Gap=     0.178 Goal=   None    Shift=    0.000
 GapD=    0.178 DampG=1.000 DampE=0.500 DampFc=0.5000 IDamp=-1.
 Damping current iteration by 5.00D-01
 RMSDP=2.42D-02 MaxDP=3.99D-01              OVMax= 3.50D-01

 Cycle   2  Pass 0  IDiag  1:
 E= -323.228323161318     Delta-E=       -0.011345287252 Rises=F Damp=T
 DIIS: error= 2.73D-02 at cycle   2 NSaved=   2.
 NSaved= 2 IEnMin= 2 EnMin= -323.228323161318     IErMin= 2 ErrMin= 2.73D-02
 ErrMax= 2.73D-02  0.00D+00 EMaxC= 1.00D-01 BMatC= 6.28D-02 BMatP= 2.21D-01
 IDIUse=3 WtCom= 7.27D-01 WtEn= 2.73D-01
 Coeff-Com:  0.309D+00 0.691D+00
 Coeff-En:   0.476D+00 0.524D+00
 Coeff:      0.354D+00 0.646D+00
 Gap=     0.198 Goal=   None    Shift=    0.000
 RMSDP=9.00D-03 MaxDP=1.35D-01 DE=-1.13D-02 OVMax= 2.54D-01

 Cycle   3  Pass 0  IDiag  1:
 E= -323.348860339157     Delta-E=       -0.120537177838 Rises=F Damp=F
 DIIS: error= 3.38D-02 at cycle   3 NSaved=   3.
 NSaved= 3 IEnMin= 3 EnMin= -323.348860339157     IErMin= 2 ErrMin= 2.73D-02
 ErrMax= 3.38D-02  0.00D+00 EMaxC= 1.00D-01 BMatC= 7.42D-02 BMatP= 6.28D-02
 IDIUse=2 WtCom= 0.00D+00 WtEn= 1.00D+00
 EnCoef did     2 forward-backward iterations
 Coeff-En:   0.472D-01 0.121D+00 0.832D+00
 Coeff:      0.472D-01 0.121D+00 0.832D+00
 Gap=     0.201 Goal=   None    Shift=    0.000
 RMSDP=1.54D-02 MaxDP=1.73D-01 DE=-1.21D-01 OVMax= 3.22D-01

 Cycle   4  Pass 0  IDiag  1:
 E= -323.053132502242     Delta-E=        0.295727836915 Rises=F Damp=F
 DIIS: error= 9.37D-02 at cycle   4 NSaved=   4.
 NSaved= 4 IEnMin= 3 EnMin= -323.348860339157     IErMin= 2 ErrMin= 2.73D-02
 ErrMax= 9.37D-02  0.00D+00 EMaxC= 1.00D-01 BMatC= 4.08D-01 BMatP= 6.28D-02
 IDIUse=2 WtCom= 0.00D+00 WtEn= 1.00D+00
 Coeff-En:   0.000D+00 0.000D+00 0.768D+00 0.232D+00
 Coeff:      0.000D+00 0.000D+00 0.768D+00 0.232D+00
 Gap=     0.198 Goal=   None    Shift=    0.000
 RMSDP=9.29D-03 MaxDP=1.08D-01 DE= 2.96D-01 OVMax= 1.98D-01

 Cycle   5  Pass 0  IDiag  1:
 E= -323.399176039586     Delta-E=       -0.346043537345 Rises=F Damp=F
 DIIS: error= 2.05D-02 at cycle   5 NSaved=   5.
 NSaved= 5 IEnMin= 5 EnMin= -323.399176039586     IErMin= 5 ErrMin= 2.05D-02
 ErrMax= 2.05D-02  0.00D+00 EMaxC= 1.00D-01 BMatC= 2.23D-02 BMatP= 6.28D-02
 IDIUse=3 WtCom= 7.95D-01 WtEn= 2.05D-01
 Coeff-Com: -0.357D-01 0.104D+00 0.277D+00-0.831D-01 0.738D+00
 Coeff-En:   0.000D+00 0.000D+00 0.280D+00 0.000D+00 0.720D+00
 Coeff:     -0.284D-01 0.825D-01 0.278D+00-0.661D-01 0.734D+00
 Gap=     0.188 Goal=   None    Shift=    0.000
 RMSDP=2.47D-03 MaxDP=3.22D-02 DE=-3.46D-01 OVMax= 6.08D-02

 Cycle   6  Pass 0  IDiag  1:
 E= -323.419693909230     Delta-E=       -0.020517869643 Rises=F Damp=F
 DIIS: error= 2.81D-03 at cycle   6 NSaved=   6.
 NSaved= 6 IEnMin= 6 EnMin= -323.419693909230     IErMin= 6 ErrMin= 2.81D-03
 ErrMax= 2.81D-03  0.00D+00 EMaxC= 1.00D-01 BMatC= 2.47D-04 BMatP= 2.23D-02
 IDIUse=3 WtCom= 9.72D-01 WtEn= 2.81D-02
 Coeff-Com: -0.228D-01 0.394D-01 0.134D+00-0.426D-01 0.420D+00 0.471D+00
 Coeff-En:   0.000D+00 0.000D+00 0.000D+00 0.000D+00 0.000D+00 0.100D+01
 Coeff:     -0.222D-01 0.383D-01 0.130D+00-0.414D-01 0.408D+00 0.486D+00
 Gap=     0.187 Goal=   None    Shift=    0.000
 RMSDP=3.35D-04 MaxDP=4.77D-03 DE=-2.05D-02 OVMax= 9.81D-03

 Cycle   7  Pass 0  IDiag  1:
 E= -323.419932853752     Delta-E=       -0.000238944522 Rises=F Damp=F
 DIIS: error= 8.84D-04 at cycle   7 NSaved=   7.
 NSaved= 7 IEnMin= 7 EnMin= -323.419932853752     IErMin= 7 ErrMin= 8.84D-04
 ErrMax= 8.84D-04  0.00D+00 EMaxC= 1.00D-01 BMatC= 1.85D-05 BMatP= 2.47D-04
 IDIUse=3 WtCom= 9.91D-01 WtEn= 8.84D-03
 Coeff-Com: -0.477D-02 0.848D-02 0.251D-01-0.112D-01 0.966D-01 0.281D+00
 Coeff-Com:  0.605D+00
 Coeff-En:   0.000D+00 0.000D+00 0.000D+00 0.000D+00 0.000D+00 0.641D-01
 Coeff-En:   0.936D+00
 Coeff:     -0.473D-02 0.840D-02 0.249D-01-0.111D-01 0.957D-01 0.279D+00
 Coeff:      0.608D+00
 Gap=     0.187 Goal=   None    Shift=    0.000
 RMSDP=8.43D-05 MaxDP=1.14D-03 DE=-2.39D-04 OVMax= 2.62D-03

 Cycle   8  Pass 0  IDiag  1:
 E= -323.419951770663     Delta-E=       -0.000018916912 Rises=F Damp=F
 DIIS: error= 1.19D-04 at cycle   8 NSaved=   8.
 NSaved= 8 IEnMin= 8 EnMin= -323.419951770663     IErMin= 8 ErrMin= 1.19D-04
 ErrMax= 1.19D-04  0.00D+00 EMaxC= 1.00D-01 BMatC= 1.09D-06 BMatP= 1.85D-05
 IDIUse=3 WtCom= 9.99D-01 WtEn= 1.19D-03
 Coeff-Com:  0.144D-03-0.128D-02-0.234D-02-0.316D-03 0.150D-02 0.106D+00
 Coeff-Com:  0.325D+00 0.571D+00
 Coeff-En:   0.000D+00 0.000D+00 0.000D+00 0.000D+00 0.000D+00 0.000D+00
 Coeff-En:   0.000D+00 0.100D+01
 Coeff:      0.144D-03-0.127D-02-0.234D-02-0.315D-03 0.150D-02 0.106D+00
 Coeff:      0.325D+00 0.571D+00
 Gap=     0.187 Goal=   None    Shift=    0.000
 RMSDP=1.63D-05 MaxDP=2.19D-04 DE=-1.89D-05 OVMax= 2.15D-04

 Cycle   9  Pass 0  IDiag  1:
 E= -323.419952816665     Delta-E=       -0.000001046002 Rises=F Damp=F
 DIIS: error= 1.57D-05 at cycle   9 NSaved=   9.
 NSaved= 9 IEnMin= 9 EnMin= -323.419952816665     IErMin= 9 ErrMin= 1.57D-05
 ErrMax= 1.57D-05  0.00D+00 EMaxC= 1.00D-01 BMatC= 3.01D-08 BMatP= 1.09D-06
 IDIUse=1 WtCom= 1.00D+00 WtEn= 0.00D+00
 Coeff-Com:  0.119D-03-0.105D-02-0.177D-02 0.305D-03-0.212D-02 0.345D-01
 Coeff-Com:  0.113D+00 0.229D+00 0.628D+00
 Coeff:      0.119D-03-0.105D-02-0.177D-02 0.305D-03-0.212D-02 0.345D-01
 Coeff:      0.113D+00 0.229D+00 0.628D+00
 Gap=     0.187 Goal=   None    Shift=    0.000
 RMSDP=3.56D-06 MaxDP=3.63D-05 DE=-1.05D-06 OVMax= 4.89D-05

 Initial convergence to 1.0D-05 achieved.  Increase integral accuracy.
 Cycle  10  Pass 1  IDiag  1:
 E= -323.419992740683     Delta-E=       -0.000039924018 Rises=F Damp=F
 DIIS: error= 1.13D-05 at cycle   1 NSaved=   1.
 NSaved= 1 IEnMin= 1 EnMin= -323.419992740683     IErMin= 1 ErrMin= 1.13D-05
 ErrMax= 1.13D-05  0.00D+00 EMaxC= 1.00D-01 BMatC= 1.66D-08 BMatP= 1.66D-08
 IDIUse=1 WtCom= 1.00D+00 WtEn= 0.00D+00
 Coeff-Com:  0.100D+01
 Coeff:      0.100D+01
 Gap=     0.187 Goal=   None    Shift=    0.000
 RMSDP=3.56D-06 MaxDP=3.63D-05 DE=-3.99D-05 OVMax= 7.46D-05

 Cycle  11  Pass 1  IDiag  1:
 E= -323.419992761172     Delta-E=       -0.000000020489 Rises=F Damp=F
 DIIS: error= 1.19D-05 at cycle   2 NSaved=   2.
 NSaved= 2 IEnMin= 2 EnMin= -323.419992761172     IErMin= 1 ErrMin= 1.13D-05
 ErrMax= 1.19D-05  0.00D+00 EMaxC= 1.00D-01 BMatC= 1.12D-08 BMatP= 1.66D-08
 IDIUse=1 WtCom= 1.00D+00 WtEn= 0.00D+00
 Coeff-Com:  0.434D+00 0.566D+00
 Coeff:      0.434D+00 0.566D+00
 Gap=     0.187 Goal=   None    Shift=    0.000
 RMSDP=2.74D-06 MaxDP=3.69D-05 DE=-2.05D-08 OVMax= 5.52D-05

 Cycle  12  Pass 1  IDiag  1:
 E= -323.419992766374     Delta-E=       -0.000000005202 Rises=F Damp=F
 DIIS: error= 1.13D-05 at cycle   3 NSaved=   3.
 NSaved= 3 IEnMin= 3 EnMin= -323.419992766374     IErMin= 1 ErrMin= 1.13D-05
 ErrMax= 1.13D-05  0.00D+00 EMaxC= 1.00D-01 BMatC= 5.12D-09 BMatP= 1.12D-08
 IDIUse=1 WtCom= 1.00D+00 WtEn= 0.00D+00
 Coeff-Com:  0.655D-01 0.391D+00 0.543D+00
 Coeff:      0.655D-01 0.391D+00 0.543D+00
 Gap=     0.187 Goal=   None    Shift=    0.000
 RMSDP=1.87D-06 MaxDP=2.61D-05 DE=-5.20D-09 OVMax= 4.34D-05

 Cycle  13  Pass 1  IDiag  1:
 E= -323.419992769273     Delta-E=       -0.000000002899 Rises=F Damp=F
 DIIS: error= 5.83D-06 at cycle   4 NSaved=   4.
 NSaved= 4 IEnMin= 4 EnMin= -323.419992769273     IErMin= 4 ErrMin= 5.83D-06
 ErrMax= 5.83D-06  0.00D+00 EMaxC= 1.00D-01 BMatC= 1.87D-09 BMatP= 5.12D-09
 IDIUse=1 WtCom= 1.00D+00 WtEn= 0.00D+00
 Coeff-Com: -0.205D-01 0.209D+00 0.423D+00 0.388D+00
 Coeff:     -0.205D-01 0.209D+00 0.423D+00 0.388D+00
 Gap=     0.187 Goal=   None    Shift=    0.000
 RMSDP=7.71D-07 MaxDP=9.70D-06 DE=-2.90D-09 OVMax= 1.70D-05

 Cycle  14  Pass 1  IDiag  1:
 E= -323.419992770960     Delta-E=       -0.000000001687 Rises=F Damp=F
 DIIS: error= 7.54D-07 at cycle   5 NSaved=   5.
 NSaved= 5 IEnMin= 5 EnMin= -323.419992770960     IErMin= 5 ErrMin= 7.54D-07
 ErrMax= 7.54D-07  0.00D+00 EMaxC= 1.00D-01 BMatC= 4.23D-11 BMatP= 1.87D-09
 IDIUse=1 WtCom= 1.00D+00 WtEn= 0.00D+00
 Coeff-Com: -0.141D-01 0.102D+00 0.219D+00 0.227D+00 0.467D+00
 Coeff:     -0.141D-01 0.102D+00 0.219D+00 0.227D+00 0.467D+00
 Gap=     0.187 Goal=   None    Shift=    0.000
 RMSDP=1.29D-07 MaxDP=1.07D-06 DE=-1.69D-09 OVMax= 1.89D-06

 Cycle  15  Pass 1  IDiag  1:
 E= -323.419992770996     Delta-E=       -0.000000000036 Rises=F Damp=F
 DIIS: error= 1.85D-07 at cycle   6 NSaved=   6.
 NSaved= 6 IEnMin= 6 EnMin= -323.419992770996     IErMin= 6 ErrMin= 1.85D-07
 ErrMax= 1.85D-07  0.00D+00 EMaxC= 1.00D-01 BMatC= 2.50D-12 BMatP= 4.23D-11
 IDIUse=1 WtCom= 1.00D+00 WtEn= 0.00D+00
 Coeff-Com: -0.298D-02 0.104D-01 0.250D-01 0.400D-01 0.212D+00 0.716D+00
 Coeff:     -0.298D-02 0.104D-01 0.250D-01 0.400D-01 0.212D+00 0.716D+00
 Gap=     0.187 Goal=   None    Shift=    0.000
 RMSDP=3.94D-08 MaxDP=5.64D-07 DE=-3.62D-11 OVMax= 8.89D-07

 Cycle  16  Pass 1  IDiag  1:
 E= -323.419992770998     Delta-E=       -0.000000000002 Rises=F Damp=F
 DIIS: error= 5.93D-08 at cycle   7 NSaved=   7.
 NSaved= 7 IEnMin= 7 EnMin= -323.419992770998     IErMin= 7 ErrMin= 5.93D-08
 ErrMax= 5.93D-08  0.00D+00 EMaxC= 1.00D-01 BMatC= 3.23D-13 BMatP= 2.50D-12
 IDIUse=1 WtCom= 1.00D+00 WtEn= 0.00D+00
 Coeff-Com: -0.302D-03-0.291D-02-0.494D-02 0.204D-02 0.751D-01 0.368D+00
 Coeff-Com:  0.563D+00
 Coeff:     -0.302D-03-0.291D-02-0.494D-02 0.204D-02 0.751D-01 0.368D+00
 Coeff:      0.563D+00
 Gap=     0.187 Goal=   None    Shift=    0.000
 RMSDP=1.55D-08 MaxDP=2.27D-07 DE=-1.82D-12 OVMax= 3.81D-07

 Cycle  17  Pass 1  IDiag  1:
 E= -323.419992770997     Delta-E=        0.000000000000 Rises=F Damp=F
 DIIS: error= 1.59D-08 at cycle   8 NSaved=   8.
 NSaved= 8 IEnMin= 7 EnMin= -323.419992770998     IErMin= 8 ErrMin= 1.59D-08
 ErrMax= 1.59D-08  0.00D+00 EMaxC= 1.00D-01 BMatC= 3.28D-14 BMatP= 3.23D-13
 IDIUse=1 WtCom= 1.00D+00 WtEn= 0.00D+00
 Coeff-Com:  0.272D-03-0.270D-02-0.558D-02-0.506D-02 0.387D-02 0.468D-01
 Coeff-Com:  0.260D+00 0.702D+00
 Coeff:      0.272D-03-0.270D-02-0.558D-02-0.506D-02 0.387D-02 0.468D-01
 Coeff:      0.260D+00 0.702D+00
 Gap=     0.187 Goal=   None    Shift=    0.000
 RMSDP=5.20D-09 MaxDP=4.03D-08 DE= 2.27D-13 OVMax= 9.89D-08

 SCF Done:  E(RB3LYP) =  -323.419992771     A.U. after   17 cycles
            NFock= 17  Conv=0.52D-08     -V/T= 2.0046
 KE= 3.219339718413D+02 PE=-1.253556950240D+03 EE= 3.601380796750D+02
 Leave Link  502 at Tue Apr 12 08:23:33 2016, MaxMem=    33554432 cpu:        12.0
 (Enter /usr/local/gau/g09/l801.exe)
 DoSCS=F DFT=T ScalE2(SS,OS)=  1.000000  1.000000
 Range of M.O.s used for correlation:     1    68
 NBasis=    68 NAE=    24 NBE=    24 NFC=     0 NFV=     0
 NROrb=     68 NOA=    24 NOB=    24 NVA=    44 NVB=    44
 Leave Link  801 at Tue Apr 12 08:23:33 2016, MaxMem=    33554432 cpu:         0.0
 (Enter /usr/local/gau/g09/l1101.exe)
 Using compressed storage, NAtomX=    13.
 Will process     14 centers per pass.
 Leave Link 1101 at Tue Apr 12 08:23:34 2016, MaxMem=    33554432 cpu:         0.1
 (Enter /usr/local/gau/g09/l1102.exe)
 Symmetrizing basis deriv contribution to polar:
 IMax=3 JMax=2 DiffMx= 0.00D+00
 Leave Link 1102 at Tue Apr 12 08:23:34 2016, MaxMem=    33554432 cpu:         0.0
 (Enter /usr/local/gau/g09/l1110.exe)
 Forming Gx(P) for the SCF density, NAtomX=    13.
 Integral derivatives from FoFJK, PRISM(SPDF).
 Do as many integral derivatives as possible in FoFJK.
 G2DrvN: MDV=      33554224.
 G2DrvN: will do    14 centers at a time, making    1 passes.
 Calling FoFCou, ICntrl=  3107 FMM=F I1Cent=   0 AccDes= 0.00D+00.
 FoFJK:  IHMeth= 1 ICntrl=    3107 DoSepK=F KAlg= 0 I1Cent=   0 FoldK=F
 IRaf=         0 NMat=   1 IRICut=       1 DoRegI=T DoRafI=F ISym2E= 0.
 FoFCou: FMM=F IPFlag=           0 FMFlag=      100000 FMFlg1=           0
         NFxFlg=           0 DoJE=F BraDBF=F KetDBF=F FulRan=T
         wScrn=  0.000000 ICntrl=    3107 IOpCl=  0 I1Cent=           0 NGrid=           0
         NMat0=    1 NMatS0=      1 NMatT0=    0 NMatD0=    1 NMtDS0=    0 NMtDT0=    0
 Symmetry not used in FoFCou.
 End of G2Drv F.D. properties file   721 does not exist.
 End of G2Drv F.D. properties file   722 does not exist.
 End of G2Drv F.D. properties file   788 does not exist.
 Leave Link 1110 at Tue Apr 12 08:24:28 2016, MaxMem=    33554432 cpu:        23.4
 (Enter /usr/local/gau/g09/l1002.exe)
 Minotr:  Closed shell wavefunction.
          IDoAtm=1111111111111
          Direct CPHF calculation.
          Differentiating once with respect to nuclear coordinates.
          Requested convergence is 1.0D-08 RMS, and 1.0D-07 maximum.
          Secondary convergence is 1.0D-12 RMS, and 1.0D-12 maximum.
          NewPWx=T KeepS1=F KeepF1=F KeepIn=T MapXYZ=F SortEE=F KeepMc=T.
          MDV=      33554230 using IRadAn=       2.
 Generate precomputed XC quadrature information.
 Keep R1 ints in memory in canonical form, NReq=3645290.
 FoFCou: FMM=F IPFlag=           0 FMFlag=           0 FMFlg1=           0
         NFxFlg=           0 DoJE=F BraDBF=F KetDBF=F FulRan=T
         wScrn=  0.000000 ICntrl=     600 IOpCl=  0 I1Cent=           0 NGrid=           0
         NMat0=    1 NMatS0=   2346 NMatT0=    0 NMatD0=    1 NMtDS0=    0 NMtDT0=    0
 Symmetry not used in FoFCou.
          Solving linear equations simultaneously, MaxMat=       0.
          There are    42 degrees of freedom in the 1st order CPHF.  IDoFFX=6 NUNeed=     0.
     36 vectors produced by pass  0 Test12= 2.51D-15 2.38D-09 XBig12= 2.06D-01 1.15D-01.
 AX will form    36 AO Fock derivatives at one time.
     36 vectors produced by pass  1 Test12= 2.51D-15 2.38D-09 XBig12= 3.38D-02 2.94D-02.
     36 vectors produced by pass  2 Test12= 2.51D-15 2.38D-09 XBig12= 1.42D-04 1.91D-03.
     36 vectors produced by pass  3 Test12= 2.51D-15 2.38D-09 XBig12= 2.21D-07 8.01D-05.
     36 vectors produced by pass  4 Test12= 2.51D-15 2.38D-09 XBig12= 1.91D-10 2.00D-06.
     16 vectors produced by pass  5 Test12= 2.51D-15 2.38D-09 XBig12= 9.88D-14 4.13D-08.
 InvSVY:  IOpt=1 It=  1 EMax= 2.11D-15
 Solved reduced A of dimension   196 with    36 vectors.
 End of Minotr F.D. properties file   721 does not exist.
 End of Minotr F.D. properties file   722 does not exist.
 End of Minotr F.D. properties file   788 does not exist.
 Leave Link 1002 at Tue Apr 12 08:25:02 2016, MaxMem=    33554432 cpu:        16.6
 (Enter /usr/local/gau/g09/l601.exe)
 Copying SCF densities to generalized density rwf, IOpCl= 0 IROHF=0.

 **********************************************************************

            Population analysis using the SCF density.

 **********************************************************************

 Orbital symmetries:
       Occupied  (A) (A) (A) (A) (A) (A) (A) (A) (A) (A) (A) (A)
                 (A) (A) (A) (A) (A) (A) (A) (A) (A) (A) (A) (A)
       Virtual   (A) (A) (A) (A) (A) (A) (A) (A) (A) (A) (A) (A)
                 (A) (A) (A) (A) (A) (A) (A) (A) (A) (A) (A) (A)
                 (A) (A) (A) (A) (A) (A) (A) (A) (A) (A) (A) (A)
                 (A) (A) (A) (A) (A) (A) (A) (A)
 The electronic state is 1-A.
 Alpha  occ. eigenvalues --  -19.16290 -19.11596 -14.36359 -10.29291 -10.24676
 Alpha  occ. eigenvalues --  -10.19862  -1.06508  -1.00454  -0.93458  -0.78822
 Alpha  occ. eigenvalues --   -0.72636  -0.60541  -0.58009  -0.52209  -0.47924
 Alpha  occ. eigenvalues --   -0.45892  -0.42305  -0.40817  -0.39046  -0.35900
 Alpha  occ. eigenvalues --   -0.31502  -0.29477  -0.26144  -0.18449
 Alpha virt. eigenvalues --    0.00257   0.04002   0.06841   0.09825   0.11264
 Alpha virt. eigenvalues --    0.13368   0.16497   0.16790   0.20086   0.22682
 Alpha virt. eigenvalues --    0.23818   0.36221   0.42578   0.50825   0.54547
 Alpha virt. eigenvalues --    0.56217   0.59146   0.62668   0.65653   0.66692
 Alpha virt. eigenvalues --    0.72565   0.72962   0.75150   0.80723   0.82177
 Alpha virt. eigenvalues --    0.84043   0.86717   0.89568   0.91057   0.93594
 Alpha virt. eigenvalues --    0.95132   0.96591   1.01616   1.07616   1.08091
 Alpha virt. eigenvalues --    1.11607   1.14225   1.21756   1.22587   1.35660
 Alpha virt. eigenvalues --    1.43741   1.55195   1.75322   1.99228
          Condensed to atoms (all electrons):
               1          2          3          4          5          6
     1  N    7.277659   0.322937   0.163180  -0.000156  -0.061870  -0.148378
     2  H    0.322937   0.358455  -0.022266   0.000002  -0.004190   0.007582
     3  C    0.163180  -0.022266   5.810061   0.002218   0.281134   0.223723
     4  H   -0.000156   0.000002   0.002218   0.401356   0.000515  -0.029651
     5  C   -0.061870  -0.004190   0.281134   0.000515   5.110651   0.008133
     6  C   -0.148378   0.007582   0.223723  -0.029651   0.008133   5.104294
     7  H    0.004992   0.000630  -0.042683  -0.000066   0.362192  -0.000666
     8  H    0.003620  -0.000002  -0.034074  -0.000380   0.375201  -0.002740
     9  H   -0.001820   0.002161  -0.044428   0.000105   0.372829  -0.001086
    10  O   -0.009181   0.000509  -0.178160   0.003312   0.003132   0.277211
    11  H    0.301602  -0.012783  -0.043194  -0.000010   0.004806   0.001619
    12  O    0.002178   0.000016  -0.125089   0.237937  -0.005462   0.187656
    13  H   -0.005520   0.003618  -0.201141   0.000045   0.002626   0.082413
               7          8          9         10         11         12
     1  N    0.004992   0.003620  -0.001820  -0.009181   0.301602   0.002178
     2  H    0.000630  -0.000002   0.002161   0.000509  -0.012783   0.000016
     3  C   -0.042683  -0.034074  -0.044428  -0.178160  -0.043194  -0.125089
     4  H   -0.000066  -0.000380   0.000105   0.003312  -0.000010   0.237937
     5  C    0.362192   0.375201   0.372829   0.003132   0.004806  -0.005462
     6  C   -0.000666  -0.002740  -0.001086   0.277211   0.001619   0.187656
     7  H    0.588946  -0.023398  -0.041538  -0.000003  -0.000130   0.000209
     8  H   -0.023398   0.504959  -0.023422   0.000178  -0.000171   0.011112
     9  H   -0.041538  -0.023422   0.582771  -0.000037  -0.000044   0.000483
    10  O   -0.000003   0.000178  -0.000037   8.400807   0.016726  -0.087881
    11  H   -0.000130  -0.000171  -0.000044   0.016726   0.372324   0.000321
    12  O    0.000209   0.011112   0.000483  -0.087881   0.000321   8.353785
    13  H   -0.000856  -0.000283  -0.000024   0.131800   0.004211   0.015789
              13
     1  N   -0.005520
     2  H    0.003618
     3  C   -0.201141
     4  H    0.000045
     5  C    0.002626
     6  C    0.082413
     7  H   -0.000856
     8  H   -0.000283
     9  H   -0.000024
    10  O    0.131800
    11  H    0.004211
    12  O    0.015789
    13  H    0.598173
 Mulliken charges:
               1
     1  N   -0.849242
     2  H    0.343332
     3  C    0.210719
     4  H    0.384772
     5  C   -0.449697
     6  C    0.289891
     7  H    0.152370
     8  H    0.189400
     9  H    0.154051
    10  O   -0.558413
    11  H    0.354722
    12  O   -0.591054
    13  H    0.369149
 Sum of Mulliken charges =   0.00000
 Mulliken charges with hydrogens summed into heavy atoms:
               1
     1  N   -0.151188
     3  C    0.210719
     5  C    0.046124
     6  C    0.659039
    10  O   -0.558413
    12  O   -0.206282
 APT charges:
               1
     1  N   -1.363247
     2  H    0.754769
     3  C    0.313076
     4  H    0.673653
     5  C   -1.244200
     6  C   -0.060737
     7  H    0.427361
     8  H    0.378007
     9  H    0.456976
    10  O   -0.440511
    11  H    0.544640
    12  O   -0.728973
    13  H    0.289188
 Sum of APT charges =   0.00000
 APT charges with hydrogens summed into heavy atoms:
               1
     1  N   -0.063838
     3  C    0.313076
     5  C    0.018143
     6  C    0.228451
    10  O   -0.440511
    12  O   -0.055321
 Electronic spatial extent (au):  <R**2>=            599.5907
 Charge=              0.0000 electrons
 Dipole moment (field-independent basis, Debye):
    X=              4.1253    Y=              0.7510    Z=              1.3189  Tot=              4.3956
 Quadrupole moment (field-independent basis, Debye-Ang):
   XX=            -33.7439   YY=            -35.9277   ZZ=            -37.2330
   XY=             -6.3454   XZ=             -2.8122   YZ=              2.6430
 Traceless Quadrupole moment (field-independent basis, Debye-Ang):
   XX=              1.8910   YY=             -0.2929   ZZ=             -1.5981
   XY=             -6.3454   XZ=             -2.8122   YZ=              2.6430
 Octapole moment (field-independent basis, Debye-Ang**2):
  XXX=              7.0877  YYY=             -5.4945  ZZZ=              1.4100  XYY=              8.4745
  XXY=              5.8401  XXZ=              9.5009  XZZ=             -4.5979  YZZ=              2.0690
  YYZ=              3.4495  XYZ=             -5.7486
 Hexadecapole moment (field-independent basis, Debye-Ang**3):
 XXXX=           -348.9440 YYYY=           -266.8339 ZZZZ=            -43.8577 XXXY=            -43.7686
 XXXZ=            -13.5169 YYYX=            -25.4330 YYYZ=              3.3489 ZZZX=             -2.2592
 ZZZY=              1.1681 XXYY=           -110.8544 XXZZ=            -71.5971 YYZZ=            -56.5798
 XXYZ=              7.9837 YYXZ=             -4.4695 ZZXY=             -2.2280
 N-N= 2.480649059529D+02 E-N=-1.253556951248D+03  KE= 3.219339718413D+02
  Exact polarizability:   0.000   0.000   0.000   0.000   0.000   0.000
 Approx polarizability: 116.408   8.107  72.334  -6.227   0.385  35.503
 No NMR shielding tensors so no spin-rotation constants.
 Leave Link  601 at Tue Apr 12 08:25:02 2016, MaxMem=    33554432 cpu:         0.1
 (Enter /usr/local/gau/g09/l701.exe)
 Compute integral second derivatives.
 ... and contract with generalized density number  0.
 Leave Link  701 at Tue Apr 12 08:25:02 2016, MaxMem=    33554432 cpu:         0.1
 (Enter /usr/local/gau/g09/l702.exe)
 L702 exits ... SP integral derivatives will be done elsewhere.
 Leave Link  702 at Tue Apr 12 08:25:02 2016, MaxMem=    33554432 cpu:         0.0
 (Enter /usr/local/gau/g09/l703.exe)
 Compute integral second derivatives, UseDBF=F ICtDFT=           0.
 Integral derivatives from FoFJK, PRISM(SPDF).
 Calling FoFJK, ICntrl=    100147 FMM=F ISym2X=0 I1Cent= 0 IOpClX= 0 NMat=1 NMatS=1 NMatT=0.
 FoFJK:  IHMeth= 1 ICntrl=  100147 DoSepK=F KAlg= 0 I1Cent=   0 FoldK=F
 IRaf=         0 NMat=   1 IRICut=       1 DoRegI=T DoRafI=F ISym2E= 0.
 FoFCou: FMM=F IPFlag=           0 FMFlag=      100000 FMFlg1=         800
         NFxFlg=           0 DoJE=F BraDBF=F KetDBF=F FulRan=T
         wScrn=  0.000000 ICntrl=  100147 IOpCl=  0 I1Cent=           0 NGrid=           0
         NMat0=    1 NMatS0=      1 NMatT0=    0 NMatD0=    1 NMtDS0=    0 NMtDT0=    0
 Symmetry not used in FoFCou.
 Leave Link  703 at Tue Apr 12 08:25:56 2016, MaxMem=    33554432 cpu:        25.8
 (Enter /usr/local/gau/g09/l716.exe)
 Dipole        = 1.62301265D+00 2.95472342D-01 5.18879951D-01
 Polarizability= 0.00000000D+00 0.00000000D+00 0.00000000D+00
                 0.00000000D+00 0.00000000D+00 0.00000000D+00
 ***** Axes restored to original set *****
 -------------------------------------------------------------------
 Center     Atomic                   Forces (Hartrees/Bohr)
 Number     Number              X              Y              Z
 -------------------------------------------------------------------
      1        7           0.021280856    0.039867845    0.006231843
      2        1          -0.000027630   -0.000924447    0.002751736
      3        6           0.055800433   -0.057903605   -0.023563677
      4        1          -0.002612804    0.005071764    0.002616473
      5        6          -0.001624912   -0.001810830    0.012886340
      6        6          -0.050290297   -0.004437909   -0.056667350
      7        1           0.001915270   -0.001983403    0.000335275
      8        1          -0.001127917    0.001125087   -0.000081020
      9        1          -0.001664420    0.002653351   -0.001140935
     10        8           0.038487232   -0.004754088    0.030059780
     11        1           0.008043700    0.015624684   -0.008800233
     12        8           0.014596651   -0.004058472    0.009189439
     13        1          -0.082776162    0.011530022    0.026182329
 -------------------------------------------------------------------
 Cartesian Forces:  Max     0.082776162 RMS     0.025761306
 Force constants in Cartesian coordinates: 
                1             2             3             4             5 
      1  0.777012D+00
      2 -0.126439D-01  0.728324D+00
      3  0.270747D+00  0.984221D-01  0.112861D+00
      4 -0.428596D+00 -0.691234D-01 -0.137589D+00  0.434952D+00
      5 -0.678642D-01 -0.782104D-01 -0.321050D-01  0.740776D-01  0.798603D-01
      6 -0.113876D+00 -0.317725D-01 -0.399764D-01  0.137621D+00  0.354569D-01
      7 -0.123443D+00 -0.361915D-01 -0.559060D-01  0.106333D-02 -0.379674D-01
      8 -0.105555D+00 -0.311535D+00 -0.741317D-01 -0.203463D-03 -0.709251D-02
      9 -0.828270D-01 -0.972841D-01 -0.461731D-01  0.702532D-03 -0.113577D-01
     10 -0.894954D-03  0.262457D-02  0.112391D-02 -0.224095D-03 -0.498455D-03
     11 -0.103746D-02  0.141968D-03  0.939092D-03  0.650721D-04 -0.402043D-03
     12  0.109715D-02 -0.931872D-03  0.825631D-03  0.148727D-03 -0.428519D-05
     13  0.829128D-02 -0.105453D-01  0.180352D-02  0.210619D-02 -0.525311D-03
     14  0.317834D-01 -0.356044D-01  0.285007D-02  0.167411D-02  0.266036D-02
     15  0.327450D-02 -0.142688D-01  0.489540D-03 -0.105879D-02 -0.370325D-03
     16 -0.102557D-01  0.157695D-01 -0.990152D-02 -0.941035D-03  0.147711D-02
     17 -0.526512D-01 -0.241444D-01 -0.228045D-01  0.429790D-02 -0.770041D-02
     18 -0.130677D-01  0.129557D-01 -0.389066D-02  0.295192D-02  0.124430D-02
     19  0.102172D-02 -0.186703D-02  0.173284D-02  0.484629D-03  0.957151D-04
     20 -0.770207D-03  0.282965D-02 -0.908794D-03 -0.381359D-03 -0.937758D-03
     21  0.144782D-02  0.715552D-03  0.617578D-03  0.129928D-03  0.823889D-03
     22 -0.433524D-02  0.382992D-02 -0.143108D-02 -0.418215D-03  0.391705D-04
     23  0.438892D-02 -0.211811D-02  0.827517D-03  0.306901D-03  0.436542D-03
     24 -0.854052D-03  0.480713D-03  0.109378D-02  0.149433D-03  0.253995D-03
     25  0.415761D-02 -0.219857D-03 -0.105903D-02 -0.234743D-04  0.697884D-03
     26 -0.181079D-02  0.239629D-02  0.111008D-02 -0.803262D-03 -0.388709D-03
     27 -0.817174D-04 -0.509641D-03 -0.760889D-05  0.618058D-03 -0.714699D-03
     28  0.813715D-02 -0.836521D-02 -0.111178D-02  0.102530D-02  0.180240D-02
     29 -0.727337D-02  0.229542D-01  0.163209D-02 -0.182013D-02  0.191471D-02
     30  0.935726D-02  0.249697D-02 -0.381937D-02  0.499130D-03  0.148443D-02
     31 -0.207293D+00  0.182650D+00 -0.594318D-01 -0.966581D-02  0.267671D-01
     32  0.194434D+00 -0.300926D+00  0.381952D-01 -0.989214D-02  0.116931D-01
     33 -0.791254D-01  0.487054D-01 -0.272341D-01 -0.332597D-02  0.764801D-02
     34 -0.130714D-02 -0.522657D-02 -0.596650D-02  0.144007D-02 -0.324604D-03
     35 -0.225493D-02 -0.570623D-02 -0.538791D-02  0.444421D-03  0.342591D-03
     36 -0.806399D-02 -0.458315D-03  0.417413D-02 -0.256154D-03 -0.188870D-02
     37 -0.224945D-01 -0.606909D-01 -0.301048D-02 -0.120308D-02  0.222301D-02
     38  0.212554D-01  0.159878D-02 -0.863812D-02  0.135775D-02 -0.217574D-02
     39  0.119720D-01 -0.185513D-01  0.103981D-02 -0.590981D-03 -0.470871D-03
                6             7             8             9            10 
      6  0.425324D-01
      7 -0.111643D-01  0.773342D+00
      8  0.621873D-02 -0.974666D-02  0.598369D+00
      9 -0.863399D-03  0.244018D+00  0.115050D+00  0.199265D+00
     10 -0.214459D-03 -0.209383D-02 -0.411147D-02 -0.201650D-02  0.286202D-01
     11  0.486236D-03  0.128744D-02 -0.354684D-02 -0.159587D-02  0.241643D-01
     12  0.503297D-03  0.212902D-02  0.181890D-02 -0.544639D-03  0.102449D+00
     13 -0.129170D-03 -0.139627D+00  0.678789D-01 -0.168853D-01 -0.678492D-03
     14 -0.953889D-04  0.529451D-01 -0.141151D+00  0.113754D-01 -0.629755D-03
     15  0.410648D-02 -0.145704D-01  0.468550D-03 -0.779615D-01 -0.129208D-03
     16 -0.222120D-02 -0.433675D+00 -0.688630D-01 -0.153226D+00 -0.635814D-02
     17  0.348632D-02 -0.767600D-01 -0.116925D+00 -0.441485D-01 -0.733872D-02
     18 -0.325432D-02 -0.192010D+00 -0.371730D-01 -0.801954D-01 -0.175515D-01
     19 -0.618196D-04 -0.149992D-01  0.555944D-02 -0.268448D-01  0.400837D-04
     20  0.531938D-03  0.126086D-01 -0.441675D-02  0.255649D-01 -0.281951D-05
     21 -0.799635D-03 -0.518198D-02  0.274441D-05  0.154714D-02  0.166572D-03
     22  0.333612D-04  0.752242D-02  0.230614D-01  0.886381D-02  0.403627D-04
     23  0.396964D-03 -0.891338D-02 -0.207669D-01 -0.739973D-02  0.104866D-03
     24 -0.712085D-03  0.190717D-02  0.407253D-02 -0.635923D-03 -0.603430D-03
     25  0.573973D-03 -0.256800D-01 -0.557190D-03  0.100562D-01 -0.142734D-03
     26 -0.337072D-03  0.251978D-01  0.114409D-02 -0.151081D-01  0.194214D-03
     27 -0.382745D-03 -0.543311D-02 -0.501671D-03  0.534570D-02 -0.111624D-03
     28 -0.136268D-02 -0.271257D-01  0.531057D-01 -0.126600D-01 -0.950734D-03
     29 -0.152013D-02 -0.448094D-02 -0.179095D-01  0.712288D-02  0.150740D-02
     30 -0.171711D-02 -0.430077D-02  0.206365D-01  0.102557D-01 -0.169206D-02
     31 -0.533316D-02  0.988993D-02 -0.333661D-02  0.612200D-02  0.291562D-03
     32 -0.343282D-02  0.193369D-01 -0.182291D-01  0.101764D-01  0.120645D-03
     33  0.250250D-02  0.118205D-01 -0.183013D-01 -0.425170D-02 -0.269563D-04
     34 -0.283474D-03 -0.520921D-02 -0.296246D-01 -0.666695D-02 -0.185409D-01
     35 -0.415194D-03 -0.424687D-02 -0.655116D-02 -0.156507D-02 -0.160842D-01
     36  0.196949D-02 -0.884107D-02 -0.192889D-01 -0.607291D-02 -0.839070D-01
     37 -0.358239D-02 -0.199655D-01  0.723930D-01  0.313637D-01  0.891697D-03
     38 -0.900404D-02  0.669310D-01  0.486110D-01  0.916929D-02 -0.505644D-04
     39 -0.390847D-02  0.375325D-01  0.112851D-02  0.285246D-03  0.251297D-02
               11            12            13            14            15 
     11  0.439211D-01
     12  0.306125D-01  0.434265D+00
     13  0.717755D-03  0.537187D-03  0.520477D+00
     14  0.461980D-03  0.282796D-03  0.562471D-01  0.554610D+00
     15 -0.878856D-03 -0.888593D-03  0.106956D-01  0.191527D-01  0.541315D+00
     16 -0.196439D-01 -0.255065D-02 -0.318491D-01  0.511070D-02 -0.898094D-03
     17 -0.180662D-01  0.407469D-02  0.261411D-01  0.124302D-01  0.482250D-02
     18 -0.466364D-01 -0.595854D-02 -0.903436D-02  0.333130D-02  0.614097D-02
     19 -0.340530D-04 -0.620652D-04 -0.641853D-01  0.456218D-02 -0.640636D-01
     20  0.623752D-04 -0.683108D-04  0.471503D-02 -0.519538D-01  0.222450D-01
     21  0.138884D-03 -0.114955D-04 -0.638512D-01  0.211242D-01 -0.280655D+00
     22 -0.316683D-03 -0.150171D-03 -0.842625D-01 -0.913849D-01 -0.325815D-01
     23  0.282578D-03  0.104088D-04 -0.841953D-01 -0.263143D+00 -0.775516D-01
     24  0.239279D-03 -0.107668D-03 -0.306757D-01 -0.795688D-01 -0.780293D-01
     25  0.221238D-03  0.204040D-03 -0.210510D+00 -0.530569D-01  0.111270D+00
     26 -0.160729D-03  0.244878D-05 -0.506390D-01 -0.640288D-01  0.317644D-01
     27  0.157430D-04  0.109104D-03  0.110044D+00  0.333409D-01 -0.120327D+00
     28  0.487897D-02  0.249372D-02  0.174854D-02 -0.658699D-02 -0.206381D-02
     29  0.151972D-03  0.595189D-03 -0.391104D-02  0.205185D-02  0.264598D-02
     30  0.684821D-02  0.153873D-02 -0.349361D-02 -0.516961D-02  0.121205D-01
     31  0.693769D-04 -0.293580D-03 -0.839146D-03 -0.166364D-02 -0.458282D-03
     32 -0.245112D-03 -0.276675D-03 -0.414076D-02 -0.312486D-02 -0.109234D-02
     33 -0.186964D-03 -0.154357D-03 -0.208740D-02 -0.150616D-02 -0.140674D-02
     34 -0.759777D-02 -0.103649D+00  0.148289D-03  0.449769D-04  0.134916D-02
     35 -0.283855D-01 -0.382944D-01  0.220525D-02 -0.390328D-02  0.210656D-02
     36  0.918048D-02 -0.428338D+00  0.101337D-02 -0.791148D-03 -0.260955D-02
     37 -0.277430D-02 -0.235326D-02 -0.819570D-03  0.954604D-03 -0.107656D-01
     38  0.578450D-02  0.217859D-02 -0.394840D-02 -0.930478D-02  0.109562D-01
     39  0.837634D-03 -0.123811D-02  0.206323D-02 -0.432639D-02 -0.229519D-02
               16            17            18            19            20 
     16  0.643745D+00
     17  0.118781D+00  0.472708D+00
     18  0.228665D+00  0.143286D+00  0.251318D+00
     19  0.352476D-02  0.258057D-02  0.487446D-03  0.742960D-01
     20 -0.296734D-02 -0.277154D-02 -0.118973D-02 -0.108690D-01  0.535103D-01
     21  0.254261D-02  0.971060D-03  0.372300D-04  0.738403D-01 -0.266593D-01
     22  0.732796D-03  0.196897D-02  0.136948D-02 -0.320130D-02 -0.761289D-02
     23 -0.114268D-02 -0.219849D-02 -0.137268D-02  0.185510D-02  0.442761D-02
     24 -0.337765D-03  0.387046D-03  0.752566D-03 -0.120120D-01 -0.296192D-01
     25  0.128617D-03  0.331145D-02  0.219033D-02  0.710918D-02  0.188203D-02
     26  0.184848D-02 -0.484195D-02 -0.623737D-03 -0.320053D-02 -0.755821D-03
     27 -0.124550D-02  0.974236D-03 -0.740866D-03  0.273926D-01  0.987343D-02
     28 -0.155283D+00  0.113060D+00 -0.207130D-01 -0.226233D-02  0.179202D-02
     29  0.549701D-01 -0.138056D+00 -0.332105D-02  0.130349D-02 -0.108925D-02
     30 -0.512011D-01  0.699848D-01 -0.438600D-01  0.172793D-02 -0.133421D-02
     31  0.341569D-02 -0.113198D-02  0.133431D-02 -0.212214D-03  0.146016D-03
     32  0.513608D-02 -0.330622D-02  0.149874D-02 -0.968519D-04  0.217287D-03
     33  0.135387D-02 -0.328749D-02  0.295477D-02  0.113483D-04 -0.188138D-03
     34 -0.886152D-01 -0.584038D-01 -0.200508D-01 -0.282859D-03 -0.330384D-03
     35 -0.557211D-01 -0.195530D+00 -0.801430D-02 -0.509356D-03  0.985475D-03
     36 -0.381134D-01 -0.706393D-01 -0.877291D-01 -0.516930D-03  0.778403D-03
     37  0.754292D-01 -0.738551D-01  0.354289D-01 -0.133319D-02  0.179031D-02
     38 -0.547547D-01  0.284018D-01 -0.639856D-01  0.620301D-03 -0.107843D-03
     39  0.271341D-01 -0.871072D-01 -0.355742D-01 -0.163135D-02  0.974058D-03
               21            22            23            24            25 
     21  0.308189D+00
     22 -0.166378D-02  0.917943D-01
     23  0.240656D-02  0.927121D-01  0.287680D+00
     24 -0.982462D-02  0.355513D-01  0.859957D-01  0.816548D-01
     25 -0.536550D-02 -0.876090D-02 -0.178105D-02  0.729415D-02  0.235203D+00
     26  0.974937D-03 -0.227347D-01 -0.580148D-02  0.180328D-01  0.535143D-01
     27 -0.188393D-01 -0.962434D-02 -0.304439D-02  0.639871D-02 -0.121952D+00
     28 -0.986574D-03 -0.130643D-03  0.244623D-03  0.118234D-03 -0.157743D-02
     29  0.825713D-03 -0.430443D-03  0.298035D-03 -0.260193D-04  0.110769D-02
     30 -0.414218D-03 -0.301640D-03  0.308440D-03 -0.210242D-03 -0.223719D-02
     31 -0.129004D-03  0.591214D-03 -0.355737D-03 -0.207344D-03 -0.176054D-03
     32  0.525982D-04  0.133351D-02 -0.606569D-03  0.170247D-03 -0.150103D-03
     33  0.231682D-03  0.420006D-03 -0.652953D-03  0.623393D-03  0.101901D-03
     34 -0.455287D-03 -0.101797D-02 -0.199753D-02 -0.293198D-03 -0.561302D-03
     35 -0.425780D-03 -0.126851D-02  0.205233D-02 -0.218491D-03 -0.865725D-03
     36  0.761950D-04 -0.617343D-03  0.504069D-04 -0.993832D-03 -0.134259D-03
     37 -0.493848D-03  0.144568D-02 -0.122681D-02 -0.367513D-04  0.833707D-03
     38 -0.951108D-03  0.802964D-03 -0.542830D-03 -0.199769D-03 -0.410372D-02
     39 -0.154408D-03  0.131911D-03  0.253339D-04 -0.962338D-05 -0.942489D-03
               26            27            28            29            30 
     26  0.671636D-01
     27 -0.383510D-01  0.129381D+00
     28  0.131485D-02 -0.328068D-04  0.188381D+00
     29  0.608392D-03 -0.573477D-03 -0.117673D+00  0.195048D+00
     30  0.318810D-02 -0.682388D-03  0.243398D-01 -0.292869D-01  0.179229D-01
     31  0.105444D-03 -0.100194D-03 -0.600263D-02  0.465534D-02 -0.232164D-02
     32  0.323973D-03 -0.980828D-04  0.229631D-03  0.538996D-02  0.137468D-02
     33  0.178938D-03 -0.606628D-04  0.203559D-02  0.158883D-02 -0.180711D-02
     34 -0.110652D-02 -0.333085D-03  0.148921D-01  0.235969D-01  0.886704D-02
     35  0.124651D-02 -0.137436D-04 -0.782178D-02 -0.500223D-01 -0.150324D-01
     36 -0.567909D-03 -0.171582D-03  0.100231D-01 -0.130250D-02  0.176794D-01
     37 -0.188031D-02  0.859882D-03 -0.208523D-01  0.484479D-01  0.207569D-01
     38  0.309463D-02 -0.397701D-03 -0.359814D-01 -0.213405D-01 -0.554991D-01
     39 -0.263854D-03 -0.224745D-04 -0.797612D-04  0.216194D-01 -0.700683D-02
               31            32            33            34            35 
     31  0.213126D+00
     32 -0.192398D+00  0.329608D+00
     33  0.609336D-01 -0.455132D-01  0.149638D-01
     34 -0.104729D-02 -0.388263D-03  0.349009D-03  0.107060D+00
     35  0.221579D-03  0.168803D-02  0.938719D-03  0.783546D-01  0.297140D+00
     36  0.767862D-03  0.338856D-03 -0.763423D-03  0.133392D+00  0.697028D-01
     37 -0.207912D-02 -0.135249D-01  0.753991D-02 -0.695895D-02  0.754661D-02
     38 -0.157291D-01 -0.224818D-01  0.105763D-01  0.300360D-02 -0.133560D-01
     39 -0.882792D-03 -0.139366D-02  0.144019D-01 -0.625889D-02 -0.338079D-02
               36            37            38            39 
     36  0.497573D+00
     37 -0.474656D-02 -0.289405D-02
     38  0.148859D-01  0.205970D-01 -0.181812D-01
     39  0.520588D-02 -0.709604D-01  0.909092D-01  0.292765D-01
 FormGI is forming the generalized inverse of G from B-inverse, IUseBI=4.
 Leave Link  716 at Tue Apr 12 08:25:56 2016, MaxMem=    33554432 cpu:         0.0
 (Enter /usr/local/gau/g09/l103.exe)

 GradGradGradGradGradGradGradGradGradGradGradGradGradGradGradGradGradGrad
 Berny optimization.
 Red2BG is reusing G-inverse.
 Internal  Forces:  Max     0.057897845 RMS     0.016887189
 Search for a saddle point.
 Step number   1 out of a maximum of   65
 All quantities printed in internal units (Hartrees-Bohrs-Radians)
 Swapping is turned off.
 Second derivative matrix not updated -- analytic derivatives used.
 ITU=  0
     Eigenvalues ---   -0.12524  -0.01859  -0.00267  -0.00056   0.00135
     Eigenvalues ---    0.00403   0.01330   0.01671   0.02626   0.04873
     Eigenvalues ---    0.04927   0.06489   0.10867   0.11605   0.12797
     Eigenvalues ---    0.13041   0.13666   0.15430   0.15888   0.16309
     Eigenvalues ---    0.17936   0.21119   0.32386   0.32766   0.33002
     Eigenvalues ---    0.34248   0.35712   0.36878   0.46456   0.47512
     Eigenvalues ---    0.49539   0.51834   0.56335
 Eigenvectors required to have negative eigenvalues:
                          A18       R6        D22       A8        A19
   1                    0.47099  -0.33016   0.32994  -0.30515  -0.27237
                          D21       D6        D3        D2        A17
   1                   -0.26206  -0.21340  -0.19672   0.17128  -0.16902
 Eigenvalue     2 is  -1.86D-02 should be greater than     0.000000 Eigenvector:
                          D6        D4        D5        D3        D1
   1                   -0.40945  -0.38985  -0.35400  -0.29323  -0.27363
                          D2        D13       R13       D15       D14
   1                   -0.23778   0.20145   0.19657   0.19086   0.19044
 Eigenvalue     3 is  -2.67D-03 should be greater than     0.000000 Eigenvector:
                          D21       D22       D20       D14       D13
   1                    0.57578   0.56966   0.56300  -0.05950  -0.05352
                          D15       D3        D6        A8        D18
   1                   -0.05300  -0.05292  -0.04925  -0.04872  -0.04187
 Eigenvalue     4 is  -5.56D-04 should be greater than     0.000000 Eigenvector:
                          D14       D13       D15       D6        D5
   1                    0.33946   0.33459   0.32780   0.32085   0.31405
                          D22       A8        R6        D3        D2
   1                    0.22410   0.21825  -0.21274   0.18845   0.18165
 RFO step:  Lambda0=3.330711325D-03 Lambda=-6.80379084D-02.
 Linear search not attempted -- option 19 set.
 Maximum step size (   0.300) exceeded in Quadratic search.
    -- Step size scaled by   0.446
 Iteration  1 RMS(Cart)=  0.07808531 RMS(Int)=  0.00906277
 Iteration  2 RMS(Cart)=  0.00555113 RMS(Int)=  0.00250422
 Iteration  3 RMS(Cart)=  0.00010040 RMS(Int)=  0.00250362
 Iteration  4 RMS(Cart)=  0.00000083 RMS(Int)=  0.00250362
 ITry= 1 IFail=0 DXMaxC= 2.68D-01 DCOld= 1.00D+10 DXMaxT= 3.00D-01 DXLimC= 3.00D+00 Rises=F
 Variable       Old X    -DE/DX   Delta X   Delta X   Delta X     New X
                                 (Linear)    (Quad)   (Total)
    R1        1.89636   0.00058   0.00000  -0.00004  -0.00004   1.89632
    R2        2.63279   0.05750   0.00000   0.01232   0.01232   2.64511
    R3        1.89992   0.00827   0.00000  -0.00245  -0.00245   1.89747
    R4        2.84087  -0.00066   0.00000  -0.00229  -0.00229   2.83858
    R5        2.54221   0.02435   0.00000   0.02313   0.02082   2.56303
    R6        2.50525   0.05790   0.00000   0.15842   0.16201   2.66726
    R7        1.85600  -0.00227   0.00000  -0.00124  -0.00124   1.85475
    R8        2.07561   0.00106   0.00000  -0.00134  -0.00134   2.07427
    R9        2.06050  -0.00057   0.00000   0.00108   0.00108   2.06158
   R10        2.07718  -0.00014   0.00000  -0.00111  -0.00111   2.07606
   R11        2.66481  -0.03282   0.00000  -0.00128  -0.00128   2.66353
   R12        2.64885  -0.00772   0.00000  -0.01438  -0.01438   2.63448
   R13        2.47169   0.00278   0.00000  -0.05920  -0.06071   2.41098
    A1        2.10258  -0.00764   0.00000  -0.00778  -0.00779   2.09478
    A2        2.07788  -0.00716   0.00000  -0.00061  -0.00062   2.07726
    A3        2.08053   0.01393   0.00000   0.01041   0.01039   2.09093
    A4        2.03345  -0.02259   0.00000  -0.05487  -0.05036   1.98309
    A5        2.10966   0.00238   0.00000   0.00660   0.00587   2.11553
    A6        1.16784   0.02837   0.00000   0.12210   0.12618   1.29402
    A7        2.14004   0.02024   0.00000   0.04845   0.04444   2.18448
    A8        2.75085  -0.01860   0.00000  -0.09815  -0.09653   2.65432
    A9        1.93153   0.00517   0.00000   0.00753   0.00750   1.93903
   A10        1.93081  -0.00205   0.00000   0.00772   0.00769   1.93850
   A11        1.93804  -0.00529   0.00000  -0.02052  -0.02050   1.91753
   A12        1.88943  -0.00073   0.00000   0.00100   0.00092   1.89035
   A13        1.87473   0.00042   0.00000   0.00412   0.00415   1.87888
   A14        1.89759   0.00262   0.00000   0.00041   0.00042   1.89800
   A15        2.10339  -0.02498   0.00000  -0.02155  -0.02597   2.07742
   A16        2.16418  -0.01114   0.00000  -0.01977  -0.01510   2.14908
   A17        2.01544   0.03605   0.00000   0.04072   0.03991   2.05535
   A18        1.17658  -0.03142   0.00000  -0.03866  -0.03422   1.14236
   A19        2.66115  -0.02523   0.00000  -0.15475  -0.16066   2.50049
   A20        1.93088  -0.00709   0.00000  -0.01725  -0.01725   1.91363
    D1        0.10954   0.00171   0.00000   0.10922   0.10668   0.21622
    D2       -3.04060   0.00535   0.00000   0.13222   0.12873  -2.91187
    D3        2.82507  -0.01305   0.00000   0.02832   0.03434   2.85941
    D4        3.02427  -0.00359   0.00000   0.11935   0.11682   3.14108
    D5       -0.12587   0.00006   0.00000   0.14234   0.13886   0.01299
    D6       -0.54339  -0.01835   0.00000   0.03845   0.04447  -0.49892
    D7        1.03078   0.00394   0.00000   0.05514   0.05419   1.08498
    D8        3.12490   0.00507   0.00000   0.06634   0.06544  -3.09285
    D9       -1.04963   0.00346   0.00000   0.05835   0.05744  -0.99219
   D10       -2.10210   0.00033   0.00000   0.03195   0.03136  -2.07074
   D11       -0.00799   0.00145   0.00000   0.04315   0.04261   0.03462
   D12        2.10067  -0.00015   0.00000   0.03516   0.03460   2.13528
   D13       -0.60031  -0.00512   0.00000  -0.07649  -0.07502  -0.67534
   D14        1.49380  -0.00399   0.00000  -0.06528  -0.06377   1.43003
   D15       -2.68072  -0.00560   0.00000  -0.07327  -0.07178  -2.75250
   D16        0.09061  -0.01145   0.00000  -0.03715  -0.03938   0.05123
   D17       -3.03040  -0.00777   0.00000  -0.00028  -0.00324  -3.03364
   D18       -3.06006  -0.00780   0.00000  -0.01325  -0.01517  -3.07523
   D19        0.10211  -0.00411   0.00000   0.02362   0.02097   0.12308
   D20       -2.06781  -0.00128   0.00000  -0.13256  -0.13497  -2.20278
   D21        1.09343   0.00287   0.00000  -0.09674  -0.09856   0.99487
   D22        2.65791  -0.00931   0.00000  -0.17615  -0.17192   2.48599
         Item               Value     Threshold  Converged?
 Maximum Force            0.057898     0.000450     NO 
 RMS     Force            0.016887     0.000300     NO 
 Maximum Displacement     0.267978     0.001800     NO 
 RMS     Displacement     0.078256     0.001200     NO 
 Predicted change in Energy=-2.703072D-02
 Lowest energy point so far.  Saving SCF results.
 GradGradGradGradGradGradGradGradGradGradGradGradGradGradGradGradGradGrad

 Leave Link  103 at Tue Apr 12 08:25:56 2016, MaxMem=    33554432 cpu:         0.0
 (Enter /usr/local/gau/g09/l202.exe)
                          Input orientation:                          
 ---------------------------------------------------------------------
 Center     Atomic      Atomic             Coordinates (Angstroms)
 Number     Number       Type             X           Y           Z
 ---------------------------------------------------------------------
      1          7           0        0.874975    1.711937    0.770321
      2          1           0        1.839320    1.906790    0.967954
      3          6           0        0.490038    0.432013    0.354553
      4          1           0       -1.512633   -1.093226   -1.413462
      5          6           0        1.561077   -0.606078    0.532250
      6          6           0       -0.740058    0.203440   -0.169046
      7          1           0        1.825641   -0.723617    1.591042
      8          1           0        1.235374   -1.574871    0.150793
      9          1           0        2.469022   -0.301704   -0.006196
     10          8           0       -1.618564    1.290480   -0.351274
     11          1           0        0.229484    2.477107    0.692448
     12          8           0       -1.211133   -1.071363   -0.479681
     13          1           0       -0.697468    1.080312    0.756715
 ---------------------------------------------------------------------
                    Distance matrix (angstroms):
                    1          2          3          4          5
     1  N    0.000000
     2  H    1.003488   0.000000
     3  C    1.399731   2.090883   0.000000
     4  H    4.282349   5.089875   3.076186   0.000000
     5  C    2.429116   2.565495   1.502109   3.670259   0.000000
     6  C    2.401313   3.293533   1.356295   1.956217   2.538180
     7  H    2.740305   2.703233   2.155974   4.506410   1.097657
     8  H    3.364047   3.626909   2.150495   3.198502   1.090942
     9  H    2.683042   2.494582   2.141228   4.296566   1.098604
    10  O    2.766467   3.751954   2.383560   2.611803   3.806266
    11  H    1.004096   1.729953   2.089132   4.496343   3.362266
    12  O    3.696093   4.502255   2.418691   0.981493   2.987581
    13  H    1.694612   2.676374   1.411452   3.177803   2.827600
                    6          7          8          9         10
     6  C    0.000000
     7  H    3.246561   0.000000
     8  H    2.677129   1.774083   0.000000
     9  H    3.252673   1.772884   1.779744   0.000000
    10  O    1.409480   4.437536   4.075202   4.400282   0.000000
    11  H    2.617583   3.687794   4.209956   3.636677   2.431609
    12  O    1.394105   3.691994   2.576123   3.789472   2.400164
    13  H    1.275834   3.211906   3.339613   3.538171   1.456100
                   11         12         13
    11  H    0.000000
    12  O    4.005109   0.000000
    13  H    1.677619   2.534212   0.000000
 Stoichiometry    C3H7NO2
 Framework group  C1[X(C3H7NO2)]
 Deg. of freedom    33
 Full point group                 C1      NOp   1
 RotChk:  IX=0 Diff= 3.43D-02
 Largest Abelian subgroup         C1      NOp   1
 Largest concise Abelian subgroup C1      NOp   1
                         Standard orientation:                         
 ---------------------------------------------------------------------
 Center     Atomic      Atomic             Coordinates (Angstroms)
 Number     Number       Type             X           Y           Z
 ---------------------------------------------------------------------
      1          7           0        1.342023   -1.195275   -0.010374
      2          1           0        2.326535   -1.185495    0.183603
      3          6           0        0.614050    0.000204    0.001103
      4          1           0       -2.142057    1.208495    0.638931
      5          6           0        1.476433    1.229861    0.025030
      6          6           0       -0.742230   -0.002838    0.006519
      7          1           0        2.101594    1.291609   -0.875088
      8          1           0        0.868703    2.134001    0.082891
      9          1           0        2.146874    1.198803    0.894786
     10          8           0       -1.423163   -1.235605    0.063533
     11          1           0        0.857386   -2.074531   -0.026044
     12          8           0       -1.507299    1.156950   -0.107897
     13          1           0       -0.199019   -0.940075   -0.667469
 ---------------------------------------------------------------------
 Rotational constants (GHZ):      4.9291919      3.2753009      2.0103379
 Leave Link  202 at Tue Apr 12 08:25:56 2016, MaxMem=    33554432 cpu:         0.0
 (Enter /usr/local/gau/g09/l301.exe)
 Standard basis: 6-31G (6D, 7F)
 Ernie: Thresh=  0.10000D-02 Tol=  0.10000D-05 Strict=F.
 There are    68 symmetry adapted cartesian basis functions of A   symmetry.
 There are    68 symmetry adapted basis functions of A   symmetry.
    68 basis functions,   160 primitive gaussians,    68 cartesian basis functions
    24 alpha electrons       24 beta electrons
       nuclear repulsion energy       247.4298554450 Hartrees.
 IExCor=  402 DFT=T Ex+Corr=B3LYP ExCW=0 ScaHFX=  0.200000
 ScaDFX=  0.800000  0.720000  1.000000  0.810000 ScalE2=  1.000000  1.000000
 IRadAn=      0 IRanWt=     -1 IRanGd=            0 ICorTp=0 IEmpDi=  4
 NAtoms=   13 NActive=   13 NUniq=   13 SFac= 1.00D+00 NAtFMM=   60 NAOKFM=F Big=F
 Integral buffers will be    131072 words long.
 Raffenetti 2 integral format.
 Two-electron integral symmetry is turned on.
 Leave Link  301 at Tue Apr 12 08:25:56 2016, MaxMem=    33554432 cpu:         0.0
 (Enter /usr/local/gau/g09/l302.exe)
 NPDir=0 NMtPBC=     1 NCelOv=     1 NCel=       1 NClECP=     1 NCelD=      1
         NCelK=      1 NCelE2=     1 NClLst=     1 CellRange=     0.0.
 One-electron integrals computed using PRISM.
 NBasis=    68 RedAO= T EigKep=  2.82D-03  NBF=    68
 NBsUse=    68 1.00D-06 EigRej= -1.00D+00 NBFU=    68
 Precomputing XC quadrature grid using
 IXCGrd= 4 IRadAn=           0 IRanWt=          -1 IRanGd=           0 AccXCQ= 0.00D+00.
 Generated NRdTot=       0 NPtTot=           0 NUsed=           0 NTot=          32
 NSgBfM=    68    68    68    68    68 MxSgAt=    13 MxSgA2=    13.
 Leave Link  302 at Tue Apr 12 08:25:57 2016, MaxMem=    33554432 cpu:         0.3
 (Enter /usr/local/gau/g09/l303.exe)
 DipDrv:  MaxL=1.
 Leave Link  303 at Tue Apr 12 08:25:57 2016, MaxMem=    33554432 cpu:         0.0
 (Enter /usr/local/gau/g09/l401.exe)
 Initial guess from the checkpoint file:  "Ala-S-opt-freq-tsa3-6-31g.chk"
 B after Tr=     0.000000    0.000000    0.000000
         Rot=    0.999973   -0.002687   -0.001320    0.006727 Ang=  -0.84 deg.
 Guess basis will be translated and rotated to current coordinates.
 JPrj=2 DoOrth=T DoCkMO=T.
 Generating alternative initial guess.
 ExpMin= 1.61D-01 ExpMax= 5.48D+03 ExpMxC= 8.25D+02 IAcc=1 IRadAn=         1 AccDes= 0.00D+00
 Harris functional with IExCor=  402 and IRadAn=       1 diagonalized for initial guess.
 HarFok:  IExCor=  402 AccDes= 0.00D+00 IRadAn=         1 IDoV= 1 UseB2=F ITyADJ=14
 ICtDFT=  3500011 ScaDFX=  1.000000  1.000000  1.000000  1.000000
 FoFCou: FMM=F IPFlag=           0 FMFlag=      100000 FMFlg1=           0
         NFxFlg=           0 DoJE=T BraDBF=F KetDBF=T FulRan=T
         wScrn=  0.000000 ICntrl=     500 IOpCl=  0 I1Cent=   200000004 NGrid=           0
         NMat0=    1 NMatS0=      1 NMatT0=    0 NMatD0=    1 NMtDS0=    0 NMtDT0=    0
 Petite list used in FoFCou.
 Harris En= -323.508390902619    
 Leave Link  401 at Tue Apr 12 08:25:58 2016, MaxMem=    33554432 cpu:         0.6
 (Enter /usr/local/gau/g09/l502.exe)
 Closed shell SCF:
 Using DIIS extrapolation, IDIIS=  1040.
 Integral symmetry usage will be decided dynamically.
 Keep R1 ints in memory in canonical form, NReq=3676491.
 IVT=       33364 IEndB=       33364 NGot=    33554432 MDV=    30768038
 LenX=    30768038 LenY=    30762973
 Requested convergence on RMS density matrix=1.00D-08 within 128 cycles.
 Requested convergence on MAX density matrix=1.00D-06.
 Requested convergence on             energy=1.00D-06.
 No special actions if energy rises.
 FoFCou: FMM=F IPFlag=           0 FMFlag=           0 FMFlg1=           0
         NFxFlg=           0 DoJE=F BraDBF=F KetDBF=F FulRan=T
         wScrn=  0.000000 ICntrl=     600 IOpCl=  0 I1Cent=           0 NGrid=           0
         NMat0=    1 NMatS0=   2346 NMatT0=    0 NMatD0=    1 NMtDS0=    0 NMtDT0=    0
 Symmetry not used in FoFCou.
 Integral accuracy reduced to 1.0D-05 until final iterations.

 Cycle   1  Pass 0  IDiag  1:
 E= -323.432304060052    
 DIIS: error= 5.82D-03 at cycle   1 NSaved=   1.
 NSaved= 1 IEnMin= 1 EnMin= -323.432304060052     IErMin= 1 ErrMin= 5.82D-03
 ErrMax= 5.82D-03  0.00D+00 EMaxC= 1.00D-01 BMatC= 6.36D-03 BMatP= 6.36D-03
 IDIUse=3 WtCom= 9.42D-01 WtEn= 5.82D-02
 Coeff-Com:  0.100D+01
 Coeff-En:   0.100D+01
 Coeff:      0.100D+01
 Gap=     0.599 Goal=   None    Shift=    0.000
 GapD=    0.599 DampG=2.000 DampE=1.000 DampFc=2.0000 IDamp=-1.
 RMSDP=3.62D-03 MaxDP=3.01D-02              OVMax= 6.69D-02

 Cycle   2  Pass 0  IDiag  1:
 E= -323.442597611381     Delta-E=       -0.010293551329 Rises=F Damp=F
 DIIS: error= 1.07D-02 at cycle   2 NSaved=   2.
 NSaved= 2 IEnMin= 2 EnMin= -323.442597611381     IErMin= 1 ErrMin= 5.82D-03
 ErrMax= 1.07D-02  0.00D+00 EMaxC= 1.00D-01 BMatC= 3.92D-03 BMatP= 6.36D-03
 IDIUse=3 WtCom= 8.93D-01 WtEn= 1.07D-01
 Coeff-Com:  0.400D+00 0.600D+00
 Coeff-En:   0.000D+00 0.100D+01
 Coeff:      0.358D+00 0.642D+00
 Gap=     0.191 Goal=   None    Shift=    0.000
 RMSDP=2.46D-03 MaxDP=3.07D-02 DE=-1.03D-02 OVMax= 6.93D-02

 Cycle   3  Pass 0  IDiag  1:
 E= -323.439548597841     Delta-E=        0.003049013539 Rises=F Damp=F
 DIIS: error= 1.46D-02 at cycle   3 NSaved=   3.
 NSaved= 3 IEnMin= 2 EnMin= -323.442597611381     IErMin= 1 ErrMin= 5.82D-03
 ErrMax= 1.46D-02  0.00D+00 EMaxC= 1.00D-01 BMatC= 7.23D-03 BMatP= 3.92D-03
 IDIUse=2 WtCom= 0.00D+00 WtEn= 1.00D+00
 Coeff-En:   0.000D+00 0.604D+00 0.396D+00
 Coeff:      0.000D+00 0.604D+00 0.396D+00
 Gap=     0.192 Goal=   None    Shift=    0.000
 RMSDP=1.49D-03 MaxDP=1.77D-02 DE= 3.05D-03 OVMax= 3.79D-02

 Cycle   4  Pass 0  IDiag  1:
 E= -323.446212493874     Delta-E=       -0.006663896033 Rises=F Damp=F
 DIIS: error= 1.95D-03 at cycle   4 NSaved=   4.
 NSaved= 4 IEnMin= 4 EnMin= -323.446212493874     IErMin= 4 ErrMin= 1.95D-03
 ErrMax= 1.95D-03  0.00D+00 EMaxC= 1.00D-01 BMatC= 2.21D-04 BMatP= 3.92D-03
 IDIUse=3 WtCom= 9.81D-01 WtEn= 1.95D-02
 Coeff-Com: -0.336D-01 0.366D+00 0.250D+00 0.418D+00
 Coeff-En:   0.000D+00 0.000D+00 0.000D+00 0.100D+01
 Coeff:     -0.329D-01 0.359D+00 0.245D+00 0.429D+00
 Gap=     0.192 Goal=   None    Shift=    0.000
 RMSDP=2.63D-04 MaxDP=3.96D-03 DE=-6.66D-03 OVMax= 7.11D-03

 Cycle   5  Pass 0  IDiag  1:
 E= -323.446417279660     Delta-E=       -0.000204785786 Rises=F Damp=F
 DIIS: error= 4.54D-04 at cycle   5 NSaved=   5.
 NSaved= 5 IEnMin= 5 EnMin= -323.446417279660     IErMin= 5 ErrMin= 4.54D-04
 ErrMax= 4.54D-04  0.00D+00 EMaxC= 1.00D-01 BMatC= 6.49D-06 BMatP= 2.21D-04
 IDIUse=3 WtCom= 9.95D-01 WtEn= 4.54D-03
 Coeff-Com: -0.756D-02 0.546D-01 0.473D-01 0.147D+00 0.758D+00
 Coeff-En:   0.000D+00 0.000D+00 0.000D+00 0.000D+00 0.100D+01
 Coeff:     -0.752D-02 0.544D-01 0.471D-01 0.147D+00 0.759D+00
 Gap=     0.192 Goal=   None    Shift=    0.000
 RMSDP=8.06D-05 MaxDP=8.85D-04 DE=-2.05D-04 OVMax= 1.80D-03

 Cycle   6  Pass 0  IDiag  1:
 E= -323.446424568882     Delta-E=       -0.000007289223 Rises=F Damp=F
 DIIS: error= 8.67D-05 at cycle   6 NSaved=   6.
 NSaved= 6 IEnMin= 6 EnMin= -323.446424568882     IErMin= 6 ErrMin= 8.67D-05
 ErrMax= 8.67D-05  0.00D+00 EMaxC= 1.00D-01 BMatC= 8.28D-07 BMatP= 6.49D-06
 IDIUse=1 WtCom= 1.00D+00 WtEn= 0.00D+00
 Coeff-Com: -0.548D-03-0.840D-02 0.265D-03 0.282D-01 0.391D+00 0.589D+00
 Coeff:     -0.548D-03-0.840D-02 0.265D-03 0.282D-01 0.391D+00 0.589D+00
 Gap=     0.192 Goal=   None    Shift=    0.000
 RMSDP=1.74D-05 MaxDP=1.60D-04 DE=-7.29D-06 OVMax= 2.30D-04

 Cycle   7  Pass 0  IDiag  1:
 E= -323.446425390562     Delta-E=       -0.000000821680 Rises=F Damp=F
 DIIS: error= 2.04D-05 at cycle   7 NSaved=   7.
 NSaved= 7 IEnMin= 7 EnMin= -323.446425390562     IErMin= 7 ErrMin= 2.04D-05
 ErrMax= 2.04D-05  0.00D+00 EMaxC= 1.00D-01 BMatC= 3.30D-08 BMatP= 8.28D-07
 IDIUse=1 WtCom= 1.00D+00 WtEn= 0.00D+00
 Coeff-Com:  0.524D-03-0.836D-02-0.464D-02-0.608D-02 0.766D-01 0.195D+00
 Coeff-Com:  0.747D+00
 Coeff:      0.524D-03-0.836D-02-0.464D-02-0.608D-02 0.766D-01 0.195D+00
 Coeff:      0.747D+00
 Gap=     0.192 Goal=   None    Shift=    0.000
 RMSDP=6.92D-06 MaxDP=5.00D-05 DE=-8.22D-07 OVMax= 1.45D-04

 Initial convergence to 1.0D-05 achieved.  Increase integral accuracy.
 Cycle   8  Pass 1  IDiag  1:
 E= -323.446440189494     Delta-E=       -0.000014798931 Rises=F Damp=F
 DIIS: error= 1.13D-05 at cycle   1 NSaved=   1.
 NSaved= 1 IEnMin= 1 EnMin= -323.446440189494     IErMin= 1 ErrMin= 1.13D-05
 ErrMax= 1.13D-05  0.00D+00 EMaxC= 1.00D-01 BMatC= 2.62D-08 BMatP= 2.62D-08
 IDIUse=1 WtCom= 1.00D+00 WtEn= 0.00D+00
 Coeff-Com:  0.100D+01
 Coeff:      0.100D+01
 Gap=     0.192 Goal=   None    Shift=    0.000
 RMSDP=6.92D-06 MaxDP=5.00D-05 DE=-1.48D-05 OVMax= 7.41D-05

 Cycle   9  Pass 1  IDiag  1:
 E= -323.446440204156     Delta-E=       -0.000000014663 Rises=F Damp=F
 DIIS: error= 1.91D-05 at cycle   2 NSaved=   2.
 NSaved= 2 IEnMin= 2 EnMin= -323.446440204156     IErMin= 1 ErrMin= 1.13D-05
 ErrMax= 1.91D-05  0.00D+00 EMaxC= 1.00D-01 BMatC= 2.90D-08 BMatP= 2.62D-08
 IDIUse=1 WtCom= 1.00D+00 WtEn= 0.00D+00
 Coeff-Com:  0.516D+00 0.484D+00
 Coeff:      0.516D+00 0.484D+00
 Gap=     0.192 Goal=   None    Shift=    0.000
[...]
   A14        1.88670   0.00000   0.00000  -0.00005  -0.00005   1.88665
   A15        2.08766  -0.00003   0.00000  -0.00025  -0.00025   2.08741
   A16        2.05672   0.00000   0.00000   0.00006   0.00006   2.05679
   A17        2.04425   0.00002   0.00000   0.00014   0.00014   2.04439
   A18        1.02921   0.00003   0.00000  -0.00040  -0.00040   1.02881
   A19        2.07595   0.00003   0.00000   0.00044   0.00044   2.07639
   A20        1.87707   0.00003   0.00000   0.00020   0.00020   1.87727
    D1       -0.16868   0.00000   0.00000  -0.00017  -0.00017  -0.16886
    D2        2.92965   0.00000   0.00000  -0.00006  -0.00006   2.92959
    D3        2.46186   0.00000   0.00000   0.00006   0.00006   2.46192
    D4        3.00473  -0.00001   0.00000  -0.00049  -0.00049   3.00425
    D5       -0.18012   0.00000   0.00000  -0.00038  -0.00038  -0.18049
    D6       -0.64791  -0.00001   0.00000  -0.00025  -0.00025  -0.64817
    D7        0.92102   0.00000   0.00000  -0.00069  -0.00069   0.92033
    D8        3.03821   0.00000   0.00000  -0.00069  -0.00069   3.03753
    D9       -1.16251   0.00000   0.00000  -0.00071  -0.00071  -1.16322
   D10       -2.17436   0.00000   0.00000  -0.00082  -0.00082  -2.17518
   D11       -0.05717   0.00000   0.00000  -0.00081  -0.00081  -0.05798
   D12        2.02529   0.00000   0.00000  -0.00083  -0.00083   2.02447
   D13       -1.49105   0.00000   0.00000  -0.00082  -0.00082  -1.49187
   D14        0.62614   0.00000   0.00000  -0.00082  -0.00082   0.62533
   D15        2.70860   0.00000   0.00000  -0.00083  -0.00083   2.70777
   D16        0.13298   0.00000   0.00000  -0.00008  -0.00008   0.13290
   D17        2.80852  -0.00001   0.00000  -0.00016  -0.00016   2.80836
   D18       -3.05340   0.00001   0.00000   0.00004   0.00004  -3.05336
   D19       -0.37786  -0.00001   0.00000  -0.00004  -0.00004  -0.37790
   D20       -3.03475   0.00000   0.00000   0.00059   0.00059  -3.03415
   D21       -0.34759  -0.00002   0.00000   0.00041   0.00041  -0.34718
   D22        0.83497   0.00003   0.00000   0.00013   0.00013   0.83511
         Item               Value     Threshold  Converged?
 Maximum Force            0.000086     0.000450     YES
 RMS     Force            0.000021     0.000300     YES
 Maximum Displacement     0.001229     0.001800     YES
 RMS     Displacement     0.000406     0.001200     YES
 Predicted change in Energy=-2.579115D-08
 Optimization completed.
    -- Stationary point found.
                           ----------------------------
                           !   Optimized Parameters   !
                           ! (Angstroms and Degrees)  !
 --------------------------                            --------------------------
 ! Name  Definition              Value          Derivative Info.                !
 --------------------------------------------------------------------------------
 ! R1    R(1,2)                  1.0057         -DE/DX =    0.0                 !
 ! R2    R(1,3)                  1.3599         -DE/DX =   -0.0001              !
 ! R3    R(1,11)                 1.0126         -DE/DX =    0.0                 !
 ! R4    R(3,5)                  1.4962         -DE/DX =    0.0                 !
 ! R5    R(3,6)                  1.3969         -DE/DX =    0.0001              !
 ! R6    R(3,13)                 2.1526         -DE/DX =    0.0                 !
 ! R7    R(4,12)                 0.9772         -DE/DX =    0.0                 !
 ! R8    R(5,7)                  1.0991         -DE/DX =    0.0                 !
 ! R9    R(5,8)                  1.0901         -DE/DX =    0.0                 !
 ! R10   R(5,9)                  1.0985         -DE/DX =    0.0                 !
 ! R11   R(6,10)                 1.4712         -DE/DX =    0.0                 !
 ! R12   R(6,12)                 1.4112         -DE/DX =    0.0                 !
 ! R13   R(6,13)                 1.2188         -DE/DX =    0.0                 !
 ! A1    A(2,1,3)              122.5148         -DE/DX =    0.0                 !
 ! A2    A(2,1,11)             120.5008         -DE/DX =    0.0                 !
 ! A3    A(3,1,11)             116.9591         -DE/DX =    0.0                 !
 ! A4    A(1,3,5)              120.0123         -DE/DX =    0.0                 !
 ! A5    A(1,3,6)              116.6961         -DE/DX =    0.0                 !
 ! A6    A(1,3,13)              97.29           -DE/DX =    0.0                 !
 ! A7    A(5,3,6)              123.2421         -DE/DX =    0.0                 !
 ! A8    A(5,3,13)             133.2911         -DE/DX =    0.0                 !
 ! A9    A(3,5,7)              111.7795         -DE/DX =    0.0                 !
 ! A10   A(3,5,8)              110.3162         -DE/DX =    0.0                 !
 ! A11   A(3,5,9)              110.2424         -DE/DX =    0.0                 !
 ! A12   A(7,5,8)              108.8857         -DE/DX =    0.0                 !
 ! A13   A(7,5,9)              107.3996         -DE/DX =    0.0                 !
 ! A14   A(8,5,9)              108.1002         -DE/DX =    0.0                 !
 ! A15   A(3,6,10)             119.6143         -DE/DX =    0.0                 !
 ! A16   A(3,6,12)             117.8416         -DE/DX =    0.0                 !
 ! A17   A(10,6,12)            117.1268         -DE/DX =    0.0                 !
 ! A18   A(10,6,13)             58.9696         -DE/DX =    0.0                 !
 ! A19   A(12,6,13)            118.9433         -DE/DX =    0.0                 !
 ! A20   A(4,12,6)             107.5482         -DE/DX =    0.0                 !
 ! D1    D(2,1,3,5)             -9.6649         -DE/DX =    0.0                 !
 ! D2    D(2,1,3,6)            167.8565         -DE/DX =    0.0                 !
 ! D3    D(2,1,3,13)           141.054          -DE/DX =    0.0                 !
 ! D4    D(11,1,3,5)           172.1585         -DE/DX =    0.0                 !
 ! D5    D(11,1,3,6)           -10.32           -DE/DX =    0.0                 !
 ! D6    D(11,1,3,13)          -37.1225         -DE/DX =    0.0                 !
 ! D7    D(1,3,5,7)             52.7706         -DE/DX =    0.0                 !
 ! D8    D(1,3,5,8)            174.0769         -DE/DX =    0.0                 !
 ! D9    D(1,3,5,9)            -66.6069         -DE/DX =    0.0                 !
 ! D10   D(6,3,5,7)           -124.5817         -DE/DX =    0.0                 !
 ! D11   D(6,3,5,8)             -3.2754         -DE/DX =    0.0                 !
 ! D12   D(6,3,5,9)            116.0408         -DE/DX =    0.0                 !
 ! D13   D(13,3,5,7)           -85.4309         -DE/DX =    0.0                 !
 ! D14   D(13,3,5,8)            35.8754         -DE/DX =    0.0                 !
 ! D15   D(13,3,5,9)           155.1916         -DE/DX =    0.0                 !
 ! D16   D(1,3,6,10)             7.6195         -DE/DX =    0.0                 !
 ! D17   D(1,3,6,12)           160.9162         -DE/DX =    0.0                 !
 ! D18   D(5,3,6,10)          -174.9467         -DE/DX =    0.0                 !
 ! D19   D(5,3,6,12)           -21.65           -DE/DX =    0.0                 !
 ! D20   D(3,6,12,4)          -173.8781         -DE/DX =    0.0                 !
 ! D21   D(10,6,12,4)          -19.9153         -DE/DX =    0.0                 !
 ! D22   D(13,6,12,4)           47.8404         -DE/DX =    0.0                 !
 --------------------------------------------------------------------------------
 GradGradGradGradGradGradGradGradGradGradGradGradGradGradGradGradGradGrad

 Leave Link  103 at Tue Apr 12 08:36:53 2016, MaxMem=    33554432 cpu:         0.0
 (Enter /usr/local/gau/g09/l9999.exe)

 Test job not archived.
 1\1\GINC-KALI\Freq\RB3LYP\6-31G\C3H7N1O2\ROOT\12-Apr-2016\0\\#P Geom=A
 llCheck Guess=TCheck SCRF=Check Test GenChk RB3LYP/6-31G Freq\\Ala-S-o
 pt-freq-tsa3-6-31g\\0,1\N,0.9696651199,1.7503550882,0.6885485165\H,1.8
 09617182,1.9878368466,1.1880751897\C,0.6480661544,0.4687253819,0.36689
 15131\H,-1.8236232229,-0.9036072781,-1.1334614553\C,1.6499034898,-0.62
 55103865,0.5610051695\C,-0.6531895682,0.2436334626,-0.0885904633\H,2.0
 533279401,-0.6323953812,1.5833133222\H,1.1963734953,-1.5949952671,0.35
 41036491\H,2.4969019073,-0.4914965249,-0.1254704672\O,-1.537608473,1.3
 882520914,-0.3572937147\H,0.3067067741,2.4695406875,0.4266878009\O,-0.
 9039445132,-0.9455211619,-0.8057969062\H,-1.4671213157,0.6164030015,0.
 7384037056\\Version=ES64L-G09RevD.01\State=1-A\HF=-323.5135361\RMSD=6.
 130e-09\RMSF=4.024e-05\ZeroPoint=0.1013242\Thermal=0.1085873\Dipole=1.
 0539395,-0.0046787,0.8948714\DipoleDeriv=-0.5782006,-0.144293,0.161762
 1,-0.8350654,-0.854365,-0.2457716,0.0048105,-0.0790425,-0.685237,0.264
 7435,0.0262615,-0.0828645,0.0192569,0.2214809,-0.0021131,-0.1408101,-0
 .0134374,0.316688,0.8970476,0.1384338,0.0980106,0.7972089,0.7021041,0.
 2850989,0.1543663,0.005767,0.1285593,0.1842768,0.0579933,-0.0475288,0.
 1751397,0.3450463,0.0246599,0.0153406,-0.0171328,0.3850586,0.0099776,0
 .0931121,0.0155093,-0.0639825,-0.0603814,-0.0469786,0.0717042,-0.01853
 22,0.1483973,-0.7298085,-0.0213189,-0.1102779,0.1950997,0.6678434,0.46
 98947,1.0577847,0.4476169,0.6003711,0.0068467,0.03397,-0.0803536,0.030
 8884,0.0538977,-0.0333732,-0.1331391,0.0184526,-0.1241773,0.0834061,-0
 .0681206,-0.0105242,-0.0096742,-0.0125509,-0.0087689,-0.0063827,-0.017
 4493,0.1048077,-0.1009319,0.0214062,0.0703898,0.0093459,0.0538928,0.04
 97042,0.0912145,0.0284836,0.0196383,-0.6399412,0.0753125,-0.0136841,0.
 7520079,-0.6412506,0.0504867,-0.8403551,0.0568092,-0.6156796,0.1198573
 ,0.0470495,-0.0946031,0.0109219,0.2394304,-0.0251188,-0.0686521,-0.003
 9314,0.3448496,-0.172124,-0.163596,-0.0212364,-0.3998113,-0.8914451,-0
 .3373947,-0.3211146,-0.2783468,-0.7502981,0.6548507,-0.0962105,0.11540
 09,-0.6813359,0.1762976,-0.1803254,0.1152328,-0.1292569,0.127022\Polar
 =68.7296837,-1.1621214,48.5935632,13.7087509,4.535732,33.6687499\PG=C0
 1 [X(C3H7N1O2)]\NImag=1\\0.71091290,-0.02551315,0.76511841,0.34327381,
 0.07174768,0.23839432,-0.33774421,-0.06979807,-0.19115459,0.34802273,-
 0.06850354,-0.09523114,-0.04712240,0.08080760,0.09056401,-0.19350704,-
 0.04857530,-0.11903933,0.19882865,0.05352988,0.12460802,-0.13604616,-0
 .04089233,-0.05059803,-0.00364756,-0.03501193,-0.00772885,0.66026629,-
 0.05652648,-0.35651443,-0.07013577,0.00063999,-0.00447929,-0.00049671,
 -0.00439848,0.69596307,-0.04774233,-0.07068113,-0.07756204,0.00083226,
 -0.01797824,-0.00619148,0.19755849,0.09808452,0.26548319,0.00076231,0.
 00233884,-0.00028030,0.00002744,-0.00009492,-0.00005291,-0.00112044,-0
 .00205437,-0.00076103,0.42587746,-0.00108126,0.00187638,-0.00040375,-0
 .00019154,-0.00055436,-0.00008280,-0.00045914,-0.00863854,-0.00316714,
 -0.00822064,0.04104102,-0.00029905,0.00144634,0.00098254,-0.00034467,-
 0.00018798,0.00073287,0.00091191,-0.00244970,-0.00087912,0.15584977,0.
 01888916,0.07293355,0.01069104,-0.00478728,0.00138222,0.00012344,-0.00
 014652,0.00160719,-0.14840945,0.06438274,-0.01698741,0.00028033,0.0005
 8019,0.00011669,0.53068736,0.02895707,-0.03439455,0.00541989,0.0001476
 3,0.00248248,0.00122309,0.06038689,-0.16177805,0.00943031,0.00024002,-
 0.00030095,0.00002696,0.04935918,0.55942592,0.00699399,-0.00869308,0.0
 0419538,0.00131799,-0.00002102,0.00000450,-0.02810261,0.01097265,-0.08
 110413,0.00031636,0.00035431,-0.00053918,0.00811147,0.01624249,0.53898
 309,-0.02657388,-0.05639829,-0.01761471,0.00460516,0.00286869,0.001594
 83,-0.27472968,-0.01017541,-0.08902253,-0.01075010,-0.04229090,-0.0251
 4276,-0.02275484,0.00356572,0.00327032,0.50054807,-0.04336871,-0.01827
 284,-0.01789322,0.00083565,-0.00555273,0.00024995,-0.04946191,-0.09659
 344,-0.01944585,0.00496943,-0.01054199,-0.00096499,0.02346647,0.008129
 89,0.00502985,0.07347537,0.41997265,-0.00748400,0.02765210,0.01084028,
 -0.00650722,-0.00244456,0.00422255,-0.14371679,-0.05274215,-0.11644311
 ,-0.00247138,-0.02517628,-0.01376795,-0.00696911,0.00223444,0.00651832
 ,0.19801332,0.12198836,0.30780101,0.00110881,-0.00205538,0.00157863,0.
 00079049,0.00050733,-0.00043639,-0.01669636,0.00237166,-0.02441706,0.0
 0008848,0.00026969,-0.00009348,-0.07713928,-0.00179061,-0.08441173,0.0
 0334688,0.00233482,0.00054088,0.08736693,-0.00006808,0.00206421,-0.000
 78705,-0.00064384,-0.00086633,0.00002447,0.01406436,-0.00100887,0.0263
 1014,-0.00016208,0.00019363,-0.00015616,-0.00069392,-0.05089826,-0.000
 27082,-0.00180213,-0.00299880,-0.00175393,-0.00333913,0.05124463,0.000
 56775,0.00009673,0.00126171,-0.00016917,0.00102532,-0.00046749,-0.0033
 7606,-0.00071130,-0.00113125,0.00009940,0.00017825,0.00003093,-0.08425
 173,-0.00212109,-0.26737103,0.00175819,0.00048376,0.00045989,0.0953094
 2,0.00044599,0.29452878,-0.00416032,0.00330759,-0.00177938,-0.00022329
 ,-0.00001810,0.00000327,0.01183773,0.02507383,0.00551708,0.00011392,-0
 .00029756,-0.00003328,-0.09943747,-0.10825855,-0.02270339,-0.00068772,
 0.00144339,0.00158452,-0.00479088,-0.00946632,-0.00082340,0.10787603,0
 .00468020,-0.00158719,0.00153800,0.00006250,0.00036518,0.00044331,-0.0
 1342602,-0.02395075,-0.00529546,-0.00032296,0.00053311,-0.00000964,-0.
 10057381,-0.26777601,-0.04547213,0.00055988,-0.00130978,-0.00204248,0.
 00106001,0.00187020,0.00126276,0.11079353,0.29392657,-0.00140435,0.000
 66660,0.00110487,0.00019310,0.00029243,-0.00051230,0.00346660,0.004142
 31,-0.00018884,0.00019072,-0.00025474,-0.00000479,-0.02284161,-0.04805
 339,-0.05998302,-0.00063171,0.00100657,0.00089282,-0.01361238,-0.02908
 104,-0.00539929,0.02487964,0.05099692,0.06054358,0.00188990,-0.0012825
 0,-0.00119387,-0.00012469,0.00013278,0.00082521,-0.02294738,-0.0002408
 9,0.01251731,0.00004467,0.00013252,0.00016689,-0.19475367,-0.02741172,
 0.12495700,-0.00090698,0.00314108,0.00153574,0.00907258,0.00115913,-0.
 00853013,-0.01028776,-0.00076158,0.00977696,0.21806888,-0.00103501,0.0
 0055045,0.00143291,0.00034892,-0.00035125,-0.00095912,0.02288596,0.001
 23468,-0.01679419,-0.00015298,-0.00003433,0.00010763,-0.02585087,-0.05
 242296,0.02032743,0.00140788,-0.00228918,-0.00061271,0.00009422,0.0002
 5117,-0.00112106,-0.02278662,-0.00276453,0.02056691,0.02544619,0.05488
 060,-0.00024571,-0.00031910,0.00052376,0.00040541,-0.00033512,-0.00041
 732,-0.00511287,-0.00029946,0.00573408,-0.00004054,-0.00002250,0.00000
 045,0.12348013,0.02122514,-0.14739455,-0.00117447,0.00075538,-0.001058
 83,0.02531371,0.00518881,-0.02149085,-0.00588610,-0.00135671,0.0042033
 5,-0.13728877,-0.02459560,0.16039431,0.00042927,0.00355178,0.00187892,
 -0.00169480,0.00159681,0.00168037,-0.03233790,0.03449082,-0.01905901,0
 .00045518,0.00172054,0.00239215,-0.00024351,-0.00372262,-0.00421130,-0
 .07725583,0.04377187,-0.03450364,-0.00193021,0.00183344,-0.00052722,0.
 00023934,-0.00005850,0.00000896,-0.00076808,0.00024224,-0.00001002,0.1
 2607957,0.00127851,0.02653875,0.00378566,-0.00444837,0.00158408,0.0004
 6499,-0.02074029,-0.02904903,-0.01213846,0.00077859,0.00261975,0.00130
 367,-0.00303246,0.00200392,0.00141814,0.13439101,-0.14231980,-0.018730
 44,0.00106630,-0.00095156,0.00102302,0.00005461,-0.00007708,0.00003994
 ,0.00028545,0.00028206,-0.00015853,-0.10406164,0.15587857,-0.00768974,
 -0.02296118,-0.00879313,0.00220033,0.00025262,0.00044344,0.03705728,0.
 02553825,0.01653945,0.00268303,0.00750266,0.00117783,-0.00212220,-0.00
 126562,0.00567956,-0.15494930,0.06496035,-0.00669024,0.00073649,-0.000
 14849,-0.00027612,-0.00043022,0.00053484,-0.00055587,-0.00118362,0.001
 03225,-0.00055123,0.05394114,-0.01587962,0.01898125,-0.22013096,0.1713
 0384,-0.08623225,-0.00856259,0.01925886,-0.00193468,0.01628087,0.00065
 777,0.00423272,0.00024384,-0.00025225,0.00020293,0.00092483,-0.0021209
 1,-0.00216767,-0.00917022,-0.00560423,0.00917001,-0.00057199,0.0002923
 4,-0.00028823,0.00034790,-0.00034776,-0.00016745,-0.00015162,-0.000258
 95,-0.00001798,0.00245976,0.01274655,-0.00556409,0.21427057,0.17378402
 ,-0.26024468,0.06062742,-0.01190629,0.01208283,-0.00449122,0.02453473,
 -0.02866091,0.00800475,-0.00012301,-0.00017019,-0.00002721,-0.00405410
 ,-0.00274682,-0.00141740,0.00240777,-0.00463910,0.00052173,-0.00012123
 ,0.00030835,0.00013414,0.00119267,-0.00072586,0.00014737,-0.00002291,0
 .00021576,-0.00014347,0.00243211,0.00337144,0.00073641,-0.18796158,0.2
 8135069,-0.08640668,0.05889345,-0.05494915,-0.00624082,0.01268394,-0.0
 0345704,0.01178090,-0.00359264,0.00897238,0.00007789,-0.00020410,-0.00
 022346,-0.00227212,-0.00323885,0.00213954,-0.00424251,-0.00221864,-0.0
 0014282,0.00016369,-0.00033004,0.00004299,0.00040194,-0.00078278,0.000
 61648,-0.00046599,0.00063529,-0.00006061,0.00215156,0.00293974,-0.0046
 7301,0.08220191,-0.06528095,0.05178635,-0.00474359,0.00505723,-0.00175
 364,-0.00070631,-0.00184187,0.00028200,-0.01118093,-0.04016117,-0.0264
 8332,-0.41589204,0.05261101,-0.13220381,-0.00043394,0.00008284,-0.0007
 4627,-0.08228694,-0.04839540,-0.05442308,-0.00035358,-0.00105219,-0.00
 007316,-0.00100699,-0.00143007,-0.00021490,0.00011344,0.00007629,0.000
 29134,0.00222222,0.01325969,0.02209761,0.00087802,0.00034256,-0.000108
 73,0.51572329,-0.00254734,-0.00598726,-0.00240240,0.00132404,0.0001019
 4,-0.00122109,0.00077886,-0.00162205,-0.01067493,0.00151591,-0.0299856
 8,-0.01745474,0.00087351,-0.00226921,0.00126939,-0.01286037,-0.1742443
 9,-0.06975463,-0.00067684,0.00065487,-0.00050363,-0.00070619,0.0011008
 5,-0.00009601,-0.00084798,0.00078531,0.00010736,0.00608842,-0.03296071
 ,-0.01640514,0.00062040,0.00086924,0.00084582,0.00563664,0.25639136,-0
 .00612892,-0.01197890,0.00028659,0.00106946,-0.00017343,0.00027372,0.0
 0803116,-0.00771932,-0.00688133,-0.15608231,0.00483106,-0.06008496,0.0
 0080684,-0.00069029,-0.00074634,-0.04210736,-0.10019558,-0.10510447,-0
 .00034982,0.00034328,-0.00014125,-0.00064740,0.00006513,-0.00078112,-0
 .00082025,-0.00009487,0.00001665,0.00889659,0.00087198,0.01563915,-0.0
 0195047,0.00055005,-0.00115750,0.19847830,0.12608171,0.16842578,0.0036
 0487,0.01516772,0.00249320,-0.00086579,0.00044483,-0.00116163,-0.04126
 903,-0.01406002,0.00381482,-0.00013107,-0.00252066,-0.00152328,0.00046
 516,0.00056506,-0.00262415,-0.00338393,-0.00660783,0.04523075,-0.00029
 187,-0.00012158,0.00030434,0.00017952,-0.00023543,0.00035642,0.0007507
 2,-0.00041726,0.00028588,-0.01765502,-0.03157794,0.05322328,0.00318158
 ,-0.00050477,0.00295894,-0.00233264,0.00080095,-0.00919583,0.05774751,
 -0.01005622,-0.02391612,-0.00580698,0.00282179,-0.00014542,-0.00010948
 ,0.04173931,0.01509761,0.01434567,0.00128817,0.00396214,-0.00052335,0.
 00047687,0.00054461,0.00026018,-0.09514922,0.03065952,0.02086056,0.000
 27917,0.00013674,-0.00019289,-0.00033228,0.00039530,-0.00037387,0.0002
 7043,-0.00033778,-0.00004621,0.01211473,0.01307960,-0.04389733,-0.0083
 3408,-0.00101076,-0.00035025,0.01581442,-0.01283427,-0.01189082,0.0390
 6693,-0.02563117,0.00007229,0.00270579,0.00275421,-0.00043073,0.000478
 56,-0.00020014,-0.02017114,-0.00059069,-0.00634780,0.00047131,-0.00244
 413,-0.00035870,-0.00006036,-0.00043308,-0.00038212,0.13024867,-0.0537
 5596,-0.08752746,-0.00032195,0.00021483,-0.00004702,-0.00008328,0.0001
 1823,0.00006413,-0.00029648,0.00007513,0.00010078,-0.01263850,0.035059
 89,-0.03692109,0.00251523,0.00063838,0.00110584,-0.00514232,-0.0097917
 2,-0.00974492,-0.09416274,0.02772477,0.13750430\\0.00003057,0.00008847
 ,0.00001379,-0.00001319,-0.00000209,-0.00000921,-0.00009851,-0.0001022
 1,-0.00005755,0.00000696,0.00000599,0.00001575,0.00000304,-0.00000401,
 0.00000983,0.00015465,0.00002514,-0.00000573,-0.00000052,-0.00000102,0
 .00000647,0.00000271,0.00000145,0.00000621,-0.00000528,0.00000681,0.00
 000104,-0.00001784,-0.00002347,0.00000965,0.00000932,-0.00000556,0.000
 01031,-0.00001586,-0.00001136,-0.00000704,-0.00005605,0.00002186,0.000
 00648\\\@


  THE LARGE PRINT GIVETH,
  AND THE SMALL PRINT TAKETH AWAY.

                     -- TOM WAITS
 Job cpu time:       0 days  0 hours  1 minutes  3.1 seconds.
 File lengths (MBytes):  RWF=     12 Int=      0 D2E=      0 Chk=      2 Scr=      1
 Normal termination of Gaussian 09 at Tue Apr 12 08:36:53 2016.
