 Entering Gaussian System, Link 0=g09
 Input=Ala-S-opt-freq-ts3-6-31g.com
 Output=Ala-S-opt-freq-ts3-6-31g.log
 Initial command:
 /usr/local/gau/g09/l1.exe "/tmp/Gau-2933.inp" -scrdir="/tmp/"
 Entering Link 1 = /usr/local/gau/g09/l1.exe PID=      2935.
  
 Copyright (c) 1988,1990,1992,1993,1995,1998,2003,2009,2013,
            Gaussian, Inc.  All Rights Reserved.
  
 This is part of the Gaussian(R) 09 program.  It is based on
 the Gaussian(R) 03 system (copyright 2003, Gaussian, Inc.),
 the Gaussian(R) 98 system (copyright 1998, Gaussian, Inc.),
 the Gaussian(R) 94 system (copyright 1995, Gaussian, Inc.),
 the Gaussian 92(TM) system (copyright 1992, Gaussian, Inc.),
 the Gaussian 90(TM) system (copyright 1990, Gaussian, Inc.),
 the Gaussian 88(TM) system (copyright 1988, Gaussian, Inc.),
 the Gaussian 86(TM) system (copyright 1986, Carnegie Mellon
 University), and the Gaussian 82(TM) system (copyright 1983,
 Carnegie Mellon University). Gaussian is a federally registered
 trademark of Gaussian, Inc.
  
 This software contains proprietary and confidential information,
 including trade secrets, belonging to Gaussian, Inc.
  
 This software is provided under written license and may be
 used, copied, transmitted, or stored only in accord with that
 written license.
  
 The following legend is applicable only to US Government
 contracts under FAR:
  
                    RESTRICTED RIGHTS LEGEND
  
 Use, reproduction and disclosure by the US Government is
 subject to restrictions as set forth in subparagraphs (a)
 and (c) of the Commercial Computer Software - Restricted
 Rights clause in FAR 52.227-19.
  
 Gaussian, Inc.
 340 Quinnipiac St., Bldg. 40, Wallingford CT 06492
  
  
 ---------------------------------------------------------------
 Warning -- This program may not be used in any manner that
 competes with the business of Gaussian, Inc. or will provide
 assistance to any competitor of Gaussian, Inc.  The licensee
 of this program is prohibited from giving any competitor of
 Gaussian, Inc. access to this program.  By using this program,
 the user acknowledges that Gaussian, Inc. is engaged in the
 business of creating and licensing software in the field of
 computational chemistry and represents and warrants to the
 licensee that it is not a competitor of Gaussian, Inc. and that
 it will not use this program in any manner prohibited above.
 ---------------------------------------------------------------
  

 Cite this work as:
 Gaussian 09, Revision D.01,
 M. J. Frisch, G. W. Trucks, H. B. Schlegel, G. E. Scuseria, 
 M. A. Robb, J. R. Cheeseman, G. Scalmani, V. Barone, B. Mennucci, 
 G. A. Petersson, H. Nakatsuji, M. Caricato, X. Li, H. P. Hratchian, 
 A. F. Izmaylov, J. Bloino, G. Zheng, J. L. Sonnenberg, M. Hada, 
 M. Ehara, K. Toyota, R. Fukuda, J. Hasegawa, M. Ishida, T. Nakajima, 
 Y. Honda, O. Kitao, H. Nakai, T. Vreven, J. A. Montgomery, Jr., 
 J. E. Peralta, F. Ogliaro, M. Bearpark, J. J. Heyd, E. Brothers, 
 K. N. Kudin, V. N. Staroverov, T. Keith, R. Kobayashi, J. Normand, 
 K. Raghavachari, A. Rendell, J. C. Burant, S. S. Iyengar, J. Tomasi, 
 M. Cossi, N. Rega, J. M. Millam, M. Klene, J. E. Knox, J. B. Cross, 
 V. Bakken, C. Adamo, J. Jaramillo, R. Gomperts, R. E. Stratmann, 
 O. Yazyev, A. J. Austin, R. Cammi, C. Pomelli, J. W. Ochterski, 
 R. L. Martin, K. Morokuma, V. G. Zakrzewski, G. A. Voth, 
 P. Salvador, J. J. Dannenberg, S. Dapprich, A. D. Daniels, 
 O. Farkas, J. B. Foresman, J. V. Ortiz, J. Cioslowski, 
 and D. J. Fox, Gaussian, Inc., Wallingford CT, 2013.
 
 ******************************************
 Gaussian 09:  ES64L-G09RevD.01 24-Apr-2013
                10-Apr-2016 
 ******************************************
 %chk=Ala-S-opt-freq-ts3-6-31g.chk
 -----------------------------------------------
 # opt=(calcfc,ts) freq rb3lyp/6-31g iop(1/11=1)
 -----------------------------------------------
 1/5=1,10=4,11=1,14=-1,18=20,26=3,38=1/1,3;
 2/9=110,12=2,17=6,18=5,40=1/2;
 3/5=1,6=6,11=2,16=1,25=1,30=1,71=2,74=-5,116=1,140=1/1,2,3;
 4//1;
 5/5=2,38=5/2;
 8/6=4,10=90,11=11/1;
 11/6=1,8=1,9=11,15=111,16=1/1,2,10;
 10/6=1,13=1/2;
 6/7=2,8=2,9=2,10=2,28=1/1;
 7/10=1,18=20,25=1/1,2,3,16;
 1/5=1,10=4,11=1,14=-1,18=20,26=3/3(2);
 2/9=110/2;
 99//99;
 2/9=110/2;
 3/5=1,6=6,11=2,16=1,25=1,30=1,71=1,74=-5,116=1/1,2,3;
 4/5=5,16=3,69=1/1;
 5/5=2,38=5/2;
 7//1,2,3,16;
 1/5=1,11=1,14=-1,18=20,26=3/3(-5);
 2/9=110/2;
 6/7=2,8=2,9=2,10=2,19=2,28=1/1;
 99/9=1/99;
 ------------------------
 Ala-S-opt-freq-ts3-6-31g
 ------------------------
 Symbolic Z-matrix:
 Charge =  0 Multiplicity = 1
 N                     1.28352   1.30693   0.02725 
 H                     2.28075   1.38286  -0.05522 
 C                     0.66558   0.05851   0.00201 
 H                    -1.90772  -1.4236   -0.70361 
 C                     1.5736   -1.13958  -0.00567 
 C                    -0.67546  -0.04799  -0.00447 
 H                     2.21912  -1.14249   0.88299 
 H                     0.99234  -2.06208  -0.00865 
 H                     2.22883  -1.13253  -0.8882 
 O                    -1.48475   1.10322  -0.09577 
 H                     0.72117   2.13471  -0.06948 
 O                    -1.36571  -1.26352   0.09964 
 H                    -0.13258   1.21571   0.75218 
 
 Add virtual bond connecting atoms H13        and N1         Dist= 3.01D+00.
 Add virtual bond connecting atoms H13        and C3         Dist= 3.01D+00.
 Add virtual bond connecting atoms H13        and C6         Dist= 2.97D+00.
 Add virtual bond connecting atoms H13        and O10        Dist= 3.02D+00.
 Add virtual bond connecting atoms H13        and H11        Dist= 2.83D+00.

 GradGradGradGradGradGradGradGradGradGradGradGradGradGradGradGradGradGrad
 Berny optimization.
 Initialization pass.
                           ----------------------------
                           !    Initial Parameters    !
                           ! (Angstroms and Degrees)  !
 --------------------------                            --------------------------
 ! Name  Definition              Value          Derivative Info.                !
 --------------------------------------------------------------------------------
 ! R1    R(1,2)                  1.0035         calculate D2E/DX2 analytically  !
 ! R2    R(1,3)                  1.3932         calculate D2E/DX2 analytically  !
 ! R3    R(1,11)                 1.0054         calculate D2E/DX2 analytically  !
 ! R4    R(1,13)                 1.5935         calculate D2E/DX2 analytically  !
 ! R5    R(3,5)                  1.5033         calculate D2E/DX2 analytically  !
 ! R6    R(3,6)                  1.3453         calculate D2E/DX2 analytically  !
 ! R7    R(3,13)                 1.5934         calculate D2E/DX2 analytically  !
 ! R8    R(4,12)                 0.9822         calculate D2E/DX2 analytically  !
 ! R9    R(5,7)                  1.0984         calculate D2E/DX2 analytically  !
 ! R10   R(5,8)                  1.0904         calculate D2E/DX2 analytically  !
 ! R11   R(5,9)                  1.0992         calculate D2E/DX2 analytically  !
 ! R12   R(6,10)                 1.4102         calculate D2E/DX2 analytically  !
 ! R13   R(6,12)                 1.4017         calculate D2E/DX2 analytically  !
 ! R14   R(6,13)                 1.5698         calculate D2E/DX2 analytically  !
 ! R15   R(10,13)                1.6            calculate D2E/DX2 analytically  !
 ! R16   R(11,13)                1.4995         calculate D2E/DX2 analytically  !
 ! A1    A(2,1,3)              120.4689         calculate D2E/DX2 analytically  !
 ! A2    A(2,1,11)             119.0538         calculate D2E/DX2 analytically  !
 ! A3    A(2,1,13)             157.6439         calculate D2E/DX2 analytically  !
 ! A4    A(3,1,11)             119.2059         calculate D2E/DX2 analytically  !
 ! A5    A(1,3,5)              116.508          calculate D2E/DX2 analytically  !
 ! A6    A(1,3,6)              120.8748         calculate D2E/DX2 analytically  !
 ! A7    A(5,3,6)              122.6153         calculate D2E/DX2 analytically  !
 ! A8    A(5,3,13)             152.0986         calculate D2E/DX2 analytically  !
 ! A9    A(3,5,7)              110.6686         calculate D2E/DX2 analytically  !
 ! A10   A(3,5,8)              110.6273         calculate D2E/DX2 analytically  !
 ! A11   A(3,5,9)              111.0413         calculate D2E/DX2 analytically  !
 ! A12   A(7,5,8)              108.2564         calculate D2E/DX2 analytically  !
 ! A13   A(7,5,9)              107.4144         calculate D2E/DX2 analytically  !
 ! A14   A(8,5,9)              108.7238         calculate D2E/DX2 analytically  !
 ! A15   A(3,6,10)             120.5154         calculate D2E/DX2 analytically  !
 ! A16   A(3,6,12)             123.9986         calculate D2E/DX2 analytically  !
 ! A17   A(10,6,12)            115.4764         calculate D2E/DX2 analytically  !
 ! A18   A(12,6,13)            146.3668         calculate D2E/DX2 analytically  !
 ! A19   A(4,12,6)             110.6311         calculate D2E/DX2 analytically  !
 ! A20   A(1,13,6)              97.7089         calculate D2E/DX2 analytically  !
 ! A21   A(1,13,10)            120.9275         calculate D2E/DX2 analytically  !
 ! A22   A(3,13,10)             97.0515         calculate D2E/DX2 analytically  !
 ! A23   A(3,13,11)             84.3716         calculate D2E/DX2 analytically  !
 ! A24   A(6,13,11)            115.224          calculate D2E/DX2 analytically  !
 ! A25   A(10,13,11)           103.5244         calculate D2E/DX2 analytically  !
 ! D1    D(2,1,3,5)              6.2762         calculate D2E/DX2 analytically  !
 ! D2    D(2,1,3,6)           -174.2135         calculate D2E/DX2 analytically  !
 ! D3    D(11,1,3,5)           173.2777         calculate D2E/DX2 analytically  !
 ! D4    D(11,1,3,6)            -7.2119         calculate D2E/DX2 analytically  !
 ! D5    D(2,1,13,6)          -129.7287         calculate D2E/DX2 analytically  !
 ! D6    D(2,1,13,10)          179.3066         calculate D2E/DX2 analytically  !
 ! D7    D(1,3,5,7)             59.0596         calculate D2E/DX2 analytically  !
 ! D8    D(1,3,5,8)            179.0434         calculate D2E/DX2 analytically  !
 ! D9    D(1,3,5,9)            -60.1392         calculate D2E/DX2 analytically  !
 ! D10   D(6,3,5,7)           -120.4415         calculate D2E/DX2 analytically  !
 ! D11   D(6,3,5,8)             -0.4577         calculate D2E/DX2 analytically  !
 ! D12   D(6,3,5,9)            120.3597         calculate D2E/DX2 analytically  !
 ! D13   D(13,3,5,7)           -25.0903         calculate D2E/DX2 analytically  !
 ! D14   D(13,3,5,8)            94.8935         calculate D2E/DX2 analytically  !
 ! D15   D(13,3,5,9)          -144.2891         calculate D2E/DX2 analytically  !
 ! D16   D(1,3,6,10)             5.1914         calculate D2E/DX2 analytically  !
 ! D17   D(1,3,6,12)          -173.6291         calculate D2E/DX2 analytically  !
 ! D18   D(5,3,6,10)          -175.3288         calculate D2E/DX2 analytically  !
 ! D19   D(5,3,6,12)             5.8507         calculate D2E/DX2 analytically  !
 ! D20   D(5,3,13,10)         -137.6502         calculate D2E/DX2 analytically  !
 ! D21   D(5,3,13,11)          119.3709         calculate D2E/DX2 analytically  !
 ! D22   D(3,6,12,4)          -118.4765         calculate D2E/DX2 analytically  !
 ! D23   D(10,6,12,4)           62.649          calculate D2E/DX2 analytically  !
 ! D24   D(13,6,12,4)          144.6731         calculate D2E/DX2 analytically  !
 ! D25   D(12,6,13,1)          138.2301         calculate D2E/DX2 analytically  !
 ! D26   D(12,6,13,11)         173.3614         calculate D2E/DX2 analytically  !
 --------------------------------------------------------------------------------
 Trust Radius=3.00D-01 FncErr=1.00D-07 GrdErr=1.00D-06
 Number of steps in this run=     77 maximum allowed number of steps=    100.
 Search for a saddle point of order  1.
 GradGradGradGradGradGradGradGradGradGradGradGradGradGradGradGradGradGrad

                          Input orientation:                          
 ---------------------------------------------------------------------
 Center     Atomic      Atomic             Coordinates (Angstroms)
 Number     Number       Type             X           Y           Z
 ---------------------------------------------------------------------
      1          7           0        1.283519    1.306929    0.027246
      2          1           0        2.280749    1.382855   -0.055218
      3          6           0        0.665578    0.058509    0.002012
      4          1           0       -1.907724   -1.423597   -0.703614
      5          6           0        1.573604   -1.139575   -0.005668
      6          6           0       -0.675464   -0.047989   -0.004465
      7          1           0        2.219121   -1.142487    0.882988
      8          1           0        0.992337   -2.062083   -0.008648
      9          1           0        2.228829   -1.132525   -0.888197
     10          8           0       -1.484745    1.103218   -0.095767
     11          1           0        0.721171    2.134713   -0.069476
     12          8           0       -1.365712   -1.263520    0.099641
     13          1           0       -0.132584    1.215711    0.752175
 ---------------------------------------------------------------------
                    Distance matrix (angstroms):
                    1          2          3          4          5
     1  N    0.000000
     2  H    1.003510   0.000000
     3  C    1.393212   2.089484   0.000000
     4  H    4.263093   5.083296   3.052283   0.000000
     5  C    2.463862   2.620145   1.503321   3.561944   0.000000
     6  C    2.382105   3.284674   1.345280   1.974733   2.499974
     7  H    2.758131   2.694695   2.152210   4.430257   1.098367
     8  H    3.381762   3.678284   2.145646   3.049753   1.090367
     9  H    2.771747   2.650224   2.157496   4.150887   1.099194
    10  O    2.778474   3.776081   2.392669   2.633094   3.793644
    11  H    1.005394   1.731409   2.078178   4.469317   3.384032
    12  O    3.692001   4.508210   2.425579   0.982151   2.943812
    13  H    1.593484   2.550293   1.593400   3.498055   3.005457
                    6          7          8          9         10
     6  C    0.000000
     7  H    3.219335   0.000000
     8  H    2.614986   1.773604   0.000000
     9  H    3.223681   1.771240   1.779493   0.000000
    10  O    1.410159   4.440695   4.020281   4.406487   0.000000
    11  H    2.592104   3.727074   4.205987   3.690282   2.435311
    12  O    1.401712   3.671418   2.491952   3.730108   2.377772
    13  H    1.569764   3.332975   3.547990   3.712318   1.600000
                   11         12         13
    11  H    0.000000
    12  O    3.991449   0.000000
    13  H    1.499524   2.844818   0.000000
 Stoichiometry    C3H7NO2
 Framework group  C1[X(C3H7NO2)]
 Deg. of freedom    33
 Full point group                 C1      NOp   1
 Largest Abelian subgroup         C1      NOp   1
 Largest concise Abelian subgroup C1      NOp   1
                         Standard orientation:                         
 ---------------------------------------------------------------------
 Center     Atomic      Atomic             Coordinates (Angstroms)
 Number     Number       Type             X           Y           Z
 ---------------------------------------------------------------------
      1          7           0        1.352398   -1.191730   -0.003304
      2          1           0        2.351002   -1.179961    0.095108
      3          6           0        0.627168   -0.002229    0.009732
      4          1           0       -2.076988    1.249120    0.671619
      5          6           0        1.426534    1.270798    0.029509
      6          6           0       -0.717980   -0.013616   -0.005261
      7          1           0        2.083419    1.329783   -0.848803
      8          1           0        0.766732    2.138840    0.021501
      9          1           0        2.065686    1.321636    0.922329
     10          8           0       -1.424679   -1.231244    0.075407
     11          1           0        0.863239   -2.065543    0.086077
     12          8           0       -1.510285    1.136720   -0.122632
     13          1           0       -0.054498   -1.225295   -0.750771
 ---------------------------------------------------------------------
 Rotational constants (GHZ):      4.8566685      3.3167524      2.0169964
 Standard basis: 6-31G (6D, 7F)
 There are    68 symmetry adapted cartesian basis functions of A   symmetry.
 There are    68 symmetry adapted basis functions of A   symmetry.
    68 basis functions,   160 primitive gaussians,    68 cartesian basis functions
    24 alpha electrons       24 beta electrons
       nuclear repulsion energy       246.7063088759 Hartrees.
 NAtoms=   13 NActive=   13 NUniq=   13 SFac= 1.00D+00 NAtFMM=   60 NAOKFM=F Big=F
 Integral buffers will be    131072 words long.
 Raffenetti 2 integral format.
 Two-electron integral symmetry is turned on.
 One-electron integrals computed using PRISM.
 NBasis=    68 RedAO= T EigKep=  2.78D-03  NBF=    68
 NBsUse=    68 1.00D-06 EigRej= -1.00D+00 NBFU=    68
 ExpMin= 1.61D-01 ExpMax= 5.48D+03 ExpMxC= 8.25D+02 IAcc=1 IRadAn=         1 AccDes= 0.00D+00
 Harris functional with IExCor=  402 and IRadAn=       1 diagonalized for initial guess.
 HarFok:  IExCor=  402 AccDes= 0.00D+00 IRadAn=         1 IDoV= 1 UseB2=F ITyADJ=14
 ICtDFT=  3500011 ScaDFX=  1.000000  1.000000  1.000000  1.000000
 FoFCou: FMM=F IPFlag=           0 FMFlag=      100000 FMFlg1=           0
         NFxFlg=           0 DoJE=T BraDBF=F KetDBF=T FulRan=T
         wScrn=  0.000000 ICntrl=     500 IOpCl=  0 I1Cent=   200000004 NGrid=           0
         NMat0=    1 NMatS0=      1 NMatT0=    0 NMatD0=    1 NMtDS0=    0 NMtDT0=    0
 Petite list used in FoFCou.
 Keep R1 ints in memory in canonical form, NReq=3676491.
 Requested convergence on RMS density matrix=1.00D-08 within 128 cycles.
 Requested convergence on MAX density matrix=1.00D-06.
 Requested convergence on             energy=1.00D-06.
 No special actions if energy rises.
 Integral accuracy reduced to 1.0D-05 until final iterations.
 Initial convergence to 1.0D-05 achieved.  Increase integral accuracy.
 SCF Done:  E(RB3LYP) =  -323.440817889     A.U. after   19 cycles
            NFock= 19  Conv=0.32D-08     -V/T= 2.0053
 DoSCS=F DFT=T ScalE2(SS,OS)=  1.000000  1.000000
 Range of M.O.s used for correlation:     1    68
 NBasis=    68 NAE=    24 NBE=    24 NFC=     0 NFV=     0
 NROrb=     68 NOA=    24 NOB=    24 NVA=    44 NVB=    44
 Symmetrizing basis deriv contribution to polar:
 IMax=3 JMax=2 DiffMx= 0.00D+00
 G2DrvN: will do    14 centers at a time, making    1 passes.
 Calling FoFCou, ICntrl=  3107 FMM=F I1Cent=   0 AccDes= 0.00D+00.
 End of G2Drv F.D. properties file   721 does not exist.
 End of G2Drv F.D. properties file   722 does not exist.
 End of G2Drv F.D. properties file   788 does not exist.
          IDoAtm=1111111111111
          Differentiating once with respect to nuclear coordinates.
 Keep R1 ints in memory in canonical form, NReq=3645290.
          There are    42 degrees of freedom in the 1st order CPHF.  IDoFFX=6 NUNeed=     0.
     36 vectors produced by pass  0 Test12= 2.51D-15 2.38D-09 XBig12= 2.02D-01 1.73D-01.
 AX will form    36 AO Fock derivatives at one time.
     36 vectors produced by pass  1 Test12= 2.51D-15 2.38D-09 XBig12= 3.11D-02 3.54D-02.
     36 vectors produced by pass  2 Test12= 2.51D-15 2.38D-09 XBig12= 1.62D-04 1.66D-03.
     36 vectors produced by pass  3 Test12= 2.51D-15 2.38D-09 XBig12= 2.82D-07 9.01D-05.
     36 vectors produced by pass  4 Test12= 2.51D-15 2.38D-09 XBig12= 3.35D-10 3.23D-06.
     18 vectors produced by pass  5 Test12= 2.51D-15 2.38D-09 XBig12= 2.12D-13 6.56D-08.
 InvSVY:  IOpt=1 It=  1 EMax= 2.11D-15
 Solved reduced A of dimension   198 with    36 vectors.
 End of Minotr F.D. properties file   721 does not exist.
 End of Minotr F.D. properties file   722 does not exist.
 End of Minotr F.D. properties file   788 does not exist.

 **********************************************************************

            Population analysis using the SCF density.

 **********************************************************************

 Orbital symmetries:
       Occupied  (A) (A) (A) (A) (A) (A) (A) (A) (A) (A) (A) (A)
                 (A) (A) (A) (A) (A) (A) (A) (A) (A) (A) (A) (A)
       Virtual   (A) (A) (A) (A) (A) (A) (A) (A) (A) (A) (A) (A)
                 (A) (A) (A) (A) (A) (A) (A) (A) (A) (A) (A) (A)
                 (A) (A) (A) (A) (A) (A) (A) (A) (A) (A) (A) (A)
                 (A) (A) (A) (A) (A) (A) (A) (A)
 The electronic state is 1-A.
 Alpha  occ. eigenvalues --  -19.15976 -19.13084 -14.36720 -10.27891 -10.23135
 Alpha  occ. eigenvalues --  -10.18896  -1.05599  -0.98288  -0.93351  -0.77312
 Alpha  occ. eigenvalues --   -0.70097  -0.59607  -0.57976  -0.51321  -0.46286
 Alpha  occ. eigenvalues --   -0.45556  -0.41716  -0.40141  -0.38639  -0.35998
 Alpha  occ. eigenvalues --   -0.31384  -0.29998  -0.26682  -0.17977
 Alpha virt. eigenvalues --   -0.04781   0.04970   0.07312   0.08339   0.11394
 Alpha virt. eigenvalues --    0.12801   0.17048   0.17398   0.20617   0.22615
 Alpha virt. eigenvalues --    0.24311   0.37175   0.43309   0.52157   0.54806
 Alpha virt. eigenvalues --    0.57192   0.58475   0.63494   0.65831   0.67547
 Alpha virt. eigenvalues --    0.70837   0.73546   0.75669   0.79037   0.83027
 Alpha virt. eigenvalues --    0.85018   0.86897   0.90698   0.91577   0.94318
 Alpha virt. eigenvalues --    0.95529   0.97090   1.01561   1.07673   1.08826
 Alpha virt. eigenvalues --    1.11325   1.13640   1.21235   1.23233   1.34860
 Alpha virt. eigenvalues --    1.44011   1.54675   1.74117   1.99231
          Condensed to atoms (all electrons):
               1          2          3          4          5          6
     1  N    7.249703   0.321845   0.152112  -0.000123  -0.067077  -0.127829
     2  H    0.321845   0.362618  -0.023721   0.000002  -0.004078   0.007376
     3  C    0.152112  -0.023721   5.578368   0.001574   0.304401   0.310932
     4  H   -0.000123   0.000002   0.001574   0.415112   0.000449  -0.035406
     5  C   -0.067077  -0.004078   0.304401   0.000449   5.112016   0.003023
     6  C   -0.127829   0.007376   0.310932  -0.035406   0.003023   5.033323
     7  H    0.004439   0.001019  -0.043521  -0.000077   0.361944  -0.001179
     8  H    0.003757  -0.000040  -0.033477  -0.000406   0.375176  -0.002728
     9  H   -0.000818   0.001995  -0.046742   0.000135   0.369406  -0.000471
    10  O   -0.012151   0.000557  -0.158600   0.002748   0.003246   0.260615
    11  H    0.298415  -0.014387  -0.041586  -0.000008   0.004887   0.000522
    12  O    0.002324   0.000007  -0.112640   0.236835  -0.006116   0.209127
    13  H    0.023265   0.004631  -0.159394  -0.000150   0.003619   0.056607
               7          8          9         10         11         12
     1  N    0.004439   0.003757  -0.000818  -0.012151   0.298415   0.002324
     2  H    0.001019  -0.000040   0.001995   0.000557  -0.014387   0.000007
     3  C   -0.043521  -0.033477  -0.046742  -0.158600  -0.041586  -0.112640
     4  H   -0.000077  -0.000406   0.000135   0.002748  -0.000008   0.236835
     5  C    0.361944   0.375176   0.369406   0.003246   0.004887  -0.006116
     6  C   -0.001179  -0.002728  -0.000471   0.260615   0.000522   0.209127
     7  H    0.598872  -0.023694  -0.043598  -0.000009  -0.000146   0.000239
     8  H   -0.023694   0.508917  -0.023883   0.000181  -0.000170   0.010943
     9  H   -0.043598  -0.023883   0.598719  -0.000026  -0.000044   0.000477
    10  O   -0.000009   0.000181  -0.000026   8.376853   0.016497  -0.086552
    11  H   -0.000146  -0.000170  -0.000044   0.016497   0.384292   0.000309
    12  O    0.000239   0.010943   0.000477  -0.086552   0.000309   8.329654
    13  H   -0.000168  -0.000195  -0.000212   0.137643   0.001057   0.010323
              13
     1  N    0.023265
     2  H    0.004631
     3  C   -0.159394
     4  H   -0.000150
     5  C    0.003619
     6  C    0.056607
     7  H   -0.000168
     8  H   -0.000195
     9  H   -0.000212
    10  O    0.137643
    11  H    0.001057
    12  O    0.010323
    13  H    0.585072
 Mulliken charges:
               1
     1  N   -0.847863
     2  H    0.342175
     3  C    0.272293
     4  H    0.379315
     5  C   -0.460896
     6  C    0.286087
     7  H    0.145878
     8  H    0.185618
     9  H    0.145063
    10  O   -0.541001
    11  H    0.350361
    12  O   -0.594930
    13  H    0.337900
 Sum of Mulliken charges =   0.00000
 Mulliken charges with hydrogens summed into heavy atoms:
               1
     1  N   -0.155327
     3  C    0.272293
     5  C    0.015663
     6  C    0.623987
    10  O   -0.541001
    12  O   -0.215615
 APT charges:
               1
     1  N   -1.344467
     2  H    0.745916
     3  C    0.349297
     4  H    0.660245
     5  C   -1.230873
     6  C   -0.050640
     7  H    0.420081
     8  H    0.373547
     9  H    0.437226
    10  O   -0.439877
    11  H    0.537076
    12  O   -0.732552
    13  H    0.275023
 Sum of APT charges =   0.00000
 APT charges with hydrogens summed into heavy atoms:
               1
     1  N   -0.061476
     3  C    0.349297
     5  C   -0.000019
     6  C    0.224383
    10  O   -0.439877
    12  O   -0.072307
 Electronic spatial extent (au):  <R**2>=            602.0274
 Charge=              0.0000 electrons
 Dipole moment (field-independent basis, Debye):
    X=              3.8891    Y=              0.1720    Z=              1.1156  Tot=              4.0496
 Quadrupole moment (field-independent basis, Debye-Ang):
   XX=            -33.8315   YY=            -35.5748   ZZ=            -37.0664
   XY=             -6.4152   XZ=             -2.8661   YZ=              3.0809
 Traceless Quadrupole moment (field-independent basis, Debye-Ang):
   XX=              1.6594   YY=             -0.0839   ZZ=             -1.5755
   XY=             -6.4152   XZ=             -2.8661   YZ=              3.0809
 Octapole moment (field-independent basis, Debye-Ang**2):
  XXX=              6.1374  YYY=             -6.6310  ZZZ=              1.2159  XYY=              7.9055
  XXY=              5.0001  XXZ=              9.5961  XZZ=             -4.6977  YZZ=              1.2923
  YYZ=              2.6316  XYZ=             -5.8026
 Hexadecapole moment (field-independent basis, Debye-Ang**3):
 XXXX=           -351.3478 YYYY=           -270.1396 ZZZZ=            -45.5999 XXXY=            -44.4356
 XXXZ=            -13.5520 YYYX=            -26.0289 YYYZ=              3.9362 ZZZX=             -2.3907
 ZZZY=              1.3260 XXYY=           -112.5005 XXZZ=            -72.2187 YYZZ=            -56.7809
 XXYZ=              7.3022 YYXZ=             -4.4555 ZZXY=             -2.4485
 N-N= 2.467063088759D+02 E-N=-1.250992668604D+03  KE= 3.217222178243D+02
  Exact polarizability:   0.000   0.000   0.000   0.000   0.000   0.000
 Approx polarizability: 124.050   4.268  71.376  -9.846   1.641  40.151
 Calling FoFJK, ICntrl=    100147 FMM=F ISym2X=0 I1Cent= 0 IOpClX= 0 NMat=1 NMatS=1 NMatT=0.
 ***** Axes restored to original set *****
 -------------------------------------------------------------------
 Center     Atomic                   Forces (Hartrees/Bohr)
 Number     Number              X              Y              Z
 -------------------------------------------------------------------
      1        7           0.006903842    0.032033451    0.004970997
      2        1           0.001966627    0.001168341    0.005872449
      3        6           0.011905354   -0.066065120   -0.018885777
      4        1          -0.001803066    0.003183981    0.002215592
      5        6           0.001537585    0.003610618    0.006823971
      6        6          -0.036856333   -0.001937059   -0.014880676
      7        1           0.001887966   -0.001972728    0.000402628
      8        1          -0.000787293    0.001084845    0.000077328
      9        1          -0.000060398    0.000973345   -0.001012034
     10        8           0.055939257    0.005244667    0.037851980
     11        1           0.006371841    0.011886648   -0.022471143
     12        8           0.013412075   -0.000405740   -0.002603419
     13        1          -0.060417454    0.011194750    0.001638103
 -------------------------------------------------------------------
 Cartesian Forces:  Max     0.066065120 RMS     0.020827685
 FormGI is forming the generalized inverse of G from B-inverse, IUseBI=4.

 GradGradGradGradGradGradGradGradGradGradGradGradGradGradGradGradGradGrad
 Berny optimization.
 Internal  Forces:  Max     0.048095987 RMS     0.009730418
 Search for a saddle point.
 Step number   1 out of a maximum of   77
 All quantities printed in internal units (Hartrees-Bohrs-Radians)
 Swapping is turned off.
 Second derivative matrix not updated -- analytic derivatives used.
 ITU=  0
     Eigenvalues ---   -0.08130  -0.03674  -0.00151   0.00143   0.00212
     Eigenvalues ---    0.00641   0.00911   0.01029   0.01709   0.02352
     Eigenvalues ---    0.02574   0.02851   0.03521   0.04894   0.04943
     Eigenvalues ---    0.06718   0.10227   0.12887   0.13287   0.15335
     Eigenvalues ---    0.15668   0.16161   0.24201   0.30934   0.32834
     Eigenvalues ---    0.32896   0.34513   0.35698   0.37026   0.42620
     Eigenvalues ---    0.46273   0.49307   0.49593
 Eigenvectors required to have negative eigenvalues:
                          R15       R7        R14       D4        D24
   1                   -0.54344   0.36814   0.31643  -0.22783  -0.21705
                          D23       D3        A25       R16       D18
   1                    0.21364  -0.18847   0.16571  -0.15561  -0.14027
 RFO step:  Lambda0=2.009420267D-02 Lambda=-4.02966654D-02.
 Linear search not attempted -- option 19 set.
 Maximum step size (   0.300) exceeded in Quadratic search.
    -- Step size scaled by   0.332
 Iteration  1 RMS(Cart)=  0.04222163 RMS(Int)=  0.00286267
 Iteration  2 RMS(Cart)=  0.00190634 RMS(Int)=  0.00086738
 Iteration  3 RMS(Cart)=  0.00000614 RMS(Int)=  0.00086733
 Iteration  4 RMS(Cart)=  0.00000001 RMS(Int)=  0.00086733
 Variable       Old X    -DE/DX   Delta X   Delta X   Delta X     New X
                                 (Linear)    (Quad)   (Total)
    R1        1.89636   0.00156   0.00000  -0.00154  -0.00154   1.89481
    R2        2.63279   0.03328   0.00000   0.01691   0.01724   2.65003
    R3        1.89992   0.00199   0.00000   0.00073   0.00104   1.90096
    R4        3.01125   0.00647   0.00000   0.15188   0.15155   3.16279
    R5        2.84087  -0.00142   0.00000  -0.00559  -0.00559   2.83527
    R6        2.54221   0.00933   0.00000   0.01991   0.02049   2.56270
    R7        3.01109   0.02383   0.00000  -0.03123  -0.03037   2.98072
    R8        1.85600  -0.00134   0.00000  -0.00025  -0.00025   1.85574
    R9        2.07561   0.00144   0.00000  -0.00082  -0.00082   2.07479
   R10        2.06050  -0.00050   0.00000   0.00058   0.00058   2.06107
   R11        2.07718   0.00078   0.00000  -0.00037  -0.00037   2.07680
   R12        2.66481  -0.01113   0.00000   0.00179   0.00123   2.66604
   R13        2.64885  -0.00815   0.00000  -0.01159  -0.01159   2.63727
   R14        2.96642   0.00796   0.00000  -0.14869  -0.15015   2.81628
   R15        3.02356  -0.04810   0.00000  -0.09984  -0.09834   2.92522
   R16        2.83369   0.01504   0.00000   0.12803   0.12695   2.96064
    A1        2.10258  -0.00360   0.00000   0.01132   0.01421   2.11679
    A2        2.07788   0.00007   0.00000   0.00701   0.00480   2.08268
    A3        2.75140  -0.00343   0.00000   0.04553   0.04570   2.79711
    A4        2.08053   0.00235   0.00000  -0.01421  -0.01508   2.06545
    A5        2.03345   0.00866   0.00000  -0.02501  -0.02372   2.00973
    A6        2.10966  -0.01470   0.00000  -0.00944  -0.00940   2.10026
    A7        2.14004   0.00603   0.00000   0.03455   0.03315   2.17319
    A8        2.65462   0.00115   0.00000  -0.01955  -0.01822   2.63641
    A9        1.93153   0.00420   0.00000   0.00689   0.00688   1.93841
   A10        1.93081  -0.00216   0.00000   0.00433   0.00431   1.93512
   A11        1.93804  -0.00205   0.00000  -0.01633  -0.01632   1.92171
   A12        1.88943  -0.00064   0.00000   0.00118   0.00113   1.89057
   A13        1.87473  -0.00068   0.00000   0.00223   0.00225   1.87698
   A14        1.89759   0.00138   0.00000   0.00197   0.00196   1.89955
   A15        2.10339  -0.00921   0.00000  -0.00670  -0.00732   2.09607
   A16        2.16418  -0.00929   0.00000  -0.02241  -0.02261   2.14157
   A17        2.01544   0.01831   0.00000   0.02891   0.02965   2.04509
   A18        2.55458   0.00129   0.00000  -0.05086  -0.05078   2.50380
   A19        1.93088  -0.00245   0.00000  -0.00937  -0.00937   1.92150
   A20        1.70534   0.00384   0.00000   0.00827   0.00713   1.71248
   A21        2.11058   0.00092   0.00000  -0.03630  -0.03774   2.07284
   A22        1.69387   0.00234   0.00000   0.05422   0.05482   1.74868
   A23        1.47256   0.00374   0.00000  -0.02817  -0.02850   1.44406
   A24        2.01104  -0.00294   0.00000  -0.00154  -0.00084   2.01019
   A25        1.80684  -0.00626   0.00000  -0.04151  -0.04139   1.76545
    D1        0.10954  -0.00238   0.00000   0.04280   0.04276   0.15230
    D2       -3.04060  -0.00487   0.00000   0.05627   0.05582  -2.98478
    D3        3.02427  -0.00834   0.00000   0.06438   0.06406   3.08832
    D4       -0.12587  -0.01083   0.00000   0.07785   0.07711  -0.04876
    D5       -2.26419   0.00170   0.00000   0.05117   0.05122  -2.21297
    D6        3.12949  -0.00401   0.00000  -0.01577  -0.01411   3.11538
    D7        1.03078  -0.00240   0.00000   0.03517   0.03540   1.06618
    D8        3.12490  -0.00187   0.00000   0.04397   0.04422  -3.11407
    D9       -1.04963  -0.00295   0.00000   0.03846   0.03871  -1.01092
   D10       -2.10210   0.00025   0.00000   0.02169   0.02197  -2.08013
   D11       -0.00799   0.00077   0.00000   0.03049   0.03079   0.02280
   D12        2.10067  -0.00030   0.00000   0.02498   0.02528   2.12595
   D13       -0.43791   0.00204   0.00000  -0.06196  -0.06251  -0.50042
   D14        1.65620   0.00257   0.00000  -0.05316  -0.05369   1.60252
   D15       -2.51832   0.00149   0.00000  -0.05867  -0.05920  -2.57752
   D16        0.09061  -0.01202   0.00000  -0.01793  -0.01907   0.07154
   D17       -3.03040  -0.00093   0.00000  -0.00622  -0.00640  -3.03680
   D18       -3.06006  -0.01466   0.00000  -0.00393  -0.00503  -3.06510
   D19        0.10211  -0.00357   0.00000   0.00777   0.00764   0.10975
   D20       -2.40245  -0.00299   0.00000  -0.01236  -0.01451  -2.41696
   D21        2.08342   0.00312   0.00000   0.03645   0.03589   2.11931
   D22       -2.06781  -0.00614   0.00000  -0.10829  -0.10801  -2.17582
   D23        1.09343   0.00472   0.00000  -0.09677  -0.09532   0.99812
   D24        2.52502  -0.00526   0.00000  -0.07692  -0.07865   2.44637
   D25        2.41257  -0.00087   0.00000   0.00892   0.00800   2.42057
   D26        3.02573   0.00099   0.00000  -0.02474  -0.02463   3.00110
         Item               Value     Threshold  Converged?
 Maximum Force            0.048096     0.000450     NO 
 RMS     Force            0.009730     0.000300     NO 
 Maximum Displacement     0.162290     0.001800     NO 
 RMS     Displacement     0.041738     0.001200     NO 
 Predicted change in Energy=-7.478143D-03
 GradGradGradGradGradGradGradGradGradGradGradGradGradGradGradGradGradGrad

                          Input orientation:                          
 ---------------------------------------------------------------------
 Center     Atomic      Atomic             Coordinates (Angstroms)
 Number     Number       Type             X           Y           Z
 ---------------------------------------------------------------------
      1          7           0        1.296571    1.297058    0.009136
      2          1           0        2.288408    1.382041   -0.110988
      3          6           0        0.666691    0.044177    0.000259
      4          1           0       -1.973337   -1.374678   -0.667951
      5          6           0        1.593652   -1.135564    0.006766
      6          6           0       -0.686562   -0.041994   -0.018445
      7          1           0        2.218136   -1.141727    0.909781
      8          1           0        1.033067   -2.070468   -0.028794
      9          1           0        2.266551   -1.092093   -0.861053
     10          8           0       -1.468671    1.128094   -0.116338
     11          1           0        0.721674    2.120962   -0.041844
     12          8           0       -1.366464   -1.255479    0.094843
     13          1           0       -0.191038    1.129831    0.757637
 ---------------------------------------------------------------------
                    Distance matrix (angstroms):
                    1          2          3          4          5
     1  N    0.000000
     2  H    1.002693   0.000000
     3  C    1.402333   2.105284   0.000000
     4  H    4.276555   5.106093   3.070734   0.000000
     5  C    2.450696   2.614361   1.500363   3.638109   0.000000
     6  C    2.393040   3.299529   1.356123   1.963083   2.529013
     7  H    2.758281   2.723291   2.154201   4.484635   1.097931
     8  H    3.378033   3.674569   2.146346   3.151367   1.090673
     9  H    2.721422   2.585424   2.143017   4.253681   1.098997
    10  O    2.773240   3.765656   2.397549   2.612055   3.810135
    11  H    1.005944   1.733621   2.077939   4.458093   3.371597
    12  O    3.689790   4.511870   2.414906   0.982018   2.963853
    13  H    1.673679   2.639275   1.577328   3.388430   2.980090
                    6          7          8          9         10
     6  C    0.000000
     7  H    3.241648   0.000000
     8  H    2.659312   1.774224   0.000000
     9  H    3.245547   1.772191   1.780830   0.000000
    10  O    1.410810   4.449444   4.061670   4.408596   0.000000
    11  H    2.581096   3.713506   4.203002   3.658070   2.406024
    12  O    1.395581   3.677828   2.537172   3.760217   2.395092
    13  H    1.490309   3.314701   3.515512   3.687391   1.547960
                   11         12         13
    11  H    0.000000
    12  O    3.972324   0.000000
    13  H    1.566702   2.740552   0.000000
 Stoichiometry    C3H7NO2
 Framework group  C1[X(C3H7NO2)]
 Deg. of freedom    33
 Full point group                 C1      NOp   1
 Largest Abelian subgroup         C1      NOp   1
 Largest concise Abelian subgroup C1      NOp   1
                         Standard orientation:                         
 ---------------------------------------------------------------------
 Center     Atomic      Atomic             Coordinates (Angstroms)
 Number     Number       Type             X           Y           Z
 ---------------------------------------------------------------------
      1          7           0        1.332539   -1.208152   -0.002448
      2          1           0        2.325541   -1.229532    0.134968
      3          6           0        0.622093    0.000869    0.006123
      4          1           0       -2.116343    1.237868    0.638741
      5          6           0        1.469970    1.238510    0.027028
      6          6           0       -0.734018   -0.001515    0.000932
      7          1           0        2.108514    1.294461   -0.864365
      8          1           0        0.848965    2.134493    0.060704
      9          1           0        2.128892    1.230227    0.906544
     10          8           0       -1.439614   -1.221008    0.074119
     11          1           0        0.811889   -2.068238    0.030699
     12          8           0       -1.489646    1.166168   -0.113900
     13          1           0       -0.149412   -1.130672   -0.776410
 ---------------------------------------------------------------------
 Rotational constants (GHZ):      4.8680151      3.2926513      2.0094230
 Standard basis: 6-31G (6D, 7F)
 There are    68 symmetry adapted cartesian basis functions of A   symmetry.
 There are    68 symmetry adapted basis functions of A   symmetry.
    68 basis functions,   160 primitive gaussians,    68 cartesian basis functions
    24 alpha electrons       24 beta electrons
       nuclear repulsion energy       246.4818378836 Hartrees.
 NAtoms=   13 NActive=   13 NUniq=   13 SFac= 1.00D+00 NAtFMM=   60 NAOKFM=F Big=F
 Integral buffers will be    131072 words long.
 Raffenetti 2 integral format.
 Two-electron integral symmetry is turned on.
 One-electron integrals computed using PRISM.
 NBasis=    68 RedAO= T EigKep=  2.82D-03  NBF=    68
 NBsUse=    68 1.00D-06 EigRej= -1.00D+00 NBFU=    68
 Initial guess from the checkpoint file:  "Ala-S-opt-freq-ts3-6-31g.chk"
 B after Tr=     0.000000    0.000000    0.000000
         Rot=    0.999954   -0.002698   -0.000680    0.009177 Ang=  -1.10 deg.
 ExpMin= 1.61D-01 ExpMax= 5.48D+03 ExpMxC= 8.25D+02 IAcc=1 IRadAn=         1 AccDes= 0.00D+00
 Harris functional with IExCor=  402 and IRadAn=       1 diagonalized for initial guess.
 HarFok:  IExCor=  402 AccDes= 0.00D+00 IRadAn=         1 IDoV= 1 UseB2=F ITyADJ=14
 ICtDFT=  3500011 ScaDFX=  1.000000  1.000000  1.000000  1.000000
 FoFCou: FMM=F IPFlag=           0 FMFlag=      100000 FMFlg1=           0
         NFxFlg=           0 DoJE=T BraDBF=F KetDBF=T FulRan=T
         wScrn=  0.000000 ICntrl=     500 IOpCl=  0 I1Cent=   200000004 NGrid=           0
         NMat0=    1 NMatS0=      1 NMatT0=    0 NMatD0=    1 NMtDS0=    0 NMtDT0=    0
 Petite list used in FoFCou.
 Keep R1 ints in memory in canonical form, NReq=3676491.
 Requested convergence on RMS density matrix=1.00D-08 within 128 cycles.
 Requested convergence on MAX density matrix=1.00D-06.
 Requested convergence on             energy=1.00D-06.
 No special actions if energy rises.
 Integral accuracy reduced to 1.0D-05 until final iterations.
 Initial convergence to 1.0D-05 achieved.  Increase integral accuracy.
 SCF Done:  E(RB3LYP) =  -323.448095143     A.U. after   15 cycles
            NFock= 15  Conv=0.73D-08     -V/T= 2.0054
 Calling FoFJK, ICntrl=      2127 FMM=F ISym2X=0 I1Cent= 0 IOpClX= 0 NMat=1 NMatS=1 NMatT=0.
 ***** Axes restored to original set *****
 -------------------------------------------------------------------
 Center     Atomic                   Forces (Hartrees/Bohr)
 Number     Number              X              Y              Z
 -------------------------------------------------------------------
      1        7           0.007986135    0.023008531   -0.000335702
      2        1           0.001563925   -0.000531776    0.002355279
      3        6           0.018445311   -0.040658788   -0.014172553
      4        1          -0.002436272    0.002960476    0.002793113
      5        6          -0.001900315   -0.000013302    0.007061560
      6        6          -0.022565954    0.000769375   -0.011546416
      7        1           0.001445660   -0.001282197    0.000188737
      8        1          -0.000492842    0.000696870   -0.000081347
      9        1          -0.000145151    0.000536548   -0.000719656
     10        8           0.043648328    0.001932742    0.032298106
     11        1           0.006219179    0.010364588   -0.016157905
     12        8           0.010050432   -0.000644194   -0.002629304
     13        1          -0.061818436    0.002861128    0.000946089
 -------------------------------------------------------------------
 Cartesian Forces:  Max     0.061818436 RMS     0.016655200

 GradGradGradGradGradGradGradGradGradGradGradGradGradGradGradGradGradGrad
 Berny optimization.
 FormGI is forming the generalized inverse of G from B-inverse, IUseBI=4.
 Internal  Forces:  Max     0.039395411 RMS     0.007476920
 Search for a saddle point.
 Step number   2 out of a maximum of   77
 All quantities printed in internal units (Hartrees-Bohrs-Radians)
 Swapping is turned off.
 Update second derivatives using D2CorX and points    1    2
 ITU=  0  0
     Eigenvalues ---   -0.08196  -0.03084  -0.00238   0.00143   0.00210
     Eigenvalues ---    0.00601   0.00905   0.01053   0.01676   0.02419
     Eigenvalues ---    0.02552   0.02889   0.03612   0.04893   0.04943
     Eigenvalues ---    0.06725   0.10201   0.12887   0.13283   0.15343
     Eigenvalues ---    0.15665   0.16163   0.24187   0.30992   0.32830
     Eigenvalues ---    0.32896   0.34508   0.35698   0.37023   0.42608
     Eigenvalues ---    0.46273   0.49303   0.49591
 Eigenvectors required to have negative eigenvalues:
                          R15       R7        R14       D23       D4
   1                    0.55387  -0.36633  -0.32251  -0.21844   0.21683
                          D24       D3        A25       R16       A21
   1                    0.21004   0.18230  -0.16340   0.15388  -0.14191
 RFO step:  Lambda0=1.153318238D-02 Lambda=-3.82572771D-02.
 Linear search not attempted -- option 19 set.
 Maximum step size (   0.300) exceeded in Quadratic search.
    -- Step size scaled by   0.349
 Iteration  1 RMS(Cart)=  0.03983934 RMS(Int)=  0.00282035
 Iteration  2 RMS(Cart)=  0.00176096 RMS(Int)=  0.00079569
 Iteration  3 RMS(Cart)=  0.00000624 RMS(Int)=  0.00079563
 Iteration  4 RMS(Cart)=  0.00000001 RMS(Int)=  0.00079563
 Variable       Old X    -DE/DX   Delta X   Delta X   Delta X     New X
                                 (Linear)    (Quad)   (Total)
    R1        1.89481   0.00122   0.00000  -0.00120  -0.00120   1.89361
    R2        2.65003   0.02175   0.00000   0.00340   0.00361   2.65364
    R3        1.90096   0.00152   0.00000   0.00069   0.00085   1.90181
    R4        3.16279   0.00933   0.00000   0.16546   0.16451   3.32731
    R5        2.83527  -0.00060   0.00000  -0.00277  -0.00277   2.83251
    R6        2.56270   0.00717   0.00000   0.01771   0.01827   2.58097
    R7        2.98072   0.01848   0.00000   0.00033   0.00191   2.98263
    R8        1.85574  -0.00103   0.00000  -0.00025  -0.00025   1.85549
    R9        2.07479   0.00099   0.00000  -0.00092  -0.00092   2.07387
   R10        2.06107  -0.00034   0.00000   0.00053   0.00053   2.06161
   R11        2.07680   0.00050   0.00000  -0.00075  -0.00075   2.07606
   R12        2.66604  -0.00807   0.00000   0.00647   0.00572   2.67177
   R13        2.63727  -0.00570   0.00000  -0.00844  -0.00844   2.62882
   R14        2.81628   0.00248   0.00000  -0.14355  -0.14500   2.67128
   R15        2.92522  -0.03940   0.00000  -0.10083  -0.09956   2.82566
   R16        2.96064   0.01345   0.00000   0.12370   0.12318   3.08382
    A1        2.11679  -0.00335   0.00000   0.01254   0.01521   2.13200
    A2        2.08268   0.00005   0.00000   0.00390   0.00218   2.08487
    A3        2.79711  -0.00115   0.00000   0.04610   0.04668   2.84378
    A4        2.06545   0.00256   0.00000  -0.01276  -0.01382   2.05163
    A5        2.00973   0.00590   0.00000  -0.01938  -0.01799   1.99174
    A6        2.10026  -0.01071   0.00000  -0.00780  -0.00745   2.09281
    A7        2.17319   0.00482   0.00000   0.02716   0.02541   2.19860
    A8        2.63641   0.00096   0.00000  -0.01739  -0.01668   2.61972
    A9        1.93841   0.00296   0.00000   0.00383   0.00382   1.94223
   A10        1.93512  -0.00142   0.00000   0.00479   0.00478   1.93990
   A11        1.92171  -0.00137   0.00000  -0.01228  -0.01228   1.90944
   A12        1.89057  -0.00042   0.00000   0.00121   0.00119   1.89175
   A13        1.87698  -0.00051   0.00000   0.00208   0.00208   1.87907
   A14        1.89955   0.00078   0.00000   0.00043   0.00044   1.89999
   A15        2.09607  -0.00657   0.00000  -0.00458  -0.00503   2.09104
   A16        2.14157  -0.00701   0.00000  -0.01725  -0.01686   2.12471
   A17        2.04509   0.01333   0.00000   0.02150   0.02145   2.06654
   A18        2.50380  -0.00035   0.00000  -0.05793  -0.05789   2.44592
   A19        1.92150  -0.00159   0.00000  -0.00749  -0.00749   1.91401
   A20        1.71248   0.00110   0.00000  -0.00952  -0.01042   1.70206
   A21        2.07284  -0.00064   0.00000  -0.04207  -0.04241   2.03044
   A22        1.74868   0.00333   0.00000   0.04830   0.04798   1.79667
   A23        1.44406   0.00120   0.00000  -0.04144  -0.04143   1.40263
   A24        2.01019  -0.00280   0.00000  -0.00802  -0.00766   2.00254
   A25        1.76545  -0.00495   0.00000  -0.03426  -0.03419   1.73127
    D1        0.15230  -0.00063   0.00000   0.04567   0.04518   0.19748
    D2       -2.98478  -0.00254   0.00000   0.04964   0.04917  -2.93561
    D3        3.08832  -0.00469   0.00000   0.06651   0.06626  -3.12861
    D4       -0.04876  -0.00661   0.00000   0.07047   0.07024   0.02148
    D5       -2.21297   0.00233   0.00000   0.04562   0.04628  -2.16669
    D6        3.11538  -0.00318   0.00000  -0.01204  -0.01141   3.10397
    D7        1.06618  -0.00099   0.00000   0.03381   0.03407   1.10025
    D8       -3.11407  -0.00050   0.00000   0.04113   0.04140  -3.07266
    D9       -1.01092  -0.00135   0.00000   0.03670   0.03697  -0.97395
   D10       -2.08013   0.00097   0.00000   0.02955   0.02970  -2.05044
   D11        0.02280   0.00146   0.00000   0.03687   0.03703   0.05983
   D12        2.12595   0.00061   0.00000   0.03244   0.03260   2.15855
   D13       -0.50042  -0.00033   0.00000  -0.07268  -0.07311  -0.57353
   D14        1.60252   0.00016   0.00000  -0.06536  -0.06578   1.53674
   D15       -2.57752  -0.00069   0.00000  -0.06979  -0.07021  -2.64773
   D16        0.07154  -0.00950   0.00000  -0.00901  -0.01002   0.06152
   D17       -3.03680  -0.00042   0.00000   0.00310   0.00284  -3.03396
   D18       -3.06510  -0.01160   0.00000  -0.00452  -0.00539  -3.07049
   D19        0.10975  -0.00252   0.00000   0.00760   0.00746   0.11721
   D20       -2.41696  -0.00210   0.00000  -0.00363  -0.00604  -2.42300
   D21        2.11931   0.00308   0.00000   0.04268   0.04245   2.16176
   D22       -2.17582  -0.00539   0.00000  -0.08982  -0.08952  -2.26533
   D23        0.99812   0.00379   0.00000  -0.07760  -0.07637   0.92174
   D24        2.44637  -0.00633   0.00000  -0.08661  -0.08814   2.35823
   D25        2.42057   0.00021   0.00000   0.01985   0.01868   2.43924
   D26        3.00110   0.00009   0.00000  -0.02066  -0.02093   2.98017
         Item               Value     Threshold  Converged?
 Maximum Force            0.039395     0.000450     NO 
 RMS     Force            0.007477     0.000300     NO 
 Maximum Displacement     0.141188     0.001800     NO 
 RMS     Displacement     0.039466     0.001200     NO 
 Predicted change in Energy=-9.118724D-03
 GradGradGradGradGradGradGradGradGradGradGradGradGradGradGradGradGradGrad

                          Input orientation:                          
 ---------------------------------------------------------------------
 Center     Atomic      Atomic             Coordinates (Angstroms)
 Number     Number       Type             X           Y           Z
 ---------------------------------------------------------------------
      1          7           0        1.309189    1.285552   -0.007430
      2          1           0        2.294538    1.381547   -0.162314
      3          6           0        0.671318    0.034544   -0.005714
      4          1           0       -2.025990   -1.333439   -0.626633
      5          6           0        1.611748   -1.132443    0.015097
      6          6           0       -0.692464   -0.034564   -0.032300
      7          1           0        2.211223   -1.144564    0.934261
      8          1           0        1.069254   -2.076395   -0.054461
      9          1           0        2.304892   -1.057768   -0.833962
     10          8           0       -1.454386    1.151813   -0.136824
     11          1           0        0.725719    2.105545   -0.009498
     12          8           0       -1.366455   -1.244786    0.095346
     13          1           0       -0.259905    1.055117    0.757444
 ---------------------------------------------------------------------
                    Distance matrix (angstroms):
                    1          2          3          4          5
     1  N    0.000000
     2  H    1.002057   0.000000
     3  C    1.404245   2.115132   0.000000
     4  H    4.285551   5.123837   3.087456   0.000000
     5  C    2.436955   2.611096   1.498899   3.699372   0.000000
     6  C    2.397903   3.308240   1.365790   1.954124   2.552836
     7  H    2.757883   2.755115   2.155263   4.519517   1.097443
     8  H    3.370826   3.670193   2.148672   3.234177   1.090955
     9  H    2.676888   2.530114   2.132534   4.344596   1.098601
    10  O    2.769833   3.756043   2.405015   2.596752   3.826497
    11  H    1.006394   1.734566   2.071719   4.447400   3.357114
    12  O    3.684053   4.512969   2.408198   0.981885   2.981401
    13  H    1.760735   2.734537   1.578340   3.277183   2.973144
                    6          7          8          9         10
     6  C    0.000000
     7  H    3.255417   0.000000
     8  H    2.696890   1.774816   0.000000
     9  H    3.267070   1.772828   1.781017   0.000000
    10  O    1.413840   4.456149   4.098399   4.415928   0.000000
    11  H    2.567455   3.696027   4.196267   3.630437   2.382997
    12  O    1.391113   3.676086   2.578119   3.791751   2.409423
    13  H    1.413580   3.313056   3.497460   3.684432   1.495276
                   11         12         13
    11  H    0.000000
    12  O    3.951316   0.000000
    13  H    1.631886   2.636737   0.000000
 Stoichiometry    C3H7NO2
 Framework group  C1[X(C3H7NO2)]
 Deg. of freedom    33
 Full point group                 C1      NOp   1
 Largest Abelian subgroup         C1      NOp   1
 Largest concise Abelian subgroup C1      NOp   1
                         Standard orientation:                         
 ---------------------------------------------------------------------
 Center     Atomic      Atomic             Coordinates (Angstroms)
 Number     Number       Type             X           Y           Z
 ---------------------------------------------------------------------
      1          7           0        1.311952   -1.221858   -0.004473
      2          1           0        2.297601   -1.278527    0.166996
      3          6           0        0.620601    0.000365    0.006087
      4          1           0       -2.144150    1.238366    0.602650
      5          6           0        1.509798    1.206868    0.025569
      6          6           0       -0.745151    0.010254    0.008393
      7          1           0        2.124564    1.263285   -0.881768
      8          1           0        0.925748    2.125040    0.103215
      9          1           0        2.190196    1.144928    0.885887
     10          8           0       -1.456697   -1.209636    0.075570
     11          1           0        0.764622   -2.066040   -0.029261
     12          8           0       -1.468558    1.192724   -0.108399
     13          1           0       -0.251692   -1.043674   -0.794067
 ---------------------------------------------------------------------
 Rotational constants (GHZ):      4.8830981      3.2704057      2.0033281
 Standard basis: 6-31G (6D, 7F)
 There are    68 symmetry adapted cartesian basis functions of A   symmetry.
 There are    68 symmetry adapted basis functions of A   symmetry.
    68 basis functions,   160 primitive gaussians,    68 cartesian basis functions
    24 alpha electrons       24 beta electrons
       nuclear repulsion energy       246.3462195768 Hartrees.
 NAtoms=   13 NActive=   13 NUniq=   13 SFac= 1.00D+00 NAtFMM=   60 NAOKFM=F Big=F
 Integral buffers will be    131072 words long.
 Raffenetti 2 integral format.
 Two-electron integral symmetry is turned on.
 One-electron integrals computed using PRISM.
 NBasis=    68 RedAO= T EigKep=  2.85D-03  NBF=    68
 NBsUse=    68 1.00D-06 EigRej= -1.00D+00 NBFU=    68
 Initial guess from the checkpoint file:  "Ala-S-opt-freq-ts3-6-31g.chk"
 B after Tr=     0.000000    0.000000    0.000000
         Rot=    0.999956   -0.002398   -0.000942    0.008998 Ang=  -1.07 deg.
 ExpMin= 1.61D-01 ExpMax= 5.48D+03 ExpMxC= 8.25D+02 IAcc=1 IRadAn=         1 AccDes= 0.00D+00
 Harris functional with IExCor=  402 and IRadAn=       1 diagonalized for initial guess.
 HarFok:  IExCor=  402 AccDes= 0.00D+00 IRadAn=         1 IDoV= 1 UseB2=F ITyADJ=14
 ICtDFT=  3500011 ScaDFX=  1.000000  1.000000  1.000000  1.000000
 FoFCou: FMM=F IPFlag=           0 FMFlag=      100000 FMFlg1=           0
         NFxFlg=           0 DoJE=T BraDBF=F KetDBF=T FulRan=T
         wScrn=  0.000000 ICntrl=     500 IOpCl=  0 I1Cent=   200000004 NGrid=           0
         NMat0=    1 NMatS0=      1 NMatT0=    0 NMatD0=    1 NMtDS0=    0 NMtDT0=    0
 Petite list used in FoFCou.
 Keep R1 ints in memory in canonical form, NReq=3676491.
 Requested convergence on RMS density matrix=1.00D-08 within 128 cycles.
 Requested convergence on MAX density matrix=1.00D-06.
 Requested convergence on             energy=1.00D-06.
 No special actions if energy rises.
 Integral accuracy reduced to 1.0D-05 until final iterations.
 Initial convergence to 1.0D-05 achieved.  Increase integral accuracy.
 SCF Done:  E(RB3LYP) =  -323.456542805     A.U. after   16 cycles
            NFock= 16  Conv=0.25D-08     -V/T= 2.0053
 Calling FoFJK, ICntrl=      2127 FMM=F ISym2X=0 I1Cent= 0 IOpClX= 0 NMat=1 NMatS=1 NMatT=0.
 ***** Axes restored to original set *****
 -------------------------------------------------------------------
 Center     Atomic                   Forces (Hartrees/Bohr)
 Number     Number              X              Y              Z
 -------------------------------------------------------------------
      1        7           0.005684676    0.016543775   -0.002134124
      2        1           0.001283339   -0.001885182    0.000300719
      3        6           0.023903439   -0.023507916   -0.013297227
      4        1          -0.002669760    0.002801299    0.003338507
      5        6          -0.004649042   -0.003021263    0.006511372
      6        6          -0.010012237    0.002607231   -0.007853407
      7        1           0.001151174   -0.000814619    0.000114660
      8        1          -0.000273600    0.000434952   -0.000143868
      9        1          -0.000055253    0.000007454   -0.000529455
     10        8           0.032326544   -0.000241053    0.025956981
     11        1           0.006267326    0.009276423   -0.012070872
     12        8           0.006987449   -0.001124917   -0.002635897
     13        1          -0.059944054   -0.001076184    0.002442611
 -------------------------------------------------------------------
 Cartesian Forces:  Max     0.059944054 RMS     0.013899398

 GradGradGradGradGradGradGradGradGradGradGradGradGradGradGradGradGradGrad
 Berny optimization.
 FormGI is forming the generalized inverse of G from B-inverse, IUseBI=4.
 Internal  Forces:  Max     0.030946023 RMS     0.005857718
 Search for a saddle point.
 Step number   3 out of a maximum of   77
 All quantities printed in internal units (Hartrees-Bohrs-Radians)
 Swapping is turned off.
 Update second derivatives using D2CorX and points    2    3
 ITU=  0  0  0
     Eigenvalues ---   -0.08057  -0.01901  -0.00426   0.00143   0.00192
     Eigenvalues ---    0.00544   0.00895   0.01103   0.01621   0.02481
     Eigenvalues ---    0.02547   0.02966   0.03926   0.04892   0.04943
     Eigenvalues ---    0.06741   0.10149   0.12889   0.13334   0.15362
     Eigenvalues ---    0.15659   0.16174   0.24170   0.31044   0.32806
     Eigenvalues ---    0.32891   0.34501   0.35698   0.37011   0.42569
     Eigenvalues ---    0.46274   0.49179   0.49586
 Eigenvectors required to have negative eigenvalues:
                          R15       R7        R14       D23       D24
   1                    0.58819  -0.36362  -0.31258  -0.22225   0.21410
                          D4        A25       D3        A21       R16
   1                    0.19015  -0.16826   0.16329  -0.14711   0.14647
 RFO step:  Lambda0=7.242867022D-03 Lambda=-3.06502634D-02.
 Linear search not attempted -- option 19 set.
 Maximum step size (   0.300) exceeded in Quadratic search.
    -- Step size scaled by   0.351
 Iteration  1 RMS(Cart)=  0.03594026 RMS(Int)=  0.00325165
 Iteration  2 RMS(Cart)=  0.00200455 RMS(Int)=  0.00089911
 Iteration  3 RMS(Cart)=  0.00000745 RMS(Int)=  0.00089905
 Iteration  4 RMS(Cart)=  0.00000001 RMS(Int)=  0.00089905
 Variable       Old X    -DE/DX   Delta X   Delta X   Delta X     New X
                                 (Linear)    (Quad)   (Total)
    R1        1.89361   0.00103   0.00000  -0.00051  -0.00051   1.89310
    R2        2.65364   0.01331   0.00000  -0.00800  -0.00806   2.64558
    R3        1.90181   0.00139   0.00000   0.00062   0.00071   1.90252
    R4        3.32731   0.00984   0.00000   0.17400   0.17310   3.50041
    R5        2.83251   0.00032   0.00000  -0.00039  -0.00039   2.83212
    R6        2.58097   0.00456   0.00000   0.01540   0.01628   2.59725
    R7        2.98263   0.01629   0.00000   0.03913   0.04081   3.02344
    R8        1.85549  -0.00092   0.00000  -0.00047  -0.00047   1.85503
    R9        2.07387   0.00074   0.00000  -0.00064  -0.00064   2.07322
   R10        2.06161  -0.00023   0.00000   0.00040   0.00040   2.06200
   R11        2.07606   0.00037   0.00000  -0.00077  -0.00077   2.07529
   R12        2.67177  -0.00528   0.00000   0.01054   0.00992   2.68169
   R13        2.62882  -0.00348   0.00000  -0.00262  -0.00262   2.62621
   R14        2.67128  -0.00044   0.00000  -0.13328  -0.13528   2.53600
   R15        2.82566  -0.03095   0.00000  -0.07302  -0.07209   2.75357
   R16        3.08382   0.01180   0.00000   0.12512   0.12512   3.20893
    A1        2.13200  -0.00339   0.00000   0.00975   0.01200   2.14400
    A2        2.08487  -0.00030   0.00000   0.00201   0.00093   2.08579
    A3        2.84378  -0.00014   0.00000   0.03965   0.04083   2.88461
    A4        2.05163   0.00327   0.00000  -0.00795  -0.00928   2.04236
    A5        1.99174   0.00479   0.00000  -0.00556  -0.00289   1.98885
    A6        2.09281  -0.00836   0.00000  -0.01125  -0.01099   2.08182
    A7        2.19860   0.00359   0.00000   0.01692   0.01390   2.21250
    A8        2.61972   0.00045   0.00000  -0.02911  -0.02931   2.59042
    A9        1.94223   0.00202   0.00000   0.00153   0.00153   1.94376
   A10        1.93990  -0.00097   0.00000   0.00366   0.00366   1.94355
   A11        1.90944  -0.00051   0.00000  -0.00630  -0.00630   1.90314
   A12        1.89175  -0.00028   0.00000   0.00118   0.00116   1.89292
   A13        1.87907  -0.00051   0.00000   0.00103   0.00102   1.88009
   A14        1.89999   0.00025   0.00000  -0.00116  -0.00116   1.89883
   A15        2.09104  -0.00379   0.00000   0.00418   0.00369   2.09473
   A16        2.12471  -0.00561   0.00000  -0.01413  -0.01323   2.11148
   A17        2.06654   0.00911   0.00000   0.00967   0.00923   2.07577
   A18        2.44592  -0.00193   0.00000  -0.07315  -0.07361   2.37231
   A19        1.91401  -0.00103   0.00000  -0.00530  -0.00530   1.90871
   A20        1.70206  -0.00161   0.00000  -0.02995  -0.03074   1.67132
   A21        2.03044  -0.00193   0.00000  -0.05664  -0.05587   1.97456
   A22        1.79667   0.00285   0.00000   0.02928   0.02806   1.82473
   A23        1.40263  -0.00052   0.00000  -0.05312  -0.05248   1.35015
   A24        2.00254  -0.00328   0.00000  -0.02238  -0.02269   1.97984
   A25        1.73127  -0.00415   0.00000  -0.03726  -0.03705   1.69421
    D1        0.19748   0.00050   0.00000   0.05226   0.05128   0.24876
    D2       -2.93561  -0.00150   0.00000   0.03878   0.03834  -2.89727
    D3       -3.12861  -0.00215   0.00000   0.07608   0.07564  -3.05297
    D4        0.02148  -0.00415   0.00000   0.06259   0.06270   0.08419
    D5       -2.16669   0.00248   0.00000   0.03827   0.03917  -2.12752
    D6        3.10397  -0.00231   0.00000  -0.00609  -0.00611   3.09786
    D7        1.10025  -0.00026   0.00000   0.02841   0.02855   1.12880
    D8       -3.07266   0.00010   0.00000   0.03346   0.03361  -3.03905
    D9       -0.97395  -0.00054   0.00000   0.03021   0.03036  -0.94359
   D10       -2.05044   0.00182   0.00000   0.04268   0.04248  -2.00796
   D11        0.05983   0.00218   0.00000   0.04773   0.04754   0.10737
   D12        2.15855   0.00154   0.00000   0.04449   0.04429   2.20284
   D13       -0.57353  -0.00196   0.00000  -0.08513  -0.08508  -0.65861
   D14        1.53674  -0.00160   0.00000  -0.08007  -0.08002   1.45672
   D15       -2.64773  -0.00225   0.00000  -0.08332  -0.08327  -2.73100
   D16        0.06152  -0.00682   0.00000   0.01016   0.00929   0.07082
   D17       -3.03396   0.00039   0.00000   0.01705   0.01650  -3.01746
   D18       -3.07049  -0.00907   0.00000  -0.00491  -0.00535  -3.07584
   D19        0.11721  -0.00186   0.00000   0.00198   0.00185   0.11906
   D20       -2.42300  -0.00120   0.00000   0.00435   0.00210  -2.42090
   D21        2.16176   0.00360   0.00000   0.05824   0.05754   2.21930
   D22       -2.26533  -0.00447   0.00000  -0.04594  -0.04546  -2.31079
   D23        0.92174   0.00296   0.00000  -0.03902  -0.03820   0.88354
   D24        2.35823  -0.00722   0.00000  -0.06187  -0.06317   2.29507
   D25        2.43924   0.00099   0.00000   0.02911   0.02762   2.46686
   D26        2.98017  -0.00030   0.00000  -0.01665  -0.01705   2.96313
         Item               Value     Threshold  Converged?
 Maximum Force            0.030946     0.000450     NO 
 RMS     Force            0.005858     0.000300     NO 
 Maximum Displacement     0.137841     0.001800     NO 
 RMS     Displacement     0.035625     0.001200     NO 
 Predicted change in Energy=-8.703993D-03
 GradGradGradGradGradGradGradGradGradGradGradGradGradGradGradGradGradGrad

                          Input orientation:                          
 ---------------------------------------------------------------------
 Center     Atomic      Atomic             Coordinates (Angstroms)
 Number     Number       Type             X           Y           Z
 ---------------------------------------------------------------------
      1          7           0        1.319262    1.278367   -0.024537
      2          1           0        2.297241    1.388028   -0.211904
      3          6           0        0.682230    0.031728   -0.019797
      4          1           0       -2.050969   -1.307409   -0.588331
      5          6           0        1.624615   -1.132969    0.018564
      6          6           0       -0.690927   -0.021546   -0.043972
      7          1           0        2.195280   -1.154767    0.955313
      8          1           0        1.091070   -2.079362   -0.082996
      9          1           0        2.341994   -1.040781   -0.807812
     10          8           0       -1.445880    1.174422   -0.160225
     11          1           0        0.730336    2.093119    0.029592
     12          8           0       -1.362725   -1.228684    0.107182
     13          1           0       -0.332848    0.990012    0.761930
 ---------------------------------------------------------------------
                    Distance matrix (angstroms):
                    1          2          3          4          5
     1  N    0.000000
     2  H    1.001785   0.000000
     3  C    1.399979   2.117715   0.000000
     4  H    4.285155   5.129718   3.096271   0.000000
     5  C    2.430975   2.619345   1.498692   3.729433   0.000000
     6  C    2.393953   3.308209   1.374403   1.949227   2.569223
     7  H    2.765439   2.799750   2.155906   4.520705   1.097102
     8  H    3.365981   3.673453   2.151242   3.274704   1.091166
     9  H    2.652913   2.501245   2.127453   4.406516   1.098194
    10  O    2.770420   3.749567   2.419571   2.590153   3.844991
    11  H    1.006770   1.735126   2.062545   4.436336   3.347761
    12  O    3.673651   4.510472   2.405537   0.981639   2.990187
    13  H    1.852335   2.832690   1.599934   3.170692   2.981828
                    6          7          8          9         10
     6  C    0.000000
     7  H    3.257753   0.000000
     8  H    2.722433   1.775455   0.000000
     9  H    3.289514   1.772887   1.780118   0.000000
    10  O    1.419087   4.464034   4.126644   4.435593   0.000000
    11  H    2.548963   3.681275   4.189559   3.622157   2.369800
    12  O    1.389728   3.658442   2.604022   3.820663   2.419368
    13  H    1.341993   3.320979   3.487476   3.707153   1.457126
                   11         12         13
    11  H    0.000000
    12  O    3.926997   0.000000
    13  H    1.698094   2.532184   0.000000
 Stoichiometry    C3H7NO2
 Framework group  C1[X(C3H7NO2)]
 Deg. of freedom    33
 Full point group                 C1      NOp   1
 Largest Abelian subgroup         C1      NOp   1
 Largest concise Abelian subgroup C1      NOp   1
                         Standard orientation:                         
 ---------------------------------------------------------------------
 Center     Atomic      Atomic             Coordinates (Angstroms)
 Number     Number       Type             X           Y           Z
 ---------------------------------------------------------------------
      1          7           0        1.286126   -1.240232   -0.010130
      2          1           0        2.262878   -1.337319    0.190131
      3          6           0        0.625379   -0.006202    0.012814
      4          1           0       -2.141920    1.263171    0.576412
      5          6           0        1.545670    1.176577    0.026093
      6          6           0       -0.748761    0.020555    0.015610
      7          1           0        2.130877    1.238165   -0.899851
      8          1           0        0.992438    2.109193    0.147769
      9          1           0        2.251239    1.072210    0.861144
     10          8           0       -1.482336   -1.192383    0.082352
     11          1           0        0.713943   -2.063800   -0.099157
     12          8           0       -1.441136    1.219009   -0.109568
     13          1           0       -0.358299   -0.958581   -0.814918
 ---------------------------------------------------------------------
 Rotational constants (GHZ):      4.8871383      3.2547413      1.9988456
 Standard basis: 6-31G (6D, 7F)
 There are    68 symmetry adapted cartesian basis functions of A   symmetry.
 There are    68 symmetry adapted basis functions of A   symmetry.
    68 basis functions,   160 primitive gaussians,    68 cartesian basis functions
    24 alpha electrons       24 beta electrons
       nuclear repulsion energy       246.2059828674 Hartrees.
 NAtoms=   13 NActive=   13 NUniq=   13 SFac= 1.00D+00 NAtFMM=   60 NAOKFM=F Big=F
 Integral buffers will be    131072 words long.
 Raffenetti 2 integral format.
 Two-electron integral symmetry is turned on.
 One-electron integrals computed using PRISM.
 NBasis=    68 RedAO= T EigKep=  2.87D-03  NBF=    68
 NBsUse=    68 1.00D-06 EigRej= -1.00D+00 NBFU=    68
 Initial guess from the checkpoint file:  "Ala-S-opt-freq-ts3-6-31g.chk"
 B after Tr=     0.000000    0.000000    0.000000
         Rot=    0.999946   -0.002021   -0.001199    0.010135 Ang=  -1.19 deg.
 ExpMin= 1.61D-01 ExpMax= 5.48D+03 ExpMxC= 8.25D+02 IAcc=1 IRadAn=         1 AccDes= 0.00D+00
 Harris functional with IExCor=  402 and IRadAn=       1 diagonalized for initial guess.
 HarFok:  IExCor=  402 AccDes= 0.00D+00 IRadAn=         1 IDoV= 1 UseB2=F ITyADJ=14
 ICtDFT=  3500011 ScaDFX=  1.000000  1.000000  1.000000  1.000000
 FoFCou: FMM=F IPFlag=           0 FMFlag=      100000 FMFlg1=           0
         NFxFlg=           0 DoJE=T BraDBF=F KetDBF=T FulRan=T
         wScrn=  0.000000 ICntrl=     500 IOpCl=  0 I1Cent=   200000004 NGrid=           0
         NMat0=    1 NMatS0=      1 NMatT0=    0 NMatD0=    1 NMtDS0=    0 NMtDT0=    0
 Petite list used in FoFCou.
 Keep R1 ints in memory in canonical form, NReq=3676491.
 Requested convergence on RMS density matrix=1.00D-08 within 128 cycles.
 Requested convergence on MAX density matrix=1.00D-06.
 Requested convergence on             energy=1.00D-06.
 No special actions if energy rises.
 Integral accuracy reduced to 1.0D-05 until final iterations.
 Initial convergence to 1.0D-05 achieved.  Increase integral accuracy.
 SCF Done:  E(RB3LYP) =  -323.464667834     A.U. after   14 cycles
            NFock= 14  Conv=0.95D-08     -V/T= 2.0053
 Calling FoFJK, ICntrl=      2127 FMM=F ISym2X=0 I1Cent= 0 IOpClX= 0 NMat=1 NMatS=1 NMatT=0.
 ***** Axes restored to original set *****
 -------------------------------------------------------------------
 Center     Atomic                   Forces (Hartrees/Bohr)
 Number     Number              X              Y              Z
 -------------------------------------------------------------------
      1        7           0.003539570    0.012276144   -0.001580931
      2        1           0.001093602   -0.002576335   -0.000349109
      3        6           0.025601931   -0.013720699   -0.014677720
      4        1          -0.002677894    0.002708798    0.003516409
      5        6          -0.006252852   -0.004371446    0.005316833
      6        6          -0.001245542    0.003826242   -0.003084269
      7        1           0.000960405   -0.000535415    0.000109393
      8        1          -0.000216770    0.000390568   -0.000087380
      9        1           0.000143149   -0.000318687   -0.000414595
     10        8           0.022311705   -0.001084820    0.018542707
     11        1           0.005855816    0.008421031   -0.010122563
     12        8           0.004991539   -0.001767187   -0.002612605
     13        1          -0.054104659   -0.003248195    0.005443832
 -------------------------------------------------------------------
 Cartesian Forces:  Max     0.054104659 RMS     0.011795774

 GradGradGradGradGradGradGradGradGradGradGradGradGradGradGradGradGradGrad
 Berny optimization.
 FormGI is forming the generalized inverse of G from B-inverse, IUseBI=4.
 Internal  Forces:  Max     0.022514650 RMS     0.004652338
 Search for a saddle point.
 Step number   4 out of a maximum of   77
 All quantities printed in internal units (Hartrees-Bohrs-Radians)
 Swapping is turned off.
 Update second derivatives using D2CorX and points    3    4
 ITU=  0  0  0  0
     Eigenvalues ---   -0.07940  -0.01011  -0.00517   0.00137   0.00160
     Eigenvalues ---    0.00485   0.00883   0.01128   0.01582   0.02494
     Eigenvalues ---    0.02586   0.03023   0.04347   0.04892   0.04945
     Eigenvalues ---    0.06731   0.10080   0.12888   0.13372   0.15364
     Eigenvalues ---    0.15652   0.16172   0.24146   0.31015   0.32769
     Eigenvalues ---    0.32888   0.34491   0.35698   0.36995   0.42502
     Eigenvalues ---    0.46275   0.48947   0.49582
 Eigenvectors required to have negative eigenvalues:
                          R15       R7        R14       D23       D24
   1                    0.61063  -0.36018  -0.31146  -0.22274   0.21571
                          D4        A25       D3        A21       R16
   1                    0.17189  -0.16687   0.14793  -0.14582   0.14173
 RFO step:  Lambda0=4.139989104D-03 Lambda=-2.67383724D-02.
 Linear search not attempted -- option 19 set.
 Maximum step size (   0.300) exceeded in Quadratic search.
    -- Step size scaled by   0.371
 Iteration  1 RMS(Cart)=  0.03399079 RMS(Int)=  0.00321541
 Iteration  2 RMS(Cart)=  0.00203839 RMS(Int)=  0.00103102
 Iteration  3 RMS(Cart)=  0.00000672 RMS(Int)=  0.00103098
 Iteration  4 RMS(Cart)=  0.00000001 RMS(Int)=  0.00103098
 Variable       Old X    -DE/DX   Delta X   Delta X   Delta X     New X
                                 (Linear)    (Quad)   (Total)
    R1        1.89310   0.00085   0.00000  -0.00026  -0.00026   1.89284
    R2        2.64558   0.00807   0.00000  -0.01631  -0.01643   2.62915
    R3        1.90252   0.00142   0.00000   0.00139   0.00177   1.90429
    R4        3.50041   0.00930   0.00000   0.18417   0.18260   3.68301
    R5        2.83212   0.00051   0.00000   0.00044   0.00044   2.83256
    R6        2.59725   0.00218   0.00000   0.01365   0.01488   2.61212
    R7        3.02344   0.01488   0.00000   0.07737   0.07873   3.10216
    R8        1.85503  -0.00083   0.00000  -0.00034  -0.00034   1.85469
    R9        2.07322   0.00061   0.00000  -0.00030  -0.00030   2.07292
   R10        2.06200  -0.00023   0.00000   0.00001   0.00001   2.06202
   R11        2.07529   0.00038   0.00000  -0.00051  -0.00051   2.07477
   R12        2.68169  -0.00297   0.00000   0.01570   0.01534   2.69703
   R13        2.62621  -0.00183   0.00000   0.00307   0.00307   2.62928
   R14        2.53600  -0.00162   0.00000  -0.12011  -0.12232   2.41368
   R15        2.75357  -0.02251   0.00000  -0.04217  -0.04181   2.71176
   R16        3.20893   0.01043   0.00000   0.11453   0.11551   3.32445
    A1        2.14400  -0.00322   0.00000   0.00777   0.00932   2.15331
    A2        2.08579  -0.00047   0.00000   0.00353   0.00316   2.08895
    A3        2.88461   0.00002   0.00000   0.03284   0.03418   2.91879
    A4        2.04236   0.00343   0.00000  -0.00390  -0.00624   2.03611
    A5        1.98885   0.00443   0.00000   0.00426   0.00762   1.99648
    A6        2.08182  -0.00670   0.00000  -0.01038  -0.01066   2.07117
    A7        2.21250   0.00226   0.00000   0.00602   0.00265   2.21515
    A8        2.59042  -0.00035   0.00000  -0.03405  -0.03490   2.55552
    A9        1.94376   0.00142   0.00000   0.00029   0.00029   1.94405
   A10        1.94355  -0.00087   0.00000   0.00216   0.00216   1.94572
   A11        1.90314   0.00015   0.00000  -0.00241  -0.00241   1.90073
   A12        1.89292  -0.00015   0.00000   0.00096   0.00096   1.89388
   A13        1.88009  -0.00057   0.00000  -0.00017  -0.00017   1.87992
   A14        1.89883   0.00000   0.00000  -0.00093  -0.00093   1.89790
   A15        2.09473  -0.00146   0.00000   0.01231   0.01145   2.10619
   A16        2.11148  -0.00463   0.00000  -0.01123  -0.00993   2.10155
   A17        2.07577   0.00586   0.00000  -0.00047  -0.00099   2.07479
   A18        2.37231  -0.00306   0.00000  -0.07738  -0.07815   2.29415
   A19        1.90871  -0.00078   0.00000  -0.00141  -0.00141   1.90730
   A20        1.67132  -0.00343   0.00000  -0.04730  -0.04792   1.62339
   A21        1.97456  -0.00290   0.00000  -0.06335  -0.06182   1.91275
   A22        1.82473   0.00146   0.00000   0.00635   0.00503   1.82976
   A23        1.35015  -0.00137   0.00000  -0.05722  -0.05650   1.29365
   A24        1.97984  -0.00401   0.00000  -0.02356  -0.02537   1.95448
   A25        1.69421  -0.00402   0.00000  -0.02387  -0.02352   1.67070
    D1        0.24876   0.00098   0.00000   0.04628   0.04525   0.29402
    D2       -2.89727  -0.00146   0.00000   0.02203   0.02169  -2.87559
    D3       -3.05297  -0.00088   0.00000   0.09986   0.09964  -2.95332
    D4        0.08419  -0.00331   0.00000   0.07560   0.07607   0.16026
    D5       -2.12752   0.00225   0.00000   0.03117   0.03240  -2.09513
    D6        3.09786  -0.00166   0.00000  -0.00097  -0.00173   3.09613
    D7        1.12880  -0.00012   0.00000   0.02244   0.02236   1.15116
    D8       -3.03905   0.00008   0.00000   0.02538   0.02530  -3.01376
    D9       -0.94359  -0.00038   0.00000   0.02401   0.02392  -0.91967
   D10       -2.00796   0.00256   0.00000   0.04891   0.04827  -1.95969
   D11        0.10737   0.00275   0.00000   0.05184   0.05120   0.15858
   D12        2.20284   0.00230   0.00000   0.05047   0.04983   2.25267
   D13       -0.65861  -0.00275   0.00000  -0.08890  -0.08818  -0.74678
   D14        1.45672  -0.00256   0.00000  -0.08596  -0.08524   1.37148
   D15       -2.73100  -0.00301   0.00000  -0.08734  -0.08662  -2.81761
   D16        0.07082  -0.00394   0.00000   0.03524   0.03486   0.10567
[...]
      6        6           0.000009501    0.000017782   -0.000000794
      7        1           0.000000295   -0.000002501   -0.000002870
      8        1           0.000000446   -0.000001520   -0.000003165
      9        1          -0.000000846   -0.000000586   -0.000002925
     10        8          -0.000006490    0.000005309    0.000009579
     11        1           0.000001610    0.000000572    0.000005150
     12        8           0.000005308   -0.000003297    0.000001640
     13        1          -0.000001358    0.000003605    0.000003601
 -------------------------------------------------------------------
 Cartesian Forces:  Max     0.000029439 RMS     0.000006952
 FormGI is forming the generalized inverse of G from B-inverse, IUseBI=4.

 GradGradGradGradGradGradGradGradGradGradGradGradGradGradGradGradGradGrad
 Berny optimization.
 Internal  Forces:  Max     0.000014195 RMS     0.000003959
 Search for a saddle point.
 Step number   1 out of a maximum of    2
 All quantities printed in internal units (Hartrees-Bohrs-Radians)
 Swapping is turned off.
 Second derivative matrix not updated -- analytic derivatives used.
 ITU=  0
     Eigenvalues ---   -0.07886   0.00032   0.00206   0.00501   0.00727
     Eigenvalues ---    0.01005   0.01280   0.01829   0.02557   0.03117
     Eigenvalues ---    0.04779   0.04842   0.05701   0.07191   0.08955
     Eigenvalues ---    0.11284   0.11889   0.13103   0.15254   0.15294
     Eigenvalues ---    0.16424   0.16887   0.19859   0.31543   0.33099
     Eigenvalues ---    0.33381   0.34418   0.35789   0.39300   0.41210
     Eigenvalues ---    0.43799   0.48888   0.48912
 Eigenvectors required to have negative eigenvalues:
                          R15       R14       D24       R7        D23
   1                   -0.69664   0.37852  -0.23928   0.22071   0.21573
                          D16       D18       A25       D25       R6
   1                   -0.16658  -0.16494   0.13274   0.12683  -0.12566
 Angle between quadratic step and forces=  81.20 degrees.
 Linear search not attempted -- option 19 set.
 Iteration  1 RMS(Cart)=  0.00043032 RMS(Int)=  0.00000018
 Iteration  2 RMS(Cart)=  0.00000019 RMS(Int)=  0.00000000
 Variable       Old X    -DE/DX   Delta X   Delta X   Delta X     New X
                                 (Linear)    (Quad)   (Total)
    R1        1.90054   0.00000   0.00000   0.00000   0.00000   1.90054
    R2        2.56976   0.00001   0.00000   0.00001   0.00001   2.56977
    R3        1.91353   0.00000   0.00000   0.00000   0.00000   1.91353
    R4        5.07938   0.00000   0.00000  -0.00005  -0.00005   5.07933
    R5        2.82747   0.00000   0.00000  -0.00001  -0.00001   2.82746
    R6        2.63996  -0.00001   0.00000  -0.00002  -0.00002   2.63995
    R7        4.06791   0.00001   0.00000   0.00002   0.00002   4.06793
    R8        1.84666   0.00000   0.00000   0.00000   0.00000   1.84666
    R9        2.07579   0.00000   0.00000   0.00001   0.00001   2.07580
   R10        2.07690   0.00000   0.00000  -0.00001  -0.00001   2.07689
   R11        2.06007   0.00000   0.00000   0.00000   0.00000   2.06007
   R12        2.78035   0.00001   0.00000   0.00000   0.00000   2.78035
   R13        2.66659   0.00000   0.00000   0.00002   0.00002   2.66661
   R14        2.30323   0.00000   0.00000   0.00002   0.00002   2.30324
   R15        2.53547   0.00000   0.00000   0.00001   0.00001   2.53548
   R16        4.88263   0.00000   0.00000  -0.00006  -0.00006   4.88257
    A1        2.13837  -0.00001   0.00000  -0.00003  -0.00003   2.13834
    A2        2.10315   0.00000   0.00000   0.00000   0.00000   2.10315
    A3        2.58215   0.00000   0.00000  -0.00007  -0.00007   2.58207
    A4        2.04124   0.00001   0.00000   0.00002   0.00002   2.04126
    A5        2.09472   0.00000   0.00000   0.00000   0.00000   2.09472
    A6        2.03679  -0.00001   0.00000  -0.00007  -0.00007   2.03672
    A7        2.15082   0.00001   0.00000   0.00007   0.00007   2.15089
    A8        2.32662   0.00000   0.00000   0.00001   0.00001   2.32662
    A9        1.92415   0.00000   0.00000   0.00004   0.00004   1.92418
   A10        1.95093   0.00000   0.00000  -0.00003  -0.00003   1.95090
   A11        1.92535   0.00000   0.00000   0.00002   0.00002   1.92536
   A12        1.87444   0.00000   0.00000   0.00000   0.00000   1.87445
   A13        1.88670   0.00000   0.00000  -0.00005  -0.00005   1.88666
   A14        1.90042   0.00000   0.00000   0.00001   0.00001   1.90044
   A15        2.08735   0.00001   0.00000   0.00006   0.00006   2.08741
   A16        2.05682  -0.00001   0.00000  -0.00004  -0.00004   2.05679
   A17        2.04438   0.00000   0.00000   0.00000   0.00000   2.04439
   A18        2.07642   0.00000   0.00000  -0.00003  -0.00003   2.07639
   A19        1.87731   0.00000   0.00000  -0.00004  -0.00004   1.87727
   A20        1.06015  -0.00001   0.00000  -0.00002  -0.00002   1.06012
   A21        1.35917   0.00000   0.00000   0.00000   0.00000   1.35917
   A22        1.52102   0.00000   0.00000   0.00002   0.00002   1.52104
   A23        0.86836   0.00000   0.00000   0.00002   0.00002   0.86838
   A24        1.24432  -0.00001   0.00000  -0.00003  -0.00003   1.24429
   A25        1.07598   0.00000   0.00000  -0.00001  -0.00001   1.07597
    D1       -0.16881   0.00000   0.00000  -0.00005  -0.00005  -0.16886
    D2        2.92965   0.00000   0.00000  -0.00006  -0.00006   2.92959
    D3        3.00420   0.00000   0.00000   0.00005   0.00005   3.00425
    D4       -0.18052   0.00000   0.00000   0.00003   0.00003  -0.18049
    D5       -2.18247   0.00000   0.00000  -0.00008  -0.00008  -2.18254
    D6        2.81525   0.00000   0.00000  -0.00007  -0.00007   2.81518
    D7       -1.16220   0.00000   0.00000  -0.00100  -0.00100  -1.16321
    D8        0.92133   0.00000   0.00000  -0.00099  -0.00099   0.92034
    D9        3.03851   0.00000   0.00000  -0.00098  -0.00098   3.03753
   D10        2.02546   0.00000   0.00000  -0.00098  -0.00098   2.02447
   D11       -2.17420   0.00000   0.00000  -0.00097  -0.00097  -2.17517
   D12       -0.05701   0.00000   0.00000  -0.00096  -0.00096  -0.05797
   D13        2.70872   0.00000   0.00000  -0.00094  -0.00094   2.70778
   D14       -1.49094   0.00000   0.00000  -0.00093  -0.00093  -1.49186
   D15        0.62625   0.00000   0.00000  -0.00092  -0.00092   0.62533
   D16        0.13295   0.00000   0.00000  -0.00005  -0.00005   0.13290
   D17        2.80835   0.00000   0.00000   0.00001   0.00001   2.80836
   D18       -3.05329   0.00000   0.00000  -0.00007  -0.00007  -3.05336
   D19       -0.37789   0.00000   0.00000  -0.00001  -0.00001  -0.37790
   D20       -2.53127   0.00000   0.00000  -0.00008  -0.00008  -2.53135
   D21        2.80077   0.00000   0.00000  -0.00005  -0.00005   2.80071
   D22       -3.03487   0.00000   0.00000   0.00072   0.00072  -3.03415
   D23       -0.34797   0.00000   0.00000   0.00079   0.00079  -0.34717
   D24        0.83432   0.00000   0.00000   0.00079   0.00079   0.83511
   D25        2.91474   0.00000   0.00000  -0.00003  -0.00003   2.91472
   D26       -2.99774   0.00000   0.00000  -0.00002  -0.00002  -2.99776
         Item               Value     Threshold  Converged?
 Maximum Force            0.000014     0.000450     YES
 RMS     Force            0.000004     0.000300     YES
 Maximum Displacement     0.001848     0.001800     NO 
 RMS     Displacement     0.000430     0.001200     YES
 Predicted change in Energy=-7.916968D-09
 GradGradGradGradGradGradGradGradGradGradGradGradGradGradGradGradGradGrad


 Test job not archived.
 1\1\GINC-KALI\Freq\RB3LYP\6-31G\C3H7N1O2\ROOT\10-Apr-2016\0\\#N Geom=A
 llCheck Guess=TCheck SCRF=Check Test GenChk RB3LYP/6-31G Freq\\Ala-S-o
 pt-freq-ts3-6-31g\\0,1\N,1.3544182109,1.2902502055,0.2682839108\H,2.29
 96159101,1.4117070139,0.5897211301\C,0.8117546437,0.0644596733,0.03988
 49319\H,-2.063560481,-0.9602640008,-0.9231648129\C,1.680702815,-1.1534
 930166,0.0552408244\C,-0.5716204709,0.0156702566,-0.1485968107\H,2.387
 0154308,-1.1271405756,-0.7856200579\H,2.2720778788,-1.2208981255,0.979
 1674388\H,1.0728644405,-2.0533030209,-0.0410957787\O,-1.3343069011,1.2
 688163016,-0.2610800879\H,0.7525824288,2.0922218076,0.1268927075\O,-1.
 1109281833,-1.1249049599,-0.7806049277\H,-1.1519365923,0.4870370809,0.
 8139805522\\Version=ES64L-G09RevD.01\State=1-A\HF=-323.5135361\RMSD=4.
 447e-09\RMSF=6.952e-06\ZeroPoint=0.1013231\Thermal=0.1085864\Dipole=1.
 1983296,-0.1496692,0.6715212\DipoleDeriv=-0.68767,-0.1765504,0.1269485
 ,-0.8894311,-0.719415,-0.0927971,-0.0117359,-0.0456718,-0.7106878,0.22
 87784,0.0208671,-0.0647102,0.0151203,0.2162117,0.005266,-0.1236668,0.0
 004653,0.3579485,1.0381976,0.0918113,-0.0460633,0.7934323,0.5815975,0.
 1198467,-0.0223644,-0.0298959,0.1077593,0.2183052,0.0699458,-0.0099894
 ,0.1940652,0.3118385,-0.0080705,0.0476982,-0.0338999,0.3843159,0.03275
 07,0.0759862,0.03277,-0.0825793,-0.0623943,-0.0346349,0.0911166,-0.045
 0455,0.1277109,-0.4286668,0.2148201,0.1605141,0.4535555,0.6154804,0.39
 92441,1.3170607,0.2675734,0.3519173,-0.0570505,0.0429433,0.0920316,0.0
 356583,0.0467849,0.0338819,0.1098146,0.0081618,-0.0171963,-0.0301975,0
 .0461019,-0.1025282,0.0319833,0.0445168,-0.0280602,-0.1480421,0.028576
 ,-0.0778039,0.0688429,-0.081067,-0.0050154,-0.0219614,-0.0005678,-0.00
 38483,-0.0016121,-0.0013969,0.107374,-0.6940337,0.0923465,0.009462,0.7
 391624,-0.7509335,-0.0957851,-0.8042589,0.1509929,-0.4519726,0.1060421
 ,0.0619624,-0.0489805,0.0228602,0.2297952,-0.0180924,-0.0205794,-0.007
 8759,0.3682267,-0.3589566,-0.2882811,-0.1462484,-0.5371754,-0.801592,-
 0.2312263,-0.4377123,-0.1811902,-0.6535429,0.5636582,-0.1708862,0.0018
 092,-0.7546903,0.2886775,-0.0457241,0.0042817,-0.1107932,0.1059511\Pol
 ar=72.1926917,-3.222367,49.2061513,6.468204,3.5029512,29.5854036\PG=C0
 1 [X(C3H7N1O2)]\NImag=1\\0.82155320,-0.01361890,0.77059432,0.23323156,
 0.03296882,0.12238761,-0.41839468,-0.03814798,-0.13617536,0.43395654,-
 0.03663666,-0.08109320,-0.01439191,0.04738514,0.07357543,-0.13867025,-
 0.01524338,-0.05248765,0.14269583,0.01760389,0.05562497,-0.17223904,-0
 .07917840,-0.04115010,-0.00990038,-0.03730991,-0.00725673,0.72462174,-
 0.09436721,-0.33928914,-0.04717431,0.00122619,0.00013873,0.00033070,0.
 01359391,0.69573225,-0.03851235,-0.05117128,-0.05880599,-0.00081388,-0
 .01078766,-0.00455913,0.11714848,0.07309370,0.20140071,0.00086545,0.00
 270753,-0.00028865,-0.00007432,-0.00019154,0.00009640,-0.00167155,-0.0
 0343406,-0.00103969,0.46404023,-0.00100821,0.00168450,-0.00016448,-0.0
 0027094,-0.00050516,-0.00003168,-0.00197796,-0.00813709,-0.00275537,-0
 .05838379,0.04983800,-0.00008823,0.00096717,0.00107089,-0.00020755,-0.
 00011437,0.00078607,0.00072436,-0.00196555,-0.00082659,0.07837906,0.00
 972484,0.02594706,0.01425059,-0.01281659,-0.00000672,0.00074723,0.0001
 1224,0.00160738,-0.13829812,0.06213222,-0.00369958,0.00043503,0.000540
 99,-0.00007192,0.54795341,0.02313581,-0.03673057,0.00037502,0.00063627
 ,0.00243585,0.00091170,0.05770423,-0.17801149,-0.00042277,0.00014716,-
 0.00040038,-0.00001615,0.05327212,0.54581407,0.00393599,-0.00746126,0.
 00297707,0.00115975,-0.00020178,-0.00057213,-0.01453508,0.00172909,-0.
 07498846,0.00016703,0.00020903,-0.00059460,0.00880521,0.00473525,0.535
 32810,-0.04216550,-0.04687173,-0.00958448,0.00389598,0.00112024,0.0016
 8868,-0.31914180,0.00793759,-0.05018765,-0.02150439,-0.04544641,-0.023
 82948,-0.01820122,0.00757366,0.00889781,0.59186115,-0.04278142,-0.0054
 9404,-0.00729277,-0.00050072,-0.00584777,0.00006871,-0.02511425,-0.091
 62843,-0.00252742,0.00605241,-0.00552689,0.00125309,0.02743909,0.00401
 292,-0.00084927,0.07647325,0.40092966,0.00654245,0.03821505,0.01366753
 ,-0.00671272,-0.00189319,0.00522718,-0.10908364,-0.03546083,-0.0768379
 9,-0.00419182,-0.01596744,-0.00802356,-0.00147291,0.00166368,0.0060760
 7,0.15623548,0.08225692,0.23539828,0.00127621,-0.00143783,-0.00115437,
 0.00012258,0.00001296,0.00058283,-0.01759093,0.00245980,0.01484742,0.0
 0006521,0.00011550,0.00016771,-0.14893321,-0.00758806,0.12680207,-0.00
 028604,0.00298955,0.00130912,0.16602673,-0.00083562,0.00086874,0.00177
 786,0.00009478,-0.00040000,-0.00109900,0.02159309,-0.00200662,-0.02302
 603,-0.00014303,-0.00003065,0.00011481,-0.00626098,-0.04801022,0.00576
 400,0.00097234,-0.00285897,-0.00103368,0.00281340,0.05116548,-0.000442
 62,-0.00000027,0.00082212,0.00025004,-0.00039581,-0.00061578,-0.000291
 00,-0.00016305,0.00362047,-0.00005725,-0.00004066,-0.00002374,0.125469
 27,0.00713346,-0.19762865,-0.00120938,0.00030951,-0.00110930,-0.140445
 65,-0.00780865,0.21614959,0.00125243,-0.00186138,0.00144739,0.00060793
 ,0.00049378,-0.00064037,-0.01838260,0.00414837,-0.01722292,0.00010336,
 0.00030912,-0.00012558,-0.11645957,0.00431489,-0.11380194,0.00360009,0
 .00151074,-0.00031191,0.01120721,-0.00120967,0.01924238,0.13014686,-0.
 00010505,0.00233176,-0.00097988,-0.00082523,-0.00082735,0.00024577,0.0
 2127732,-0.00363592,0.02560725,-0.00017592,0.00017772,-0.00010926,0.00
 575559,-0.05118428,0.01152267,-0.00295999,-0.00294755,-0.00127936,0.00
 043443,0.00022622,0.00192276,-0.01117961,0.05292921,0.00057600,0.00040
 193,0.00084987,-0.00025240,0.00095749,-0.00032400,0.00016230,-0.001111
 29,0.00318504,0.00010640,0.00010610,0.00003208,-0.11387740,0.00991591,
 -0.22776259,0.00115800,-0.00007340,0.00015440,-0.01512898,0.00041558,-
 0.02360251,0.12726441,-0.01191515,0.25006361,-0.00345154,0.00360762,-0
 .00062334,-0.00016257,0.00010917,-0.00000685,0.01392494,0.02045679,0.0
 0209708,0.00006113,-0.00028107,-0.00004984,-0.13833752,-0.13293745,-0.
 01389779,-0.00022980,0.00150230,0.00153400,-0.01135948,-0.01720398,-0.
 00303511,-0.00922531,-0.01356499,0.00001480,0.14941473,0.00513182,-0.0
 0269275,0.00074018,0.00022127,0.00034424,0.00041003,-0.01917741,-0.024
 83434,-0.00244628,-0.00025407,0.00060910,0.00004986,-0.12489926,-0.236
 95724,-0.01929939,-0.00000168,-0.00155297,-0.00229410,0.00040986,0.000
 04283,-0.00069402,0.00243738,0.00303898,0.00096324,0.13800258,0.261080
 56,-0.00035537,0.00011468,0.00150181,0.00016192,0.00025379,-0.00055198
 ,0.00102521,-0.00054503,-0.00139385,0.00014009,-0.00022251,-0.00002767
 ,-0.01431818,-0.02028551,-0.05189528,-0.00026775,0.00078411,0.00067524
 ,0.01553777,0.02288234,0.00246816,-0.01658023,-0.02479861,-0.00213402,
 0.01473029,0.02214902,0.05184931,-0.00047459,0.00251776,0.00071444,-0.
 00116287,0.00201768,0.00206344,-0.02489467,0.03809263,-0.01195630,0.00
 202841,0.00329206,0.00239727,-0.00203955,-0.00341498,-0.00246497,-0.08
 795578,0.04822617,-0.02008509,-0.00088045,0.00059592,0.00003874,-0.001
 41982,0.00182653,-0.00014427,0.00013808,0.00001744,-0.00012413,0.11583
 010,0.00531528,0.02559316,0.00276584,-0.00386172,0.00189902,0.00102556
 ,-0.02236709,-0.03100155,-0.00558496,0.00116282,0.00219901,0.00077022,
 -0.00217424,0.00284130,0.00241033,0.11849029,-0.16494107,-0.03917061,0
 .00038395,0.00018684,-0.00023053,0.00132813,-0.00135323,0.00083178,0.0
 0002301,-0.00007516,0.00003783,-0.09926747,0.18277127,-0.01230055,-0.0
 2243429,-0.00694768,0.00250695,-0.00043264,-0.00040373,0.04824040,0.01
 289747,0.01101995,0.00349373,0.00657184,0.00002547,-0.00074473,-0.0003
 3419,0.00663773,-0.12781884,0.07570739,0.02668326,-0.00096733,0.001089
 01,-0.00034399,0.00094817,-0.00062210,-0.00038495,-0.00049343,0.000597
 93,-0.00045504,0.03125729,-0.00222844,0.00229786,-0.20050530,0.1707775
 1,-0.04715417,-0.00842999,0.02405865,-0.00135923,0.02159520,-0.0066145
 1,0.00269516,0.00021933,-0.00033693,0.00010730,-0.00083772,-0.00300382
 ,-0.00176432,-0.00826170,-0.00525366,0.01074813,-0.00025734,-0.0000659
 3,0.00000204,-0.00054077,0.00033070,-0.00014906,0.00047528,-0.00065580
 ,-0.00012317,0.00357146,0.01292601,-0.00697586,0.18944781,0.17355166,-
 0.30547949,0.03646754,-0.00993110,0.01070265,-0.00219758,0.01919263,-0
 .03120003,0.00340943,-0.00017794,-0.00011218,-0.00001835,-0.00454682,-
 0.00184788,-0.00026000,0.00288658,-0.00428517,-0.00131063,0.00000485,0
 .00024251,-0.00014133,0.00002417,0.00027153,0.00017140,0.00104658,-0.0
 0081282,-0.00004783,0.00252119,0.00134633,0.00102943,-0.18420648,0.330
 22444,-0.04755094,0.03531597,-0.02927172,-0.00357103,0.00894880,-0.002
 20933,0.00881491,-0.00418562,0.00619195,-0.00003971,-0.00014856,-0.000
 25697,-0.00212042,-0.00240051,0.00300372,-0.00285804,-0.00065400,-0.00
 141549,-0.00033772,0.00071981,0.00001840,0.00023481,-0.00042008,0.0000
 4743,0.00032991,-0.00072529,0.00057533,0.00089576,0.00013984,-0.003757
 13,0.04402883,-0.03830863,0.02768130,-0.00612312,0.00259173,-0.0007589
 8,-0.00049849,-0.00175605,0.00025887,-0.01981870,-0.03898054,-0.025363
 28,-0.44406620,0.10584262,-0.05583717,-0.00033006,-0.00032335,-0.00065
 574,-0.11524715,-0.07623154,-0.06178568,-0.00007754,0.00017573,0.00032
 291,-0.00063209,-0.00079509,-0.00004746,-0.00139985,-0.00106229,-0.000
 11076,0.01009514,0.00789405,0.02088246,0.00056559,0.00047776,-0.000335
 99,0.58150340,-0.00307874,-0.00620217,-0.00162569,0.00115887,0.0001662
 2,-0.00150479,0.00123467,0.00346614,-0.00740685,0.05094062,-0.04386831
 ,-0.01001301,0.00086364,-0.00236712,0.00119790,-0.03521574,-0.16361001
 ,-0.05667231,-0.00071208,0.00087402,0.00021838,-0.00059812,0.00086396,
 -0.00037235,-0.00039154,0.00134216,0.00002644,-0.00275360,-0.03472024,
 -0.01935798,0.00077319,0.00073197,0.00072969,-0.00967979,0.25798619,-0
 .00641133,-0.01186207,0.00187585,0.00120030,0.00003142,0.00000128,0.00
 953798,-0.00100283,-0.00331946,-0.07694802,0.00474132,-0.01801385,0.00
 063042,-0.00075481,-0.00075334,-0.05332279,-0.08090777,-0.08288748,-0.
 00081237,-0.00001444,0.00011897,-0.00020776,0.00056093,-0.00007166,-0.
 00051285,0.00038126,-0.00063114,0.01002566,-0.00226095,0.00954557,-0.0
 0220146,0.00073633,-0.00070643,0.13089372,0.10350181,0.10109052,0.0041
 5588,0.01173067,0.00150278,-0.00070694,0.00058431,-0.00106000,-0.03820
 410,-0.00665117,0.01200751,-0.00050168,-0.00239498,-0.00156593,0.00005
 071,0.00048351,-0.00264803,0.01363616,-0.01431193,0.02727458,0.0006870
 6,-0.00052606,0.00015563,-0.00025772,-0.00001871,0.00031767,0.00015192
 ,-0.00016983,0.00028431,-0.01283545,-0.01985301,0.04197175,0.00295814,
 -0.00084307,0.00250964,-0.00397093,-0.00254137,-0.01187151,0.03483695,
 -0.01470275,-0.02409111,-0.00346621,0.00281517,-0.00058867,-0.00051992
 ,0.05052917,0.01040748,0.00401825,0.00174981,0.00407233,-0.00064329,0.
 00058200,0.00040503,0.00050343,-0.08495839,0.04375027,0.03294650,0.000
 11367,-0.00030018,-0.00010982,0.00028221,0.00010896,-0.00029124,-0.000
 36903,0.00046741,-0.00034873,0.00632867,0.01525432,-0.05248342,-0.0087
 2895,0.00021813,0.00098858,0.01184677,-0.01466282,-0.01315022,0.034511
 63,-0.03504114,0.00004564,0.00018892,0.00236029,-0.00024185,0.00042196
 ,0.00008422,-0.01333709,0.00355755,-0.00468664,0.00018244,-0.00202243,
 -0.00009459,-0.00020042,-0.00052107,0.00017235,0.10109845,-0.06807510,
 -0.11760815,-0.00040049,0.00021840,0.00012625,-0.00024645,0.00026506,-
 0.00005272,-0.00008687,0.00016756,0.00001913,-0.01261783,0.04149410,-0
 .04391733,0.00214580,0.00047022,0.00009892,-0.00746291,-0.00872124,-0.
 00624885,-0.06887841,0.03255609,0.16974711\\0.00001186,-0.00000613,0.0
 0000120,-0.00000129,0.00000453,-0.00000098,0.00000218,0.00002944,0.000
 00650,-0.00000154,-0.00000598,0.00000339,-0.00000275,-0.00000250,0.000
 00010,-0.00000950,-0.00001778,0.00000079,-0.00000029,0.00000250,0.0000
 0287,-0.00000045,0.00000152,0.00000316,0.00000085,0.00000059,0.0000029
 2,0.00000649,-0.00000531,-0.00000958,-0.00000161,-0.00000057,-0.000005
 15,-0.00000531,0.00000330,-0.00000164,0.00000136,-0.00000360,-0.000003
 60\\\@


 SOME THINGS ARE EASY, THEY ARE ONLY HARD TO DO.
            -- A. EINSTEIN TO J. O. HIRSCHFELDER
 THE ONLY TROUBLE WITH A SURE THING IS THE UNCERTAINTY.
     -- FROM A TEABAG (BELONGING TO W.H.?)
 Job cpu time:       0 days  0 hours  0 minutes 59.2 seconds.
 File lengths (MBytes):  RWF=     12 Int=      0 D2E=      0 Chk=      2 Scr=      1
 Normal termination of Gaussian 09 at Sun Apr 10 10:55:58 2016.
