 Entering Gaussian System, Link 0=g09
 Input=Ala-S-opt-freq-pa3-6-31g.com
 Output=Ala-S-opt-freq-pa3-6-31g.log
 Initial command:
 /usr/local/gau/g09/l1.exe "/tmp/Gau-3156.inp" -scrdir="/tmp/"
 Entering Link 1 = /usr/local/gau/g09/l1.exe PID=      3158.
  
 Copyright (c) 1988,1990,1992,1993,1995,1998,2003,2009,2013,
            Gaussian, Inc.  All Rights Reserved.
  
 This is part of the Gaussian(R) 09 program.  It is based on
 the Gaussian(R) 03 system (copyright 2003, Gaussian, Inc.),
 the Gaussian(R) 98 system (copyright 1998, Gaussian, Inc.),
 the Gaussian(R) 94 system (copyright 1995, Gaussian, Inc.),
 the Gaussian 92(TM) system (copyright 1992, Gaussian, Inc.),
 the Gaussian 90(TM) system (copyright 1990, Gaussian, Inc.),
 the Gaussian 88(TM) system (copyright 1988, Gaussian, Inc.),
 the Gaussian 86(TM) system (copyright 1986, Carnegie Mellon
 University), and the Gaussian 82(TM) system (copyright 1983,
 Carnegie Mellon University). Gaussian is a federally registered
 trademark of Gaussian, Inc.
  
 This software contains proprietary and confidential information,
 including trade secrets, belonging to Gaussian, Inc.
  
 This software is provided under written license and may be
 used, copied, transmitted, or stored only in accord with that
 written license.
  
 The following legend is applicable only to US Government
 contracts under FAR:
  
                    RESTRICTED RIGHTS LEGEND
  
 Use, reproduction and disclosure by the US Government is
 subject to restrictions as set forth in subparagraphs (a)
 and (c) of the Commercial Computer Software - Restricted
 Rights clause in FAR 52.227-19.
  
 Gaussian, Inc.
 340 Quinnipiac St., Bldg. 40, Wallingford CT 06492
  
  
 ---------------------------------------------------------------
 Warning -- This program may not be used in any manner that
 competes with the business of Gaussian, Inc. or will provide
 assistance to any competitor of Gaussian, Inc.  The licensee
 of this program is prohibited from giving any competitor of
 Gaussian, Inc. access to this program.  By using this program,
 the user acknowledges that Gaussian, Inc. is engaged in the
 business of creating and licensing software in the field of
 computational chemistry and represents and warrants to the
 licensee that it is not a competitor of Gaussian, Inc. and that
 it will not use this program in any manner prohibited above.
 ---------------------------------------------------------------
  

 Cite this work as:
 Gaussian 09, Revision D.01,
 M. J. Frisch, G. W. Trucks, H. B. Schlegel, G. E. Scuseria, 
 M. A. Robb, J. R. Cheeseman, G. Scalmani, V. Barone, B. Mennucci, 
 G. A. Petersson, H. Nakatsuji, M. Caricato, X. Li, H. P. Hratchian, 
 A. F. Izmaylov, J. Bloino, G. Zheng, J. L. Sonnenberg, M. Hada, 
 M. Ehara, K. Toyota, R. Fukuda, J. Hasegawa, M. Ishida, T. Nakajima, 
 Y. Honda, O. Kitao, H. Nakai, T. Vreven, J. A. Montgomery, Jr., 
 J. E. Peralta, F. Ogliaro, M. Bearpark, J. J. Heyd, E. Brothers, 
 K. N. Kudin, V. N. Staroverov, T. Keith, R. Kobayashi, J. Normand, 
 K. Raghavachari, A. Rendell, J. C. Burant, S. S. Iyengar, J. Tomasi, 
 M. Cossi, N. Rega, J. M. Millam, M. Klene, J. E. Knox, J. B. Cross, 
 V. Bakken, C. Adamo, J. Jaramillo, R. Gomperts, R. E. Stratmann, 
 O. Yazyev, A. J. Austin, R. Cammi, C. Pomelli, J. W. Ochterski, 
 R. L. Martin, K. Morokuma, V. G. Zakrzewski, G. A. Voth, 
 P. Salvador, J. J. Dannenberg, S. Dapprich, A. D. Daniels, 
 O. Farkas, J. B. Foresman, J. V. Ortiz, J. Cioslowski, 
 and D. J. Fox, Gaussian, Inc., Wallingford CT, 2013.
 
 ******************************************
 Gaussian 09:  ES64L-G09RevD.01 24-Apr-2013
                16-Apr-2016 
 ******************************************
 %chk=Ala-S-opt-freq-pa3-6-31g.chk
 -------------------
 # opt freq hf/6-31g
 -------------------
 1/18=20,19=15,38=1/1,3;
 2/9=110,12=2,17=6,18=5,40=1/2;
 3/5=1,6=6,11=9,16=1,25=1,30=1,71=1/1,2,3;
 4//1;
 5/5=2,38=5/2;
 6/7=2,8=2,9=2,10=2,28=1/1;
 7//1,2,3,16;
 1/18=20,19=15/3(2);
 2/9=110/2;
 99//99;
 2/9=110/2;
 3/5=1,6=6,11=9,16=1,25=1,30=1,71=1/1,2,3;
 4/5=5,16=3,69=1/1;
 5/5=2,38=5/2;
 7//1,2,3,16;
 1/18=20,19=15/3(-5);
 2/9=110/2;
 6/7=2,8=2,9=2,10=2,19=2,28=1/1;
 99/9=1/99;
 ------------------------
 Ala-S-opt-freq-pa3-6-31g
 ------------------------
 Symbolic Z-matrix:
 Charge =  0 Multiplicity = 1
 N                    -0.74172  -1.44454   0.12616 
 H                    -1.71863  -1.66926   0.20749 
 C                    -0.27188  -0.17369   0.24187 
 H                     2.63999   1.14983   0.12578 
 C                    -1.22737   0.97704   0.28128 
 C                     1.11116  -0.02519   0.371 
 H                    -2.00671   0.834     1.04285 
 H                    -0.69454   1.90463   0.49121 
 H                    -1.73168   1.08571  -0.68854 
 O                     1.98625  -1.19679   0.20809 
 H                    -0.05659  -2.1757   -0.02003 
 O                     1.66781   1.23905   0.0831 
 H                     0.40276  -0.44443   1.00662 
 

 GradGradGradGradGradGradGradGradGradGradGradGradGradGradGradGradGradGrad
 Berny optimization.
 Initialization pass.
                           ----------------------------
                           !    Initial Parameters    !
                           ! (Angstroms and Degrees)  !
 --------------------------                            --------------------------
 ! Name  Definition              Value          Derivative Info.                !
 --------------------------------------------------------------------------------
 ! R1    R(1,2)                  1.0057         estimate D2E/DX2                !
 ! R2    R(1,3)                  1.3599         estimate D2E/DX2                !
 ! R3    R(1,11)                 1.0126         estimate D2E/DX2                !
 ! R4    R(3,5)                  1.4962         estimate D2E/DX2                !
 ! R5    R(3,6)                  1.397          estimate D2E/DX2                !
 ! R6    R(3,13)                 1.0551         estimate D2E/DX2                !
 ! R7    R(4,12)                 0.9772         estimate D2E/DX2                !
 ! R8    R(5,7)                  1.099          estimate D2E/DX2                !
 ! R9    R(5,8)                  1.0901         estimate D2E/DX2                !
 ! R10   R(5,9)                  1.0985         estimate D2E/DX2                !
 ! R11   R(6,10)                 1.4714         estimate D2E/DX2                !
 ! R12   R(6,12)                 1.411          estimate D2E/DX2                !
 ! R13   R(6,13)                 1.04           estimate D2E/DX2                !
 ! A1    A(2,1,3)              122.5169         estimate D2E/DX2                !
 ! A2    A(2,1,11)             120.5013         estimate D2E/DX2                !
 ! A3    A(3,1,11)             116.9565         estimate D2E/DX2                !
 ! A4    A(1,3,5)              120.0229         estimate D2E/DX2                !
 ! A5    A(1,3,6)              116.6967         estimate D2E/DX2                !
 ! A6    A(1,3,13)              92.4521         estimate D2E/DX2                !
 ! A7    A(5,3,6)              123.2334         estimate D2E/DX2                !
 ! A8    A(5,3,13)             125.914          estimate D2E/DX2                !
 ! A9    A(3,5,7)              111.7781         estimate D2E/DX2                !
 ! A10   A(3,5,8)              110.3255         estimate D2E/DX2                !
 ! A11   A(3,5,9)              110.2436         estimate D2E/DX2                !
 ! A12   A(7,5,8)              108.8992         estimate D2E/DX2                !
 ! A13   A(7,5,9)              107.4039         estimate D2E/DX2                !
 ! A14   A(8,5,9)              108.0723         estimate D2E/DX2                !
 ! A15   A(3,6,10)             119.5996         estimate D2E/DX2                !
 ! A16   A(3,6,12)             117.8354         estimate D2E/DX2                !
 ! A17   A(10,6,12)            117.1426         estimate D2E/DX2                !
 ! A18   A(10,6,13)             98.7313         estimate D2E/DX2                !
 ! A19   A(12,6,13)            138.9886         estimate D2E/DX2                !
 ! A20   A(4,12,6)             107.5629         estimate D2E/DX2                !
 ! D1    D(2,1,3,5)             -9.7446         estimate D2E/DX2                !
 ! D2    D(2,1,3,6)            167.842          estimate D2E/DX2                !
 ! D3    D(2,1,3,13)           124.9105         estimate D2E/DX2                !
 ! D4    D(11,1,3,5)           172.0797         estimate D2E/DX2                !
 ! D5    D(11,1,3,6)           -10.3337         estimate D2E/DX2                !
 ! D6    D(11,1,3,13)          -53.2652         estimate D2E/DX2                !
 ! D7    D(1,3,5,7)             52.153          estimate D2E/DX2                !
 ! D8    D(1,3,5,8)            173.4821         estimate D2E/DX2                !
 ! D9    D(1,3,5,9)            -67.2298         estimate D2E/DX2                !
 ! D10   D(6,3,5,7)           -125.2691         estimate D2E/DX2                !
 ! D11   D(6,3,5,8)             -3.9401         estimate D2E/DX2                !
 ! D12   D(6,3,5,9)            115.3481         estimate D2E/DX2                !
 ! D13   D(13,3,5,7)           -66.5027         estimate D2E/DX2                !
 ! D14   D(13,3,5,8)            54.8263         estimate D2E/DX2                !
 ! D15   D(13,3,5,9)           174.1145         estimate D2E/DX2                !
 ! D16   D(1,3,6,10)             7.5994         estimate D2E/DX2                !
 ! D17   D(1,3,6,12)           160.8888         estimate D2E/DX2                !
 ! D18   D(5,3,6,10)          -174.8989         estimate D2E/DX2                !
 ! D19   D(5,3,6,12)           -21.6094         estimate D2E/DX2                !
 ! D20   D(3,6,12,4)          -173.9514         estimate D2E/DX2                !
 ! D21   D(10,6,12,4)          -20.0037         estimate D2E/DX2                !
 ! D22   D(13,6,12,4)          128.1508         estimate D2E/DX2                !
 --------------------------------------------------------------------------------
 Trust Radius=3.00D-01 FncErr=1.00D-07 GrdErr=1.00D-07
 Number of steps in this run=     65 maximum allowed number of steps=    100.
 GradGradGradGradGradGradGradGradGradGradGradGradGradGradGradGradGradGrad

                          Input orientation:                          
 ---------------------------------------------------------------------
 Center     Atomic      Atomic             Coordinates (Angstroms)
 Number     Number       Type             X           Y           Z
 ---------------------------------------------------------------------
      1          7           0       -0.741720   -1.444544    0.126164
      2          1           0       -1.718634   -1.669263    0.207488
      3          6           0       -0.271876   -0.173685    0.241869
      4          1           0        2.639987    1.149833    0.125776
      5          6           0       -1.227368    0.977036    0.281280
      6          6           0        1.111161   -0.025193    0.371002
      7          1           0       -2.006709    0.834002    1.042845
      8          1           0       -0.694539    1.904635    0.491205
      9          1           0       -1.731681    1.085715   -0.688544
     10          8           0        1.986249   -1.196790    0.208094
     11          1           0       -0.056592   -2.175704   -0.020032
     12          8           0        1.667806    1.239051    0.083099
     13          1           0        0.402758   -0.444425    1.006620
 ---------------------------------------------------------------------
                    Distance matrix (angstroms):
                    1          2          3          4          5
     1  N    0.000000
     2  H    1.005720   0.000000
     3  C    1.359862   2.081116   0.000000
     4  H    4.262245   5.191489   3.200644   0.000000
     5  C    2.474665   2.692524   1.496221   3.874335   0.000000
     6  C    2.346843   3.276804   1.396967   1.943741   2.545826
     7  H    2.762657   2.654646   2.160241   4.746846   1.099005
     8  H    3.369344   3.728540   2.135469   3.438361   1.090145
     9  H    2.836544   2.897058   2.140745   4.447326   1.098500
    10  O    2.740421   3.734888   2.479317   2.437373   3.880491
    11  H    1.012605   1.752322   2.030522   4.283923   3.376577
    12  O    3.606848   4.465617   2.404869   0.977199   2.913754
    13  H    1.756494   2.576654   1.055119   2.884915   2.281223
                    6          7          8          9         10
     6  C    0.000000
     7  H    3.303135   0.000000
     8  H    2.645607   1.781110   0.000000
     9  H    3.230868   1.771075   1.771469   0.000000
    10  O    1.471379   4.556823   4.109211   4.453851   0.000000
    11  H    2.478155   3.740454   4.161431   3.726887   2.276733
    12  O    1.411047   3.819324   2.488017   3.489335   2.459746
    13  H    1.040000   2.727860   2.643444   3.125818   1.926432
                   11         12         13
    11  H    0.000000
    12  O    3.826844   0.000000
    13  H    2.064545   2.299419   0.000000
 Stoichiometry    C3H7NO2
 Framework group  C1[X(C3H7NO2)]
 Deg. of freedom    33
 Full point group                 C1      NOp   1
 Largest Abelian subgroup         C1      NOp   1
 Largest concise Abelian subgroup C1      NOp   1
                         Standard orientation:                         
 ---------------------------------------------------------------------
 Center     Atomic      Atomic             Coordinates (Angstroms)
 Number     Number       Type             X           Y           Z
 ---------------------------------------------------------------------
      1          7           0        1.157201    1.326988   -0.106286
      2          1           0        2.140115    1.528826   -0.038355
      3          6           0        0.660154    0.066445    0.008603
      4          1           0       -2.282675   -1.189515   -0.071654
      5          6           0        1.589519   -1.106006    0.026391
      6          6           0       -0.723831   -0.051305    0.157720
      7          1           0        2.383256   -0.985791    0.776953
      8          1           0        1.038787   -2.022568    0.238577
      9          1           0        2.076622   -1.219789   -0.951609
     10          8           0       -1.574194    1.140993    0.015365
     11          1           0        0.486888    2.074531   -0.237546
     12          8           0       -1.313542   -1.300604   -0.129590
     13          1           0        0.003434    0.347475    0.785144
 ---------------------------------------------------------------------
 Rotational constants (GHZ):      4.8077201      3.3312515      2.0148184
 Standard basis: 6-31G (6D, 7F)
 There are    68 symmetry adapted cartesian basis functions of A   symmetry.
 There are    68 symmetry adapted basis functions of A   symmetry.
    68 basis functions,   160 primitive gaussians,    68 cartesian basis functions
    24 alpha electrons       24 beta electrons
       nuclear repulsion energy       247.5169679654 Hartrees.
 NAtoms=   13 NActive=   13 NUniq=   13 SFac= 1.00D+00 NAtFMM=   60 NAOKFM=F Big=F
 Integral buffers will be    131072 words long.
 Raffenetti 1 integral format.
 Two-electron integral symmetry is turned on.
 One-electron integrals computed using PRISM.
 NBasis=    68 RedAO= T EigKep=  3.35D-03  NBF=    68
 NBsUse=    68 1.00D-06 EigRej= -1.00D+00 NBFU=    68
 ExpMin= 1.61D-01 ExpMax= 5.48D+03 ExpMxC= 8.25D+02 IAcc=1 IRadAn=         1 AccDes= 0.00D+00
 Harris functional with IExCor=  205 and IRadAn=       1 diagonalized for initial guess.
 HarFok:  IExCor=  205 AccDes= 0.00D+00 IRadAn=         1 IDoV= 1 UseB2=F ITyADJ=14
 ICtDFT=  3500011 ScaDFX=  1.000000  1.000000  1.000000  1.000000
 FoFCou: FMM=F IPFlag=           0 FMFlag=      100000 FMFlg1=           0
         NFxFlg=           0 DoJE=T BraDBF=F KetDBF=T FulRan=T
         wScrn=  0.000000 ICntrl=     500 IOpCl=  0 I1Cent=   200000004 NGrid=           0
         NMat0=    1 NMatS0=      1 NMatT0=    0 NMatD0=    1 NMtDS0=    0 NMtDT0=    0
 Petite list used in FoFCou.
 Keep R1 ints in memory in canonical form, NReq=3632936.
 Requested convergence on RMS density matrix=1.00D-08 within 128 cycles.
 Requested convergence on MAX density matrix=1.00D-06.
 Requested convergence on             energy=1.00D-06.
 No special actions if energy rises.
 SCF Done:  E(RHF) =  -321.479390864     A.U. after   16 cycles
            NFock= 16  Conv=0.44D-08     -V/T= 1.9994

 **********************************************************************

            Population analysis using the SCF density.

 **********************************************************************

 Orbital symmetries:
       Occupied  (A) (A) (A) (A) (A) (A) (A) (A) (A) (A) (A) (A)
                 (A) (A) (A) (A) (A) (A) (A) (A) (A) (A) (A) (A)
       Virtual   (A) (A) (A) (A) (A) (A) (A) (A) (A) (A) (A) (A)
                 (A) (A) (A) (A) (A) (A) (A) (A) (A) (A) (A) (A)
                 (A) (A) (A) (A) (A) (A) (A) (A) (A) (A) (A) (A)
                 (A) (A) (A) (A) (A) (A) (A) (A)
 The electronic state is 1-A.
 Alpha  occ. eigenvalues --  -20.61352 -20.48445 -15.58471 -11.38819 -11.34883
 Alpha  occ. eigenvalues --  -11.27081  -1.42146  -1.32246  -1.19921  -1.10914
 Alpha  occ. eigenvalues --   -1.01267  -0.79941  -0.75238  -0.71829  -0.66563
 Alpha  occ. eigenvalues --   -0.64103  -0.61508  -0.58776  -0.57873  -0.52316
 Alpha  occ. eigenvalues --   -0.48433  -0.42706  -0.39077  -0.33154
 Alpha virt. eigenvalues --    0.13179   0.20763   0.21893   0.25120   0.28489
 Alpha virt. eigenvalues --    0.29346   0.30148   0.31325   0.37099   0.40484
 Alpha virt. eigenvalues --    0.43303   0.52661   0.54829   0.70007   0.74877
 Alpha virt. eigenvalues --    0.79009   0.82830   0.85220   0.88454   0.91294
 Alpha virt. eigenvalues --    0.92422   0.98824   1.00361   1.02124   1.09055
 Alpha virt. eigenvalues --    1.13120   1.17613   1.18595   1.19212   1.20542
 Alpha virt. eigenvalues --    1.23988   1.25849   1.29109   1.29575   1.34401
 Alpha virt. eigenvalues --    1.44405   1.45051   1.49574   1.55440   1.61453
 Alpha virt. eigenvalues --    1.71497   1.84957   2.08083   2.18647
          Condensed to atoms (all electrons):
               1          2          3          4          5          6
     1  N    7.314424   0.337522   0.235614  -0.000047  -0.051343  -0.080920
     2  H    0.337522   0.323424  -0.035050   0.000002  -0.000930   0.004486
     3  C    0.235614  -0.035050   5.635318   0.010557   0.203602   0.026706
     4  H   -0.000047   0.000002   0.010557   0.298766  -0.000201  -0.025108
     5  C   -0.051343  -0.000930   0.203602  -0.000201   5.191428   0.002916
     6  C   -0.080920   0.004486   0.026706  -0.025108   0.002916   4.952187
     7  H    0.001793   0.001201  -0.052494   0.000007   0.391654   0.000293
     8  H    0.002870   0.000020  -0.042406   0.000043   0.391598  -0.000870
     9  H   -0.000952  -0.000067  -0.040383  -0.000020   0.385940  -0.000294
    10  O   -0.010293   0.000312  -0.093110   0.003658   0.002256   0.327505
    11  H    0.307348  -0.009347  -0.041050  -0.000019   0.001668   0.001734
    12  O    0.002002  -0.000032  -0.099110   0.256043  -0.001443   0.183632
    13  H   -0.101293  -0.002026   0.019846  -0.002417  -0.035048   0.102412
               7          8          9         10         11         12
     1  N    0.001793   0.002870  -0.000952  -0.010293   0.307348   0.002002
     2  H    0.001201   0.000020  -0.000067   0.000312  -0.009347  -0.000032
     3  C   -0.052494  -0.042406  -0.040383  -0.093110  -0.041050  -0.099110
     4  H    0.000007   0.000043  -0.000020   0.003658  -0.000019   0.256043
     5  C    0.391654   0.391598   0.385940   0.002256   0.001668  -0.001443
     6  C    0.000293  -0.000870  -0.000294   0.327505   0.001734   0.183632
     7  H    0.538110  -0.023625  -0.030113  -0.000013  -0.000118   0.000182
     8  H   -0.023625   0.455444  -0.018213   0.000030  -0.000081   0.000682
     9  H   -0.030113  -0.018213   0.482900   0.000000   0.000039   0.000344
    10  O   -0.000013   0.000030   0.000000   8.551569   0.025347  -0.061887
    11  H   -0.000118  -0.000081   0.000039   0.025347   0.276725   0.000481
    12  O    0.000182   0.000682   0.000344  -0.061887   0.000481   8.458035
    13  H   -0.007530   0.000955   0.003814  -0.022692   0.005272  -0.010788
              13
     1  N   -0.101293
     2  H   -0.002026
     3  C    0.019846
     4  H   -0.002417
     5  C   -0.035048
     6  C    0.102412
     7  H   -0.007530
     8  H    0.000955
     9  H    0.003814
    10  O   -0.022692
    11  H    0.005272
    12  O   -0.010788
    13  H    0.839572
 Mulliken charges:
               1
     1  N   -0.956723
     2  H    0.380486
     3  C    0.271962
     4  H    0.458736
     5  C   -0.482098
     6  C    0.505321
     7  H    0.180654
     8  H    0.233552
     9  H    0.217006
    10  O   -0.722682
    11  H    0.432002
    12  O   -0.728142
    13  H    0.209925
 Sum of Mulliken charges =   0.00000
 Mulliken charges with hydrogens summed into heavy atoms:
               1
     1  N   -0.144235
     3  C    0.271962
     5  C    0.149114
     6  C    0.715246
    10  O   -0.722682
    12  O   -0.269405
 Electronic spatial extent (au):  <R**2>=            602.2370
 Charge=              0.0000 electrons
 Dipole moment (field-independent basis, Debye):
    X=              4.7965    Y=             -2.0305    Z=              1.1230  Tot=              5.3283
 Quadrupole moment (field-independent basis, Debye-Ang):
   XX=            -32.6313   YY=            -38.3611   ZZ=            -37.6920
   XY=              7.5416   XZ=             -0.2494   YZ=             -0.7296
 Traceless Quadrupole moment (field-independent basis, Debye-Ang):
   XX=              3.5968   YY=             -2.1329   ZZ=             -1.4639
   XY=              7.5416   XZ=             -0.2494   YZ=             -0.7296
 Octapole moment (field-independent basis, Debye-Ang**2):
  XXX=              1.5036  YYY=              8.2706  ZZZ=             -0.3524  XYY=             10.7106
  XXY=            -14.6310  XXZ=             -0.9616  XZZ=             -1.6496  YZZ=             -1.7723
  YYZ=             -1.1438  XYZ=              1.3237
 Hexadecapole moment (field-independent basis, Debye-Ang**3):
 XXXX=           -341.9013 YYYY=           -267.6013 ZZZZ=            -44.8124 XXXY=             61.4790
 XXXZ=              2.7371 YYYX=             20.0203 YYYZ=             -5.0410 ZZZX=             -0.1959
 ZZZY=              1.3752 XXYY=           -107.1374 XXZZ=            -75.6961 YYZZ=            -58.4959
 XXYZ=              1.0846 YYXZ=             -0.4816 ZZXY=             -0.1850
 N-N= 2.475169679654D+02 E-N=-1.251139036328D+03  KE= 3.216876216982D+02
 Calling FoFJK, ICntrl=      2127 FMM=F ISym2X=0 I1Cent= 0 IOpClX= 0 NMat=1 NMatS=1 NMatT=0.
 ***** Axes restored to original set *****
 -------------------------------------------------------------------
 Center     Atomic                   Forces (Hartrees/Bohr)
 Number     Number              X              Y              Z
 -------------------------------------------------------------------
      1        7          -0.021490252   -0.040616512   -0.018999892
      2        1           0.017262314    0.005683137    0.000895043
      3        6          -0.052898411    0.024080835   -0.094681931
      4        1          -0.022040688    0.001173942    0.000679609
      5        6          -0.005708445    0.010707409    0.010037929
      6        6           0.138747965   -0.039168175   -0.176607235
      7        1           0.007277497    0.000806396   -0.006642623
      8        1          -0.005618604   -0.005746984   -0.002106726
      9        1           0.009025086   -0.004752133    0.008025261
     10        8          -0.056214378    0.081384970    0.017890170
     11        1          -0.012160378    0.011057804   -0.002893115
     12        8           0.001199174   -0.029788927    0.039884212
     13        1           0.002619120   -0.014821761    0.224519298
 -------------------------------------------------------------------
 Cartesian Forces:  Max     0.224519298 RMS     0.058109023

 GradGradGradGradGradGradGradGradGradGradGradGradGradGradGradGradGradGrad
 Berny optimization.
 FormGI is forming the generalized inverse of G from B-inverse, IUseBI=4.
 Internal  Forces:  Max     0.126083078 RMS     0.030686189
 Search for a local minimum.
 Step number   1 out of a maximum of   65
 All quantities printed in internal units (Hartrees-Bohrs-Radians)
 Mixed Optimization -- RFO/linear search
 Second derivative matrix not updated -- first step.
 ITU=  0
     Eigenvalues ---    0.00816   0.01546   0.02212   0.02223   0.02225
     Eigenvalues ---    0.03221   0.03517   0.05770   0.05954   0.13010
     Eigenvalues ---    0.14883   0.16000   0.16000   0.16000   0.16000
     Eigenvalues ---    0.16000   0.16000   0.16748   0.22314   0.23408
     Eigenvalues ---    0.28367   0.32777   0.33045   0.33792   0.33849
     Eigenvalues ---    0.34796   0.35576   0.43501   0.43838   0.45539
     Eigenvalues ---    0.46697   0.51933   0.52975
 RFO step:  Lambda=-1.29701977D-01 EMin= 8.15937566D-03
 Linear search not attempted -- first point.
 Maximum step size (   0.300) exceeded in Quadratic search.
    -- Step size scaled by   0.593
 Iteration  1 RMS(Cart)=  0.04562658 RMS(Int)=  0.00551243
 Iteration  2 RMS(Cart)=  0.00516333 RMS(Int)=  0.00358895
 Iteration  3 RMS(Cart)=  0.00010176 RMS(Int)=  0.00358867
 Iteration  4 RMS(Cart)=  0.00000248 RMS(Int)=  0.00358867
 Iteration  5 RMS(Cart)=  0.00000004 RMS(Int)=  0.00358867
 Variable       Old X    -DE/DX   Delta X   Delta X   Delta X     New X
                                 (Linear)    (Quad)   (Total)
    R1        1.90054  -0.01797   0.00000  -0.01784  -0.01784   1.88269
    R2        2.56977   0.02976   0.00000   0.02675   0.02675   2.59651
    R3        1.91355  -0.01579   0.00000  -0.01600  -0.01600   1.89755
    R4        2.82745  -0.00215   0.00000  -0.00279  -0.00279   2.82466
    R5        2.63988   0.01980   0.00000  -0.00897  -0.01945   2.62043
    R6        1.99389   0.12608   0.00000   0.16106   0.16659   2.16048
    R7        1.84664  -0.02201   0.00000  -0.02009  -0.02009   1.82654
    R8        2.07682  -0.00987   0.00000  -0.01251  -0.01251   2.06431
    R9        2.06007  -0.00804   0.00000  -0.00998  -0.00998   2.05010
   R10        2.07586  -0.01170   0.00000  -0.01481  -0.01481   2.06105
   R11        2.78050  -0.10022   0.00000  -0.12234  -0.12234   2.65816
   R12        2.66649  -0.04214   0.00000  -0.04396  -0.04396   2.62254
   R13        1.96532   0.08545   0.00000   0.11818   0.12560   2.09091
    A1        2.13832  -0.00344   0.00000  -0.00701  -0.00701   2.13131
    A2        2.10314   0.00038   0.00000   0.00081   0.00080   2.10394
    A3        2.04128   0.00311   0.00000   0.00640   0.00639   2.04767
    A4        2.09480  -0.00189   0.00000  -0.00686  -0.00829   2.08650
    A5        2.03674   0.00369   0.00000  -0.00293  -0.00402   2.03272
    A6        1.61359   0.02779   0.00000   0.06694   0.06734   1.68093
    A7        2.15083  -0.00127   0.00000   0.01124   0.01311   2.16394
    A8        2.19761  -0.04729   0.00000  -0.09751  -0.09347   2.10415
    A9        1.95090   0.00023   0.00000   0.00085   0.00082   1.95171
   A10        1.92554   0.00440   0.00000   0.00939   0.00940   1.93494
   A11        1.92411  -0.00875   0.00000  -0.01866  -0.01866   1.90546
   A12        1.90065  -0.00089   0.00000  -0.00041  -0.00044   1.90021
   A13        1.87455   0.00370   0.00000   0.00686   0.00683   1.88139
   A14        1.88622   0.00137   0.00000   0.00207   0.00210   1.88832
   A15        2.08741   0.00225   0.00000  -0.00327  -0.00477   2.08263
   A16        2.05662  -0.01339   0.00000   0.01156   0.01921   2.07583
   A17        2.04452   0.01140   0.00000   0.01029   0.00481   2.04934
   A18        1.72319   0.01342   0.00000   0.03733   0.03476   1.75795
   A19        2.42581  -0.05341   0.00000  -0.11884  -0.12151   2.30430
   A20        1.87733  -0.00221   0.00000  -0.00452  -0.00452   1.87280
    D1       -0.17008   0.00757   0.00000   0.00831   0.00755  -0.16253
    D2        2.92940   0.02122   0.00000   0.04585   0.04281   2.97220
    D3        2.18010  -0.03211   0.00000  -0.06715  -0.06335   2.11675
    D4        3.00336   0.00572   0.00000   0.00113   0.00037   3.00372
    D5       -0.18036   0.01938   0.00000   0.03866   0.03563  -0.14473
    D6       -0.92965  -0.03396   0.00000  -0.07433  -0.07053  -1.00018
    D7        0.91024   0.00144   0.00000   0.00875   0.00940   0.91964
    D8        3.02783   0.00351   0.00000   0.01531   0.01598   3.04381
    D9       -1.17338   0.00246   0.00000   0.01200   0.01264  -1.16074
   D10       -2.18636  -0.01327   0.00000  -0.03096  -0.02818  -2.21454
   D11       -0.06877  -0.01119   0.00000  -0.02439  -0.02160  -0.09037
   D12        2.01320  -0.01224   0.00000  -0.02770  -0.02494   1.98826
   D13       -1.16069   0.00833   0.00000   0.01069   0.00726  -1.15343
   D14        0.95690   0.01041   0.00000   0.01725   0.01384   0.97074
   D15        3.03887   0.00936   0.00000   0.01395   0.01050   3.04937
   D16        0.13263  -0.00599   0.00000  -0.03574  -0.03681   0.09583
   D17        2.80804  -0.00244   0.00000   0.00996   0.01186   2.81990
   D18       -3.05256   0.00813   0.00000   0.00262  -0.00041  -3.05297
   D19       -0.37716   0.01168   0.00000   0.04832   0.04826  -0.32890
   D20       -3.03602   0.02285   0.00000   0.03097   0.02238  -3.01365
   D21       -0.34913   0.02407   0.00000   0.07188   0.06744  -0.28168
   D22        2.23665  -0.04940   0.00000  -0.11295  -0.09993   2.13673
         Item               Value     Threshold  Converged?
 Maximum Force            0.126083     0.000450     NO 
 RMS     Force            0.030686     0.000300     NO 
 Maximum Displacement     0.239950     0.001800     NO 
 RMS     Displacement     0.046452     0.001200     NO 
 Predicted change in Energy=-6.104830D-02
 GradGradGradGradGradGradGradGradGradGradGradGradGradGradGradGradGradGrad

                          Input orientation:                          
 ---------------------------------------------------------------------
 Center     Atomic      Atomic             Coordinates (Angstroms)
 Number     Number       Type             X           Y           Z
 ---------------------------------------------------------------------
      1          7           0       -0.736480   -1.451051    0.109371
      2          1           0       -1.707086   -1.666729    0.172431
      3          6           0       -0.262974   -0.168289    0.244396
      4          1           0        2.637423    1.103091    0.096868
      5          6           0       -1.227348    0.973044    0.284460
      6          6           0        1.112598   -0.024624    0.344509
      7          1           0       -2.004014    0.822229    1.037689
      8          1           0       -0.713680    1.905804    0.491907
      9          1           0       -1.717042    1.062492   -0.685976
     10          8           0        1.936471   -1.153864    0.187407
     11          1           0       -0.060303   -2.179046   -0.035894
     12          8           0        1.677747    1.218297    0.096106
     13          1           0        0.423529   -0.380694    1.133596
 ---------------------------------------------------------------------
                    Distance matrix (angstroms):
                    1          2          3          4          5
     1  N    0.000000
     2  H    0.996278   0.000000
     3  C    1.374015   2.082297   0.000000
     4  H    4.231669   5.152899   3.170248   0.000000
     5  C    2.479484   2.685349   1.494746   3.871506   0.000000
     6  C    2.347142   3.267528   1.386673   1.912631   2.544464
     7  H    2.763371   2.651745   2.154452   4.744150   1.092387
     8  H    3.378658   3.721816   2.136881   3.468471   1.084865
     9  H    2.812824   2.861050   2.120078   4.424461   1.090663
    10  O    2.690554   3.679506   2.410843   2.365032   3.813517
    11  H    1.004139   1.737171   2.040290   4.250621   3.376432
    12  O    3.599179   4.448179   2.389772   0.966566   2.921508
    13  H    1.881574   2.667817   1.143275   2.859676   2.297615
                    6          7          8          9         10
     6  C    0.000000
     7  H    3.303170   0.000000
     8  H    2.661498   1.771151   0.000000
     9  H    3.201653   1.763831   1.762191   0.000000
    10  O    1.406638   4.489471   4.059260   4.361558   0.000000
    11  H    2.482326   3.733396   4.170309   3.697967   2.255653
    12  O    1.387786   3.820839   2.519573   3.487194   2.387974
    13  H    1.106464   2.710938   2.633074   3.158429   1.944753
                   11         12         13
    11  H    0.000000
    12  O    3.818401   0.000000
    13  H    2.199062   2.281715   0.000000
 Stoichiometry    C3H7NO2
 Framework group  C1[X(C3H7NO2)]
 Deg. of freedom    33
 Full point group                 C1      NOp   1
 Largest Abelian subgroup         C1      NOp   1
 Largest concise Abelian subgroup C1      NOp   1
                         Standard orientation:                         
 ---------------------------------------------------------------------
 Center     Atomic      Atomic             Coordinates (Angstroms)
 Number     Number       Type             X           Y           Z
 ---------------------------------------------------------------------
      1          7           0        1.187082    1.302859   -0.104480
      2          1           0        2.168604    1.466177   -0.054381
      3          6           0        0.648879    0.044414    0.016228
      4          1           0       -2.316517   -1.070285   -0.103543
      5          6           0        1.552277   -1.146437    0.019718
      6          6           0       -0.730542   -0.028775    0.137485
      7          1           0        2.347969   -1.050394    0.761984
      8          1           0        0.993601   -2.054646    0.219638
      9          1           0        2.020715   -1.243589   -0.960422
     10          8           0       -1.496194    1.144787    0.014361
     11          1           0        0.547943    2.067838   -0.225330
     12          8           0       -1.364388   -1.235596   -0.122844
     13          1           0       -0.010909    0.276139    0.920695
 ---------------------------------------------------------------------
 Rotational constants (GHZ):      4.9224247      3.3792737      2.0543879
 Standard basis: 6-31G (6D, 7F)
 There are    68 symmetry adapted cartesian basis functions of A   symmetry.
 There are    68 symmetry adapted basis functions of A   symmetry.
    68 basis functions,   160 primitive gaussians,    68 cartesian basis functions
    24 alpha electrons       24 beta electrons
       nuclear repulsion energy       249.3951354958 Hartrees.
 NAtoms=   13 NActive=   13 NUniq=   13 SFac= 1.00D+00 NAtFMM=   60 NAOKFM=F Big=F
 Integral buffers will be    131072 words long.
 Raffenetti 1 integral format.
 Two-electron integral symmetry is turned on.
 One-electron integrals computed using PRISM.
 NBasis=    68 RedAO= T EigKep=  3.13D-03  NBF=    68
 NBsUse=    68 1.00D-06 EigRej= -1.00D+00 NBFU=    68
 Initial guess from the checkpoint file:  "Ala-S-opt-freq-pa3-6-31g.chk"
 B after Tr=     0.000000    0.000000    0.000000
         Rot=    0.999883   -0.002249   -0.000204    0.015158 Ang=  -1.76 deg.
 ExpMin= 1.61D-01 ExpMax= 5.48D+03 ExpMxC= 8.25D+02 IAcc=1 IRadAn=         1 AccDes= 0.00D+00
 Harris functional with IExCor=  205 and IRadAn=       1 diagonalized for initial guess.
 HarFok:  IExCor=  205 AccDes= 0.00D+00 IRadAn=         1 IDoV= 1 UseB2=F ITyADJ=14
 ICtDFT=  3500011 ScaDFX=  1.000000  1.000000  1.000000  1.000000
 FoFCou: FMM=F IPFlag=           0 FMFlag=      100000 FMFlg1=           0
         NFxFlg=           0 DoJE=T BraDBF=F KetDBF=T FulRan=T
         wScrn=  0.000000 ICntrl=     500 IOpCl=  0 I1Cent=   200000004 NGrid=           0
         NMat0=    1 NMatS0=      1 NMatT0=    0 NMatD0=    1 NMtDS0=    0 NMtDT0=    0
 Petite list used in FoFCou.
 Keep R1 ints in memory in canonical form, NReq=3632968.
 Requested convergence on RMS density matrix=1.00D-08 within 128 cycles.
 Requested convergence on MAX density matrix=1.00D-06.
 Requested convergence on             energy=1.00D-06.
 No special actions if energy rises.
 SCF Done:  E(RHF) =  -321.544347123     A.U. after   14 cycles
            NFock= 14  Conv=0.76D-08     -V/T= 1.9992
 Calling FoFJK, ICntrl=      2127 FMM=F ISym2X=0 I1Cent= 0 IOpClX= 0 NMat=1 NMatS=1 NMatT=0.
 ***** Axes restored to original set *****
 -------------------------------------------------------------------
 Center     Atomic                   Forces (Hartrees/Bohr)
 Number     Number              X              Y              Z
 -------------------------------------------------------------------
      1        7          -0.009111208   -0.015030650   -0.015093063
      2        1           0.008217407    0.003582002    0.002125240
      3        6          -0.038609175   -0.005188995   -0.045352360
      4        1          -0.011618096    0.002874822    0.001251495
      5        6          -0.003889949    0.007163444    0.006220662
      6        6           0.107602808   -0.061909577   -0.133846804
      7        1           0.004328482    0.000152849   -0.004165819
      8        1          -0.002808647   -0.003184076   -0.001296868
      9        1           0.004785006   -0.002181587    0.003972245
     10        8          -0.041572404    0.069465396    0.014311511
     11        1          -0.006447341    0.007257116   -0.003095962
     12        8          -0.002610518   -0.018102017    0.030176740
     13        1          -0.008266365    0.015101272    0.144792984
 -------------------------------------------------------------------
 Cartesian Forces:  Max     0.144792984 RMS     0.041522389

 GradGradGradGradGradGradGradGradGradGradGradGradGradGradGradGradGradGrad
 Berny optimization.
 Using GEDIIS/GDIIS optimizer.
 FormGI is forming the generalized inverse of G from B-inverse, IUseBI=4.
 Internal  Forces:  Max     0.081713877 RMS     0.021292561
 Search for a local minimum.
 Step number   2 out of a maximum of   65
 All quantities printed in internal units (Hartrees-Bohrs-Radians)
 Mixed Optimization -- RFO/linear search
 Update second derivatives using D2CorX and points    1    2
 DE= -6.50D-02 DEPred=-6.10D-02 R= 1.06D+00
 TightC=F SS=  1.41D+00  RLast= 3.57D-01 DXNew= 5.0454D-01 1.0701D+00
 Trust test= 1.06D+00 RLast= 3.57D-01 DXMaxT set to 5.05D-01
 ITU=  1  0
 Use linear search instead of GDIIS.
 Linear search step of   0.511 exceeds DXMaxT=   0.505 but not scaled.
 Quartic linear search produced a step of  1.66762.
 Iteration  1 RMS(Cart)=  0.07446713 RMS(Int)=  0.01638031
 Iteration  2 RMS(Cart)=  0.00896822 RMS(Int)=  0.01334866
 Iteration  3 RMS(Cart)=  0.00053188 RMS(Int)=  0.01334572
 Iteration  4 RMS(Cart)=  0.00002745 RMS(Int)=  0.01334572
 Iteration  5 RMS(Cart)=  0.00000211 RMS(Int)=  0.01334572
 Iteration  6 RMS(Cart)=  0.00000014 RMS(Int)=  0.01334572
 Variable       Old X    -DE/DX   Delta X   Delta X   Delta X     New X
                                 (Linear)    (Quad)   (Total)
    R1        1.88269  -0.00865  -0.02976   0.00000  -0.02976   1.85293
    R2        2.59651   0.00802   0.04460   0.00000   0.04460   2.64112
    R3        1.89755  -0.00916  -0.02668   0.00000  -0.02668   1.87087
    R4        2.82466   0.00006  -0.00465   0.00000  -0.00465   2.82001
    R5        2.62043   0.01523  -0.03244   0.00000  -0.06561   2.55482
    R6        2.16048   0.07783   0.27781   0.00000   0.28812   2.44860
    R7        1.82654  -0.01188  -0.03351   0.00000  -0.03351   1.79304
    R8        2.06431  -0.00597  -0.02086   0.00000  -0.02086   2.04345
    R9        2.05010  -0.00432  -0.01664   0.00000  -0.01664   2.03346
   R10        2.06105  -0.00586  -0.02469   0.00000  -0.02469   2.03636
   R11        2.65816  -0.08171  -0.20402   0.00000  -0.20402   2.45414
   R12        2.62254  -0.02506  -0.07331   0.00000  -0.07331   2.54923
   R13        2.09091   0.06425   0.20945   0.00000   0.23503   2.32595
    A1        2.13131  -0.00261  -0.01170   0.00000  -0.01173   2.11958
    A2        2.10394   0.00137   0.00133   0.00000   0.00130   2.10524
    A3        2.04767   0.00127   0.01066   0.00000   0.01062   2.05829
    A4        2.08650  -0.00249  -0.01383   0.00000  -0.01930   2.06720
    A5        2.03272  -0.00235  -0.00670   0.00000  -0.00456   2.02817
    A6        1.68093   0.02370   0.11230   0.00000   0.11130   1.79223
    A7        2.16394   0.00490   0.02186   0.00000   0.02301   2.18695
    A8        2.10415  -0.03339  -0.15587   0.00000  -0.13522   1.96893
    A9        1.95171  -0.00028   0.00136   0.00000   0.00124   1.95295
   A10        1.93494   0.00221   0.01567   0.00000   0.01569   1.95063
   A11        1.90546  -0.00452  -0.03111   0.00000  -0.03109   1.87437
   A12        1.90021  -0.00009  -0.00073   0.00000  -0.00084   1.89937
   A13        1.88139   0.00206   0.01140   0.00000   0.01127   1.89266
   A14        1.88832   0.00066   0.00351   0.00000   0.00368   1.89200
   A15        2.08263   0.00533  -0.00796   0.00000  -0.01104   2.07159
   A16        2.07583  -0.00368   0.03204   0.00000   0.05003   2.12586
   A17        2.04934   0.00264   0.00803   0.00000  -0.00832   2.04102
   A18        1.75795   0.01953   0.05797   0.00000   0.04621   1.80416
   A19        2.30430  -0.04721  -0.20263   0.00000  -0.20109   2.10321
   A20        1.87280   0.00220  -0.00754   0.00000  -0.00754   1.86526
    D1       -0.16253   0.00434   0.01259   0.00000   0.00877  -0.15376
    D2        2.97220   0.01294   0.07138   0.00000   0.05802   3.03022
    D3        2.11675  -0.02110  -0.10565   0.00000  -0.08846   2.02829
    D4        3.00372   0.00311   0.00061   0.00000  -0.00321   3.00052
    D5       -0.14473   0.01171   0.05941   0.00000   0.04604  -0.09869
    D6       -1.00018  -0.02233  -0.11762   0.00000  -0.10043  -1.10062
    D7        0.91964   0.00265   0.01568   0.00000   0.01825   0.93789
    D8        3.04381   0.00390   0.02665   0.00000   0.02929   3.07310
    D9       -1.16074   0.00322   0.02108   0.00000   0.02357  -1.13717
   D10       -2.21454  -0.00660  -0.04699   0.00000  -0.03577  -2.25031
   D11       -0.09037  -0.00536  -0.03602   0.00000  -0.02473  -0.11509
   D12        1.98826  -0.00604  -0.04159   0.00000  -0.03045   1.95782
   D13       -1.15343   0.00166   0.01211   0.00000  -0.00168  -1.15511
   D14        0.97074   0.00291   0.02308   0.00000   0.00937   0.98010
   D15        3.04937   0.00223   0.01751   0.00000   0.00364   3.05302
   D16        0.09583  -0.00875  -0.06138   0.00000  -0.06480   0.03102
   D17        2.81990   0.00316   0.01977   0.00000   0.02614   2.84604
   D18       -3.05297   0.00024  -0.00068   0.00000  -0.01193  -3.06490
   D19       -0.32890   0.01215   0.08048   0.00000   0.07901  -0.24988
   D20       -3.01365   0.00291   0.03731   0.00000   0.00322  -3.01042
   D21       -0.28168   0.01527   0.11247   0.00000   0.09169  -0.18999
   D22        2.13673  -0.02082  -0.16664   0.00000  -0.11177   2.02496
         Item               Value     Threshold  Converged?
 Maximum Force            0.081714     0.000450     NO 
 RMS     Force            0.021293     0.000300     NO 
 Maximum Displacement     0.360193     0.001800     NO 
 RMS     Displacement     0.078840     0.001200     NO 
 Predicted change in Energy=-5.813666D-02
 GradGradGradGradGradGradGradGradGradGradGradGradGradGradGradGradGradGrad

                          Input orientation:                          
 ---------------------------------------------------------------------
 Center     Atomic      Atomic             Coordinates (Angstroms)
 Number     Number       Type             X           Y           Z
 ---------------------------------------------------------------------
      1          7           0       -0.724063   -1.459993    0.080494
      2          1           0       -1.682834   -1.660481    0.125245
      3          6           0       -0.243144   -0.157848    0.243198
      4          1           0        2.634268    1.011021    0.074946
      5          6           0       -1.227527    0.962757    0.289581
      6          6           0        1.100744   -0.019905    0.295247
      7          1           0       -1.991612    0.797642    1.036728
      8          1           0       -0.748851    1.906444    0.485101
      9          1           0       -1.701430    1.015432   -0.676780
     10          8           0        1.841873   -1.077470    0.157995
     11          1           0       -0.064380   -2.182369   -0.071603
     12          8           0        1.700394    1.174588    0.112514
     13          1           0        0.465405   -0.249156    1.324202
 ---------------------------------------------------------------------
                    Distance matrix (angstroms):
                    1          2          3          4          5
     1  N    0.000000
     2  H    0.980531   0.000000
     3  C    1.397618   2.084353   0.000000
     4  H    4.169452   5.077088   3.110316   0.000000
     5  C    2.483327   2.667525   1.492286   3.868056   0.000000
     6  C    2.334500   3.235537   1.351952   1.860924   2.527154
     7  H    2.760069   2.639795   2.144713   4.729622   1.081350
     8  H    3.390755   3.704697   2.139056   3.523565   1.076059
     9  H    2.767027   2.793582   2.085556   4.400385   1.077595
    10  O    2.595450   3.572749   2.280408   2.235304   3.687962
    11  H    0.990021   1.711873   2.056633   4.183530   3.372712
    12  O    3.580507   4.414070   2.360044   0.948834   2.940909
    13  H    2.104227   2.836242   1.295743   2.802259   2.324907
                    6          7          8          9         10
     6  C    0.000000
     7  H    3.283420   0.000000
     8  H    2.677288   1.754477   0.000000
     9  H    3.141487   1.751498   1.746790   0.000000
    10  O    1.298674   4.357044   3.965173   4.199058   0.000000
    11  H    2.483615   3.717941   4.182919   3.643089   2.215247
    12  O    1.348994   3.824548   2.583261   3.495815   2.256956
    13  H    1.230838   2.686142   2.612493   3.209094   1.985147
                   11         12         13
    11  H    0.000000
    12  O    3.797037   0.000000
    13  H    2.442592   2.240633   0.000000
 Stoichiometry    C3H7NO2
 Framework group  C1[X(C3H7NO2)]
 Deg. of freedom    33
 Full point group                 C1      NOp   1
 Largest Abelian subgroup         C1      NOp   1
 Largest concise Abelian subgroup C1      NOp   1
                         Standard orientation:                         
 ---------------------------------------------------------------------
 Center     Atomic      Atomic             Coordinates (Angstroms)
 Number     Number       Type             X           Y           Z
 ---------------------------------------------------------------------
      1          7           0        1.229103    1.261714   -0.098018
      2          1           0        2.203821    1.363192   -0.065326
      3          6           0        0.621989    0.008881    0.025089
      4          1           0       -2.361079   -0.858191   -0.128405
      5          6           0        1.488891   -1.205671    0.008891
      6          6           0       -0.727914    0.004328    0.099350
      7          1           0        2.277989   -1.147747    0.745970
      8          1           0        0.920725   -2.103664    0.178304
      9          1           0        1.939013   -1.267148   -0.968260
     10          8           0       -1.360702    1.135441    0.017404
     11          1           0        0.643263    2.052021   -0.209146
     12          8           0       -1.447986   -1.115868   -0.116158
     13          1           0       -0.055754    0.127723    1.123037
 ---------------------------------------------------------------------
 Rotational constants (GHZ):      5.1645092      3.4677647      2.1333703
 Standard basis: 6-31G (6D, 7F)
 There are    68 symmetry adapted cartesian basis functions of A   symmetry.
 There are    68 symmetry adapted basis functions of A   symmetry.
    68 basis functions,   160 primitive gaussians,    68 cartesian basis functions
    24 alpha electrons       24 beta electrons
       nuclear repulsion energy       253.5926631304 Hartrees.
 NAtoms=   13 NActive=   13 NUniq=   13 SFac= 1.00D+00 NAtFMM=   60 NAOKFM=F Big=F
 Integral buffers will be    131072 words long.
 Raffenetti 1 integral format.
 Two-electron integral symmetry is turned on.
 One-electron integrals computed using PRISM.
 NBasis=    68 RedAO= T EigKep=  2.58D-03  NBF=    68
 NBsUse=    68 1.00D-06 EigRej= -1.00D+00 NBFU=    68
 Initial guess from the checkpoint file:  "Ala-S-opt-freq-pa3-6-31g.chk"
 B after Tr=     0.000000    0.000000    0.000000
         Rot=    0.999675   -0.005117   -0.000097    0.024981 Ang=  -2.92 deg.
 ExpMin= 1.61D-01 ExpMax= 5.48D+03 ExpMxC= 8.25D+02 IAcc=1 IRadAn=         1 AccDes= 0.00D+00
 Harris functional with IExCor=  205 and IRadAn=       1 diagonalized for initial guess.
 HarFok:  IExCor=  205 AccDes= 0.00D+00 IRadAn=         1 IDoV= 1 UseB2=F ITyADJ=14
 ICtDFT=  3500011 ScaDFX=  1.000000  1.000000  1.000000  1.000000
 FoFCou: FMM=F IPFlag=           0 FMFlag=      100000 FMFlg1=           0
         NFxFlg=           0 DoJE=T BraDBF=F KetDBF=T FulRan=T
         wScrn=  0.000000 ICntrl=     500 IOpCl=  0 I1Cent=   200000004 NGrid=           0
         NMat0=    1 NMatS0=      1 NMatT0=    0 NMatD0=    1 NMtDS0=    0 NMtDT0=    0
 Petite list used in FoFCou.
 Keep R1 ints in memory in canonical form, NReq=3633079.
 Requested convergence on RMS density matrix=1.00D-08 within 128 cycles.
 Requested convergence on MAX density matrix=1.00D-06.
 Requested convergence on             energy=1.00D-06.
 No special actions if energy rises.
 SCF Done:  E(RHF) =  -321.596298596     A.U. after   13 cycles
            NFock= 13  Conv=0.92D-08     -V/T= 1.9983
 Calling FoFJK, ICntrl=      2127 FMM=F ISym2X=0 I1Cent= 0 IOpClX= 0 NMat=1 NMatS=1 NMatT=0.
 ***** Axes restored to original set *****
 -------------------------------------------------------------------
 Center     Atomic                   Forces (Hartrees/Bohr)
 Number     Number              X              Y              Z
 -------------------------------------------------------------------
      1        7           0.008824141    0.024442294   -0.008417745
      2        1          -0.008178109    0.000221625    0.003141933
      3        6          -0.070714104   -0.029337789    0.016877116
      4        1           0.007396647    0.003847050    0.000396869
      5        6          -0.000532669    0.001970062   -0.001135538
      6        6           0.090903518   -0.054191204   -0.067346386
      7        1          -0.000644074   -0.001253779    0.000264930
      8        1           0.001736901    0.001503941    0.000211940
      9        1          -0.002886331    0.001898772   -0.003579015
     10        8           0.006594361    0.012611045    0.000833692
     11        1           0.003296175   -0.000361868   -0.002533013
     12        8          -0.010455461    0.016282195    0.014001964
     13        1          -0.025340995    0.022367655    0.047283253
 -------------------------------------------------------------------
 Cartesian Forces:  Max     0.090903518 RMS     0.026302577

 GradGradGradGradGradGradGradGradGradGradGradGradGradGradGradGradGradGrad
 Berny optimization.
 Using GEDIIS/GDIIS optimizer.
 FormGI is forming the generalized inverse of G from B-inverse, IUseBI=4.
 Internal  Forces:  Max     0.060443571 RMS     0.013275158
 Search for a local minimum.
 Step number   3 out of a maximum of   65
 All quantities printed in internal units (Hartrees-Bohrs-Radians)
 Mixed Optimization -- RFO/linear search
 Update second derivatives using D2CorX and points    2    3
 ITU=  0  1  0
 Use linear search instead of GDIIS.
     Eigenvalues ---    0.00816   0.01546   0.02223   0.02226   0.02424
     Eigenvalues ---    0.03661   0.04165   0.05679   0.06184   0.10905
     Eigenvalues ---    0.15940   0.16000   0.16000   0.16000   0.16000
     Eigenvalues ---    0.16088   0.17453   0.22034   0.23285   0.24625
     Eigenvalues ---    0.25314   0.26777   0.32795   0.33798   0.33881
     Eigenvalues ---    0.34802   0.35786   0.43092   0.45450   0.46456
     Eigenvalues ---    0.49389   0.52149   0.56137
 RFO step:  Lambda=-3.66016421D-02 EMin= 8.15931131D-03
 Quartic linear search produced a step of  0.21516.
 Iteration  1 RMS(Cart)=  0.06424687 RMS(Int)=  0.00687727
 Iteration  2 RMS(Cart)=  0.00753998 RMS(Int)=  0.00231879
 Iteration  3 RMS(Cart)=  0.00005530 RMS(Int)=  0.00231837
 Iteration  4 RMS(Cart)=  0.00000061 RMS(Int)=  0.00231837
 Variable       Old X    -DE/DX   Delta X   Delta X   Delta X     New X
                                 (Linear)    (Quad)   (Total)
    R1        1.85293   0.00809  -0.00640   0.01649   0.01009   1.86302
    R2        2.64112  -0.02309   0.00960  -0.04289  -0.03329   2.60782
    R3        1.87087   0.00285  -0.00574   0.00501  -0.00073   1.87014
    R4        2.82001   0.00450  -0.00100   0.01390   0.01290   2.83292
    R5        2.55482   0.06044  -0.01412   0.15167   0.13454   2.68936
    R6        2.44860   0.01479   0.06199   0.03020   0.08782   2.53642
    R7        1.79304   0.00660  -0.00721   0.01134   0.00413   1.79717
    R8        2.04345   0.00083  -0.00449   0.00161  -0.00288   2.04058
    R9        2.03346   0.00213  -0.00358   0.00554   0.00196   2.03542
   R10        2.03636   0.00457  -0.00531   0.01281   0.00750   2.04386
   R11        2.45414  -0.00659  -0.04390  -0.02429  -0.06819   2.38595
   R12        2.54923   0.01451  -0.01577   0.03130   0.01553   2.56476
   R13        2.32595   0.04182   0.05057   0.13305   0.19125   2.51720
    A1        2.11958  -0.00157  -0.00252  -0.00896  -0.01149   2.10809
    A2        2.10524   0.00273   0.00028   0.01568   0.01595   2.12119
    A3        2.05829  -0.00116   0.00229  -0.00678  -0.00450   2.05380
    A4        2.06720  -0.00301  -0.00415  -0.00765  -0.01340   2.05381
    A5        2.02817   0.00093  -0.00098  -0.00268  -0.00402   2.02414
    A6        1.79223   0.01277   0.02395   0.10119   0.12753   1.91976
    A7        2.18695   0.00193   0.00495   0.00798   0.01260   2.19955
    A8        1.96893  -0.01007  -0.02909  -0.06697  -0.09342   1.87551
    A9        1.95295  -0.00146   0.00027  -0.00932  -0.00908   1.94388
   A10        1.95063  -0.00141   0.00338  -0.00920  -0.00584   1.94479
   A11        1.87437   0.00316  -0.00669   0.02046   0.01380   1.88817
   A12        1.89937   0.00126  -0.00018   0.00470   0.00445   1.90382
   A13        1.89266  -0.00076   0.00243  -0.00320  -0.00076   1.89190
   A14        1.89200  -0.00078   0.00079  -0.00310  -0.00227   1.88973
   A15        2.07159   0.02078  -0.00238   0.09978   0.09424   2.16583
   A16        2.12586  -0.01673   0.01076  -0.07552  -0.06942   2.05644
   A17        2.04102   0.00053  -0.00179   0.01800   0.01037   2.05138
   A18        1.80416   0.02325   0.00994   0.10918   0.11430   1.91846
   A19        2.10321  -0.01840  -0.04327  -0.17022  -0.21544   1.88778
   A20        1.86526   0.00885  -0.00162   0.05115   0.04953   1.91479
    D1       -0.15376  -0.00089   0.00189  -0.03801  -0.03647  -0.19023
    D2        3.03022   0.00263   0.01248   0.01900   0.02856   3.05878
    D3        2.02829  -0.00560  -0.01903  -0.04800  -0.06377   1.96452
    D4        3.00052  -0.00082  -0.00069  -0.03252  -0.03355   2.96697
    D5       -0.09869   0.00270   0.00991   0.02450   0.03148  -0.06721
    D6       -1.10062  -0.00553  -0.02161  -0.04250  -0.06085  -1.16147
    D7        0.93789   0.00355   0.00393   0.04607   0.05047   0.98836
    D8        3.07310   0.00311   0.00630   0.03870   0.04552   3.11862
    D9       -1.13717   0.00333   0.00507   0.04246   0.04801  -1.08916
   D10       -2.25031  -0.00036  -0.00770  -0.01695  -0.02238  -2.27269
   D11       -0.11509  -0.00081  -0.00532  -0.02432  -0.02733  -0.14242
   D12        1.95782  -0.00058  -0.00655  -0.02056  -0.02484   1.93298
   D13       -1.15511  -0.00306  -0.00036  -0.03030  -0.03345  -1.18856
   D14        0.98010  -0.00351   0.00202  -0.03766  -0.03840   0.94171
   D15        3.05302  -0.00328   0.00078  -0.03391  -0.03591   3.01711
   D16        0.03102  -0.00971  -0.01394  -0.09441  -0.10771  -0.07669
   D17        2.84604   0.00687   0.00562   0.05968   0.06695   2.91299
   D18       -3.06490  -0.00578  -0.00257  -0.03253  -0.03572  -3.10062
   D19       -0.24988   0.01080   0.01700   0.12156   0.13895  -0.11093
   D20       -3.01042  -0.01993   0.00069  -0.12818  -0.12443  -3.13486
   D21       -0.18999   0.00004   0.01973   0.03829   0.05493  -0.13507
   D22        2.02496   0.01764  -0.02405   0.04787   0.02386   2.04882
         Item               Value     Threshold  Converged?
 Maximum Force            0.060444     0.000450     NO 
 RMS     Force            0.013275     0.000300     NO 
 Maximum Displacement     0.194976     0.001800     NO 
 RMS     Displacement     0.064584     0.001200     NO 
 Predicted change in Energy=-2.397717D-02
 GradGradGradGradGradGradGradGradGradGradGradGradGradGradGradGradGradGrad

                          Input orientation:                          
 ---------------------------------------------------------------------
 Center     Atomic      Atomic             Coordinates (Angstroms)
 Number     Number       Type             X           Y           Z
 ---------------------------------------------------------------------
      1          7           0       -0.768762   -1.466912    0.067944
      2          1           0       -1.738002   -1.635159    0.132804
      3          6           0       -0.259021   -0.196715    0.244473
      4          1           0        2.647817    1.092424    0.127321
      5          6           0       -1.230917    0.943889    0.286728
      6          6           0        1.159874   -0.087361    0.233105
      7          1           0       -1.972528    0.800671    1.058434
      8          1           0       -0.728991    1.882691    0.450614
      9          1           0       -1.736705    0.991898   -0.668077
     10          8           0        1.945050   -1.072971    0.154299
     11          1           0       -0.127226   -2.198807   -0.111341
     12          8           0        1.698794    1.153981    0.129870
     13          1           0        0.469459   -0.146967    1.370696
 ---------------------------------------------------------------------
                    Distance matrix (angstroms):
                    1          2          3          4          5
     1  N    0.000000
     2  H    0.985870   0.000000
     3  C    1.380000   2.066150   0.000000
     4  H    4.269279   5.164799   3.182029   0.000000
     5  C    2.464430   2.632929   1.499115   3.884848   0.000000
     6  C    2.376990   3.286857   1.423149   1.901856   2.604272
     7  H    2.751737   2.616307   2.143226   4.722253   1.079828
     8  H    3.371625   3.673468   2.141797   3.483083   1.077096
     9  H    2.743062   2.746423   2.104542   4.457218   1.081563
    10  O    2.743616   3.725775   2.373581   2.276740   3.764575
    11  H    0.989637   1.723922   2.037730   4.311615   3.354569
    12  O    3.600244   4.426159   2.381293   0.951020   2.941420
    13  H    2.229935   2.935979   1.342213   2.797734   2.292647
                    6          7          8          9         10
     6  C    0.000000
     7  H    3.358826   0.000000
     8  H    2.737924   1.756870   0.000000
     9  H    3.219799   1.753003   1.749420   0.000000
    10  O    1.262592   4.435697   3.996778   4.300617   0.000000
    11  H    2.496693   3.710846   4.163717   3.616763   2.373268
    12  O    1.357212   3.803375   2.555002   3.530673   2.240659
    13  H    1.332044   2.637958   2.530285   3.212595   2.124730
                   11         12         13
    11  H    0.000000
    12  O    3.825405   0.000000
    13  H    2.600483   2.177931   0.000000
 Stoichiometry    C3H7NO2
 Framework group  C1[X(C3H7NO2)]
 Deg. of freedom    33
 Full point group                 C1      NOp   1
 Largest Abelian subgroup         C1      NOp   1
 Largest concise Abelian subgroup C1      NOp   1
                         Standard orientation:                         
 ---------------------------------------------------------------------
 Center     Atomic      Atomic             Coordinates (Angstroms)
 Number     Number       Type             X           Y           Z
 ---------------------------------------------------------------------
      1          7           0        1.266954    1.267321   -0.089283
      2          1           0        2.247822    1.349409   -0.033604
      3          6           0        0.652866    0.037804    0.035551
      4          1           0       -2.354906   -0.992959   -0.091510
      5          6           0        1.524117   -1.181791    0.006304
      6          6           0       -0.770206    0.049831    0.044036
      7          1           0        2.285632   -1.139899    0.770743
      8          1           0        0.945991   -2.081548    0.134148
      9          1           0        2.010981   -1.225731   -0.958482
     10          8           0       -1.469191    1.101133    0.026107
     11          1           0        0.688008    2.058865   -0.222174
     12          8           0       -1.414680   -1.134807   -0.108644
     13          1           0       -0.061895   -0.005052    1.170812
 ---------------------------------------------------------------------
 Rotational constants (GHZ):      5.2176998      3.2925773      2.0737891
 Standard basis: 6-31G (6D, 7F)
 There are    68 symmetry adapted cartesian basis functions of A   symmetry.
 There are    68 symmetry adapted basis functions of A   symmetry.
    68 basis functions,   160 primitive gaussians,    68 cartesian basis functions
    24 alpha electrons       24 beta electrons
       nuclear repulsion energy       251.0490131878 Hartrees.
 NAtoms=   13 NActive=   13 NUniq=   13 SFac= 1.00D+00 NAtFMM=   60 NAOKFM=F Big=F
 Integral buffers will be    131072 words long.
 Raffenetti 1 integral format.
 Two-electron integral symmetry is turned on.
 One-electron integrals computed using PRISM.
 NBasis=    68 RedAO= T EigKep=  3.10D-03  NBF=    68
 NBsUse=    68 1.00D-06 EigRej= -1.00D+00 NBFU=    68
 Initial guess from the checkpoint file:  "Ala-S-opt-freq-pa3-6-31g.chk"
 B after Tr=     0.000000    0.000000    0.000000
         Rot=    0.999958   -0.002370    0.001887   -0.008686 Ang=  -1.05 deg.
 ExpMin= 1.61D-01 ExpMax= 5.48D+03 ExpMxC= 8.25D+02 IAcc=1 IRadAn=         1 AccDes= 0.00D+00
 Harris functional with IExCor=  205 and IRadAn=       1 diagonalized for initial guess.
 HarFok:  IExCor=  205 AccDes= 0.00D+00 IRadAn=         1 IDoV= 1 UseB2=F ITyADJ=14
 ICtDFT=  3500011 ScaDFX=  1.000000  1.000000  1.000000  1.000000
 FoFCou: FMM=F IPFlag=           0 FMFlag=      100000 FMFlg1=           0
         NFxFlg=           0 DoJE=T BraDBF=F KetDBF=T FulRan=T
         wScrn=  0.000000 ICntrl=     500 IOpCl=  0 I1Cent=   200000004 NGrid=           0
         NMat0=    1 NMatS0=      1 NMatT0=    0 NMatD0=    1 NMtDS0=    0 NMtDT0=    0
 Petite list used in FoFCou.
 Keep R1 ints in memory in canonical form, NReq=3632917.
 Requested convergence on RMS density matrix=1.00D-08 within 128 cycles.
 Requested convergence on MAX density matrix=1.00D-06.
 Requested convergence on             energy=1.00D-06.
 No special actions if energy rises.
 SCF Done:  E(RHF) =  -321.622349485     A.U. after   14 cycles
            NFock= 14  Conv=0.29D-08     -V/T= 1.9990
 Calling FoFJK, ICntrl=      2127 FMM=F ISym2X=0 I1Cent= 0 IOpClX= 0 NMat=1 NMatS=1 NMatT=0.
 ***** Axes restored to original set *****
 -------------------------------------------------------------------
 Center     Atomic                   Forces (Hartrees/Bohr)
 Number     Number              X              Y              Z
 -------------------------------------------------------------------
      1        7           0.007202206    0.013150394   -0.005530400
      2        1          -0.001274011   -0.002577363    0.003120079
      3        6           0.008033414   -0.010371517    0.034538484
      4        1           0.002336315    0.000551516    0.000818169
      5        6           0.004739487    0.004296622   -0.008462281
      6        6           0.033645209   -0.019622355   -0.046621091
      7        1          -0.000667406   -0.001583363    0.001355940
      8        1           0.000653929    0.000818679    0.000784609
      9        1          -0.001404991    0.001044799   -0.001415872
     10        8          -0.006504320   -0.001559434   -0.002959214
     11        1          -0.000520161   -0.004535590   -0.001678426
     12        8          -0.009179503    0.014649007    0.004135539
     13        1          -0.037060168    0.005738604    0.021914463
 -------------------------------------------------------------------
 Cartesian Forces:  Max     0.046621091 RMS     0.014086956

 GradGradGradGradGradGradGradGradGradGradGradGradGradGradGradGradGradGrad
 Berny optimization.
 Using GEDIIS/GDIIS optimizer.
 FormGI is forming the generalized inverse of G from B-inverse, IUseBI=4.
 Internal  Forces:  Max     0.029169356 RMS     0.006778514
 Search for a local minimum.
 Step number   4 out of a maximum of   65
 All quantities printed in internal units (Hartrees-Bohrs-Radians)
 Mixed Optimization -- RFO/linear search
 Update second derivatives using D2CorX and points    3    4
 DE= -2.61D-02 DEPred=-2.40D-02 R= 1.09D+00
 TightC=F SS=  1.41D+00  RLast= 5.01D-01 DXNew= 8.4853D-01 1.5030D+00
 Trust test= 1.09D+00 RLast= 5.01D-01 DXMaxT set to 8.49D-01
 ITU=  1  0  1  0
 Use linear search instead of GDIIS.
     Eigenvalues ---    0.00816   0.01546   0.02196   0.02228   0.02365
     Eigenvalues ---    0.03596   0.04351   0.05738   0.06131   0.08277
     Eigenvalues ---    0.15615   0.16000   0.16000   0.16000   0.16053
     Eigenvalues ---    0.16100   0.16726   0.21957   0.23853   0.24562
     Eigenvalues ---    0.25821   0.29810   0.32805   0.33795   0.33872
     Eigenvalues ---    0.34798   0.36950   0.44444   0.45606   0.46576
     Eigenvalues ---    0.50749   0.52196   0.56369
 RFO step:  Lambda=-1.85148292D-02 EMin= 8.15756348D-03
 Quartic linear search produced a step of  0.56423.
 Iteration  1 RMS(Cart)=  0.07759836 RMS(Int)=  0.01066267
 Iteration  2 RMS(Cart)=  0.00977435 RMS(Int)=  0.00317552
 Iteration  3 RMS(Cart)=  0.00012620 RMS(Int)=  0.00317476
 Iteration  4 RMS(Cart)=  0.00000030 RMS(Int)=  0.00317476
 Variable       Old X    -DE/DX   Delta X   Delta X   Delta X     New X
                                 (Linear)    (Quad)   (Total)
    R1        1.86302   0.00190   0.00569   0.00158   0.00727   1.87029
    R2        2.60782  -0.00703  -0.01879  -0.01090  -0.02968   2.57814
    R3        1.87014   0.00332  -0.00041   0.00725   0.00684   1.87698
    R4        2.83292   0.00111   0.00728   0.00338   0.01066   2.84358
    R5        2.68936   0.00152   0.07591  -0.02821   0.04971   2.73907
    R6        2.53642  -0.01072   0.04955  -0.04456  -0.00187   2.53454
    R7        1.79717   0.00229   0.00233   0.00201   0.00434   1.80150
    R8        2.04058   0.00164  -0.00162   0.00462   0.00300   2.04358
    R9        2.03542   0.00114   0.00111   0.00254   0.00365   2.03907
   R10        2.04386   0.00195   0.00423   0.00478   0.00901   2.05287
   R11        2.38595  -0.00264  -0.03847  -0.02483  -0.06330   2.32265
   R12        2.56476   0.01081   0.00876   0.02605   0.03481   2.59957
   R13        2.51720   0.02917   0.10791   0.17606   0.28821   2.80541
    A1        2.10809  -0.00002  -0.00649  -0.00046  -0.00728   2.10080
    A2        2.12119  -0.00321   0.00900  -0.02811  -0.01945   2.10175
    A3        2.05380   0.00321  -0.00254   0.02793   0.02506   2.07886
    A4        2.05381   0.00772  -0.00756   0.03140   0.01893   2.07273
    A5        2.02414  -0.00271  -0.00227  -0.00897  -0.01656   2.00758
    A6        1.91976  -0.00055   0.07196   0.02602   0.10246   2.02222
    A7        2.19955  -0.00572   0.00711  -0.03560  -0.03230   2.16725
    A8        1.87551  -0.01027  -0.05271  -0.02338  -0.07686   1.79865
    A9        1.94388  -0.00242  -0.00512  -0.02201  -0.02716   1.91672
   A10        1.94479  -0.00015  -0.00329   0.00039  -0.00306   1.94173
   A11        1.88817   0.00211   0.00779   0.01653   0.02438   1.91255
   A12        1.90382   0.00084   0.00251   0.00122   0.00349   1.90732
   A13        1.89190   0.00008  -0.00043   0.00198   0.00176   1.89366
   A14        1.88973  -0.00040  -0.00128   0.00270   0.00134   1.89108
   A15        2.16583  -0.00233   0.05317  -0.01950   0.03043   2.19625
   A16        2.05644  -0.01178  -0.03917  -0.06739  -0.11068   1.94576
   A17        2.05138   0.01448   0.00585   0.08780   0.08896   2.14034
   A18        1.91846   0.00619   0.06449   0.05825   0.11899   2.03745
   A19        1.88778  -0.00682  -0.12155  -0.07138  -0.19633   1.69145
   A20        1.91479   0.00114   0.02794   0.00428   0.03223   1.94702
    D1       -0.19023  -0.00130  -0.02058  -0.10677  -0.12825  -0.31848
    D2        3.05878   0.00576   0.01612   0.01960   0.03587   3.09466
    D3        1.96452  -0.00984  -0.03598  -0.09171  -0.12693   1.83759
    D4        2.96697  -0.00003  -0.01893  -0.06022  -0.08007   2.88690
    D5       -0.06721   0.00703   0.01776   0.06615   0.08406   0.01686
    D6       -1.16147  -0.00857  -0.03433  -0.04516  -0.07874  -1.24021
    D7        0.98836   0.00128   0.02848   0.05293   0.08110   1.06946
    D8        3.11862   0.00054   0.02568   0.03918   0.06472  -3.09984
    D9       -1.08916   0.00129   0.02709   0.05314   0.08013  -1.00903
   D10       -2.27269  -0.00624  -0.01263  -0.08515  -0.09761  -2.37030
   D11       -0.14242  -0.00698  -0.01542  -0.09890  -0.11398  -0.25641
   D12        1.93298  -0.00623  -0.01402  -0.08494  -0.09858   1.83440
   D13       -1.18856   0.00505  -0.01887   0.01430  -0.00480  -1.19336
   D14        0.94171   0.00431  -0.02166   0.00056  -0.02118   0.92053
   D15        3.01711   0.00506  -0.02026   0.01452  -0.00578   3.01133
   D16       -0.07669  -0.00384  -0.06078  -0.01518  -0.07105  -0.14774
   D17        2.91299   0.00027   0.03778  -0.00075   0.03786   2.95085
   D18       -3.10062   0.00293  -0.02015   0.11836   0.09947  -3.00115
   D19       -0.11093   0.00704   0.07840   0.13279   0.20837   0.09744
   D20       -3.13486  -0.00673  -0.07021  -0.04893  -0.10955   3.03878
   D21       -0.13507  -0.00420   0.03099  -0.04389  -0.00914  -0.14421
   D22        2.04882   0.00944   0.01346   0.04103   0.04114   2.08995
         Item               Value     Threshold  Converged?
 Maximum Force            0.029169     0.000450     NO 
 RMS     Force            0.006779     0.000300     NO 
 Maximum Displacement     0.230676     0.001800     NO 
 RMS     Displacement     0.078849     0.001200     NO 
 Predicted change in Energy=-1.259373D-02
 GradGradGradGradGradGradGradGradGradGradGradGradGradGradGradGradGradGrad

                          Input orientation:                          
 ---------------------------------------------------------------------
 Center     Atomic      Atomic             Coordinates (Angstroms)
 Number     Number       Type             X           Y           Z
 ---------------------------------------------------------------------
      1          7           0       -0.776363   -1.484929    0.071550
      2          1           0       -1.748175   -1.644604    0.169649
      3          6           0       -0.255702   -0.243314    0.292007
      4          1           0        2.562183    1.214493    0.184750
      5          6           0       -1.180692    0.943417    0.273198
      6          6           0        1.186278   -0.153580    0.175588
      7          1           0       -1.925159    0.840401    1.050766
      8          1           0       -0.638098    1.864598    0.419206
      9          1           0       -1.688602    0.993963   -0.685757
     10          8           0        1.958268   -1.101408    0.047812
     11          1           0       -0.161381   -2.237147   -0.134665
     12          8           0        1.610845    1.154887    0.170222
     13          1           0        0.415439   -0.086115    1.442543
 ---------------------------------------------------------------------
                    Distance matrix (angstroms):
                    1          2          3          4          5
     1  N    0.000000
     2  H    0.989716   0.000000
     3  C    1.364294   2.050869   0.000000
     4  H    4.294832   5.172412   3.174457   0.000000
     5  C    2.470022   2.651530   1.504755   3.753720   0.000000
     6  C    2.373873   3.291535   1.449452   1.940315   2.610646
     7  H    2.772320   2.642526   2.130080   4.585430   1.081414
     8  H    3.370358   3.689044   2.146089   3.274050   1.079028
     9  H    2.747836   2.774402   2.130746   4.344605   1.086334
    10  O    2.761495   3.748016   2.386968   2.397261   3.753021
    11  H    0.993257   1.720939   2.041156   4.408361   3.364719
    12  O    3.560494   4.372660   2.335335   0.953315   2.801428
    13  H    2.292748   2.954720   1.341222   2.807514   2.230457
                    6          7          8          9         10
     6  C    0.000000
     7  H    3.381564   0.000000
     8  H    2.731435   1.761923   0.000000
     9  H    3.213052   1.759276   1.755707   0.000000
    10  O    1.229094   4.456180   3.959323   4.269469   0.000000
    11  H    2.500739   3.739982   4.166335   3.616100   2.411662
    12  O    1.375634   3.657537   2.371376   3.412469   2.286165
    13  H    1.484560   2.547611   2.441811   3.181701   2.314393
                   11         12         13
    11  H    0.000000
    12  O    3.839223   0.000000
    13  H    2.728965   2.141934   0.000000
 Stoichiometry    C3H7NO2
 Framework group  C1[X(C3H7NO2)]
 Deg. of freedom    33
 Full point group                 C1      NOp   1
 Largest Abelian subgroup         C1      NOp   1
 Largest concise Abelian subgroup C1      NOp   1
                         Standard orientation:                         
 ---------------------------------------------------------------------
 Center     Atomic      Atomic             Coordinates (Angstroms)
 Number     Number       Type             X           Y           Z
 ---------------------------------------------------------------------
      1          7           0        1.263329    1.274749   -0.060963
      2          1           0        2.247148    1.349957    0.016380
      3          6           0        0.650142    0.065305    0.089187
      4          1           0       -2.278194   -1.154674   -0.027782
      5          6           0        1.475367   -1.186085   -0.042400
      6          6           0       -0.796977    0.097961    0.013745
      7          1           0        2.246327   -1.198316    0.715840
      8          1           0        0.864222   -2.069830    0.056582
      9          1           0        1.951607   -1.207166   -1.018551
     10          8           0       -1.492998    1.110343   -0.022454
     11          1           0        0.705832    2.085938   -0.194114
     12          8           0       -1.325884   -1.169230   -0.069045
     13          1           0       -0.000381   -0.121141    1.247175
 ---------------------------------------------------------------------
 Rotational constants (GHZ):      5.0759904      3.4033828      2.0951162
 Standard basis: 6-31G (6D, 7F)
 There are    68 symmetry adapted cartesian basis functions of A   symmetry.
 There are    68 symmetry adapted basis functions of A   symmetry.
    68 basis functions,   160 primitive gaussians,    68 cartesian basis functions
    24 alpha electrons       24 beta electrons
       nuclear repulsion energy       251.1737684155 Hartrees.
 NAtoms=   13 NActive=   13 NUniq=   13 SFac= 1.00D+00 NAtFMM=   60 NAOKFM=F Big=F
 Integral buffers will be    131072 words long.
 Raffenetti 1 integral format.
 Two-electron integral symmetry is turned on.
 One-electron integrals computed using PRISM.
 NBasis=    68 RedAO= T EigKep=  3.79D-03  NBF=    68
 NBsUse=    68 1.00D-06 EigRej= -1.00D+00 NBFU=    68
 Initial guess from the checkpoint file:  "Ala-S-opt-freq-pa3-6-31g.chk"
 B after Tr=     0.000000    0.000000    0.000000
         Rot=    0.999990   -0.002721   -0.000297   -0.003528 Ang=  -0.51 deg.
 ExpMin= 1.61D-01 ExpMax= 5.48D+03 ExpMxC= 8.25D+02 IAcc=1 IRadAn=         1 AccDes= 0.00D+00
 Harris functional with IExCor=  205 and IRadAn=       1 diagonalized for initial guess.
 HarFok:  IExCor=  205 AccDes= 0.00D+00 IRadAn=         1 IDoV= 1 UseB2=F ITyADJ=14
 ICtDFT=  3500011 ScaDFX=  1.000000  1.000000  1.000000  1.000000
 FoFCou: FMM=F IPFlag=           0 FMFlag=      100000 FMFlg1=           0
         NFxFlg=           0 DoJE=T BraDBF=F KetDBF=T FulRan=T
         wScrn=  0.000000 ICntrl=     500 IOpCl=  0 I1Cent=   200000004 NGrid=           0
         NMat0=    1 NMatS0=      1 NMatT0=    0 NMatD0=    1 NMtDS0=    0 NMtDT0=    0
 Petite list used in FoFCou.
 Keep R1 ints in memory in canonical form, NReq=3633079.
 Requested convergence on RMS density matrix=1.00D-08 within 128 cycles.
 Requested convergence on MAX density matrix=1.00D-06.
 Requested convergence on             energy=1.00D-06.
 No special actions if energy rises.
 SCF Done:  E(RHF) =  -321.639845966     A.U. after   14 cycles
            NFock= 14  Conv=0.52D-08     -V/T= 1.9993
 Calling FoFJK, ICntrl=      2127 FMM=F ISym2X=0 I1Cent= 0 IOpClX= 0 NMat=1 NMatS=1 NMatT=0.
 ***** Axes restored to original set *****
 -------------------------------------------------------------------
 Center     Atomic                   Forces (Hartrees/Bohr)
 Number     Number              X              Y              Z
 -------------------------------------------------------------------
      1        7          -0.007393057   -0.009425144   -0.005582866
      2        1           0.002511850   -0.003008388    0.001914918
      3        6           0.043334204    0.013443657    0.056631311
      4        1           0.000215111    0.000999191   -0.000069771
      5        6          -0.000066293    0.002440601   -0.011885634
      6        6           0.000404585    0.017928070   -0.048548815
      7        1          -0.001021143    0.000133264   -0.000071443
      8        1          -0.001019673   -0.001761560    0.001105132
      9        1           0.000259497   -0.000152534    0.000916114
     10        8           0.004120276   -0.001761948    0.000477209
     11        1          -0.002835066   -0.000164807    0.000412710
     12        8           0.010372089   -0.006775223   -0.000568629
     13        1          -0.048882380   -0.011895178    0.005269764
 -------------------------------------------------------------------
 Cartesian Forces:  Max     0.056631311 RMS     0.016820840

 GradGradGradGradGradGradGradGradGradGradGradGradGradGradGradGradGradGrad
 Berny optimization.
 Using GEDIIS/GDIIS optimizer.
 FormGI is forming the generalized inverse of G from B-inverse, IUseBI=4.
 Internal  Forces:  Max     0.029831355 RMS     0.008035786
 Search for a local minimum.
 Step number   5 out of a maximum of   65
 All quantities printed in internal units (Hartrees-Bohrs-Radians)
[...]
                           !   Optimized Parameters   !
                           ! (Angstroms and Degrees)  !
 --------------------------                            --------------------------
 ! Name  Definition              Value          Derivative Info.                !
 --------------------------------------------------------------------------------
 ! R1    R(1,2)                  0.9915         -DE/DX =    0.0                 !
 ! R2    R(1,3)                  1.4407         -DE/DX =    0.0                 !
 ! R3    R(1,11)                 0.9928         -DE/DX =    0.0                 !
 ! R4    R(3,5)                  1.5331         -DE/DX =    0.0                 !
 ! R5    R(3,6)                  1.506          -DE/DX =    0.0                 !
 ! R6    R(3,13)                 1.0921         -DE/DX =    0.0                 !
 ! R7    R(4,12)                 0.9544         -DE/DX =    0.0                 !
 ! R8    R(5,7)                  1.0833         -DE/DX =    0.0                 !
 ! R9    R(5,8)                  1.0805         -DE/DX =    0.0                 !
 ! R10   R(5,9)                  1.082          -DE/DX =    0.0                 !
 ! R11   R(6,10)                 1.2116         -DE/DX =    0.0                 !
 ! R12   R(6,12)                 1.3504         -DE/DX =    0.0                 !
 ! R13   R(6,13)                 2.0745         -DE/DX =    0.0                 !
 ! A1    A(2,1,3)              117.5247         -DE/DX =    0.0                 !
 ! A2    A(2,1,11)             116.3639         -DE/DX =    0.0                 !
 ! A3    A(3,1,11)             117.8191         -DE/DX =    0.0                 !
 ! A4    A(1,3,5)              110.9816         -DE/DX =    0.0                 !
 ! A5    A(1,3,6)              108.3969         -DE/DX =    0.0                 !
 ! A6    A(1,3,13)             112.8767         -DE/DX =    0.0                 !
 ! A7    A(5,3,6)              111.5803         -DE/DX =    0.0                 !
 ! A8    A(5,3,13)             108.0353         -DE/DX =    0.0                 !
 ! A9    A(3,5,7)              109.1266         -DE/DX =    0.0                 !
 ! A10   A(3,5,8)              111.4843         -DE/DX =    0.0                 !
 ! A11   A(3,5,9)              109.9722         -DE/DX =    0.0                 !
 ! A12   A(7,5,8)              108.6534         -DE/DX =    0.0                 !
 ! A13   A(7,5,9)              107.9445         -DE/DX =    0.0                 !
 ! A14   A(8,5,9)              109.5794         -DE/DX =    0.0                 !
 ! A15   A(3,6,10)             125.8788         -DE/DX =    0.0                 !
 ! A16   A(3,6,12)             112.4598         -DE/DX =    0.0                 !
 ! A17   A(10,6,12)            121.6188         -DE/DX =    0.0                 !
 ! A18   A(10,6,13)            131.8919         -DE/DX =    0.0                 !
 ! A19   A(12,6,13)             97.1883         -DE/DX =    0.0                 !
 ! A20   A(4,12,6)             113.7548         -DE/DX =    0.0                 !
 ! D1    D(2,1,3,5)            -66.5176         -DE/DX =    0.0                 !
 ! D2    D(2,1,3,6)            170.6154         -DE/DX =    0.0                 !
 ! D3    D(2,1,3,13)            54.9294         -DE/DX =    0.0                 !
 ! D4    D(11,1,3,5)           146.2193         -DE/DX =    0.0                 !
 ! D5    D(11,1,3,6)            23.3523         -DE/DX =    0.0                 !
 ! D6    D(11,1,3,13)          -92.3337         -DE/DX =    0.0                 !
 ! D7    D(1,3,5,7)             58.5458         -DE/DX =    0.0                 !
 ! D8    D(1,3,5,8)            178.5661         -DE/DX =    0.0                 !
 ! D9    D(1,3,5,9)            -59.6834         -DE/DX =    0.0                 !
 ! D10   D(6,3,5,7)            179.5549         -DE/DX =    0.0                 !
 ! D11   D(6,3,5,8)            -60.4248         -DE/DX =    0.0                 !
 ! D12   D(6,3,5,9)             61.3257         -DE/DX =    0.0                 !
 ! D13   D(13,3,5,7)           -65.6995         -DE/DX =    0.0                 !
 ! D14   D(13,3,5,8)            54.3208         -DE/DX =    0.0                 !
 ! D15   D(13,3,5,9)           176.0713         -DE/DX =    0.0                 !
 ! D16   D(1,3,6,10)            -7.4796         -DE/DX =    0.0                 !
 ! D17   D(1,3,6,12)           174.8753         -DE/DX =    0.0                 !
 ! D18   D(5,3,6,10)          -129.9832         -DE/DX =    0.0                 !
 ! D19   D(5,3,6,12)            52.3718         -DE/DX =    0.0                 !
 ! D20   D(3,6,12,4)           178.5014         -DE/DX =    0.0                 !
 ! D21   D(10,6,12,4)            0.7421         -DE/DX =    0.0                 !
 ! D22   D(13,6,12,4)          150.9676         -DE/DX =    0.0                 !
 --------------------------------------------------------------------------------
 GradGradGradGradGradGradGradGradGradGradGradGradGradGradGradGradGradGrad

 1\1\GINC-KALI\Freq\RHF\6-31G\C3H7N1O2\ROOT\16-Apr-2016\0\\#N Geom=AllC
 heck Guess=TCheck SCRF=Check GenChk RHF/6-31G Freq\\Ala-S-opt-freq-pa3
 -6-31g\\0,1\N,-0.7764724417,-1.4703412215,0.1469231968\H,-1.6348134293
 ,-1.768840316,0.5435295874\C,-0.217525568,-0.2313609839,0.6245728071\H
 ,2.6285373358,1.1958608734,0.0497759531\C,-1.103038276,0.9573577439,0.
 2331556795\C,1.1747058235,-0.0920362858,0.067560797\H,-2.0940004511,0.
 8130236842,0.6463928844\H,-0.7041880168,1.8885555186,0.608907001\H,-1.
 1953749176,1.0106702712,-0.8435752153\O,1.7794446471,-0.9391544573,-0.
 552669498\H,-0.1469479472,-2.1858192424,-0.1313503774\O,1.7366793585,1
 .0967924935,0.374756049\H,-0.0881647571,-0.214045278,1.7088907755\\Ver
 sion=ES64L-G09RevD.01\State=1-A\HF=-321.7164796\RMSD=7.766e-10\RMSF=1.
 557e-05\ZeroPoint=0.1154008\Thermal=0.1221305\Dipole=-0.2397181,0.3796
 37,0.6807438\DipoleDeriv=-0.479953,-0.0295172,-0.2500067,-0.0053818,-0
 .7355597,0.0548572,-0.2258597,0.0553342,-0.8740144,0.1782213,-0.042244
 5,0.1156454,-0.0665396,0.1804435,-0.0621121,0.1740737,-0.0320825,0.310
 2542,0.1220611,0.1180726,0.1803724,0.1326423,0.5317052,0.0604171,0.146
 0919,-0.0438134,0.4217132,0.3089533,0.0332041,0.079238,0.0787386,0.378
 4768,-0.0629173,0.0976248,-0.0472307,0.4001307,0.103151,0.0201923,-0.0
 133051,-0.0293118,0.0350664,0.023762,-0.0116722,0.0148835,0.0901046,1.
 3364688,0.1221243,-0.2582679,0.2767962,1.5809809,0.4059248,-0.2429089,
 0.4865607,0.736954,-0.1544642,0.0052834,0.0804368,-0.0325686,0.0547015
 ,0.0314238,0.0976264,0.0221043,0.0353574,0.0620516,-0.0567409,-0.03877
 53,-0.0313907,-0.0912225,-0.0423422,-0.0336279,-0.0655853,0.0483147,0.
 0656152,0.0189731,0.0001717,0.0215284,0.056793,-0.0044765,-0.041815,0.
 0444905,-0.1303651,-0.9277347,0.264924,0.2742268,0.0246159,-0.9538877,
 -0.2178422,0.2091251,-0.3281809,-0.6654632,0.1887496,0.0273016,0.04616
 95,0.0074787,0.1641592,-0.0413121,0.0001505,0.0095177,0.3941255,-0.787
 6218,-0.4712794,-0.1560661,-0.3432698,-1.1700625,-0.1255223,-0.0977767
 ,-0.0832217,-0.5841181,-0.0154981,-0.0102933,-0.0598395,-0.0333376,-0.
 0315943,-0.0198601,-0.0710319,-0.0327763,-0.1829937\Polar=41.9589364,0
 .3376133,42.3729946,-4.1662385,5.1246051,31.3454383\PolarDeriv=1.06120
 18,1.7527801,-2.6426922,-1.6286381,-1.3810939,0.170175,1.9584214,-2.05
 82819,0.1573802,-0.7650938,-0.3518064,1.0662146,-2.9759263,-2.1338074,
 -1.7411163,0.1181942,-0.8171303,-1.5540469,-5.8755894,-2.7289737,-1.53
 47221,1.3840276,0.3125652,-0.1204157,-1.4004785,-1.8064961,-2.0051299,
 0.6110411,0.6951103,-0.0525192,1.9095806,1.2228432,1.1594069,-1.920605
 7,-0.813245,1.1970348,-1.7760682,-3.8434198,3.9879165,0.8084846,0.6857
 944,-1.9548149,-3.1098189,4.2566343,-1.3492996,-0.654667,0.8893697,-1.
 8129765,2.542552,0.5466383,2.4634423,-0.3300803,-0.16504,-8.2946404,8.
 2783821,3.3494582,1.6643579,-1.1043878,-0.2375747,0.0076663,0.1133716,
 1.4567696,1.0029245,-0.1034171,-0.3655648,0.041312,-1.9596494,-1.19274
 96,-0.7232556,1.8168844,0.6673564,-0.6899915,3.2392584,1.8183865,-4.46
 02312,-2.2623698,-0.6002345,0.3029465,3.3320609,-4.1984028,-0.2876703,
 -0.5569774,-2.1990065,-0.1825082,-3.1909424,-0.0256996,-2.9618577,1.61
 96337,-1.096025,5.8995513,0.8632364,2.9462975,-1.2949016,0.9423569,-1.
 1210734,1.1117606,-0.8032496,-1.775799,2.2992734,0.2238973,0.3437637,0
 .5998715,-0.8982502,-1.1279017,-0.3365199,-0.7639408,1.6920823,2.90801
 4,-8.8479357,0.3037714,-0.1467728,2.2050268,-0.0993925,-0.9240801,-0.5
 449843,-1.6177185,-0.2489063,0.0169801,1.2854286,-0.1030372,1.7666921,
 -0.1757526,0.9011933,-2.7578516,0.0778655,1.2413418,1.3547096,1.647961
 4,1.3137482,1.1548583,0.1147418,0.3467344,0.1122238,1.3731114,7.533767
 3,0.1492543,1.6704277,0.6873859,0.8804304,0.0919056,1.5893075,0.504625
 ,2.3611972,0.9596489,-1.2534707,0.1104938,0.6679239,-1.9450553,0.27763
 22,-0.330978,-0.487611,0.2620145,0.6919287,0.2011047,-1.8793961,0.1946
 643,-0.5446417,0.4596918,-0.7451813,-1.4913251,1.307549,-7.99788,4.867
 0244,-3.6655025,1.2798813,-2.5933067,0.8181298,0.4148857,-1.1911993,2.
 2079968,-7.1492003,0.4926962,-2.6056778,-0.7883064,-1.2195653,0.836472
 ,-1.3390289,2.5176629,-3.4137495,-4.4532001,2.0770271,-1.3225182,2.763
 7745,-0.4111248,0.7534802,0.225068,-1.0401767,1.639888,-5.067581,0.690
 2509,-1.0933822,-0.1837248,0.1477365,0.1269372,-0.6420475,0.6303351,-1
 .3812673,-0.5796172,-5.0884728,-1.0553057,-0.9828143,1.3312655,0.36441
 57,-0.2576174,2.4361397,0.615303,4.1625922,-0.5157695,1.2820412,0.0316
 465,2.6772798,1.2745591,1.4231149,-0.7148435,1.2849087,1.1745276,1.100
 6972,0.686571,-0.6154679,2.1188628,0.1126097,1.0086697,0.625301,-0.355
 0193,0.259921,0.2107002,2.3286925,0.5019775,0.8647039,0.0968637,0.9525
 422,0.7713118,0.2954979,10.1892577\HyperPolar=-14.998926,6.4765284,3.2
 721902,26.7775799,16.098827,4.4450336,11.4282709,-6.4286308,17.4647918
 ,23.9719875\PG=C01 [X(C3H7N1O2)]\NImag=0\\0.82610374,0.01090810,0.7217
 7913,-0.27631137,0.16416732,0.23249082,-0.39655741,-0.11340080,0.16948
 770,0.41826826,-0.12602559,-0.11778839,0.03206049,0.12815472,0.1134498
 4,0.20420677,0.03815552,-0.09766930,-0.18556936,-0.03511469,0.09820389
 ,-0.14721933,-0.06143632,0.00317069,-0.00819433,-0.03131456,-0.0205511
 3,0.58830936,-0.04312101,-0.22916683,-0.05392792,0.00049419,-0.0058839
 7,-0.01047982,0.02197466,0.58936909,-0.00330430,-0.07809073,-0.1018869
 0,0.00845107,0.01940074,0.00488855,-0.00614940,0.03292645,0.61751819,-
 0.00006180,0.00054956,0.00044759,0.00014598,-0.00022798,-0.00015818,0.
 00315893,-0.00268910,-0.00071146,0.50421427,-0.00126905,0.00039608,0.0
 0095948,-0.00012303,-0.00037189,-0.00031009,-0.00020319,-0.00564652,-0
 .00535948,0.07150072,0.06039847,-0.00048658,-0.00021937,-0.00006102,0.
 00006070,-0.00016696,0.00018129,0.00091491,-0.00288278,0.00393811,-0.1
 7080167,-0.00840396,0.08138074,0.01163531,-0.01617307,0.00058080,0.000
 91072,-0.00122620,-0.00021041,-0.13564207,0.05094919,-0.02304032,0.000
 61012,0.00031532,0.00049692,0.61217384,0.02187044,-0.04345316,-0.00241
 528,-0.00034332,0.00100728,0.00097444,0.03771622,-0.14572727,0.0261476
 8,0.00011680,0.00010068,-0.00043334,0.06528433,0.59011512,0.00893706,-
 0.01593230,0.00501212,-0.00035596,0.00052358,-0.00009631,-0.02056827,0
 .02891339,-0.10468606,-0.00019166,-0.00027552,-0.00020425,-0.01307227,
 0.03393357,0.65299325,-0.02510847,-0.01061040,0.00758106,-0.00005922,0
 .00115564,-0.00104032,-0.20394287,-0.01905322,0.04000617,-0.02453829,-
 0.06088529,-0.01603652,-0.02820232,0.01016375,0.00932349,0.78193831,-0
 .04079821,-0.01702473,0.01186238,-0.00062667,-0.00713784,-0.00503302,-
 0.00709143,-0.08960350,0.01359471,-0.00343163,-0.00570528,-0.00283717,
 0.03183007,0.00567476,-0.01410011,-0.08632239,0.80954912,-0.01443783,-
 0.00207144,0.00159534,-0.00115792,-0.00423131,-0.00251086,0.03958650,0
 .01723383,-0.12067423,0.01024768,0.02143106,0.00890439,-0.01052079,-0.
 00813734,0.00758963,-0.25399859,0.27310271,0.49389642,0.00255418,-0.00
 150373,-0.00102344,0.00008714,0.00131125,-0.00003570,-0.02317011,-0.00
 428725,0.00991363,0.00016979,0.00024015,0.00006478,-0.29267350,-0.0363
 6311,0.09946780,0.00125579,0.00272743,-0.00352720,0.32139393,-0.000730
 37,0.00309315,0.00024454,-0.00001899,-0.00098004,0.00037137,0.03428300
 ,0.00036586,-0.01086357,-0.00004898,0.00008551,0.00000497,-0.04022437,
 -0.06394547,0.01536581,0.00051386,-0.00731547,0.00335383,0.03894101,0.
 06786650,-0.00039123,-0.00097021,-0.00062001,0.00035447,-0.00047903,0.
 00051000,-0.01183978,0.00034247,0.00473865,-0.00006175,0.00012316,-0.0
 0010451,0.10133384,0.01535265,-0.10179717,-0.00153891,0.00261727,-0.00
 065091,-0.11035589,-0.01986857,0.10428409,-0.00252206,0.00451083,0.000
 03368,-0.00012186,0.00055038,-0.00030311,0.00914026,0.02063047,0.00901
 309,-0.00021066,-0.00009832,-0.00010293,-0.10155194,-0.09720963,-0.040
 69886,0.00115328,0.00145818,0.00127488,-0.01188797,-0.03071854,-0.0132
 5129,0.10713767,0.00491673,-0.00581029,0.00017318,-0.00012195,0.000266
 67,-0.00012097,-0.01401743,-0.02111061,-0.01267300,-0.00001920,0.00060
 763,0.00007477,-0.09000023,-0.27313674,-0.08521909,-0.00205618,-0.0031
 3782,-0.00107153,-0.00113009,-0.00300903,-0.00170737,0.10246865,0.2992
 4078,-0.00177224,0.00112466,0.00179097,-0.00003957,-0.00020992,-0.0001
 7154,0.00476896,0.01008767,0.00298098,0.00011158,-0.00000192,0.0001705
 8,-0.03865229,-0.08772936,-0.09816838,-0.00059027,-0.00196883,0.000093
 45,0.00602644,0.01448288,0.00574087,0.04418145,0.09616122,0.09841206,0
 .00037200,-0.00242807,0.00190656,0.00000204,-0.00001475,0.00027000,-0.
 00420023,0.00345691,-0.02673937,-0.00020262,0.00003813,-0.00017703,-0.
 06022246,0.00024767,-0.01954528,0.00085260,-0.00000460,-0.00261917,0.0
 0343094,-0.00161581,0.03678079,-0.00077243,0.00157130,-0.01469047,0.06
 311236,-0.00149016,0.00376634,-0.00192102,0.00018861,-0.00032989,0.000
 53295,0.00577264,-0.00447434,0.03265347,-0.00000214,0.00006551,0.00007
 185,-0.00115952,-0.05938298,0.00744351,-0.00158981,0.00148210,0.001176
 22,0.00016143,0.00002980,0.00615460,-0.00124195,0.00365394,-0.03380976
 ,-0.00489350,0.05982053,0.00153873,-0.00064752,0.00306587,-0.00020226,
 0.00011233,-0.00037402,-0.00120725,-0.00228131,-0.00977628,-0.00015508
 ,0.00017970,-0.00022407,-0.02163359,0.01279393,-0.34523836,0.00121909,
 0.00045080,-0.00053192,-0.00212126,0.00018170,-0.01397873,0.00022541,0
 .00182698,-0.01065337,0.02503826,-0.01371961,0.37554247,-0.00102333,0.
 00099194,0.00132006,0.00007396,0.00112692,0.00084744,-0.01158016,0.030
 34643,0.02942138,0.00216019,0.00811195,0.00041734,-0.00304235,-0.00319
 652,0.00336296,-0.31339140,0.22149872,0.19139071,-0.00138622,0.0018119
 8,-0.00066470,0.00011259,0.00047827,0.00017616,0.00013304,0.00004983,-
 0.00086961,0.29594613,-0.00573096,0.00064006,0.00289258,-0.00058803,0.
 00199452,0.00127511,-0.00068279,-0.00092987,-0.01413753,0.00579181,0.0
 0424914,0.00199464,-0.00181218,0.00109058,0.00026804,0.24004442,-0.425
 03567,-0.24700953,0.00068492,0.00032625,-0.00011646,-0.00058778,0.0009
 8167,0.00033783,-0.00007350,-0.00040713,0.00031157,-0.25710497,0.50556
 063,-0.00128256,-0.00087572,0.00352662,-0.00023511,0.00047383,0.000411
 31,0.01862860,-0.02736824,0.00891498,-0.00075989,0.00102322,-0.0048406
 9,0.00390121,0.00505689,-0.00474284,0.19847561,-0.24085044,-0.27356799
 ,0.00154702,-0.00192144,0.00078985,-0.00045341,0.00021199,0.00014215,0
 .00042787,-0.00051833,0.00058929,-0.22103522,0.31512713,0.26442282,-0.
 25810877,0.19913701,0.10683425,-0.01509953,0.02880483,0.00376630,0.014
 95618,-0.01678155,-0.00980494,-0.00018362,-0.00018686,0.00005734,-0.00
 174896,-0.00194014,-0.00054882,0.00087135,-0.00741358,-0.00182512,0.00
 006474,0.00001459,-0.00016023,0.00063208,-0.00070005,0.00028912,0.0000
 3375,0.00012887,0.00009634,-0.00196914,0.00244748,0.00017557,0.2611225
 0,0.19393692,-0.30522011,-0.11561362,-0.01466549,0.01500117,0.00876917
 ,0.02492276,-0.01960469,-0.00221393,-0.00025564,-0.00009903,0.00000554
 ,-0.00409766,-0.00517868,-0.00313667,0.00029655,-0.00676357,-0.0039305
 2,-0.00004514,0.00041599,-0.00010066,0.00124210,-0.00128603,0.00059157
 ,0.00003481,0.00009085,0.00018979,0.00194870,0.00383959,0.00159992,-0.
 20411875,0.31667096,0.08454991,-0.09263950,-0.04225727,0.00935038,-0.0
 1277553,-0.00460018,0.00462593,-0.00981186,-0.00733814,0.00010750,0.00
 006631,0.00014328,0.00068144,0.00314814,0.00036414,0.00047628,0.001939
 21,0.00453331,0.00031711,-0.00033777,-0.00007133,-0.00032274,0.0010679
 8,0.00010681,-0.00016975,0.00020631,-0.00019401,-0.00014620,-0.0002861
 7,-0.00327255,-0.09893632,0.11305605,0.05483300,-0.01010702,-0.0004578
 2,0.00422734,-0.00008207,-0.00250947,-0.00089287,-0.01573257,-0.041904
 36,-0.00948264,-0.48521463,-0.01799169,0.18635728,-0.00124954,-0.00109
 271,0.00086275,-0.19480264,-0.10999147,0.00158953,-0.00074520,-0.00059
 685,-0.00028701,-0.00204298,-0.00126018,-0.00049944,-0.00001688,0.0000
 6420,-0.00054562,0.04055742,0.01469200,0.00268937,0.00061242,0.0008823
 7,0.00030386,0.66985312,-0.00429054,0.00228521,0.00159943,0.00002953,-
 0.00041362,0.00019840,-0.00772084,-0.01134963,-0.00699567,-0.07146291,
 -0.05403537,0.01283225,0.00080890,-0.00372818,0.00006491,-0.07434252,-
 0.25593472,-0.05234317,-0.00024201,0.00165698,-0.00025558,-0.00006128,
 0.00185260,0.00121851,-0.00041590,-0.00012215,-0.00067706,-0.00567305,
 -0.09301102,-0.05241590,0.00251373,0.00227678,-0.00090108,0.16105983,0
 .41091690,0.00355718,0.00000759,0.00041579,0.00014746,0.00086135,0.000
 66706,0.00863764,0.00873910,0.01075881,0.16151444,-0.00961463,-0.08965
 705,0.00103256,0.00005010,-0.00016856,0.01722899,-0.03692303,-0.096133
 07,0.00018264,-0.00037268,0.00042560,0.00019255,0.00038784,-0.00058939
 ,0.00077445,0.00018028,0.00065896,-0.00669702,-0.06159064,0.00650903,0
 .00096193,0.00068961,-0.00073948,-0.18494088,0.09769797,0.16516421,0.0
 0004295,-0.01008722,-0.01825491,0.00062632,0.00021483,-0.00032945,-0.0
 6588306,-0.00001537,-0.01757290,-0.00004766,0.00055117,-0.00076454,-0.
 00099686,0.00474624,-0.02697294,0.00397387,-0.00183442,0.04399734,0.00
 090648,-0.00161054,0.00008168,0.00093400,-0.00012964,0.00069058,-0.002
 52212,0.00401149,-0.00138314,-0.00659074,0.00291958,-0.00207906,-0.001
 18301,-0.00008152,-0.00083739,-0.00102943,-0.00020294,-0.00259196,0.07
 176926,-0.00817627,-0.01349645,-0.04008156,0.00102121,0.00118619,0.000
 78162,-0.00220271,-0.05623771,0.00561086,0.00017868,-0.00004493,-0.000
 04045,0.00550543,-0.00343595,0.03215088,0.00268558,0.00095263,0.002497
 17,-0.00049485,0.00140997,-0.00109227,-0.00094310,0.00088724,-0.000284
 54,0.00409730,-0.00419258,0.00127869,-0.00039019,0.00070124,0.00045709
 ,-0.00190557,-0.00014323,-0.00273208,-0.00089386,-0.00039378,-0.000112
 85,0.00151834,0.07280736,-0.00480353,-0.01200829,-0.00540302,-0.000291
 61,-0.00045488,0.00056011,-0.02001738,0.00850902,-0.30937667,0.0004109
 1,0.00018265,0.00037319,-0.00089708,0.00125793,-0.01085719,-0.00110608
 ,-0.00185448,-0.02254357,-0.00045593,-0.00064107,0.00073362,0.00021127
 ,0.00088800,0.00014482,-0.00125686,0.00154952,0.00111418,0.00247668,0.
 00093343,0.00111802,-0.00090540,0.00009376,-0.00150757,0.00061833,-0.0
 0002301,0.00268808,0.02601668,0.00156743,0.34295600\\0.00000012,-0.000
 01836,0.00000114,-0.00000381,0.00000278,-0.00000271,-0.00005686,0.0000
 0849,0.00003012,-0.00000104,0.00000215,0.00000410,0.00000496,0.0000014
 3,-0.00000843,0.00002429,-0.00000410,-0.00000917,-0.00000096,0.0000016
 3,-0.00000044,-0.00000310,0.00000060,0.00000011,0.00000080,-0.00000234
 ,0.00000400,-0.00000842,0.00002701,0.00002318,0.00000294,0.00000531,-0
 .00000399,0.00000582,-0.00002196,-0.00001031,0.00003527,-0.00000266,-0
 .00002760\\\@


 NOT WHAT WE DID SHALL BE THE TEST
 WHEN ACT AND WILL ARE DONE,
 BUT WHAT OUR LORD INFERS WE WOULD-
 HAD WE DIVINER BEEN.
           EMILY DICKINSON  POEMS NO. CLXXV
 Job cpu time:       0 days  0 hours  0 minutes  9.9 seconds.
 File lengths (MBytes):  RWF=     13 Int=      0 D2E=      0 Chk=      2 Scr=      1
 Normal termination of Gaussian 09 at Sat Apr 16 13:40:21 2016.
