 Entering Gaussian System, Link 0=g09
 Input=Ala-S-opt-freq-qst2-tsa3-6-31g.com
 Output=Ala-S-opt-freq-qst2-tsa3-6-31g.log
 Initial command:
 /usr/local/gau/g09/l1.exe "/tmp/Gau-5509.inp" -scrdir="/tmp/"
 Entering Link 1 = /usr/local/gau/g09/l1.exe PID=      5511.
  
 Copyright (c) 1988,1990,1992,1993,1995,1998,2003,2009,2013,
            Gaussian, Inc.  All Rights Reserved.
  
 This is part of the Gaussian(R) 09 program.  It is based on
 the Gaussian(R) 03 system (copyright 2003, Gaussian, Inc.),
 the Gaussian(R) 98 system (copyright 1998, Gaussian, Inc.),
 the Gaussian(R) 94 system (copyright 1995, Gaussian, Inc.),
 the Gaussian 92(TM) system (copyright 1992, Gaussian, Inc.),
 the Gaussian 90(TM) system (copyright 1990, Gaussian, Inc.),
 the Gaussian 88(TM) system (copyright 1988, Gaussian, Inc.),
 the Gaussian 86(TM) system (copyright 1986, Carnegie Mellon
 University), and the Gaussian 82(TM) system (copyright 1983,
 Carnegie Mellon University). Gaussian is a federally registered
 trademark of Gaussian, Inc.
  
 This software contains proprietary and confidential information,
 including trade secrets, belonging to Gaussian, Inc.
  
 This software is provided under written license and may be
 used, copied, transmitted, or stored only in accord with that
 written license.
  
 The following legend is applicable only to US Government
 contracts under FAR:
  
                    RESTRICTED RIGHTS LEGEND
  
 Use, reproduction and disclosure by the US Government is
 subject to restrictions as set forth in subparagraphs (a)
 and (c) of the Commercial Computer Software - Restricted
 Rights clause in FAR 52.227-19.
  
 Gaussian, Inc.
 340 Quinnipiac St., Bldg. 40, Wallingford CT 06492
  
  
 ---------------------------------------------------------------
 Warning -- This program may not be used in any manner that
 competes with the business of Gaussian, Inc. or will provide
 assistance to any competitor of Gaussian, Inc.  The licensee
 of this program is prohibited from giving any competitor of
 Gaussian, Inc. access to this program.  By using this program,
 the user acknowledges that Gaussian, Inc. is engaged in the
 business of creating and licensing software in the field of
 computational chemistry and represents and warrants to the
 licensee that it is not a competitor of Gaussian, Inc. and that
 it will not use this program in any manner prohibited above.
 ---------------------------------------------------------------
  

 Cite this work as:
 Gaussian 09, Revision D.01,
 M. J. Frisch, G. W. Trucks, H. B. Schlegel, G. E. Scuseria, 
 M. A. Robb, J. R. Cheeseman, G. Scalmani, V. Barone, B. Mennucci, 
 G. A. Petersson, H. Nakatsuji, M. Caricato, X. Li, H. P. Hratchian, 
 A. F. Izmaylov, J. Bloino, G. Zheng, J. L. Sonnenberg, M. Hada, 
 M. Ehara, K. Toyota, R. Fukuda, J. Hasegawa, M. Ishida, T. Nakajima, 
 Y. Honda, O. Kitao, H. Nakai, T. Vreven, J. A. Montgomery, Jr., 
 J. E. Peralta, F. Ogliaro, M. Bearpark, J. J. Heyd, E. Brothers, 
 K. N. Kudin, V. N. Staroverov, T. Keith, R. Kobayashi, J. Normand, 
 K. Raghavachari, A. Rendell, J. C. Burant, S. S. Iyengar, J. Tomasi, 
 M. Cossi, N. Rega, J. M. Millam, M. Klene, J. E. Knox, J. B. Cross, 
 V. Bakken, C. Adamo, J. Jaramillo, R. Gomperts, R. E. Stratmann, 
 O. Yazyev, A. J. Austin, R. Cammi, C. Pomelli, J. W. Ochterski, 
 R. L. Martin, K. Morokuma, V. G. Zakrzewski, G. A. Voth, 
 P. Salvador, J. J. Dannenberg, S. Dapprich, A. D. Daniels, 
 O. Farkas, J. B. Foresman, J. V. Ortiz, J. Cioslowski, 
 and D. J. Fox, Gaussian, Inc., Wallingford CT, 2013.
 
 ******************************************
 Gaussian 09:  ES64L-G09RevD.01 24-Apr-2013
                14-Apr-2016 
 ******************************************
 %chk=Ala-S-opt-freq-ts3-6-31g.chk
 ----------------------------
 # opt=qst2 freq rb3lyp/6-31g
 ----------------------------
 1/5=1,14=-1,18=20,26=3,27=202,38=1/1,3;
 2/9=110,12=2,17=6,18=5,40=1/2;
 3/5=1,6=6,11=2,16=1,25=1,30=1,71=1,74=-5,116=1/1,2,3;
 4//1;
 5/5=2,38=5/2;
 6/7=2,8=2,9=2,10=2,28=1/1;
 7//1,2,3,16;
 1/5=1,14=-1,18=20,26=3,27=202/3(2);
 2/9=110/2;
 99//99;
 2/9=110/2;
 3/5=1,6=6,11=2,16=1,25=1,30=1,71=1,74=-5,116=1/1,2,3;
 4/5=5,16=3,69=1/1;
 5/5=2,38=5/2;
 7//1,2,3,16;
 1/5=1,14=-1,18=20,26=3,27=202/3(-5);
 2/9=110/2;
 6/7=2,8=2,9=2,10=2,19=2,28=1/1;
 99/9=1/99;
 ------------------------------
 Ala-S-opt-freq-qst2-tsa3-6-31g
 ------------------------------
 Symbolic Z-matrix:
 Charge =  0 Multiplicity = 1
 N                     1.28352   1.30693   0.02725 
 H                     2.28075   1.38286  -0.05522 
 C                     0.66558   0.05851   0.00201 
 H                    -1.90772  -1.4236   -0.70361 
 C                     1.5736   -1.13958  -0.00567 
 C                    -0.67546  -0.04799  -0.00447 
 H                     2.21912  -1.14249   0.88299 
 H                     0.99234  -2.06208  -0.00865 
 H                     2.22883  -1.13253  -0.8882 
 O                    -1.48475   1.10322  -0.09577 
 H                     0.72117   2.13471  -0.06948 
 O                    -1.36571  -1.26352   0.09964 
 H                    -2.09777   1.15137   0.66917 
 
 -----------------------
 Ala-S-opt-freq-p3-6-31g
 -----------------------
 Symbolic Z-matrix:
 Charge =  0 Multiplicity = 1
 N                     1.41479   1.13555   0.04268 
 H                     2.33636   1.24115   0.43525 
 C                     0.68212  -0.06882   0.3785 
 H                    -2.47599  -0.79159  -0.00219 
 C                     1.25296  -1.30611  -0.34804 
 C                    -0.77712   0.15884   0.03512 
 H                     1.2079   -1.15375  -1.43022 
 H                     2.30383  -1.43505  -0.06739 
 H                     0.70247  -2.21192  -0.08031 
 O                    -1.27486   1.22898  -0.32775 
 H                     0.87036   1.97901  -0.06209 
 O                    -1.53531  -0.97721   0.209 
 H                     0.68517  -0.29436   1.4648 
 
 Iteration  1 RMS(Cart)=  0.10896106 RMS(Int)=  0.96221781
 Iteration  2 RMS(Cart)=  0.08408645 RMS(Int)=  0.92640733
 Iteration  3 RMS(Cart)=  0.07377146 RMS(Int)=  0.90127762
 Iteration  4 RMS(Cart)=  0.06782770 RMS(Int)=  0.88627496
 Iteration  5 RMS(Cart)=  0.06843208 RMS(Int)=  0.87841599
 Iteration  6 RMS(Cart)=  0.06561688 RMS(Int)=  0.87537629
 Iteration  7 RMS(Cart)=  0.06124171 RMS(Int)=  0.87289543
 Iteration  8 RMS(Cart)=  0.09419108 RMS(Int)=  0.86144864
 Iteration  9 RMS(Cart)=  0.06037480 RMS(Int)=  0.85945480
 Iteration 10 RMS(Cart)=  0.04052752 RMS(Int)=  0.86162592
 Iteration 11 RMS(Cart)=  0.02271637 RMS(Int)=  0.86531579
 Iteration 12 RMS(Cart)=  0.01569369 RMS(Int)=  0.86909829
 Iteration 13 RMS(Cart)=  0.01420321 RMS(Int)=  0.87289630
 Iteration 14 RMS(Cart)=  0.01337835 RMS(Int)=  0.87659001
 Iteration 15 RMS(Cart)=  0.01256701 RMS(Int)=  0.88006613
 Iteration 16 RMS(Cart)=  0.00825969 RMS(Int)=  0.88249922
 Iteration 17 RMS(Cart)=  0.00444606 RMS(Int)=  0.88404302
 Iteration 18 RMS(Cart)=  0.00291689 RMS(Int)=  0.88520004
 Iteration 19 RMS(Cart)=  0.00230702 RMS(Int)=  0.88613201
 Iteration 20 RMS(Cart)=  0.00208315 RMS(Int)=  0.88693065
 Iteration 21 RMS(Cart)=  0.00202627 RMS(Int)=  0.88765502
 Iteration 22 RMS(Cart)=  0.00203986 RMS(Int)=  0.88834317
 Iteration 23 RMS(Cart)=  0.00208313 RMS(Int)=  0.88901926
 Iteration 24 RMS(Cart)=  0.00213915 RMS(Int)=  0.88969848
 Iteration 25 RMS(Cart)=  0.00220083 RMS(Int)=  0.89039037
 Iteration 26 RMS(Cart)=  0.00226505 RMS(Int)=  0.89110092
 Iteration 27 RMS(Cart)=  0.00233028 RMS(Int)=  0.89183392
 Iteration 28 RMS(Cart)=  0.00239568 RMS(Int)=  0.89259178
 Iteration 29 RMS(Cart)=  0.00246065 RMS(Int)=  0.89337602
 Iteration 30 RMS(Cart)=  0.00252472 RMS(Int)=  0.89418758
 Iteration 31 RMS(Cart)=  0.00258746 RMS(Int)=  0.89502700
 Iteration 32 RMS(Cart)=  0.00264842 RMS(Int)=  0.89589450
 Iteration 33 RMS(Cart)=  0.00270719 RMS(Int)=  0.89679005
 Iteration 34 RMS(Cart)=  0.00276331 RMS(Int)=  0.89771340
 Iteration 35 RMS(Cart)=  0.00281634 RMS(Int)=  0.89866408
 Iteration 36 RMS(Cart)=  0.00286580 RMS(Int)=  0.89964141
 Iteration 37 RMS(Cart)=  0.00291123 RMS(Int)=  0.90064447
 Iteration 38 RMS(Cart)=  0.00295216 RMS(Int)=  0.90167216
 Iteration 39 RMS(Cart)=  0.00298814 RMS(Int)=  0.90272313
 Iteration 40 RMS(Cart)=  0.00301872 RMS(Int)=  0.90379582
 Iteration 41 RMS(Cart)=  0.00304349 RMS(Int)=  0.90488842
 Iteration 42 RMS(Cart)=  0.00306206 RMS(Int)=  0.90599894
 Iteration 43 RMS(Cart)=  0.00307411 RMS(Int)=  0.90712517
 Iteration 44 RMS(Cart)=  0.00307935 RMS(Int)=  0.90826468
 Iteration 45 RMS(Cart)=  0.00307758 RMS(Int)=  0.90941490
 Iteration 46 RMS(Cart)=  0.00306863 RMS(Int)=  0.91057308
 Iteration 47 RMS(Cart)=  0.00305244 RMS(Int)=  0.91173635
 Iteration 48 RMS(Cart)=  0.00302903 RMS(Int)=  0.91290175
 Iteration 49 RMS(Cart)=  0.00299848 RMS(Int)=  0.91406626
 Iteration 50 RMS(Cart)=  0.00296097 RMS(Int)=  0.91522680
 Iteration 51 RMS(Cart)=  0.00291675 RMS(Int)=  0.91638034
 Iteration 52 RMS(Cart)=  0.00286615 RMS(Int)=  0.91752386
 Iteration 53 RMS(Cart)=  0.00280958 RMS(Int)=  0.91865445
 Iteration 54 RMS(Cart)=  0.00274748 RMS(Int)=  0.91976930
 Iteration 55 RMS(Cart)=  0.00268037 RMS(Int)=  0.92086574
 Iteration 56 RMS(Cart)=  0.00260879 RMS(Int)=  0.92194129
 Iteration 57 RMS(Cart)=  0.00253333 RMS(Int)=  0.92299366
 Iteration 58 RMS(Cart)=  0.00202052 RMS(Int)=  0.92386238
 Iteration 59 RMS(Cart)=  0.00161211 RMS(Int)=  0.92456124
 Iteration 60 RMS(Cart)=  0.00127879 RMS(Int)=  0.92512146
 Iteration 61 RMS(Cart)=  0.00101254 RMS(Int)=  0.92556897
 Iteration 62 RMS(Cart)=  0.00080088 RMS(Int)=  0.92592549
 Iteration 63 RMS(Cart)=  0.00063297 RMS(Int)=  0.92620889
 Iteration 64 RMS(Cart)=  0.00049995 RMS(Int)=  0.92643377
 Iteration 65 RMS(Cart)=  0.00039470 RMS(Int)=  0.92661196
 Iteration 66 RMS(Cart)=  0.00031149 RMS(Int)=  0.92675300
 Iteration 67 RMS(Cart)=  0.00024575 RMS(Int)=  0.92686453
 Iteration 68 RMS(Cart)=  0.00019383 RMS(Int)=  0.92695266
 Iteration 69 RMS(Cart)=  0.00015286 RMS(Int)=  0.92702227
 Iteration 70 RMS(Cart)=  0.00012053 RMS(Int)=  0.92707721
 Iteration 71 RMS(Cart)=  0.00009502 RMS(Int)=  0.92712058
 Iteration 72 RMS(Cart)=  0.00007491 RMS(Int)=  0.92715478
 Iteration 73 RMS(Cart)=  0.00005905 RMS(Int)=  0.92718176
 Iteration 74 RMS(Cart)=  0.00004654 RMS(Int)=  0.92720304
 Iteration 75 RMS(Cart)=  0.00003668 RMS(Int)=  0.92721981
 Iteration 76 RMS(Cart)=  0.00002891 RMS(Int)=  0.92723304
 Iteration 77 RMS(Cart)=  0.00002279 RMS(Int)=  0.92724347
 Iteration 78 RMS(Cart)=  0.00001796 RMS(Int)=  0.92725168
 Iteration 79 RMS(Cart)=  0.00001415 RMS(Int)=  0.92725816
 Iteration 80 RMS(Cart)=  0.00001115 RMS(Int)=  0.92726327
 Iteration 81 RMS(Cart)=  0.00000879 RMS(Int)=  0.92726729
 Iteration 82 RMS(Cart)=  0.00000693 RMS(Int)=  0.92727046
 Iteration 83 RMS(Cart)=  0.00000546 RMS(Int)=  0.92727296
 Iteration 84 RMS(Cart)=  0.00000430 RMS(Int)=  0.92727493
 Iteration 85 RMS(Cart)=  0.00000339 RMS(Int)=  0.92727648
 Iteration 86 RMS(Cart)=  0.00000267 RMS(Int)=  0.92727771
 Iteration 87 RMS(Cart)=  0.00000211 RMS(Int)=  0.92727867
 Iteration 88 RMS(Cart)=  0.00000166 RMS(Int)=  0.92727943
 Iteration 89 RMS(Cart)=  0.00000131 RMS(Int)=  0.92728003
 Iteration 90 RMS(Cart)=  0.00000103 RMS(Int)=  0.92728050
 Iteration 91 RMS(Cart)=  0.00000081 RMS(Int)=  0.92728087
 Iteration  1 RMS(Cart)=  0.00000064 RMS(Int)=  0.92728117
 Iteration  1 RMS(Cart)=  0.00000050 RMS(Int)=  0.92728140
 Iteration  1 RMS(Cart)=  0.00000040 RMS(Int)=  0.92728158
 Iteration  1 RMS(Cart)=  0.00000031 RMS(Int)=  0.92728172
 Iteration  1 RMS(Cart)=  0.00000025 RMS(Int)=  0.92728183
 Iteration  1 RMS(Cart)=  0.00000019 RMS(Int)=  0.92728192
 Iteration  1 RMS(Cart)=  0.00000015 RMS(Int)=  0.92728199
 Iteration  1 RMS(Cart)=  0.00000012 RMS(Int)=  0.92728205
 Iteration  1 RMS(Cart)=  0.00000010 RMS(Int)=  0.92728209
   Var     Old X     New X   DQ Goal   DQ Act.  Rel. Err.   Overall
     1    1.8964    1.8999    0.0035    0.0035
     2    2.6328    2.6857    0.0529    0.0529    1.0000
     3    1.8999    1.9037    0.0037    0.0037
     4    2.8409    2.8795    0.0386    0.0386    1.0000
     5    2.5422    2.5869    0.1616    0.0447    0.2765
     6    5.7553    3.9704   -1.8294   -1.7850    0.9757
     7    1.8560    1.8557   -0.0003   -0.0003
     8    2.0756    2.0713   -0.0043   -0.0043
     9    2.0605    2.0652    0.0047    0.0047
    10    2.0772    2.0716   -0.0056   -0.0056
    11    2.6648    2.4113   -0.1657   -0.2535    1.5297
    12    2.6489    2.6254   -0.0235   -0.0235    1.0000
    13    1.8547    3.9069    1.9658    2.0523    1.0440
    14    2.1026    2.1060   -0.0272    0.0034   -0.1245
    15    2.0779    2.0864   -0.0222    0.0086   -0.3851
    16    2.0805    2.0874   -0.0238    0.0068   -0.2863
    17    2.0334    1.9736   -0.0418   -0.0598    1.4305
    18    2.1097    2.0981   -0.1122   -0.0116    0.1030
    19    1.6478    1.8223    0.1642    0.1745    1.0625
    20    2.1400    2.0566   -0.0954   -0.0834    0.8748
    21    2.5592    2.3398   -0.3435   -0.2194    0.6387
    22    0.5053    1.0031    0.6616    0.4978    0.7524
    23    1.9315    1.9141   -0.0076   -0.0174
    24    1.9308    1.8766   -0.0127   -0.0542    4.2759
    25    1.9380    2.0108    0.0019    0.0727
    26    1.8894    1.7244   -0.0020   -0.1650
    27    1.8747    1.9751    0.0199    0.1004    5.0501
    28    1.8976    1.9395    0.0009    0.0419
    29    2.1034    2.0700    0.0459   -0.0334   -0.7279
    30    2.1642    2.1039   -0.1032   -0.0603    0.5842
    31    2.0154    2.1048    0.0571    0.0893    1.5637
    32    1.9263    1.0320   -0.6966   -0.8943    1.2838
    33    1.9309    1.9267   -0.0042   -0.0042
    34    0.1095   -0.5599   -0.6921   -0.6695    0.9673
    35   -3.0406   -3.1196    2.9493   -0.0790   -0.0268
    36    3.0248    2.1080   -1.0918   -0.9168    0.8397
    37    3.0243    2.6710   -0.2731   -0.3533    1.2936
    38   -0.1259    0.1113    0.2267    0.2371    1.0458
    39   -0.3436   -0.9442   -0.6728   -0.6006    0.8927
    40    1.0308    0.3082   -1.0307   -0.7226    0.7011
    41    3.1249    2.1661   -1.0459   -0.9588    0.9167
    42   -1.0496   -1.9442    2.0897   -0.8946   -0.4281
    43   -2.1021    2.8828    1.5926    4.9849    3.1301
    44   -0.0080   -1.5424   -1.5642   -1.5345    0.9810
    45    2.1007    0.6304   -1.5702   -1.4702    0.9364
    46   -1.6919   -2.1714    2.3846   -0.4794   -0.2011
    47    0.4022   -0.3134   -0.7722   -0.7156    0.9268
    48    2.5108    1.8594   -0.7782   -0.6514    0.8371
    49    0.0906   -0.1838   -0.1083   -0.2744    2.5329
    50   -3.0304    2.8563    3.0386    5.8867    1.9373
    51   -3.0601   -2.7167    0.3916    0.3433    0.8767
    52    0.1021    0.3234    0.3969    0.2213    0.5575
    53    0.5517    1.3572    0.7168    0.8055    1.1237
    54   -2.5693   -1.8859    0.7221    0.6834    0.9464
    55   -2.1444   -1.3493    0.7307    0.7951    1.0881
    56    0.9783    1.8938    0.7231    0.9155    1.2660
    57   -2.0678   -2.0101    2.5939    0.0577    0.0223
    58    1.0934    1.0280   -0.5426   -0.0654    0.1206

 GradGradGradGradGradGradGradGradGradGradGradGradGradGradGradGradGradGrad
 Berny optimization.
 Initialization pass.
                           ----------------------------
                           !    Initial Parameters    !
                           ! (Angstroms and Degrees)  !
 --------------------------                            --------------------------
 ! Name  Definition        TS        Reactant  Product Derivative Info.         !
 --------------------------------------------------------------------------------
 ! R1    R(1,2)             1.0054    1.0035    1.0073 estimate D2E/DX2         !
 ! R2    R(1,3)             1.4212    1.3932    1.4492 estimate D2E/DX2         !
 ! R3    R(1,11)            1.0074    1.0054    1.0094 estimate D2E/DX2         !
 ! R4    R(3,5)             1.5238    1.5033    1.5442 estimate D2E/DX2         !
 ! R5    R(3,6)             1.3689    1.3453    1.5163 estimate D2E/DX2         !
 ! R6    R(3,13)            2.101     3.0456    1.1095 estimate D2E/DX2         !
 ! R7    R(4,12)            0.982     0.9822    0.9818 estimate D2E/DX2         !
 ! R8    R(5,7)             1.0961    1.0984    1.0938 estimate D2E/DX2         !
 ! R9    R(5,8)             1.0928    1.0904    1.0953 estimate D2E/DX2         !
 ! R10   R(5,9)             1.0962    1.0992    1.0933 estimate D2E/DX2         !
 ! R11   R(6,10)            1.276     1.4102    1.2348 estimate D2E/DX2         !
 ! R12   R(6,12)            1.3893    1.4017    1.3768 estimate D2E/DX2         !
 ! R13   R(10,13)           2.0675    0.9815    3.062  estimate D2E/DX2         !
 ! A1    A(2,1,3)         120.6632  120.4689  117.3473 estimate D2E/DX2         !
 ! A2    A(2,1,11)        119.5437  119.0538  116.5094 estimate D2E/DX2         !
 ! A3    A(3,1,11)        119.5966  119.2059  116.4768 estimate D2E/DX2         !
 ! A4    A(1,3,5)         113.0789  116.508   111.7137 estimate D2E/DX2         !
 ! A5    A(1,3,6)         120.2123  120.8748  108.0169 estimate D2E/DX2         !
 ! A6    A(1,3,13)        104.4101   94.4119  113.232  estimate D2E/DX2         !
 ! A7    A(5,3,6)         117.8345  122.6153  111.6849 estimate D2E/DX2         !
 ! A8    A(5,3,13)        134.0581  146.6299  107.2635 estimate D2E/DX2         !
 ! A9    A(6,3,13)         57.4735   28.9536  104.768  estimate D2E/DX2         !
 ! A10   A(3,5,7)         109.669   110.6686  109.796  estimate D2E/DX2         !
 ! A11   A(3,5,8)         107.5193  110.6273  109.1736 estimate D2E/DX2         !
 ! A12   A(3,5,9)         115.2088  111.0413  111.2545 estimate D2E/DX2         !
 ! A13   A(7,5,8)          98.8006  108.2564  108.0249 estimate D2E/DX2         !
 ! A14   A(7,5,9)         113.1661  107.4144  109.6922 estimate D2E/DX2         !
 ! A15   A(8,5,9)         111.1271  108.7238  108.8323 estimate D2E/DX2         !
 ! A16   A(3,6,10)        118.6007  120.5154  125.7762 estimate D2E/DX2         !
 ! A17   A(3,6,12)        120.5458  123.9986  112.1769 estimate D2E/DX2         !
 ! A18   A(10,6,12)       120.5943  115.4764  122.0222 estimate D2E/DX2         !
 ! A19   A(6,10,13)        59.1286  110.368    30.541  estimate D2E/DX2         !
 ! A20   A(4,12,6)        110.3896  110.6311  110.1481 estimate D2E/DX2         !
 ! D1    D(2,1,3,5)       -32.0813    6.2762  -73.0341 estimate D2E/DX2         !
 ! D2    D(2,1,3,6)      -178.7427 -174.2135  163.7529 estimate D2E/DX2         !
 ! D3    D(2,1,3,13)      120.7819  173.3094   48.2016 estimate D2E/DX2         !
 ! D4    D(11,1,3,5)      153.0357  173.2777  141.9827 estimate D2E/DX2         !
 ! D5    D(11,1,3,6)        6.3743   -7.2119   18.7697 estimate D2E/DX2         !
 ! D6    D(11,1,3,13)     -54.1011  -19.689   -96.7816 estimate D2E/DX2         !
 ! D7    D(1,3,5,7)        17.6575   59.0596  -59.0536 estimate D2E/DX2         !
 ! D8    D(1,3,5,8)       124.1095  179.0434   59.1975 estimate D2E/DX2         !
 ! D9    D(1,3,5,9)      -111.3938  -60.1392  179.3268 estimate D2E/DX2         !
 ! D10   D(6,3,5,7)       165.1728 -120.4415   62.0527 estimate D2E/DX2         !
 ! D11   D(6,3,5,8)       -88.3752   -0.4577 -179.6961 estimate D2E/DX2         !
 ! D12   D(6,3,5,9)        36.1215  120.3597  -59.5669 estimate D2E/DX2         !
 ! D13   D(13,3,5,7)     -124.4103  -96.9408  176.31   estimate D2E/DX2         !
 ! D14   D(13,3,5,8)      -17.9583   23.043   -65.4388 estimate D2E/DX2         !
 ! D15   D(13,3,5,9)      106.5384  143.8605   54.6904 estimate D2E/DX2         !
 ! D16   D(1,3,6,10)      -10.5304    5.1914   -7.2229 estimate D2E/DX2         !
 ! D17   D(1,3,6,12)      163.6557 -173.6291  174.5648 estimate D2E/DX2         !
 ! D18   D(5,3,6,10)     -155.6578 -175.3288 -130.4533 estimate D2E/DX2         !
 ! D19   D(5,3,6,12)       18.5282    5.8507   51.3344 estimate D2E/DX2         !
 ! D20   D(13,3,6,10)      77.7623   31.6126  113.7548 estimate D2E/DX2         !
 ! D21   D(13,3,6,12)    -108.0516 -147.2079  -64.4575 estimate D2E/DX2         !
 ! D22   D(3,6,10,13)     -77.3114 -122.8659  -39.13   estimate D2E/DX2         !
 ! D23   D(12,6,10,13)    108.5055   56.051   138.9174 estimate D2E/DX2         !
 ! D24   D(3,6,12,4)     -115.1691 -118.4765  178.7588 estimate D2E/DX2         !
 ! D25   D(10,6,12,4)      58.9004   62.649     0.4695 estimate D2E/DX2         !
 --------------------------------------------------------------------------------
 Trust Radius=3.00D-01 FncErr=1.00D-07 GrdErr=1.00D-06
 Number of steps in this run=     68 maximum allowed number of steps=    100.
 Search for a saddle point of order  1.
 GradGradGradGradGradGradGradGradGradGradGradGradGradGradGradGradGradGrad

                          Input orientation:                          
 ---------------------------------------------------------------------
 Center     Atomic      Atomic             Coordinates (Angstroms)
 Number     Number       Type             X           Y           Z
 ---------------------------------------------------------------------
      1          7           0        1.202707    1.348816    0.053986
      2          1           0        2.157743    1.426351    0.358436
      3          6           0        0.486179    0.132479    0.217968
      4          1           0       -1.605276   -1.379640   -1.328121
      5          6           0        1.373686   -1.101967    0.116236
      6          6           0       -0.805583    0.029103   -0.223175
      7          1           0        2.422889   -0.813962    0.248911
      8          1           0        1.241243   -1.678970    1.034842
      9          1           0        1.206373   -1.725582   -0.769667
     10          8           0       -1.412001    1.089672   -0.591439
     11          1           0        0.726528    2.162938   -0.299933
     12          8           0       -1.399968   -1.216544   -0.381800
     13          1           0       -1.161030    0.653121    1.413762
 ---------------------------------------------------------------------
                    Distance matrix (angstroms):
                    1          2          3          4          5
     1  N    0.000000
     2  H    1.005383   0.000000
     3  C    1.421189   2.118481   0.000000
     4  H    4.152044   4.987823   3.008502   0.000000
     5  C    2.457528   2.658157   1.523770   3.322271   0.000000
     6  C    2.419027   3.327443   1.368921   1.960860   2.478656
     7  H    2.490873   2.258606   2.155819   4.362698   1.096073
     8  H    3.182932   3.307646   2.125736   3.711585   1.092845
     9  H    3.182820   3.480288   2.224072   2.887372   1.096228
    10  O    2.705630   3.709271   2.274741   2.584098   3.614435
    11  H    1.007373   1.739076   2.109206   4.363982   3.354342
    12  O    3.680340   4.493345   2.395232   0.981976   2.820341
    13  H    2.814291   3.567331   2.101021   3.442005   3.344950
                    6          7          8          9         10
     6  C    0.000000
     7  H    3.369964   0.000000
     8  H    2.947816   1.661991   0.000000
     9  H    2.724985   1.829881   1.805447   0.000000
    10  O    1.275997   4.363072   4.165318   3.848806   0.000000
    11  H    2.628023   3.469986   4.099611   3.946072   2.410432
    12  O    1.389277   3.895396   3.032608   2.683762   2.315756
    13  H    1.787541   4.043969   3.369443   4.003771   2.067461
                   11         12         13
    11  H    0.000000
    12  O    3.993693   0.000000
    13  H    2.962966   2.603225   0.000000
 Stoichiometry    C3H7NO2
 Framework group  C1[X(C3H7NO2)]
 Deg. of freedom    33
 Full point group                 C1      NOp   1
 Largest Abelian subgroup         C1      NOp   1
 Largest concise Abelian subgroup C1      NOp   1
                         Standard orientation:                         
 ---------------------------------------------------------------------
 Center     Atomic      Atomic             Coordinates (Angstroms)
 Number     Number       Type             X           Y           Z
 ---------------------------------------------------------------------
      1          7           0       -1.469638   -1.091895   -0.093553
      2          1           0       -2.467210   -1.003118   -0.005447
      3          6           0       -0.614533   -0.000233    0.217650
      4          1           0        1.981060    1.093376   -0.839704
      5          6           0       -1.243051    1.355138   -0.082031
      6          6           0        0.740839   -0.122985    0.069850
      7          1           0       -2.329002    1.244399   -0.181152
      8          1           0       -1.218188    1.940494    0.840493
      9          1           0       -0.788261    1.907282   -0.912704
     10          8           0        1.228750   -1.281055   -0.151470
     11          1           0       -1.069485   -1.985475   -0.330602
     12          8           0        1.552708    1.003972    0.039384
     13          1           0        0.627361   -0.728546    1.747861
 ---------------------------------------------------------------------
 Rotational constants (GHZ):      4.8752120      3.4097492      2.1186034
 Standard basis: 6-31G (6D, 7F)
 There are    68 symmetry adapted cartesian basis functions of A   symmetry.
 There are    68 symmetry adapted basis functions of A   symmetry.
    68 basis functions,   160 primitive gaussians,    68 cartesian basis functions
    24 alpha electrons       24 beta electrons
       nuclear repulsion energy       247.8459984342 Hartrees.
 NAtoms=   13 NActive=   13 NUniq=   13 SFac= 1.00D+00 NAtFMM=   60 NAOKFM=F Big=F
 Integral buffers will be    131072 words long.
 Raffenetti 2 integral format.
 Two-electron integral symmetry is turned on.
 One-electron integrals computed using PRISM.
 NBasis=    68 RedAO= T EigKep=  3.43D-03  NBF=    68
 NBsUse=    68 1.00D-06 EigRej= -1.00D+00 NBFU=    68
 ExpMin= 1.61D-01 ExpMax= 5.48D+03 ExpMxC= 8.25D+02 IAcc=1 IRadAn=         1 AccDes= 0.00D+00
 Harris functional with IExCor=  402 and IRadAn=       1 diagonalized for initial guess.
 HarFok:  IExCor=  402 AccDes= 0.00D+00 IRadAn=         1 IDoV= 1 UseB2=F ITyADJ=14
 ICtDFT=  3500011 ScaDFX=  1.000000  1.000000  1.000000  1.000000
 FoFCou: FMM=F IPFlag=           0 FMFlag=      100000 FMFlg1=           0
         NFxFlg=           0 DoJE=T BraDBF=F KetDBF=T FulRan=T
         wScrn=  0.000000 ICntrl=     500 IOpCl=  0 I1Cent=   200000004 NGrid=           0
         NMat0=    1 NMatS0=      1 NMatT0=    0 NMatD0=    1 NMtDS0=    0 NMtDT0=    0
 Petite list used in FoFCou.
 Keep R1 ints in memory in canonical form, NReq=3676491.
 Requested convergence on RMS density matrix=1.00D-08 within 128 cycles.
 Requested convergence on MAX density matrix=1.00D-06.
 Requested convergence on             energy=1.00D-06.
 No special actions if energy rises.
 Integral accuracy reduced to 1.0D-05 until final iterations.
 EnCoef did     2 forward-backward iterations
 EnCoef did     2 forward-backward iterations
 Initial convergence to 1.0D-05 achieved.  Increase integral accuracy.
 SCF Done:  E(RB3LYP) =  -323.461560398     A.U. after   20 cycles
            NFock= 20  Conv=0.41D-08     -V/T= 2.0054

 **********************************************************************

            Population analysis using the SCF density.

 **********************************************************************

 Orbital symmetries:
       Occupied  (A) (A) (A) (A) (A) (A) (A) (A) (A) (A) (A) (A)
                 (A) (A) (A) (A) (A) (A) (A) (A) (A) (A) (A) (A)
       Virtual   (A) (A) (A) (A) (A) (A) (A) (A) (A) (A) (A) (A)
                 (A) (A) (A) (A) (A) (A) (A) (A) (A) (A) (A) (A)
                 (A) (A) (A) (A) (A) (A) (A) (A) (A) (A) (A) (A)
                 (A) (A) (A) (A) (A) (A) (A) (A)
 The electronic state is 1-A.
 Alpha  occ. eigenvalues --  -19.16671 -19.07483 -14.37324 -10.30878 -10.28157
 Alpha  occ. eigenvalues --  -10.20660  -1.07719  -0.98080  -0.92904  -0.78741
 Alpha  occ. eigenvalues --   -0.70009  -0.60112  -0.56107  -0.51540  -0.47375
 Alpha  occ. eigenvalues --   -0.45121  -0.43579  -0.40689  -0.39172  -0.35562
 Alpha  occ. eigenvalues --   -0.31353  -0.29558  -0.23095  -0.18787
 Alpha virt. eigenvalues --   -0.09337   0.03239   0.05941   0.07271   0.11813
 Alpha virt. eigenvalues --    0.12724   0.14550   0.16228   0.21503   0.23450
 Alpha virt. eigenvalues --    0.29798   0.38945   0.40683   0.53049   0.55346
 Alpha virt. eigenvalues --    0.57052   0.60854   0.62074   0.64451   0.67881
 Alpha virt. eigenvalues --    0.70859   0.72104   0.72722   0.78082   0.80451
 Alpha virt. eigenvalues --    0.83137   0.84787   0.87986   0.89739   0.91925
 Alpha virt. eigenvalues --    0.95586   0.97638   0.99843   1.05205   1.08481
 Alpha virt. eigenvalues --    1.10985   1.15962   1.23353   1.28458   1.34164
 Alpha virt. eigenvalues --    1.39972   1.42584   1.79703   2.01590
          Condensed to atoms (all electrons):
               1          2          3          4          5          6
     1  N    6.932903   0.315036   0.317854  -0.000016  -0.075116  -0.060426
     2  H    0.315036   0.397092  -0.025115  -0.000001  -0.004080   0.005754
     3  C    0.317854  -0.025115   5.410859   0.005377   0.265862   0.057665
     4  H   -0.000016  -0.000001   0.005377   0.392672  -0.001037  -0.017415
     5  C   -0.075116  -0.004080   0.265862  -0.001037   5.185191  -0.017079
     6  C   -0.060426   0.005754   0.057665  -0.017415  -0.017079   4.944087
     7  H   -0.007163   0.003694  -0.035425  -0.000005   0.357066   0.004796
     8  H    0.004081   0.000139  -0.024261   0.000034   0.352034  -0.004124
     9  H    0.001796  -0.000147  -0.038065   0.001113   0.377908   0.000822
    10  O   -0.005809   0.000598  -0.155865   0.001316   0.005121   0.490544
    11  H    0.298377  -0.020122  -0.039093  -0.000005   0.006197   0.004974
    12  O    0.002217  -0.000020  -0.159274   0.232437   0.013180   0.165128
    13  H   -0.027180  -0.000357   0.067764   0.002239  -0.002116   0.101995
               7          8          9         10         11         12
     1  N   -0.007163   0.004081   0.001796  -0.005809   0.298377   0.002217
     2  H    0.003694   0.000139  -0.000147   0.000598  -0.020122  -0.000020
     3  C   -0.035425  -0.024261  -0.038065  -0.155865  -0.039093  -0.159274
     4  H   -0.000005   0.000034   0.001113   0.001316  -0.000005   0.232437
     5  C    0.357066   0.352034   0.377908   0.005121   0.006197   0.013180
     6  C    0.004796  -0.004124   0.000822   0.490544   0.004974   0.165128
     7  H    0.603456  -0.041365  -0.024624  -0.000088   0.000025   0.000382
     8  H   -0.041365   0.545972  -0.019859  -0.000057  -0.000182   0.000622
     9  H   -0.024624  -0.019859   0.524862   0.000229  -0.000072   0.003245
    10  O   -0.000088  -0.000057   0.000229   8.345527   0.023741  -0.107220
    11  H    0.000025  -0.000182  -0.000072   0.023741   0.372863   0.000442
    12  O    0.000382   0.000622   0.003245  -0.107220   0.000442   8.434579
    13  H   -0.000069  -0.000068   0.000773  -0.091832   0.005090  -0.011760
              13
     1  N   -0.027180
     2  H   -0.000357
     3  C    0.067764
     4  H    0.002239
     5  C   -0.002116
     6  C    0.101995
     7  H   -0.000069
     8  H   -0.000068
     9  H    0.000773
    10  O   -0.091832
    11  H    0.005090
    12  O   -0.011760
    13  H    0.947624
 Mulliken charges:
               1
     1  N   -0.696554
     2  H    0.327529
     3  C    0.351716
     4  H    0.383290
     5  C   -0.463131
     6  C    0.323277
     7  H    0.139321
     8  H    0.187034
     9  H    0.172019
    10  O   -0.506205
    11  H    0.347766
    12  O   -0.573959
    13  H    0.007897
 Sum of Mulliken charges =   0.00000
 Mulliken charges with hydrogens summed into heavy atoms:
               1
     1  N   -0.021259
     3  C    0.351716
     5  C    0.035243
     6  C    0.331174
    10  O   -0.506205
    12  O   -0.190669
 Electronic spatial extent (au):  <R**2>=            589.1428
 Charge=              0.0000 electrons
 Dipole moment (field-independent basis, Debye):
    X=             -4.5026    Y=              1.7913    Z=             -1.7763  Tot=              5.1611
 Quadrupole moment (field-independent basis, Debye-Ang):
   XX=            -32.9674   YY=            -37.1804   ZZ=            -36.7569
   XY=              5.7989   XZ=             -3.1906   YZ=             -2.2615
 Traceless Quadrupole moment (field-independent basis, Debye-Ang):
   XX=              2.6675   YY=             -1.5455   ZZ=             -1.1220
   XY=              5.7989   XZ=             -3.1906   YZ=             -2.2615
 Octapole moment (field-independent basis, Debye-Ang**2):
  XXX=            -12.9471  YYY=             -3.1956  ZZZ=             -7.0593  XYY=            -11.1223
  XXY=              2.1085  XXZ=             -6.9436  XZZ=              5.9627  YZZ=              3.1180
  YYZ=             -5.0221  XYZ=             -7.0180
 Hexadecapole moment (field-independent basis, Debye-Ang**3):
 XXXX=           -326.5339 YYYY=           -266.3062 ZZZZ=            -71.6869 XXXY=             36.2734
 XXXZ=            -18.6961 YYYX=             24.0756 YYYZ=              1.5596 ZZZX=             -6.1495
 ZZZY=              0.3846 XXYY=           -106.3318 XXZZ=            -72.1515 YYZZ=            -54.5267
 XXYZ=             -7.7965 YYXZ=             -3.0386 ZZXY=              3.7663
 N-N= 2.478459984342D+02 E-N=-1.253190078894D+03  KE= 3.217260970800D+02
 Calling FoFJK, ICntrl=      2127 FMM=F ISym2X=0 I1Cent= 0 IOpClX= 0 NMat=1 NMatS=1 NMatT=0.
 ***** Axes restored to original set *****
 -------------------------------------------------------------------
 Center     Atomic                   Forces (Hartrees/Bohr)
 Number     Number              X              Y              Z
 -------------------------------------------------------------------
      1        7          -0.031271626   -0.038686683    0.001147011
      2        1           0.000377872   -0.002443850   -0.000043128
      3        6           0.101164895    0.020036164    0.009960141
      4        1          -0.007535950    0.004300870    0.003698950
      5        6           0.009292762    0.008216912    0.045313368
      6        6          -0.099573496    0.070536960   -0.007617650
      7        1           0.001797231    0.001409639   -0.014171746
      8        1          -0.009759057   -0.014293933   -0.004107781
      9        1          -0.001600897    0.005284607    0.002981092
     10        8          -0.005121650   -0.003856495   -0.043743017
     11        1          -0.007745222    0.001154764    0.003588278
     12        8           0.015107526   -0.020481878   -0.002775576
     13        1           0.034867612   -0.031177077    0.005770058
 -------------------------------------------------------------------
 Cartesian Forces:  Max     0.101164895 RMS     0.030352050

 GradGradGradGradGradGradGradGradGradGradGradGradGradGradGradGradGradGrad
 Berny optimization.
 FormGI is forming the generalized inverse of G from B-inverse, IUseBI=4.
 Internal  Forces:  Max     0.084914885 RMS     0.017800283
 Search for a saddle point.
 Step number   1 out of a maximum of   68
 All quantities printed in internal units (Hartrees-Bohrs-Radians)
 Second derivative matrix not updated -- first step.
 ITU=  0
 LST/QST climbing along tangent vector
     Eigenvalues ---    0.01248   0.01428   0.01770   0.02291   0.02364
     Eigenvalues ---    0.02608   0.02645   0.03318   0.04147   0.04840
     Eigenvalues ---    0.06189   0.07681   0.15878   0.16000   0.16000
     Eigenvalues ---    0.16000   0.16000   0.16000   0.16000   0.20567
     Eigenvalues ---    0.24356   0.24883   0.30005   0.34103   0.34120
     Eigenvalues ---    0.34486   0.42277   0.46415   0.46754   0.47109
     Eigenvalues ---    0.47444   0.51003   0.694191000.000001000.00000
     Eigenvalues --- 1000.000001000.000001000.000001000.000001000.00000
     Eigenvalues --- 1000.000001000.000001000.000001000.000001000.00000
     Eigenvalues --- 1000.000001000.000001000.000001000.000001000.00000
     Eigenvalues --- 1000.000001000.000001000.000001000.000001000.00000
     Eigenvalues --- 1000.000001000.000001000.00000
 Eigenvectors required to have negative eigenvalues:
                          D3        D1        D2        D6        D4
   1                    0.46734   0.45618   0.42813   0.20562   0.19447
                          D13       D14       D15       D7        D8
   1                   -0.18520  -0.18399  -0.18387  -0.16961  -0.16840
 QST in optimization variable space.
 Eigenvectors 1 and   6 swapped, overlap=  1.0000
                        Tangent   TS vect  // Eig F  Eigenval
   1         R1         0.00070   0.00070   0.03326   0.02608
   2         R2         0.01052   0.01052   0.00264   0.01428
   3         R3         0.00074   0.00074  -0.00808   0.01770
   4         R4         0.00769   0.00769  -0.00251   0.02291
   5         R5         0.03630   0.03630   0.01075   0.02364
   6         R6        -0.38728  -0.38728  -0.00268   0.01248
   7         R7        -0.00007  -0.00007   0.00474   0.02645
   8         R8        -0.00086  -0.00086   0.00282   0.03318
   9         R9         0.00093   0.00093  -0.00963   0.04147
  10         R10       -0.00112  -0.00112   0.00220   0.04840
  11         R11       -0.04334  -0.04334   0.01098   0.06189
  12         R12       -0.00468  -0.00468  -0.01701   0.07681
  13         R13        0.41846   0.41846   0.00308   0.15878
  14         A1        -0.00262  -0.00262   0.00151   0.16000
  15         A2        -0.00161  -0.00161  -0.00176   0.16000
  16         A3        -0.00194  -0.00194   0.00310   0.16000
  17         A4        -0.01345  -0.01345  -0.00380   0.16000
  18         A5        -0.02538  -0.02538  -0.00414   0.16000
  19         A6         0.03816   0.03816  -0.00025   0.16000
  20         A7        -0.01645  -0.01645  -0.01979   0.20567
  21         A8        -0.05917  -0.05917   0.01804   0.24356
  22         A9         0.12626   0.12626   0.01046   0.24883
  23         A10       -0.00215  -0.00215  -0.00146   0.30005
  24         A11       -0.00398  -0.00398  -0.00257   0.34103
  25         A12        0.00256   0.00256   0.00021   0.34120
  26         A13       -0.00608  -0.00608   0.00262   0.34486
  27         A14        0.00630   0.00630  -0.02717   0.42277
  28         A15        0.00161   0.00161   0.00172   0.46415
  29         A16        0.00640   0.00640   0.00019   0.46754
  30         A17       -0.02097  -0.02097   0.04312   0.47109
  31         A18        0.01425   0.01425   0.00654   0.47444
  32         A19       -0.12227  -0.12227  -0.00135   0.51003
  33         A20       -0.00084  -0.00084  -0.00591   0.69419
  34         D1        -0.13780  -0.13780   0.000001000.00000
  35         D2        -0.03939  -0.03939   0.000001000.00000
  36         D3        -0.20642  -0.20642   0.000001000.00000
  37         D4        -0.05757  -0.05757   0.000001000.00000
  38         D5         0.04084   0.04084   0.000001000.00000
  39         D6        -0.12619  -0.12619   0.000001000.00000
  40         D7        -0.19694  -0.19694   0.000001000.00000
  41         D8        -0.20670  -0.20670   0.000001000.00000
  42         D9        -0.20592  -0.20592   0.000001000.00000
  43         D10       -0.29607  -0.29607   0.000001000.00000
  44         D11       -0.30583  -0.30583   0.000001000.00000
  45         D12       -0.30505  -0.30505   0.000001000.00000
  46         D13       -0.14486  -0.14486   0.000001000.00000
  47         D14       -0.15462  -0.15462   0.000001000.00000
  48         D15       -0.15384  -0.15384   0.000001000.00000
  49         D16       -0.02727  -0.02727   0.000001000.00000
  50         D17       -0.02992  -0.02992   0.000001000.00000
  51         D18        0.07492   0.07492   0.000001000.00000
  52         D19        0.07227   0.07227   0.000001000.00000
  53         D20        0.11606   0.11606   0.000001000.00000
  54         D21        0.11341   0.11341   0.000001000.00000
  55         D22        0.11487   0.11487   0.000001000.00000
  56         D23        0.11964   0.11964   0.000001000.00000
  57         D24       -0.08971  -0.08971   0.000001000.00000
  58         D25       -0.09293  -0.09293   0.000001000.00000
 RFO step:  Lambda0=4.876534859D-02 Lambda=-2.07708275D-02.
 Linear search not attempted -- option 19 set.
 Maximum step size (   0.300) exceeded in Quadratic search.
    -- Step size scaled by   0.432
 Iteration  1 RMS(Cart)=  0.08170366 RMS(Int)=  0.00829888
 Iteration  2 RMS(Cart)=  0.01064654 RMS(Int)=  0.00063803
 Iteration  3 RMS(Cart)=  0.00008311 RMS(Int)=  0.00063345
 Iteration  4 RMS(Cart)=  0.00000004 RMS(Int)=  0.00063345
 Variable       Old X    -DE/DX   Delta X   Delta X   Delta X     New X
                                 (Linear)    (Quad)   (Total)
    R1        1.89990   0.00016   0.00000  -0.00038  -0.00038   1.89952
    R2        2.68566  -0.05424   0.00000  -0.03315  -0.03315   2.65250
    R3        1.90366   0.00334   0.00000   0.00101   0.00101   1.90467
    R4        2.87951  -0.00266   0.00000  -0.00674  -0.00674   2.87276
    R5        2.58689   0.08491   0.00000   0.01354   0.01436   2.60124
    R6        3.97035  -0.03331   0.00000   0.15395   0.15421   4.12456
    R7        1.85567  -0.00270   0.00000  -0.00106  -0.00106   1.85461
    R8        2.07128   0.00038   0.00000   0.00078   0.00078   2.07206
    R9        2.06518   0.00527   0.00000   0.00252   0.00252   2.06770
   R10        2.07157  -0.00517   0.00000  -0.00237  -0.00237   2.06920
   R11        2.41128  -0.00757   0.00000   0.02563   0.02619   2.43747
   R12        2.62535   0.01117   0.00000   0.00786   0.00786   2.63322
   R13        3.90693   0.02624   0.00000  -0.21932  -0.22055   3.68639
    A1        2.10597   0.00064   0.00000   0.00228   0.00204   2.10801
    A2        2.08643   0.00502   0.00000   0.00685   0.00661   2.09304
    A3        2.08735  -0.00590   0.00000  -0.00598  -0.00622   2.08113
    A4        1.97360   0.01116   0.00000   0.02399   0.02331   1.99690
    A5        2.09810  -0.02943   0.00000  -0.00713  -0.00910   2.08900
    A6        1.82230   0.00309   0.00000  -0.01911  -0.01904   1.80326
    A7        2.05660   0.02294   0.00000   0.03277   0.03093   2.08753
    A8        2.33976  -0.01429   0.00000   0.00373   0.00365   2.34341
    A9        1.00310  -0.01208   0.00000  -0.08490  -0.08336   0.91974
   A10        1.91408   0.00341   0.00000   0.00729   0.00705   1.92113
   A11        1.87657   0.00987   0.00000   0.01802   0.01790   1.89447
   A12        2.01077  -0.01083   0.00000  -0.02106  -0.02111   1.98966
   A13        1.72440   0.00715   0.00000   0.02834   0.02798   1.75238
   A14        1.97512  -0.00137   0.00000  -0.01225  -0.01240   1.96272
   A15        1.93953  -0.00491   0.00000  -0.01158  -0.01152   1.92801
   A16        2.06997   0.02293   0.00000   0.01534   0.01575   2.08572
   A17        2.10392  -0.02592   0.00000  -0.00867  -0.00896   2.09496
   A18        2.10477   0.00289   0.00000  -0.00784  -0.00809   2.09668
   A19        1.03199  -0.02710   0.00000   0.03006   0.02987   1.06185
   A20        1.92666  -0.00022   0.00000   0.00029   0.00029   1.92695
    D1       -0.55992   0.00766   0.00000   0.12331   0.12315  -0.43677
    D2       -3.11965  -0.00896   0.00000   0.02786   0.02908  -3.09057
    D3        2.10804   0.00239   0.00000   0.13592   0.13486   2.24291
    D4        2.67098   0.01047   0.00000   0.08200   0.08184   2.75281
    D5        0.11125  -0.00616   0.00000  -0.01344  -0.01223   0.09902
    D6       -0.94424   0.00520   0.00000   0.09461   0.09355  -0.85069
    D7        0.30818  -0.00494   0.00000   0.12614   0.12543   0.43362
    D8        2.16612   0.00934   0.00000   0.17023   0.16970   2.33582
    D9       -1.94419   0.00303   0.00000   0.15437   0.15368  -1.79051
   D10        2.88281  -0.00747   0.00000   0.20486   0.20504   3.08785
   D11       -1.54244   0.00681   0.00000   0.24894   0.24931  -1.29313
   D12        0.63044   0.00050   0.00000   0.23308   0.23329   0.86373
   D13       -2.17137  -0.00833   0.00000   0.11361   0.11393  -2.05744
   D14       -0.31343   0.00596   0.00000   0.15769   0.15820  -0.15523
   D15        1.85945  -0.00036   0.00000   0.14184   0.14217   2.00162
   D16       -0.18379   0.00307   0.00000   0.04026   0.04044  -0.14335
   D17        2.85633   0.00217   0.00000   0.02675   0.02633   2.88266
   D18       -2.71674  -0.00942   0.00000  -0.05591  -0.05512  -2.77186
   D19        0.32338  -0.01032   0.00000  -0.06942  -0.06923   0.25415
   D20        1.35721   0.01920   0.00000  -0.03156  -0.03095   1.32626
   D21       -1.88586   0.01830   0.00000  -0.04507  -0.04506  -1.93092
   D22       -1.34934   0.01086   0.00000  -0.07084  -0.07191  -1.42124
   D23        1.89378   0.01350   0.00000  -0.05728  -0.05773   1.83605
   D24       -2.01008  -0.00796   0.00000   0.02858   0.02877  -1.98131
   D25        1.02801  -0.00776   0.00000   0.01615   0.01596   1.04397
         Item               Value     Threshold  Converged?
 Maximum Force            0.084915     0.000450     NO 
 RMS     Force            0.017800     0.000300     NO 
 Maximum Displacement     0.289850     0.001800     NO 
 RMS     Displacement     0.086076     0.001200     NO 
 Predicted change in Energy= 7.445272D-03
 GradGradGradGradGradGradGradGradGradGradGradGradGradGradGradGradGradGrad

                          Input orientation:                          
 ---------------------------------------------------------------------
 Center     Atomic      Atomic             Coordinates (Angstroms)
 Number     Number       Type             X           Y           Z
 ---------------------------------------------------------------------
      1          7           0        1.204863    1.343628    0.026518
      2          1           0        2.180906    1.417307    0.255209
      3          6           0        0.519911    0.128623    0.184078
      4          1           0       -1.630437   -1.377614   -1.274316
      5          6           0        1.406188   -1.104943    0.122141
      6          6           0       -0.800864    0.036681   -0.192618
      7          1           0        2.433786   -0.844485    0.402293
      8          1           0        1.137785   -1.768216    0.949941
      9          1           0        1.355828   -1.642118   -0.830683
     10          8           0       -1.439201    1.103585   -0.536077
     11          1           0        0.697519    2.158589   -0.280591
     12          8           0       -1.400205   -1.213246   -0.334554
     13          1           0       -1.232589    0.688023    1.358666
 ---------------------------------------------------------------------
                    Distance matrix (angstroms):
                    1          2          3          4          5
     1  N    0.000000
     2  H    1.005180   0.000000
     3  C    1.403645   2.103489   0.000000
     4  H    4.139596   4.967631   3.003275   0.000000
     5  C    2.458694   2.641900   1.520200   3.353436   0.000000
     6  C    2.403970   3.316267   1.376518   1.964304   2.504687
     7  H    2.537577   2.280632   2.158118   4.428674   1.096486
     8  H    3.246656   3.423201   2.136893   3.572526   1.094177
     9  H    3.110026   3.349626   2.205453   3.030602   1.094973
    10  O    2.713892   3.718834   2.303757   2.595750   3.661569
    11  H    1.007907   1.742704   2.090029   4.348747   3.363785
    12  O    3.668018   4.482408   2.399258   0.981416   2.845372
    13  H    2.854051   3.660795   2.182623   3.370123   3.421530
                    6          7          8          9         10
     6  C    0.000000
     7  H    3.404898   0.000000
     8  H    2.884692   1.683097   0.000000
     9  H    2.806566   1.821659   1.798351   0.000000
    10  O    1.289854   4.435713   4.134773   3.929105   0.000000
    11  H    2.599112   3.535450   4.138579   3.896325   2.396639
    12  O    1.393439   3.921532   2.898156   2.832982   2.325906
    13  H    1.736985   4.087241   3.437853   4.113722   1.950752
                   11         12         13
    11  H    0.000000
    12  O    3.971477   0.000000
    13  H    2.928318   2.551453   0.000000
 Stoichiometry    C3H7NO2
 Framework group  C1[X(C3H7NO2)]
 Deg. of freedom    33
 Full point group                 C1      NOp   1
 Largest Abelian subgroup         C1      NOp   1
 Largest concise Abelian subgroup C1      NOp   1
                         Standard orientation:                         
 ---------------------------------------------------------------------
 Center     Atomic      Atomic             Coordinates (Angstroms)
 Number     Number       Type             X           Y           Z
 ---------------------------------------------------------------------
      1          7           0       -1.408461   -1.155025   -0.088230
      2          1           0       -2.411882   -1.109776   -0.049679
      3          6           0       -0.627278   -0.021247    0.184751
      4          1           0        1.921863    1.182339   -0.851071
      5          6           0       -1.334332    1.302370   -0.058403
      6          6           0        0.742320   -0.092380    0.066678
      7          1           0       -2.419732    1.169692    0.022742
      8          1           0       -1.150749    1.957544    0.798491
      9          1           0       -1.042125    1.798901   -0.989552
     10          8           0        1.303793   -1.235577   -0.137216
     11          1           0       -0.951879   -2.031971   -0.284126
     12          8           0        1.500676    1.076015    0.028971
     13          1           0        0.793720   -0.737505    1.678599
 ---------------------------------------------------------------------
 Rotational constants (GHZ):      4.8555208      3.3909582      2.0990095
 Standard basis: 6-31G (6D, 7F)
 There are    68 symmetry adapted cartesian basis functions of A   symmetry.
 There are    68 symmetry adapted basis functions of A   symmetry.
    68 basis functions,   160 primitive gaussians,    68 cartesian basis functions
    24 alpha electrons       24 beta electrons
       nuclear repulsion energy       247.3450245863 Hartrees.
 NAtoms=   13 NActive=   13 NUniq=   13 SFac= 1.00D+00 NAtFMM=   60 NAOKFM=F Big=F
 Integral buffers will be    131072 words long.
 Raffenetti 2 integral format.
 Two-electron integral symmetry is turned on.
 One-electron integrals computed using PRISM.
 NBasis=    68 RedAO= T EigKep=  3.41D-03  NBF=    68
 NBsUse=    68 1.00D-06 EigRej= -1.00D+00 NBFU=    68
 Initial guess from the checkpoint file:  "Ala-S-opt-freq-ts3-6-31g.chk"
 B after Tr=     0.000000    0.000000    0.000000
         Rot=    0.999689    0.001064   -0.005604   -0.024266 Ang=   2.86 deg.
 ExpMin= 1.61D-01 ExpMax= 5.48D+03 ExpMxC= 8.25D+02 IAcc=1 IRadAn=         1 AccDes= 0.00D+00
 Harris functional with IExCor=  402 and IRadAn=       1 diagonalized for initial guess.
 HarFok:  IExCor=  402 AccDes= 0.00D+00 IRadAn=         1 IDoV= 1 UseB2=F ITyADJ=14
 ICtDFT=  3500011 ScaDFX=  1.000000  1.000000  1.000000  1.000000
 FoFCou: FMM=F IPFlag=           0 FMFlag=      100000 FMFlg1=           0
         NFxFlg=           0 DoJE=T BraDBF=F KetDBF=T FulRan=T
         wScrn=  0.000000 ICntrl=     500 IOpCl=  0 I1Cent=   200000004 NGrid=           0
         NMat0=    1 NMatS0=      1 NMatT0=    0 NMatD0=    1 NMtDS0=    0 NMtDT0=    0
 Petite list used in FoFCou.
 Keep R1 ints in memory in canonical form, NReq=3676491.
 Requested convergence on RMS density matrix=1.00D-08 within 128 cycles.
 Requested convergence on MAX density matrix=1.00D-06.
 Requested convergence on             energy=1.00D-06.
 No special actions if energy rises.
 Integral accuracy reduced to 1.0D-05 until final iterations.
 Initial convergence to 1.0D-05 achieved.  Increase integral accuracy.
 SCF Done:  E(RB3LYP) =  -323.457554656     A.U. after   16 cycles
            NFock= 16  Conv=0.40D-08     -V/T= 2.0054
 Calling FoFJK, ICntrl=      2127 FMM=F ISym2X=0 I1Cent= 0 IOpClX= 0 NMat=1 NMatS=1 NMatT=0.
 ***** Axes restored to original set *****
 -------------------------------------------------------------------
 Center     Atomic                   Forces (Hartrees/Bohr)
 Number     Number              X              Y              Z
 -------------------------------------------------------------------
      1        7          -0.025464146   -0.032938486    0.000687166
      2        1           0.000521175   -0.001388490    0.000586946
      3        6           0.091207651    0.012732751    0.008132331
      4        1          -0.007398352    0.004171499    0.002678534
      5        6           0.002632175    0.006908636    0.039760822
      6        6          -0.098887964    0.067825365    0.013753126
      7        1           0.003099652    0.001847832   -0.011715383
      8        1          -0.007934209   -0.009168308   -0.006549352
      9        1          -0.000958258    0.003043541    0.000867993
     10        8          -0.002961284   -0.000417060   -0.050065809
     11        1          -0.006791427    0.000978715    0.002025423
     12        8           0.016828386   -0.019413256   -0.004422476
     13        1           0.036106602   -0.034182740    0.004260680
 -------------------------------------------------------------------
 Cartesian Forces:  Max     0.098887964 RMS     0.028935993

 GradGradGradGradGradGradGradGradGradGradGradGradGradGradGradGradGradGrad
 Berny optimization.
 FormGI is forming the generalized inverse of G from B-inverse, IUseBI=4.
 Internal  Forces:  Max     0.078054157 RMS     0.016448727
 Search for a saddle point.
 Step number   2 out of a maximum of   68
 All quantities printed in internal units (Hartrees-Bohrs-Radians)
 Update second derivatives using D2CorX and points    1    2
 ITU=  0  0
 LST/QST climbing along tangent vector
     Eigenvalues ---    0.00786   0.01260   0.01426   0.01817   0.02048
     Eigenvalues ---    0.02556   0.02758   0.03222   0.03976   0.05015
     Eigenvalues ---    0.06087   0.07413   0.15979   0.16000   0.16000
     Eigenvalues ---    0.16000   0.16000   0.16009   0.16046   0.21178
     Eigenvalues ---    0.24290   0.24865   0.29977   0.34099   0.34120
     Eigenvalues ---    0.34484   0.42202   0.46414   0.46754   0.47171
     Eigenvalues ---    0.47433   0.51003   0.687741000.000001000.00000
     Eigenvalues --- 1000.000001000.000001000.000001000.000001000.00000
     Eigenvalues --- 1000.000001000.000001000.000001000.000001000.00000
     Eigenvalues --- 1000.000001000.000001000.000001000.000001000.00000
     Eigenvalues --- 1000.000001000.000001000.000001000.000001000.00000
     Eigenvalues --- 1000.000001000.000001000.00000
 Eigenvectors required to have negative eigenvalues:
                          R13       R6        D11       D12       D10
   1                    0.43556  -0.40121  -0.30488  -0.30199  -0.28749
                          D8        D3        D9        D7        D14
   1                   -0.20150  -0.20120  -0.19861  -0.18411  -0.15147
 QST in optimization variable space.
                        Tangent   TS vect  // Eig F  Eigenval
   1         R1         0.00072   0.00072   0.03575   0.00786
   2         R2         0.00855   0.00855  -0.00174   0.01260
   3         R3         0.00088   0.00088   0.00083   0.01426
   4         R4         0.00767   0.00767  -0.00587   0.01817
   5         R5         0.03688   0.03688  -0.00105   0.02048
   6         R6        -0.40121  -0.40121  -0.00197   0.02556
   7         R7        -0.00016  -0.00016   0.01181   0.02758
   8         R8        -0.00086  -0.00086   0.00668   0.03222
   9         R9         0.00120   0.00120  -0.01200   0.03976
  10         R10       -0.00139  -0.00139   0.00182   0.05015
  11         R11       -0.04690  -0.04690   0.00919   0.06087
  12         R12       -0.00436  -0.00436  -0.01789   0.07413
  13         R13        0.43556   0.43556  -0.00321   0.15979
  14         A1        -0.00158  -0.00158  -0.00002   0.16000
  15         A2        -0.00012  -0.00012  -0.00004   0.16000
  16         A3        -0.00152  -0.00152  -0.00003   0.16000
  17         A4        -0.01379  -0.01379  -0.00005   0.16000
  18         A5        -0.02279  -0.02279   0.00443   0.16009
  19         A6         0.04052   0.04052   0.00203   0.16046
  20         A7        -0.01050  -0.01050  -0.01648   0.21178
  21         A8        -0.05884  -0.05884   0.01818   0.24290
  22         A9         0.12238   0.12238   0.00783   0.24865
  23         A10       -0.00222  -0.00222  -0.00234   0.29977
  24         A11       -0.00479  -0.00479  -0.00112   0.34099
  25         A12        0.00433   0.00433   0.00022   0.34120
  26         A13       -0.01192  -0.01192   0.00127   0.34484
  27         A14        0.00950   0.00950  -0.02265   0.42202
  28         A15        0.00269   0.00269   0.00225   0.46414
  29         A16        0.00920   0.00920   0.00057   0.46754
  30         A17       -0.02395  -0.02395   0.03968   0.47171
  31         A18        0.01373   0.01373   0.00147   0.47433
  32         A19       -0.13157  -0.13157  -0.00088   0.51003
  33         A20       -0.00087  -0.00087  -0.00483   0.68774
  34         D1        -0.13514  -0.13514   0.000001000.00000
  35         D2        -0.03539  -0.03539   0.000001000.00000
  36         D3        -0.20120  -0.20120   0.000001000.00000
  37         D4        -0.05771  -0.05771   0.000001000.00000
  38         D5         0.04205   0.04205   0.000001000.00000
  39         D6        -0.12377  -0.12377   0.000001000.00000
  40         D7        -0.18411  -0.18411   0.000001000.00000
  41         D8        -0.20150  -0.20150   0.000001000.00000
  42         D9        -0.19861  -0.19861   0.000001000.00000
  43         D10       -0.28749  -0.28749   0.000001000.00000
  44         D11       -0.30488  -0.30488   0.000001000.00000
  45         D12       -0.30199  -0.30199   0.000001000.00000
  46         D13       -0.13408  -0.13408   0.000001000.00000
  47         D14       -0.15147  -0.15147   0.000001000.00000
  48         D15       -0.14858  -0.14858   0.000001000.00000
  49         D16       -0.03307  -0.03307   0.000001000.00000
  50         D17       -0.04229  -0.04229   0.000001000.00000
  51         D18        0.07303   0.07303   0.000001000.00000
  52         D19        0.06381   0.06381   0.000001000.00000
  53         D20        0.12266   0.12266   0.000001000.00000
  54         D21        0.11344   0.11344   0.000001000.00000
  55         D22        0.12055   0.12055   0.000001000.00000
  56         D23        0.13232   0.13232   0.000001000.00000
  57         D24       -0.06525  -0.06525   0.000001000.00000
  58         D25       -0.07486  -0.07486   0.000001000.00000
 RFO step:  Lambda0=3.989040475D-02 Lambda=-1.92599349D-02.
 Linear search not attempted -- option 19 set.
 Maximum step size (   0.300) exceeded in Quadratic search.
    -- Step size scaled by   0.560
 Iteration  1 RMS(Cart)=  0.08295289 RMS(Int)=  0.01011501
 Iteration  2 RMS(Cart)=  0.01313742 RMS(Int)=  0.00081193
 Iteration  3 RMS(Cart)=  0.00012456 RMS(Int)=  0.00080463
 Iteration  4 RMS(Cart)=  0.00000007 RMS(Int)=  0.00080463
 Variable       Old X    -DE/DX   Delta X   Delta X   Delta X     New X
                                 (Linear)    (Quad)   (Total)
    R1        1.89952   0.00053   0.00000  -0.00010  -0.00010   1.89942
    R2        2.65250  -0.04472   0.00000  -0.03492  -0.03492   2.61758
    R3        1.90467   0.00360   0.00000   0.00171   0.00171   1.90637
    R4        2.87276  -0.00489   0.00000  -0.01077  -0.01077   2.86199
    R5        2.60124   0.07805   0.00000   0.01956   0.02078   2.62202
    R6        4.12456  -0.03466   0.00000   0.13157   0.13124   4.25580
    R7        1.85461  -0.00153   0.00000  -0.00057  -0.00057   1.85404
    R8        2.07206   0.00035   0.00000   0.00090   0.00090   2.07296
    R9        2.06770   0.00255   0.00000   0.00058   0.00058   2.06827
   R10        2.06920  -0.00221   0.00000  -0.00011  -0.00011   2.06909
   R11        2.43747  -0.00467   0.00000   0.03034   0.03042   2.46789
   R12        2.63322   0.00980   0.00000   0.00888   0.00888   2.64210
   R13        3.68639   0.02413   0.00000  -0.22672  -0.22729   3.45909
    A1        2.10801   0.00132   0.00000   0.00359   0.00330   2.11131
    A2        2.09304   0.00416   0.00000   0.00653   0.00625   2.09929
    A3        2.08113  -0.00557   0.00000  -0.00827  -0.00856   2.07258
    A4        1.99690   0.00956   0.00000   0.02657   0.02578   2.02269
    A5        2.08900  -0.02732   0.00000  -0.01575  -0.01747   2.07152
    A6        1.80326   0.00335   0.00000  -0.01525  -0.01574   1.78752
    A7        2.08753   0.02087   0.00000   0.03263   0.03039   2.11792
    A8        2.34341  -0.01229   0.00000   0.00257   0.00288   2.34629
    A9        0.91974  -0.01245   0.00000  -0.09794  -0.09631   0.82343
   A10        1.92113   0.00288   0.00000   0.00857   0.00828   1.92941
   A11        1.89447   0.00579   0.00000   0.01482   0.01464   1.90911
   A12        1.98966  -0.00779   0.00000  -0.02153  -0.02161   1.96805
   A13        1.75238   0.00635   0.00000   0.03505   0.03462   1.78700
   A14        1.96272  -0.00193   0.00000  -0.01715  -0.01731   1.94541
   A15        1.92801  -0.00325   0.00000  -0.01186  -0.01184   1.91618
   A16        2.08572   0.01883   0.00000   0.01355   0.01397   2.09970
   A17        2.09496  -0.02464   0.00000  -0.01323  -0.01407   2.08089
   A18        2.09668   0.00521   0.00000  -0.00486  -0.00540   2.09128
   A19        1.06185  -0.03109   0.00000   0.00617   0.00540   1.06725
   A20        1.92695  -0.00058   0.00000  -0.00056  -0.00056   1.92639
    D1       -0.43677   0.00537   0.00000   0.12017   0.11983  -0.31694
    D2       -3.09057  -0.00754   0.00000   0.02078   0.02222  -3.06834
    D3        2.24291   0.00189   0.00000   0.14037   0.13926   2.38217
    D4        2.75281   0.00746   0.00000   0.07554   0.07520   2.82801
    D5        0.09902  -0.00545   0.00000  -0.02386  -0.02241   0.07661
    D6       -0.85069   0.00398   0.00000   0.09574   0.09463  -0.75606
    D7        0.43362  -0.00364   0.00000   0.12600   0.12506   0.55867
    D8        2.33582   0.00807   0.00000   0.17850   0.17777   2.51359
    D9       -1.79051   0.00279   0.00000   0.15929   0.15839  -1.63212
   D10        3.08785  -0.00528   0.00000   0.21070   0.21102  -2.98431
   D11       -1.29313   0.00643   0.00000   0.26320   0.26373  -1.02940
   D12        0.86373   0.00116   0.00000   0.24399   0.24435   1.10807
   D13       -2.05744  -0.00803   0.00000   0.09977   0.10015  -1.95729
   D14       -0.15523   0.00368   0.00000   0.15227   0.15286  -0.00237
   D15        2.00162  -0.00160   0.00000   0.13306   0.13348   2.13510
   D16       -0.14335   0.00484   0.00000   0.06914   0.06891  -0.07443
   D17        2.88266  -0.00070   0.00000   0.02394   0.02316   2.90582
   D18       -2.77186  -0.00464   0.00000  -0.03275  -0.03191  -2.80377
   D19        0.25415  -0.01018   0.00000  -0.07795  -0.07767   0.17648
   D20        1.32626   0.02399   0.00000  -0.00319  -0.00370   1.32255
   D21       -1.93092   0.01844   0.00000  -0.04839  -0.04946  -1.98038
   D22       -1.42124   0.00732   0.00000  -0.09651  -0.09893  -1.52018
   D23        1.83605   0.01488   0.00000  -0.05070  -0.05233   1.78372
   D24       -1.98131  -0.00527   0.00000   0.01887   0.01885  -1.96245
   D25        1.04397  -0.00996   0.00000  -0.02540  -0.02538   1.01859
         Item               Value     Threshold  Converged?
 Maximum Force            0.078054     0.000450     NO 
 RMS     Force            0.016449     0.000300     NO 
 Maximum Displacement     0.307186     0.001800     NO 
 RMS     Displacement     0.088789     0.001200     NO 
 Predicted change in Energy= 1.106673D-03
 GradGradGradGradGradGradGradGradGradGradGradGradGradGradGradGradGradGrad

                          Input orientation:                          
 ---------------------------------------------------------------------
 Center     Atomic      Atomic             Coordinates (Angstroms)
 Number     Number       Type             X           Y           Z
 ---------------------------------------------------------------------
      1          7           0        1.206005    1.335184    0.001998
      2          1           0        2.196647    1.413521    0.152906
      3          6           0        0.555482    0.121854    0.154748
      4          1           0       -1.665934   -1.365286   -1.208664
      5          6           0        1.437505   -1.109069    0.130624
      6          6           0       -0.795982    0.047569   -0.150577
      7          1           0        2.425331   -0.883184    0.550745
      8          1           0        1.046593   -1.849927    0.835048
      9          1           0        1.518383   -1.552764   -0.867089
     10          8           0       -1.454188    1.122229   -0.493186
     11          1           0        0.666048    2.145384   -0.262043
     12          8           0       -1.399123   -1.207351   -0.277828
     13          1           0       -1.303277    0.707654    1.283324
 ---------------------------------------------------------------------
                    Distance matrix (angstroms):
                    1          2          3          4          5
     1  N    0.000000
     2  H    1.005127   0.000000
     3  C    1.385165   2.088499   0.000000
     4  H    4.123867   4.949260   3.000861   0.000000
     5  C    2.458559   2.634437   1.514502   3.389789   0.000000
     6  C    2.385201   3.303597   1.387515   1.967873   2.530879
     7  H    2.590180   2.342099   2.159455   4.479552   1.096962
     8  H    3.296106   3.526760   2.142876   3.430662   1.094484
     9  H    3.032019   3.209249   2.185332   3.208068   1.094914
    10  O    2.714256   3.718989   2.336523   2.597013   3.705363
    11  H    1.008810   1.746580   2.068965   4.319611   3.367611
    12  O    3.650956   4.470354   2.402996   0.981116   2.867568
    13  H    2.886535   3.745071   2.252072   3.261687   3.484406
                    6          7          8          9         10
     6  C    0.000000
     7  H    3.425640   0.000000
     8  H    2.822592   1.707729   0.000000
     9  H    2.903574   1.811392   1.791134   0.000000
    10  O    1.305952   4.490227   4.105096   4.016413   0.000000
    11  H    2.559450   3.595543   4.160641   3.843027   2.365517
    12  O    1.398140   3.926584   2.762774   2.996395   2.340161
    13  H    1.658051   4.119460   3.502007   4.206605   1.830474
                   11         12         13
    11  H    0.000000
    12  O    3.937767   0.000000
    13  H    2.886775   2.472574   0.000000
 Stoichiometry    C3H7NO2
 Framework group  C1[X(C3H7NO2)]
 Deg. of freedom    33
 Full point group                 C1      NOp   1
 Largest Abelian subgroup         C1      NOp   1
 Largest concise Abelian subgroup C1      NOp   1
                         Standard orientation:                         
 ---------------------------------------------------------------------
 Center     Atomic      Atomic             Coordinates (Angstroms)
 Number     Number       Type             X           Y           Z
 ---------------------------------------------------------------------
      1          7           0       -1.341358   -1.212996   -0.076486
      2          1           0       -2.346365   -1.222088   -0.089134
      3          6           0       -0.642019   -0.039941    0.154922
      4          1           0        1.869298    1.254867   -0.855981
      5          6           0       -1.421016    1.244014   -0.040884
      6          6           0        0.742984   -0.063297    0.074816
      7          1           0       -2.477307    1.096405    0.215609
      8          1           0       -1.099733    1.980721    0.702038
      9          1           0       -1.307425    1.659066   -1.047694
     10          8           0        1.372238   -1.188942   -0.131273
     11          1           0       -0.822982   -2.064652   -0.230321
     12          8           0        1.444169    1.145124    0.021407
     13          1           0        0.963067   -0.707458    1.586687
 ---------------------------------------------------------------------
 Rotational constants (GHZ):      4.8445156      3.3758389      2.0828635
 Standard basis: 6-31G (6D, 7F)
 There are    68 symmetry adapted cartesian basis functions of A   symmetry.
 There are    68 symmetry adapted basis functions of A   symmetry.
    68 basis functions,   160 primitive gaussians,    68 cartesian basis functions
    24 alpha electrons       24 beta electrons
       nuclear repulsion energy       247.0095650852 Hartrees.
 NAtoms=   13 NActive=   13 NUniq=   13 SFac= 1.00D+00 NAtFMM=   60 NAOKFM=F Big=F
 Integral buffers will be    131072 words long.
 Raffenetti 2 integral format.
 Two-electron integral symmetry is turned on.
 One-electron integrals computed using PRISM.
 NBasis=    68 RedAO= T EigKep=  3.28D-03  NBF=    68
 NBsUse=    68 1.00D-06 EigRej= -1.00D+00 NBFU=    68
 Initial guess from the checkpoint file:  "Ala-S-opt-freq-ts3-6-31g.chk"
 B after Tr=     0.000000    0.000000    0.000000
         Rot=    0.999692    0.002600   -0.005438   -0.024075 Ang=   2.84 deg.
 ExpMin= 1.61D-01 ExpMax= 5.48D+03 ExpMxC= 8.25D+02 IAcc=1 IRadAn=         1 AccDes= 0.00D+00
 Harris functional with IExCor=  402 and IRadAn=       1 diagonalized for initial guess.
 HarFok:  IExCor=  402 AccDes= 0.00D+00 IRadAn=         1 IDoV= 1 UseB2=F ITyADJ=14
 ICtDFT=  3500011 ScaDFX=  1.000000  1.000000  1.000000  1.000000
 FoFCou: FMM=F IPFlag=           0 FMFlag=      100000 FMFlg1=           0
         NFxFlg=           0 DoJE=T BraDBF=F KetDBF=T FulRan=T
         wScrn=  0.000000 ICntrl=     500 IOpCl=  0 I1Cent=   200000004 NGrid=           0
         NMat0=    1 NMatS0=      1 NMatT0=    0 NMatD0=    1 NMtDS0=    0 NMtDT0=    0
 Petite list used in FoFCou.
 Keep R1 ints in memory in canonical form, NReq=3676491.
 Requested convergence on RMS density matrix=1.00D-08 within 128 cycles.
 Requested convergence on MAX density matrix=1.00D-06.
 Requested convergence on             energy=1.00D-06.
 No special actions if energy rises.
 Integral accuracy reduced to 1.0D-05 until final iterations.
 Initial convergence to 1.0D-05 achieved.  Increase integral accuracy.
 SCF Done:  E(RB3LYP) =  -323.457728139     A.U. after   17 cycles
            NFock= 17  Conv=0.38D-08     -V/T= 2.0054
 Calling FoFJK, ICntrl=      2127 FMM=F ISym2X=0 I1Cent= 0 IOpClX= 0 NMat=1 NMatS=1 NMatT=0.
 ***** Axes restored to original set *****
 -------------------------------------------------------------------
 Center     Atomic                   Forces (Hartrees/Bohr)
 Number     Number              X              Y              Z
 -------------------------------------------------------------------
      1        7          -0.017147457   -0.021327094    0.000622860
      2        1           0.000488322   -0.000247374    0.001473130
      3        6           0.069499517    0.001427746    0.002547876
      4        1          -0.006983200    0.004071399    0.001583849
      5        6          -0.002750721    0.004410443    0.031404786
      6        6          -0.078461536    0.050223347    0.045183871
      7        1           0.003511887    0.002041823   -0.008676273
      8        1          -0.005056090   -0.004795658   -0.006954235
      9        1           0.000200659    0.001092990   -0.000528130
     10        8          -0.010771999    0.016870359   -0.049932354
     11        1          -0.005413696    0.000629450    0.000023111
     12        8           0.016025808   -0.017663118   -0.006162207
     13        1           0.036858506   -0.036734314   -0.010586285
 -------------------------------------------------------------------
 Cartesian Forces:  Max     0.078461536 RMS     0.024771976

 GradGradGradGradGradGradGradGradGradGradGradGradGradGradGradGradGradGrad
 Berny optimization.
 FormGI is forming the generalized inverse of G from B-inverse, IUseBI=4.
 Internal  Forces:  Max     0.065182523 RMS     0.014707303
 Search for a saddle point.
 Step number   3 out of a maximum of   68
 All quantities printed in internal units (Hartrees-Bohrs-Radians)
 Update second derivatives using D2CorX and points    2    3
 ITU=  0  0  0
 LST/QST climbing along tangent vector
     Eigenvalues ---    0.00232   0.01260   0.01421   0.01799   0.01811
     Eigenvalues ---    0.02494   0.03004   0.03245   0.03557   0.05205
     Eigenvalues ---    0.05985   0.06869   0.15989   0.15998   0.16000
     Eigenvalues ---    0.16000   0.16000   0.16011   0.16439   0.21665
     Eigenvalues ---    0.23950   0.24809   0.29978   0.34099   0.34120
     Eigenvalues ---    0.34484   0.42246   0.46414   0.46754   0.47031
     Eigenvalues ---    0.47431   0.51003   0.680081000.000001000.00000
     Eigenvalues --- 1000.000001000.000001000.000001000.000001000.00000
     Eigenvalues --- 1000.000001000.000001000.000001000.000001000.00000
     Eigenvalues --- 1000.000001000.000001000.000001000.000001000.00000
     Eigenvalues --- 1000.000001000.000001000.000001000.000001000.00000
     Eigenvalues --- 1000.000001000.000001000.00000
 Eigenvectors required to have negative eigenvalues:
                          R13       R6        D11       D12       D10
   1                    0.45364  -0.42513  -0.29460  -0.29144  -0.27408
                          D3        D8        D9        D7        D23
   1                   -0.19315  -0.18950  -0.18633  -0.16897   0.15323
 QST in optimization variable space.
                        Tangent   TS vect  // Eig F  Eigenval
   1         R1         0.00078   0.00078   0.03368   0.00232
   2         R2         0.00333   0.00333  -0.00224   0.01260
   3         R3         0.00127   0.00127   0.00031   0.01421
   4         R4         0.00686   0.00686  -0.00757   0.01799
   5         R5         0.04192   0.04192   0.00003   0.01811
   6         R6        -0.42513  -0.42513  -0.00865   0.02494
   7         R7        -0.00030  -0.00030  -0.00761   0.03004
   8         R8        -0.00081  -0.00081   0.01704   0.03245
   9         R9         0.00155   0.00155  -0.00792   0.03557
  10         R10       -0.00168  -0.00168   0.00134   0.05205
  11         R11       -0.04920  -0.04920   0.00636   0.05985
  12         R12       -0.00333  -0.00333  -0.01770   0.06869
  13         R13        0.45364   0.45364  -0.00269   0.15989
  14         A1        -0.00018  -0.00018   0.00081   0.15998
  15         A2         0.00208   0.00208  -0.00003   0.16000
  16         A3        -0.00212  -0.00212   0.00000   0.16000
  17         A4        -0.01148  -0.01148  -0.00007   0.16000
  18         A5        -0.02385  -0.02385  -0.00228   0.16011
  19         A6         0.04410   0.04410   0.00475   0.16439
  20         A7        -0.00164  -0.00164  -0.01246   0.21665
  21         A8        -0.06198  -0.06198   0.01629   0.23950
  22         A9         0.11504   0.11504   0.00590   0.24809
  23         A10       -0.00135  -0.00135  -0.00237   0.29978
  24         A11       -0.00440  -0.00440   0.00001   0.34099
  25         A12        0.00420   0.00420   0.00014   0.34120
  26         A13       -0.01459  -0.01459   0.00029   0.34484
  27         A14        0.01150   0.01150  -0.01468   0.42246
  28         A15        0.00270   0.00270   0.00226   0.46414
  29         A16        0.01348   0.01348   0.00071   0.46754
  30         A17       -0.03045  -0.03045   0.03460   0.47031
  31         A18        0.01366   0.01366   0.00129   0.47431
  32         A19       -0.14859  -0.14859  -0.00028   0.51003
  33         A20       -0.00105  -0.00105   0.00566   0.68008
  34         D1        -0.12833  -0.12833   0.000001000.00000
  35         D2        -0.03144  -0.03144   0.000001000.00000
  36         D3        -0.19315  -0.19315   0.000001000.00000
  37         D4        -0.05382  -0.05382   0.000001000.00000
  38         D5         0.04307   0.04307   0.000001000.00000
  39         D6        -0.11864  -0.11864   0.000001000.00000
  40         D7        -0.16897  -0.16897   0.000001000.00000
  41         D8        -0.18950  -0.18950   0.000001000.00000
  42         D9        -0.18633  -0.18633   0.000001000.00000
  43         D10       -0.27408  -0.27408   0.000001000.00000
  44         D11       -0.29460  -0.29460   0.000001000.00000
  45         D12       -0.29144  -0.29144   0.000001000.00000
  46         D13       -0.12105  -0.12105   0.000001000.00000
  47         D14       -0.14158  -0.14158   0.000001000.00000
  48         D15       -0.13841  -0.13841   0.000001000.00000
  49         D16       -0.03273  -0.03273   0.000001000.00000
  50         D17       -0.05492  -0.05492   0.000001000.00000
  51         D18        0.07229   0.07229   0.000001000.00000
  52         D19        0.05011   0.05011   0.000001000.00000
  53         D20        0.14260   0.14260   0.000001000.00000
  54         D21        0.12041   0.12041   0.000001000.00000
  55         D22        0.12684   0.12684   0.000001000.00000
  56         D23        0.15323   0.15323   0.000001000.00000
  57         D24       -0.04270  -0.04270   0.000001000.00000
  58         D25       -0.06476  -0.06476   0.000001000.00000
 RFO step:  Lambda0=3.486206847D-02 Lambda=-2.01755032D-02.
 Linear search not attempted -- option 19 set.
 Maximum step size (   0.300) exceeded in Quadratic search.
    -- Step size scaled by   0.499
 Iteration  1 RMS(Cart)=  0.07205061 RMS(Int)=  0.00853694
 Iteration  2 RMS(Cart)=  0.00762939 RMS(Int)=  0.00101910
 Iteration  3 RMS(Cart)=  0.00003351 RMS(Int)=  0.00101856
 Iteration  4 RMS(Cart)=  0.00000010 RMS(Int)=  0.00101856
 Variable       Old X    -DE/DX   Delta X   Delta X   Delta X     New X
                                 (Linear)    (Quad)   (Total)
    R1        1.89942   0.00069   0.00000  -0.00003  -0.00003   1.89938
    R2        2.61758  -0.02895   0.00000  -0.01762  -0.01762   2.59996
    R3        1.90637   0.00339   0.00000   0.00126   0.00126   1.90763
    R4        2.86199  -0.00486   0.00000  -0.00864  -0.00864   2.85335
    R5        2.62202   0.06518   0.00000   0.00854   0.00995   2.63197
    R6        4.25580  -0.03908   0.00000   0.07388   0.07285   4.32865
    R7        1.85404  -0.00026   0.00000   0.00029   0.00029   1.85433
    R8        2.07296   0.00026   0.00000   0.00068   0.00068   2.07364
    R9        2.06827   0.00058   0.00000  -0.00102  -0.00102   2.06726
   R10        2.06909   0.00006   0.00000   0.00171   0.00171   2.07080
   R11        2.46789   0.01651   0.00000   0.03838   0.03744   2.50533
   R12        2.64210   0.00871   0.00000   0.00708   0.00708   2.64918
   R13        3.45909   0.01290   0.00000  -0.25828  -0.25731   3.20179
    A1        2.11131   0.00188   0.00000   0.00354   0.00332   2.11463
    A2        2.09929   0.00300   0.00000   0.00301   0.00279   2.10207
    A3        2.07258  -0.00488   0.00000  -0.00643  -0.00666   2.06592
    A4        2.02269   0.00661   0.00000   0.02010   0.01922   2.04190
    A5        2.07152  -0.02479   0.00000  -0.01401  -0.01527   2.05626
    A6        1.78752   0.00319   0.00000  -0.00987  -0.01031   1.77721
    A7        2.11792   0.02069   0.00000   0.02575   0.02407   2.14199
    A8        2.34629  -0.00803   0.00000   0.00802   0.00822   2.35451
    A9        0.82343  -0.01578   0.00000  -0.10128  -0.09984   0.72359
   A10        1.92941   0.00186   0.00000   0.00508   0.00493   1.93434
   A11        1.90911   0.00292   0.00000   0.00885   0.00875   1.91786
   A12        1.96805  -0.00429   0.00000  -0.01252  -0.01256   1.95549
   A13        1.78700   0.00502   0.00000   0.02726   0.02705   1.81405
   A14        1.94541  -0.00227   0.00000  -0.01603  -0.01612   1.92929
[...]
 Translational   0.330285D+08          7.518889         17.312882
 Rotational      0.154683D+06          5.189444         11.949136
 ***** Axes restored to original set *****
 -------------------------------------------------------------------
 Center     Atomic                   Forces (Hartrees/Bohr)
 Number     Number              X              Y              Z
 -------------------------------------------------------------------
      1        7          -0.000001307   -0.000012092    0.000001400
      2        1           0.000005179   -0.000002257    0.000000001
      3        6           0.000018545    0.000004554   -0.000014799
      4        1          -0.000011398   -0.000001927   -0.000003626
      5        6           0.000004512    0.000008143    0.000005397
      6        6          -0.000014233    0.000047825    0.000011562
      7        1          -0.000005189   -0.000005408   -0.000000193
      8        1          -0.000001998   -0.000001103   -0.000008868
      9        1           0.000003273    0.000002334   -0.000001557
     10        8           0.000013492   -0.000022887    0.000006308
     11        1          -0.000000616   -0.000005519    0.000005620
     12        8          -0.000008492   -0.000009373   -0.000004598
     13        1          -0.000001769   -0.000002289    0.000003353
 -------------------------------------------------------------------
 Cartesian Forces:  Max     0.000047825 RMS     0.000011116
 FormGI is forming the generalized inverse of G from B-inverse, IUseBI=4.

 GradGradGradGradGradGradGradGradGradGradGradGradGradGradGradGradGradGrad
 Berny optimization.
 Internal  Forces:  Max     0.000025201 RMS     0.000006793
 Search for a saddle point.
 Step number   1 out of a maximum of    2
 All quantities printed in internal units (Hartrees-Bohrs-Radians)
 Swapping is turned off.
 Second derivative matrix not updated -- analytic derivatives used.
 ITU=  0
     Eigenvalues ---   -0.08092   0.00032   0.00309   0.00583   0.01176
     Eigenvalues ---    0.01432   0.01995   0.02826   0.03570   0.04783
     Eigenvalues ---    0.04843   0.09646   0.10635   0.12231   0.13040
     Eigenvalues ---    0.13495   0.14614   0.15256   0.15391   0.18418
     Eigenvalues ---    0.19689   0.22193   0.25862   0.32983   0.33153
     Eigenvalues ---    0.34474   0.35777   0.37260   0.42999   0.46799
     Eigenvalues ---    0.48953   0.48972   0.53010
 Eigenvectors required to have negative eigenvalues:
                          R13       D20       R6        A19       D21
   1                   -0.65852  -0.41226   0.31479   0.26198  -0.22307
                          R5        D22       D24       A8        D18
   1                   -0.14492   0.13839  -0.11956   0.11656  -0.11480
 Angle between quadratic step and forces=  77.75 degrees.
 Linear search not attempted -- option 19 set.
 Iteration  1 RMS(Cart)=  0.00443032 RMS(Int)=  0.00001902
 Iteration  2 RMS(Cart)=  0.00001968 RMS(Int)=  0.00000007
 Iteration  3 RMS(Cart)=  0.00000000 RMS(Int)=  0.00000007
 Variable       Old X    -DE/DX   Delta X   Delta X   Delta X     New X
                                 (Linear)    (Quad)   (Total)
    R1        1.90054   0.00000   0.00000   0.00000   0.00000   1.90054
    R2        2.56977  -0.00002   0.00000   0.00001   0.00001   2.56978
    R3        1.91355   0.00000   0.00000  -0.00001  -0.00001   1.91353
    R4        2.82745   0.00000   0.00000   0.00001   0.00001   2.82746
    R5        2.63988   0.00002   0.00000   0.00006   0.00006   2.63995
    R6        4.06773   0.00000   0.00000   0.00016   0.00016   4.06789
    R7        1.84664   0.00001   0.00000   0.00002   0.00002   1.84666
    R8        2.07682   0.00000   0.00000   0.00008   0.00008   2.07690
    R9        2.06007   0.00000   0.00000  -0.00001  -0.00001   2.06007
   R10        2.07586   0.00000   0.00000  -0.00006  -0.00006   2.07580
   R11        2.78051  -0.00003   0.00000  -0.00016  -0.00016   2.78035
   R12        2.66649   0.00002   0.00000   0.00011   0.00011   2.66661
   R13        2.53553   0.00000   0.00000  -0.00005  -0.00005   2.53549
    A1        2.13832   0.00000   0.00000   0.00002   0.00002   2.13834
    A2        2.10314   0.00000   0.00000   0.00000   0.00000   2.10315
    A3        2.04128  -0.00001   0.00000  -0.00001  -0.00001   2.04126
    A4        2.09480  -0.00001   0.00000  -0.00008  -0.00008   2.09472
    A5        2.03674   0.00000   0.00000  -0.00003  -0.00003   2.03672
    A6        1.69787   0.00000   0.00000  -0.00010  -0.00010   1.69777
    A7        2.15083   0.00001   0.00000   0.00006   0.00006   2.15089
    A8        2.32702   0.00000   0.00000  -0.00040  -0.00040   2.32662
    A9        0.55873   0.00000   0.00000  -0.00003  -0.00002   0.55870
   A10        1.95090   0.00000   0.00000   0.00001   0.00001   1.95090
   A11        1.92554   0.00000   0.00000  -0.00018  -0.00018   1.92536
   A12        1.92411   0.00000   0.00000   0.00007   0.00007   1.92418
   A13        1.90065   0.00000   0.00000  -0.00021  -0.00021   1.90044
   A14        1.87455   0.00000   0.00000  -0.00011  -0.00011   1.87444
   A15        1.88622   0.00000   0.00000   0.00045   0.00045   1.88667
   A16        2.08741   0.00000   0.00000   0.00001   0.00001   2.08741
   A17        2.05662   0.00001   0.00000   0.00018   0.00018   2.05680
   A18        2.04452  -0.00001   0.00000  -0.00014  -0.00014   2.04438
   A19        0.89177   0.00000   0.00000   0.00006   0.00006   0.89182
   A20        1.87733   0.00001   0.00000  -0.00007  -0.00007   1.87726
    D1       -0.17008   0.00000   0.00000   0.00121   0.00121  -0.16886
    D2        2.92940   0.00000   0.00000   0.00017   0.00017   2.92956
    D3        2.46162   0.00000   0.00000   0.00027   0.00027   2.46189
    D4        3.00336   0.00000   0.00000   0.00090   0.00090   3.00426
    D5       -0.18036   0.00000   0.00000  -0.00015  -0.00015  -0.18051
    D6       -0.64813   0.00000   0.00000  -0.00005  -0.00005  -0.64818
    D7        0.91024   0.00000   0.00000   0.01027   0.01027   0.92051
    D8        3.02783   0.00000   0.00000   0.00988   0.00988   3.03771
    D9       -1.17338   0.00000   0.00000   0.01036   0.01036  -1.16302
   D10       -2.18636   0.00000   0.00000   0.01139   0.01139  -2.17497
   D11       -0.06877   0.00000   0.00000   0.01100   0.01100  -0.05777
   D12        2.01320   0.00000   0.00000   0.01148   0.01148   2.02468
   D13       -1.50310   0.00000   0.00000   0.01145   0.01145  -1.49165
   D14        0.61449   0.00000   0.00000   0.01105   0.01105   0.62555
   D15        2.69647   0.00000   0.00000   0.01154   0.01154   2.70800
   D16        0.13263   0.00000   0.00000   0.00028   0.00028   0.13291
   D17        2.80804   0.00000   0.00000   0.00034   0.00034   2.80838
   D18       -3.05256   0.00000   0.00000  -0.00081  -0.00081  -3.05337
   D19       -0.37716   0.00000   0.00000  -0.00074  -0.00074  -0.37790
   D20        1.13683   0.00001   0.00000   0.00004   0.00004   1.13687
   D21       -2.47095   0.00000   0.00000   0.00011   0.00011  -2.47084
   D22       -1.70081   0.00000   0.00000  -0.00007  -0.00007  -1.70088
   D23        1.90381   0.00000   0.00000  -0.00022  -0.00022   1.90359
   D24       -3.03602   0.00000   0.00000   0.00197   0.00197  -3.03405
   D25       -0.34913   0.00000   0.00000   0.00207   0.00207  -0.34706
         Item               Value     Threshold  Converged?
 Maximum Force            0.000025     0.000450     YES
 RMS     Force            0.000007     0.000300     YES
 Maximum Displacement     0.017336     0.001800     NO 
 RMS     Displacement     0.004430     0.001200     NO 
 Predicted change in Energy=-1.813187D-07
 GradGradGradGradGradGradGradGradGradGradGradGradGradGradGradGradGradGrad

 1\1\GINC-KALI\Freq\RB3LYP\6-31G\C3H7N1O2\ROOT\14-Apr-2016\0\\#N Geom=A
 llCheck Guess=TCheck SCRF=Check GenChk RB3LYP/6-31G Freq\\Ala-S-opt-fr
 eq-qst2-tsa3-6-31g\\0,1\N,1.2064770642,1.3081432707,-0.0911279913\H,2.
 1726656417,1.4877886313,0.1226026605\C,0.6614726889,0.0642163878,-0.02
 15599094\H,-2.2690398884,-1.1210834715,-0.5228438156\C,1.5427853803,-1
 .1295889748,0.1702579354\C,-0.7317969823,-0.0150074735,-0.085106861\H,
 2.2147854723,-1.0062134284,1.0310750749\H,0.9397294039,-2.0255360809,0
 .3186399929\H,2.171010513,-1.2848158799,-0.7174012011\O,-1.5153506706,
 1.1929246026,-0.3882616497\H,0.5862021296,2.0675784505,-0.3438837015\O
 ,-1.3061434356,-1.2575967865,-0.4273825518\H,-1.2393073168,0.645005752
 7,0.8049980177\\Version=ES64L-G09RevD.01\State=1-A\HF=-323.5135359\RMS
 D=3.712e-09\RMSF=1.112e-05\ZeroPoint=0.1013249\Thermal=0.1085872\Dipol
 e=1.2494112,-0.0167689,0.5900102\DipoleDeriv=-0.6662034,-0.1497733,0.1
 58435,-0.8774755,-0.7413568,-0.0158906,0.1692436,-0.02719,-0.7095513,0
 .2141813,0.0095268,-0.0566136,-0.0076217,0.2232618,0.0343858,-0.113396
 ,0.0283136,0.3653864,1.0163616,0.0671941,-0.1370327,0.7686094,0.575887
 5,-0.0394473,-0.2600066,-0.1316391,0.134894,0.2192508,0.0651021,-0.010
 1088,0.2000103,0.3052403,-0.008045,0.0210926,-0.0230538,0.3898842,0.04
 42485,0.0799413,0.0250876,-0.0608932,-0.0708508,0.0122987,0.1172841,-0
 .0123573,0.1251835,-0.3150005,0.2625395,0.1589663,0.7403301,0.7327225,
 0.2601984,1.2415782,0.1611534,0.120801,-0.0528586,0.0240745,-0.1121623
 ,-0.0044877,0.0390978,-0.0525605,-0.1536915,0.00264,-0.0495235,0.06929
 63,-0.0785939,0.015359,-0.02069,0.0036504,0.0204541,0.0060715,0.028300
 1,0.1020003,-0.0405022,0.0613302,0.0819882,0.0606558,0.0518167,0.01292
 58,0.1005579,-0.0125492,-0.0389744,-0.7646581,0.1088734,0.0136668,0.55
 5143,-0.7308128,-0.0833941,-0.9130406,0.2048485,-0.4010511,0.101276,0.
 0528606,-0.0390747,0.0196111,0.2300246,0.009351,-0.0034171,0.0165865,0
 .3728171,-0.3969931,-0.3237669,-0.1002317,-0.6300296,-0.8731757,-0.134
 0174,-0.3348644,-0.1074949,-0.5437078,0.5716013,-0.1793084,0.0017207,-
 0.7431621,0.2544946,-0.016259,0.1225882,-0.1275578,0.1318416\Polar=73.
 0026417,-1.9988404,49.8233123,3.4364678,-0.5500638,28.1573755\PG=C01 [
 X(C3H7N1O2)]\NImag=1\\0.85418372,0.02569115,0.75655712,0.17314360,-0.1
 0232540,0.10376978,-0.43681965,-0.06381545,-0.09449823,0.45290711,-0.0
 6277944,-0.08518456,-0.00186080,0.07438888,0.07911617,-0.09727751,-0.0
 0262060,-0.02996163,0.09787786,0.00602636,0.03113677,-0.17574749,-0.08
 574250,-0.01407995,-0.01010113,-0.03873416,0.00111304,0.73957568,-0.09
 972597,-0.34635267,0.02090150,0.00105116,-0.00196107,-0.00024695,0.034
 33062,0.70407108,-0.00842855,0.01574152,-0.04820264,-0.00048425,-0.008
 21130,-0.00228068,0.06780792,-0.03460639,0.17820834,0.00081611,0.00265
 606,-0.00083053,-0.00007242,-0.00015798,0.00020159,-0.00162638,-0.0036
 2986,-0.00019667,0.47509157,-0.00102007,0.00181244,-0.00023942,-0.0002
 9028,-0.00047828,0.00025424,-0.00191290,-0.00874604,-0.00094557,-0.042
 64737,0.05309368,0.00012913,0.00060043,0.00099110,-0.00008033,0.000162
 05,0.00075777,0.00121052,-0.00003458,-0.00025116,0.05196196,0.00726200
 ,0.01168392,0.01435776,-0.01272833,0.00161149,0.00095398,0.00036162,0.
 00147068,-0.14080500,0.06157354,-0.01117835,0.00042625,0.00052061,-0.0
 0026996,0.54813243,0.02378940,-0.03654336,0.00661515,0.00088929,0.0024
 4459,0.00021473,0.05477811,-0.17400958,0.01569105,0.00016647,-0.000370
 20,-0.00008641,0.05392029,0.54657241,-0.00183595,0.00180987,0.00268744
 ,0.00089184,-0.00091105,-0.00080591,-0.02098473,0.01749512,-0.07648244
 ,0.00004249,0.00012125,-0.00061382,-0.00320248,-0.00241550,0.53444311,
 -0.04106803,-0.04424687,0.00396265,0.00350820,0.00141870,0.00156495,-0
 .33006026,-0.00375732,-0.02988686,-0.02316157,-0.05039291,-0.01264046,
 -0.01783844,0.00951656,0.00912229,0.61250536,-0.04059218,0.00188548,-0
 .00154129,-0.00171126,-0.00575039,0.00248862,-0.04537037,-0.09832252,0
 .00592207,0.00523392,-0.00835850,0.00101804,0.02654873,0.00403422,-0.0
 0270431,0.10888788,0.42582505,0.01914276,0.04434618,0.00513055,-0.0063
 4062,0.00030656,0.00553065,-0.08101739,-0.03021173,-0.05921395,-0.0039
 3671,-0.01180247,-0.00353178,-0.00502296,0.00130708,0.00551206,0.10525
 929,0.03332671,0.19004210,0.00146106,-0.00148801,0.00178332,0.00053281
 ,0.00044157,-0.00082439,-0.02004791,0.00044183,-0.01596690,0.00009959,
 0.00028132,-0.00018940,-0.13777428,-0.02144234,-0.12018455,0.00366893,
 0.00142643,-0.00094806,0.15403296,-0.00008528,0.00218733,-0.00123193,-
 0.00084410,-0.00057043,0.00035765,0.02321207,0.00154432,0.02407929,-0.
 00015834,0.00017180,-0.00012288,-0.01995175,-0.05436476,-0.02310189,-0
 .00271231,-0.00311740,-0.00036569,0.01770807,0.05653926,0.00056773,0.0
 0025388,0.00082180,-0.00016864,0.00098857,-0.00049651,-0.00269925,-0.0
 0087178,-0.00033957,0.00013575,0.00005113,0.00004440,-0.12060525,-0.02
 453179,-0.20353891,0.00144723,0.00049204,0.00025508,0.13533790,0.02712
 999,0.22276916,-0.00359165,0.00346756,-0.00093092,-0.00015353,0.000113
 97,-0.00007478,0.01404188,0.02049731,-0.00359933,0.00007106,-0.0003028
 7,0.00001539,-0.13700559,-0.13128938,0.02193480,-0.00013815,0.00186873
 ,0.00124144,-0.01046737,-0.01535630,0.00407378,0.14788548,0.00506643,-
 0.00238286,0.00116956,0.00026791,0.00043995,0.00018453,-0.01849410,-0.
 02444280,0.00408942,-0.00022076,0.00054530,-0.00005071,-0.12349775,-0.
 23518020,0.03137938,-0.00021466,-0.00174536,-0.00178691,-0.00092527,-0
 .00194849,0.00101447,0.13620406,0.25908349,-0.00099209,0.00060855,0.00
 134734,0.00007399,0.00004666,-0.00064520,0.00366798,0.00248285,-0.0019
 2632,0.00018654,-0.00032374,0.00002198,0.01980268,0.03108647,-0.054925
 66,-0.00018209,0.00118083,0.00083008,-0.01565993,-0.02341095,0.0041227
 9,-0.02322775,-0.03476008,0.05528020,0.00113643,-0.00163730,-0.0008566
 0,0.00018248,0.00008500,0.00050207,-0.01636160,0.00578701,0.01600575,0
 .00007723,0.00013896,0.00012965,-0.12672189,0.01748582,0.11936877,-0.0
 0035496,0.00324467,0.00063665,0.01129885,-0.00310152,-0.01800912,-0.00
 997641,0.00361555,0.01598656,0.14137658,-0.00075285,0.00122487,0.00179
 352,0.00005834,-0.00070309,-0.00109908,0.01918644,-0.00675102,-0.02276
 034,-0.00014252,-0.00002013,0.00012155,0.01838366,-0.05209824,-0.02808
 401,0.00061546,-0.00290913,-0.00073838,0.00235551,-0.00033925,-0.00468
 538,-0.01530669,0.00475371,0.02376823,-0.02483683,0.05554153,-0.000313
 08,0.00006640,0.00055296,0.00017928,-0.00037171,-0.00037173,-0.0025655
 1,0.00145932,0.00715348,-0.00003495,-0.00005335,-0.00005007,0.11772533
 ,-0.02655053,-0.21555739,-0.00146578,0.00043414,-0.00094369,0.01595100
 ,-0.00292260,-0.02312203,0.00133880,-0.00150492,-0.00368298,-0.1313403
 5,0.02994909,0.23627274,-0.00150046,0.00047138,0.00015971,-0.00077607,
 0.00232712,0.00164232,-0.02197621,0.03637305,-0.01705510,0.00242235,0.
 00416870,0.00137198,-0.00218154,-0.00377103,-0.00103271,-0.10083709,0.
 05169137,-0.02046921,-0.00138045,0.00172246,-0.00043475,0.00008227,0.0
 0002629,-0.00017843,-0.00096499,0.00066836,-0.00004051,0.12229873,0.00
 255795,0.02029622,-0.00314106,-0.00320088,0.00192542,0.00079452,-0.011
 88104,-0.02790431,0.00359093,0.00184813,0.00354355,-0.00012251,-0.0019
 8141,0.00343545,0.00319835,0.08920801,-0.15033002,-0.00957397,0.001549
 82,-0.00127351,0.00090721,-0.00007547,0.00003530,-0.00005673,0.0001658
 9,0.00031936,-0.00037860,-0.09326902,0.17522372,-0.01327344,-0.0281536
 6,-0.00060575,0.00326295,-0.00112220,-0.00082042,0.05427898,0.01783787
 ,0.00497907,0.00291132,0.00550388,-0.00172769,0.00037621,0.00067781,0.
 00626100,-0.13962715,0.10923284,0.02502254,0.00073913,-0.00058379,-0.0
 0050262,-0.00052806,0.00048214,-0.00052433,-0.00101477,0.00090934,-0.0
 0043170,0.04163401,-0.03083177,0.00327180,-0.21090459,0.16372236,-0.06
 795816,-0.00894425,0.02378889,-0.00576962,0.02225973,-0.00590562,0.002
 62433,0.00022858,-0.00032230,0.00013796,-0.00102428,-0.00339134,-0.000
 76187,-0.00756928,-0.00293192,0.01210224,-0.00053005,0.00025467,-0.000
 15728,0.00048158,-0.00070187,0.00003155,-0.00028488,-0.00001062,0.0000
 3362,0.00286993,0.01111909,-0.00999264,0.19966055,0.16644035,-0.281328
 68,0.07582891,-0.01071846,0.01144977,-0.00417505,0.02112931,-0.0298774
 9,0.00919164,-0.00018647,-0.00014909,-0.00002590,-0.00481000,-0.002132
 85,0.00123825,0.00220158,-0.00455452,-0.00089388,0.00008515,0.00021889
 ,0.00012735,0.00110368,-0.00091548,0.00016226,-0.00007673,0.00034350,-
 0.00020518,0.00263202,0.00129909,-0.00019949,-0.17793571,0.30414104,-0
 .06890575,0.07488173,-0.04301671,-0.00097605,0.00422541,-0.00244290,0.
 00333297,0.00374540,0.00421036,-0.00003845,-0.00014485,-0.00022820,-0.
 00083020,-0.00105758,0.00349701,-0.00286396,0.00025080,-0.00184467,0.0
 0027396,-0.00046841,0.00010062,0.00013714,-0.00036198,0.00065885,-0.00
 030626,0.00066191,-0.00006870,-0.00017425,-0.00182070,-0.00300567,0.06
 853611,-0.08180843,0.04353814,-0.00662230,0.00158898,-0.00040024,-0.00
 037401,-0.00165602,0.00065762,-0.02055027,-0.04326363,-0.01542394,-0.4
 5377498,0.09463294,-0.04082646,-0.00032062,-0.00051613,-0.00066014,-0.
 12275888,-0.09200064,-0.04003051,-0.00063921,-0.00075821,0.00017439,-0
 .00140327,-0.00103462,0.00018266,-0.00009091,0.00024699,0.00030914,0.0
 1248681,0.01229331,0.01874034,0.00034114,0.00043201,-0.00052929,0.5992
 9721,-0.00427088,-0.00853940,0.00091362,0.00125599,-0.00013254,-0.0015
 8493,0.00258363,0.00168381,-0.00862127,0.03558254,-0.04442109,-0.00722
 276,0.00109492,-0.00219895,0.00147922,-0.04834618,-0.18708208,-0.03102
 588,-0.00064652,0.00086296,-0.00051731,-0.00051435,0.00135106,-0.00037
 342,-0.00087239,0.00089393,0.00012754,-0.00165598,-0.03723079,-0.00964
 373,0.00034092,0.00096038,0.00035762,0.02089421,0.29253760,-0.00482679
 ,-0.00983096,0.00472485,0.00099447,0.00018827,0.00017209,0.01061377,0.
 00139538,-0.00087886,-0.05030631,0.00283723,-0.00780505,0.00040598,-0.
 00039627,-0.00089795,-0.04018248,-0.05178218,-0.05201880,-0.00003516,0
 .00041297,-0.00007447,-0.00035948,0.00004916,-0.00060768,-0.00064101,-
 0.00017662,0.00014058,0.01038012,0.00641932,0.00970200,-0.00241415,0.0
 0036735,-0.00071274,0.08727442,0.06178881,0.04886036,0.00429909,0.0120
 6097,-0.00110613,-0.00084352,0.00040185,-0.00108381,-0.03860104,-0.003
 77212,0.01578196,-0.00059738,-0.00285382,-0.00094999,-0.00019877,-0.00
 013573,-0.00269777,0.02410419,-0.01629537,0.01938309,-0.00025492,0.000
 07056,0.00033752,0.00017371,-0.00009120,0.00030832,0.00068407,-0.00046
 525,0.00022301,-0.01054328,-0.00833437,0.04249312,0.00341581,-0.000296
 71,0.00234404,-0.00559070,-0.00544590,-0.01090339,0.02395274,-0.014318
 59,-0.02363194,0.00311763,0.00266886,-0.00059553,-0.00059404,0.0469149
 0,0.01106830,-0.00316104,0.00165618,0.00337655,-0.00149832,0.00056587,
 0.00041146,0.00049533,-0.06217794,0.03042516,0.00711238,0.00021245,0.0
 0008928,-0.00035836,-0.00041025,0.00040638,-0.00041094,0.00000187,-0.0
 0025605,-0.00004960,-0.00138473,0.01066051,-0.06410924,-0.00802653,0.0
 0054543,0.00153907,0.00914082,-0.01868489,-0.01127244,0.02515710,-0.01
 381467,0.00286995,0.00462207,0.00176090,-0.00073228,0.00053320,0.00022
 769,-0.02067834,0.00065399,-0.00497564,-0.00009602,-0.00252033,0.00070
 859,-0.00028318,-0.00055421,0.00042145,0.10549237,-0.09831830,-0.11477
 018,-0.00027691,0.00022825,-0.00003974,-0.00002102,0.00009593,0.000050
 92,-0.00046134,0.00034017,0.00010853,-0.01580317,0.03101499,-0.0416182
 2,0.00358791,0.00039216,-0.00068540,-0.00946800,-0.00567749,-0.0006043
 3,-0.06412999,0.06918956,0.15941543\\0.00000131,0.00001209,-0.00000140
 ,-0.00000518,0.00000226,0.,-0.00001854,-0.00000455,0.00001480,0.000011
 40,0.00000193,0.00000363,-0.00000451,-0.00000814,-0.00000540,0.0000142
 3,-0.00004783,-0.00001156,0.00000519,0.00000541,0.00000019,0.00000200,
 0.00000110,0.00000887,-0.00000327,-0.00000233,0.00000156,-0.00001349,0
 .00002289,-0.00000631,0.00000062,0.00000552,-0.00000562,0.00000849,0.0
 0000937,0.00000460,0.00000177,0.00000229,-0.00000335\\\@


 ONE THORN OF EXPERIENCE IS WORTH A WHOLE WILDERNESS OF
 WARNING....  LOWELL - AMONG MY BOOKS
 Job cpu time:       0 days  0 hours  1 minutes 15.3 seconds.
 File lengths (MBytes):  RWF=     13 Int=      0 D2E=      0 Chk=      2 Scr=      1
 Normal termination of Gaussian 09 at Thu Apr 14 14:15:06 2016.
