 Entering Gaussian System, Link 0=g09
 Input=Ala-S-opt-freq-tsa3-6-31g.com
 Output=Ala-S-opt-freq-tsa3-6-31g.log
 Initial command:
 /usr/local/gau/g09/l1.exe "/tmp/Gau-1883.inp" -scrdir="/tmp/"
 Entering Link 1 = /usr/local/gau/g09/l1.exe PID=      1885.
  
 Copyright (c) 1988,1990,1992,1993,1995,1998,2003,2009,2013,
            Gaussian, Inc.  All Rights Reserved.
  
 This is part of the Gaussian(R) 09 program.  It is based on
 the Gaussian(R) 03 system (copyright 2003, Gaussian, Inc.),
 the Gaussian(R) 98 system (copyright 1998, Gaussian, Inc.),
 the Gaussian(R) 94 system (copyright 1995, Gaussian, Inc.),
 the Gaussian 92(TM) system (copyright 1992, Gaussian, Inc.),
 the Gaussian 90(TM) system (copyright 1990, Gaussian, Inc.),
 the Gaussian 88(TM) system (copyright 1988, Gaussian, Inc.),
 the Gaussian 86(TM) system (copyright 1986, Carnegie Mellon
 University), and the Gaussian 82(TM) system (copyright 1983,
 Carnegie Mellon University). Gaussian is a federally registered
 trademark of Gaussian, Inc.
  
 This software contains proprietary and confidential information,
 including trade secrets, belonging to Gaussian, Inc.
  
 This software is provided under written license and may be
 used, copied, transmitted, or stored only in accord with that
 written license.
  
 The following legend is applicable only to US Government
 contracts under FAR:
  
                    RESTRICTED RIGHTS LEGEND
  
 Use, reproduction and disclosure by the US Government is
 subject to restrictions as set forth in subparagraphs (a)
 and (c) of the Commercial Computer Software - Restricted
 Rights clause in FAR 52.227-19.
  
 Gaussian, Inc.
 340 Quinnipiac St., Bldg. 40, Wallingford CT 06492
  
  
 ---------------------------------------------------------------
 Warning -- This program may not be used in any manner that
 competes with the business of Gaussian, Inc. or will provide
 assistance to any competitor of Gaussian, Inc.  The licensee
 of this program is prohibited from giving any competitor of
 Gaussian, Inc. access to this program.  By using this program,
 the user acknowledges that Gaussian, Inc. is engaged in the
 business of creating and licensing software in the field of
 computational chemistry and represents and warrants to the
 licensee that it is not a competitor of Gaussian, Inc. and that
 it will not use this program in any manner prohibited above.
 ---------------------------------------------------------------
  

 Cite this work as:
 Gaussian 09, Revision D.01,
 M. J. Frisch, G. W. Trucks, H. B. Schlegel, G. E. Scuseria, 
 M. A. Robb, J. R. Cheeseman, G. Scalmani, V. Barone, B. Mennucci, 
 G. A. Petersson, H. Nakatsuji, M. Caricato, X. Li, H. P. Hratchian, 
 A. F. Izmaylov, J. Bloino, G. Zheng, J. L. Sonnenberg, M. Hada, 
 M. Ehara, K. Toyota, R. Fukuda, J. Hasegawa, M. Ishida, T. Nakajima, 
 Y. Honda, O. Kitao, H. Nakai, T. Vreven, J. A. Montgomery, Jr., 
 J. E. Peralta, F. Ogliaro, M. Bearpark, J. J. Heyd, E. Brothers, 
 K. N. Kudin, V. N. Staroverov, T. Keith, R. Kobayashi, J. Normand, 
 K. Raghavachari, A. Rendell, J. C. Burant, S. S. Iyengar, J. Tomasi, 
 M. Cossi, N. Rega, J. M. Millam, M. Klene, J. E. Knox, J. B. Cross, 
 V. Bakken, C. Adamo, J. Jaramillo, R. Gomperts, R. E. Stratmann, 
 O. Yazyev, A. J. Austin, R. Cammi, C. Pomelli, J. W. Ochterski, 
 R. L. Martin, K. Morokuma, V. G. Zakrzewski, G. A. Voth, 
 P. Salvador, J. J. Dannenberg, S. Dapprich, A. D. Daniels, 
 O. Farkas, J. B. Foresman, J. V. Ortiz, J. Cioslowski, 
 and D. J. Fox, Gaussian, Inc., Wallingford CT, 2013.
 
 ******************************************
 Gaussian 09:  ES64L-G09RevD.01 24-Apr-2013
                14-Apr-2016 
 ******************************************
 %chk=Ala-S-opt-freq-tsa3-6-31g.chk
 ------------------------------------------------
 #p opt=(calcfc,ts) freq rb3lyp/6-31g iop(1/11=1)
 ------------------------------------------------
 1/5=1,10=4,11=1,14=-1,18=20,26=3,38=1/1,3;
 2/9=110,12=2,17=6,18=5,40=1/2;
 3/5=1,6=6,11=2,16=1,25=1,30=1,71=2,74=-5,116=1,140=1/1,2,3;
 4//1;
 5/5=2,38=5/2;
 8/6=4,10=90,11=11/1;
 11/6=1,8=1,9=11,15=111,16=1/1,2,10;
 10/6=1,13=1/2;
 6/7=2,8=2,9=2,10=2,28=1/1;
 7/10=1,18=20,25=1/1,2,3,16;
 1/5=1,10=4,11=1,14=-1,18=20,26=3/3(2);
 2/9=110/2;
 99//99;
 2/9=110/2;
 3/5=1,6=6,11=2,16=1,25=1,30=1,71=1,74=-5,116=1/1,2,3;
 4/5=5,16=3,69=1/1;
 5/5=2,38=5/2;
 7//1,2,3,16;
 1/5=1,11=1,14=-1,18=20,26=3/3(-5);
 2/9=110/2;
 6/7=2,8=2,9=2,10=2,19=2,28=1/1;
 99/9=1/99;
 Leave Link    1 at Thu Apr 14 08:48:50 2016, MaxMem=           0 cpu:         0.1
 (Enter /usr/local/gau/g09/l101.exe)
 -------------------------
 Ala-S-opt-freq-tsa3-6-31g
 -------------------------
 Symbolic Z-matrix:
 Charge =  0 Multiplicity = 1
 N                     1.28402   1.09658   0.1782 
 H                     2.28125   1.1725    0.09573 
 C                     0.66608  -0.15184   0.15296 
 H                    -2.06145  -1.6462   -0.55341 
 C                     1.57411  -1.34993   0.14528 
 C                    -0.82919  -0.27059   0.14574 
 H                     2.21962  -1.35284   1.03394 
 H                     0.99284  -2.27244   0.1423 
 H                     2.22933  -1.34288  -0.73724 
 O                    -1.63847   0.88062   0.05444 
 H                     0.72167   1.92436   0.08148 
 O                    -1.51944  -1.48612   0.24985 
 H                    -0.13534   0.576     1.04064 
 
 Add virtual bond connecting atoms H13        and C3         Dist= 2.65D+00.
 Add virtual bond connecting atoms H13        and C6         Dist= 2.67D+00.
 NAtoms=     13 NQM=       13 NQMF=       0 NMMI=      0 NMMIF=      0
                NMic=       0 NMicF=      0.
                    Isotopes and Nuclear Properties:
 (Nuclear quadrupole moments (NQMom) in fm**2, nuclear magnetic moments (NMagM)
  in nuclear magnetons)

  Atom         1           2           3           4           5           6           7           8           9          10
 IAtWgt=          14           1          12           1          12          12           1           1           1          16
 AtmWgt=  14.0030740   1.0078250  12.0000000   1.0078250  12.0000000  12.0000000   1.0078250   1.0078250   1.0078250  15.9949146
 NucSpn=           2           1           0           1           0           0           1           1           1           0
 AtZEff=   0.0000000   0.0000000   0.0000000   0.0000000   0.0000000   0.0000000   0.0000000   0.0000000   0.0000000   0.0000000
 NQMom=    2.0440000   0.0000000   0.0000000   0.0000000   0.0000000   0.0000000   0.0000000   0.0000000   0.0000000   0.0000000
 NMagM=    0.4037610   2.7928460   0.0000000   2.7928460   0.0000000   0.0000000   2.7928460   2.7928460   2.7928460   0.0000000
 AtZNuc=   7.0000000   1.0000000   6.0000000   1.0000000   6.0000000   6.0000000   1.0000000   1.0000000   1.0000000   8.0000000

  Atom        11          12          13
 IAtWgt=           1          16           1
 AtmWgt=   1.0078250  15.9949146   1.0078250
 NucSpn=           1           0           1
 AtZEff=   0.0000000   0.0000000   0.0000000
 NQMom=    0.0000000   0.0000000   0.0000000
 NMagM=    2.7928460   0.0000000   2.7928460
 AtZNuc=   1.0000000   8.0000000   1.0000000
 Leave Link  101 at Thu Apr 14 08:48:51 2016, MaxMem=    33554432 cpu:         0.4
 (Enter /usr/local/gau/g09/l103.exe)

 GradGradGradGradGradGradGradGradGradGradGradGradGradGradGradGradGradGrad
 Berny optimization.
 Initialization pass.
                           ----------------------------
                           !    Initial Parameters    !
                           ! (Angstroms and Degrees)  !
 --------------------------                            --------------------------
 ! Name  Definition              Value          Derivative Info.                !
 --------------------------------------------------------------------------------
 ! R1    R(1,2)                  1.0035         calculate D2E/DX2 analytically  !
 ! R2    R(1,3)                  1.3932         calculate D2E/DX2 analytically  !
 ! R3    R(1,11)                 1.0054         calculate D2E/DX2 analytically  !
 ! R4    R(3,5)                  1.5033         calculate D2E/DX2 analytically  !
 ! R5    R(3,6)                  1.5            calculate D2E/DX2 analytically  !
 ! R6    R(3,13)                 1.4            calculate D2E/DX2 analytically  !
 ! R7    R(4,12)                 0.9822         calculate D2E/DX2 analytically  !
 ! R8    R(5,7)                  1.0984         calculate D2E/DX2 analytically  !
 ! R9    R(5,8)                  1.0904         calculate D2E/DX2 analytically  !
 ! R10   R(5,9)                  1.0992         calculate D2E/DX2 analytically  !
 ! R11   R(6,10)                 1.4102         calculate D2E/DX2 analytically  !
 ! R12   R(6,12)                 1.4017         calculate D2E/DX2 analytically  !
 ! R13   R(6,13)                 1.4139         calculate D2E/DX2 analytically  !
 ! A1    A(2,1,3)              120.4689         calculate D2E/DX2 analytically  !
 ! A2    A(2,1,11)             119.0538         calculate D2E/DX2 analytically  !
 ! A3    A(3,1,11)             119.2059         calculate D2E/DX2 analytically  !
 ! A4    A(1,3,5)              116.508          calculate D2E/DX2 analytically  !
 ! A5    A(1,3,6)              120.8748         calculate D2E/DX2 analytically  !
 ! A6    A(1,3,13)              77.0884         calculate D2E/DX2 analytically  !
 ! A7    A(5,3,6)              122.6153         calculate D2E/DX2 analytically  !
 ! A8    A(5,3,13)             139.7589         calculate D2E/DX2 analytically  !
 ! A9    A(3,5,7)              110.6686         calculate D2E/DX2 analytically  !
 ! A10   A(3,5,8)              110.6273         calculate D2E/DX2 analytically  !
 ! A11   A(3,5,9)              111.0413         calculate D2E/DX2 analytically  !
 ! A12   A(7,5,8)              108.2564         calculate D2E/DX2 analytically  !
 ! A13   A(7,5,9)              107.4144         calculate D2E/DX2 analytically  !
 ! A14   A(8,5,9)              108.7238         calculate D2E/DX2 analytically  !
 ! A15   A(3,6,10)             120.5154         calculate D2E/DX2 analytically  !
 ! A16   A(3,6,12)             123.9986         calculate D2E/DX2 analytically  !
 ! A17   A(10,6,12)            115.4764         calculate D2E/DX2 analytically  !
 ! A18   A(10,6,13)             80.4328         calculate D2E/DX2 analytically  !
 ! A19   A(12,6,13)            135.5534         calculate D2E/DX2 analytically  !
 ! A20   A(4,12,6)             110.6311         calculate D2E/DX2 analytically  !
 ! D1    D(2,1,3,5)              6.2762         calculate D2E/DX2 analytically  !
 ! D2    D(2,1,3,6)           -174.2135         calculate D2E/DX2 analytically  !
 ! D3    D(2,1,3,13)           145.8108         calculate D2E/DX2 analytically  !
 ! D4    D(11,1,3,5)           173.2777         calculate D2E/DX2 analytically  !
 ! D5    D(11,1,3,6)            -7.2119         calculate D2E/DX2 analytically  !
 ! D6    D(11,1,3,13)          -47.1877         calculate D2E/DX2 analytically  !
 ! D7    D(1,3,5,7)             59.0596         calculate D2E/DX2 analytically  !
 ! D8    D(1,3,5,8)            179.0434         calculate D2E/DX2 analytically  !
 ! D9    D(1,3,5,9)            -60.1392         calculate D2E/DX2 analytically  !
 ! D10   D(6,3,5,7)           -120.4415         calculate D2E/DX2 analytically  !
 ! D11   D(6,3,5,8)             -0.4577         calculate D2E/DX2 analytically  !
 ! D12   D(6,3,5,9)            120.3597         calculate D2E/DX2 analytically  !
 ! D13   D(13,3,5,7)           -42.6421         calculate D2E/DX2 analytically  !
 ! D14   D(13,3,5,8)            77.3418         calculate D2E/DX2 analytically  !
 ! D15   D(13,3,5,9)          -161.8408         calculate D2E/DX2 analytically  !
 ! D16   D(1,3,6,10)             5.1914         calculate D2E/DX2 analytically  !
 ! D17   D(1,3,6,12)          -173.6291         calculate D2E/DX2 analytically  !
 ! D18   D(5,3,6,10)          -175.3288         calculate D2E/DX2 analytically  !
 ! D19   D(5,3,6,12)             5.8507         calculate D2E/DX2 analytically  !
 ! D20   D(3,6,12,4)          -118.4765         calculate D2E/DX2 analytically  !
 ! D21   D(10,6,12,4)           62.649          calculate D2E/DX2 analytically  !
 ! D22   D(13,6,12,4)          165.5253         calculate D2E/DX2 analytically  !
 --------------------------------------------------------------------------------
 Trust Radius=3.00D-01 FncErr=1.00D-07 GrdErr=1.00D-06
 Number of steps in this run=     65 maximum allowed number of steps=    100.
 Search for a saddle point of order  1.
 GradGradGradGradGradGradGradGradGradGradGradGradGradGradGradGradGradGrad

 Leave Link  103 at Thu Apr 14 08:48:51 2016, MaxMem=    33554432 cpu:         0.0
 (Enter /usr/local/gau/g09/l202.exe)
                          Input orientation:                          
 ---------------------------------------------------------------------
 Center     Atomic      Atomic             Coordinates (Angstroms)
 Number     Number       Type             X           Y           Z
 ---------------------------------------------------------------------
      1          7           0        1.284022    1.096576    0.178198
      2          1           0        2.281252    1.172502    0.095734
      3          6           0        0.666081   -0.151844    0.152964
      4          1           0       -2.061454   -1.646199   -0.553407
      5          6           0        1.574107   -1.349928    0.145284
      6          6           0       -0.829194   -0.270591    0.145742
      7          1           0        2.219624   -1.352840    1.033940
      8          1           0        0.992840   -2.272436    0.142304
      9          1           0        2.229332   -1.342878   -0.737245
     10          8           0       -1.638475    0.880616    0.054440
     11          1           0        0.721674    1.924360    0.081476
     12          8           0       -1.519442   -1.486122    0.249848
     13          1           0       -0.135335    0.576004    1.040640
 ---------------------------------------------------------------------
                    Distance matrix (angstroms):
                    1          2          3          4          5
     1  N    0.000000
     2  H    1.003510   0.000000
     3  C    1.393212   2.089484   0.000000
     4  H    4.387513   5.217811   3.189279   0.000000
     5  C    2.463862   2.620145   1.503321   3.713926   0.000000
     6  C    2.517117   3.429270   1.500000   1.974733   2.634545
     7  H    2.758131   2.694695   2.152210   4.575299   1.098367
     8  H    3.381762   3.678284   2.145646   3.194511   1.090367
     9  H    2.771747   2.650224   2.157496   4.305420   1.099194
    10  O    2.933077   3.930797   2.527184   2.633094   3.912067
    11  H    1.005394   1.731409   2.078178   4.571407   3.384032
    12  O    3.812462   4.640830   2.562458   0.982151   3.098310
    13  H    1.740510   2.662433   1.400000   3.345012   2.726366
                    6          7          8          9         10
     6  C    0.000000
     7  H    3.354914   0.000000
     8  H    2.706881   1.773604   0.000000
     9  H    3.359174   1.771240   1.779493   0.000000
    10  O    1.410159   4.564283   4.107710   4.531073   0.000000
    11  H    2.688332   3.727074   4.205987   3.690282   2.580782
    12  O    1.401712   3.822719   2.634657   3.879198   2.377772
    13  H    1.413862   3.044063   3.192711   3.526278   1.823405
                   11         12         13
    11  H    0.000000
    12  O    4.084401   0.000000
    13  H    1.863470   2.606428   0.000000
 Stoichiometry    C3H7NO2
 Framework group  C1[X(C3H7NO2)]
 Deg. of freedom    33
 Full point group                 C1      NOp   1
 Largest Abelian subgroup         C1      NOp   1
 Largest concise Abelian subgroup C1      NOp   1
                         Standard orientation:                         
 ---------------------------------------------------------------------
 Center     Atomic      Atomic             Coordinates (Angstroms)
 Number     Number       Type             X           Y           Z
 ---------------------------------------------------------------------
      1          7           0       -1.426758   -1.200679    0.004888
      2          1           0       -2.425416   -1.189763   -0.093068
      3          6           0       -0.702104   -0.010891   -0.013049
      4          1           0        2.155828    1.237986   -0.679407
      5          6           0       -1.502090    1.261670   -0.037282
      6          6           0        0.797763   -0.022807    0.002966
      7          1           0       -2.158565    1.323691    0.841128
      8          1           0       -0.842700    2.130051   -0.032916
      9          1           0       -2.141712    1.308796   -0.929969
     10          8           0        1.505005   -1.240397   -0.073410
     11          1           0       -0.937224   -2.074594   -0.081405
     12          8           0        1.589575    1.128346    0.115551
     13          1           0        0.019042   -0.802833    0.888492
 ---------------------------------------------------------------------
 Rotational constants (GHZ):      4.8863144      2.9723033      1.8917540
 Leave Link  202 at Thu Apr 14 08:48:51 2016, MaxMem=    33554432 cpu:         0.0
 (Enter /usr/local/gau/g09/l301.exe)
 Standard basis: 6-31G (6D, 7F)
 Ernie: Thresh=  0.10000D-02 Tol=  0.10000D-05 Strict=F.
 There are    68 symmetry adapted cartesian basis functions of A   symmetry.
 There are    68 symmetry adapted basis functions of A   symmetry.
    68 basis functions,   160 primitive gaussians,    68 cartesian basis functions
    24 alpha electrons       24 beta electrons
       nuclear repulsion energy       241.1914816135 Hartrees.
 IExCor=  402 DFT=T Ex+Corr=B3LYP ExCW=0 ScaHFX=  0.200000
 ScaDFX=  0.800000  0.720000  1.000000  0.810000 ScalE2=  1.000000  1.000000
 IRadAn=      0 IRanWt=     -1 IRanGd=            0 ICorTp=0 IEmpDi=  4
 NAtoms=   13 NActive=   13 NUniq=   13 SFac= 1.00D+00 NAtFMM=   60 NAOKFM=F Big=F
 Integral buffers will be    131072 words long.
 Raffenetti 2 integral format.
 Two-electron integral symmetry is turned on.
 Leave Link  301 at Thu Apr 14 08:48:51 2016, MaxMem=    33554432 cpu:         0.0
 (Enter /usr/local/gau/g09/l302.exe)
 NPDir=0 NMtPBC=     1 NCelOv=     1 NCel=       1 NClECP=     1 NCelD=      1
         NCelK=      1 NCelE2=     1 NClLst=     1 CellRange=     0.0.
 One-electron integrals computed using PRISM.
 NBasis=    68 RedAO= T EigKep=  3.87D-03  NBF=    68
 NBsUse=    68 1.00D-06 EigRej= -1.00D+00 NBFU=    68
 Precomputing XC quadrature grid using
 IXCGrd= 4 IRadAn=           0 IRanWt=          -1 IRanGd=           0 AccXCQ= 0.00D+00.
 Generated NRdTot=       0 NPtTot=           0 NUsed=           0 NTot=          32
 NSgBfM=    68    68    68    68    68 MxSgAt=    13 MxSgA2=    13.
 Leave Link  302 at Thu Apr 14 08:48:52 2016, MaxMem=    33554432 cpu:         0.2
 (Enter /usr/local/gau/g09/l303.exe)
 DipDrv:  MaxL=1.
 Leave Link  303 at Thu Apr 14 08:48:52 2016, MaxMem=    33554432 cpu:         0.0
 (Enter /usr/local/gau/g09/l401.exe)
 ExpMin= 1.61D-01 ExpMax= 5.48D+03 ExpMxC= 8.25D+02 IAcc=1 IRadAn=         1 AccDes= 0.00D+00
 Harris functional with IExCor=  402 and IRadAn=       1 diagonalized for initial guess.
 HarFok:  IExCor=  402 AccDes= 0.00D+00 IRadAn=         1 IDoV= 1 UseB2=F ITyADJ=14
 ICtDFT=  3500011 ScaDFX=  1.000000  1.000000  1.000000  1.000000
 FoFCou: FMM=F IPFlag=           0 FMFlag=      100000 FMFlg1=           0
         NFxFlg=           0 DoJE=T BraDBF=F KetDBF=T FulRan=T
         wScrn=  0.000000 ICntrl=     500 IOpCl=  0 I1Cent=   200000004 NGrid=           0
         NMat0=    1 NMatS0=      1 NMatT0=    0 NMatD0=    1 NMtDS0=    0 NMtDT0=    0
 Petite list used in FoFCou.
 Harris En= -323.530157162474    
 JPrj=0 DoOrth=F DoCkMO=F.
 Leave Link  401 at Thu Apr 14 08:48:53 2016, MaxMem=    33554432 cpu:         0.5
 (Enter /usr/local/gau/g09/l502.exe)
 Closed shell SCF:
 Using DIIS extrapolation, IDIIS=  1040.
 Integral symmetry usage will be decided dynamically.
 Keep R1 ints in memory in canonical form, NReq=3676491.
 IVT=       33364 IEndB=       33364 NGot=    33554432 MDV=    30768038
 LenX=    30768038 LenY=    30762973
 Requested convergence on RMS density matrix=1.00D-08 within 128 cycles.
 Requested convergence on MAX density matrix=1.00D-06.
 Requested convergence on             energy=1.00D-06.
 No special actions if energy rises.
 FoFCou: FMM=F IPFlag=           0 FMFlag=           0 FMFlg1=           0
         NFxFlg=           0 DoJE=F BraDBF=F KetDBF=F FulRan=T
         wScrn=  0.000000 ICntrl=     600 IOpCl=  0 I1Cent=           0 NGrid=           0
         NMat0=    1 NMatS0=   2346 NMatT0=    0 NMatD0=    1 NMtDS0=    0 NMtDT0=    0
 Symmetry not used in FoFCou.
 Integral accuracy reduced to 1.0D-05 until final iterations.

 Cycle   1  Pass 0  IDiag  1:
 E= -323.199443825846    
 DIIS: error= 4.41D-02 at cycle   1 NSaved=   1.
 NSaved= 1 IEnMin= 1 EnMin= -323.199443825846     IErMin= 1 ErrMin= 4.41D-02
 ErrMax= 4.41D-02  0.00D+00 EMaxC= 1.00D-01 BMatC= 2.79D-01 BMatP= 2.79D-01
 IDIUse=3 WtCom= 5.59D-01 WtEn= 4.41D-01
 Coeff-Com:  0.100D+01
 Coeff-En:   0.100D+01
 Coeff:      0.100D+01
 Gap=     0.122 Goal=   None    Shift=    0.000
 GapD=    0.122 DampG=1.000 DampE=0.500 DampFc=0.5000 IDamp=-1.
 Damping current iteration by 5.00D-01
 RMSDP=3.65D-02 MaxDP=5.81D-01              OVMax= 6.74D-01

 Cycle   2  Pass 0  IDiag  1:
 E= -322.884288272067     Delta-E=        0.315155553780 Rises=F Damp=T
 DIIS: error= 5.33D-02 at cycle   2 NSaved=   2.
 NSaved= 2 IEnMin= 1 EnMin= -323.199443825846     IErMin= 1 ErrMin= 4.41D-02
 ErrMax= 5.33D-02  0.00D+00 EMaxC= 1.00D-01 BMatC= 2.57D-01 BMatP= 2.79D-01
 IDIUse=3 WtCom= 4.67D-01 WtEn= 5.33D-01
 Coeff-Com:  0.487D+00 0.513D+00
 Coeff-En:   0.725D+00 0.275D+00
 Coeff:      0.613D+00 0.387D+00
 Gap=     0.054 Goal=   None    Shift=    0.000
 RMSDP=1.62D-02 MaxDP=2.40D-01 DE= 3.15D-01 OVMax= 5.81D-01

 Cycle   3  Pass 0  IDiag  1:
 E= -323.317781300877     Delta-E=       -0.433493028810 Rises=F Damp=F
 DIIS: error= 3.24D-02 at cycle   3 NSaved=   3.
 NSaved= 3 IEnMin= 3 EnMin= -323.317781300877     IErMin= 3 ErrMin= 3.24D-02
 ErrMax= 3.24D-02  0.00D+00 EMaxC= 1.00D-01 BMatC= 1.34D-01 BMatP= 2.57D-01
 IDIUse=3 WtCom= 6.76D-01 WtEn= 3.24D-01
 EnCoef did     2 forward-backward iterations
 Coeff-Com:  0.313D+00 0.307D+00 0.380D+00
 Coeff-En:   0.289D+00 0.460D-01 0.665D+00
 Coeff:      0.305D+00 0.222D+00 0.473D+00
 Gap=     0.174 Goal=   None    Shift=    0.000
 RMSDP=8.63D-03 MaxDP=9.27D-02 DE=-4.33D-01 OVMax= 2.41D-01

 Cycle   4  Pass 0  IDiag  1:
 E= -323.417386380400     Delta-E=       -0.099605079524 Rises=F Damp=F
 DIIS: error= 2.20D-02 at cycle   4 NSaved=   4.
 NSaved= 4 IEnMin= 4 EnMin= -323.417386380400     IErMin= 4 ErrMin= 2.20D-02
 ErrMax= 2.20D-02  0.00D+00 EMaxC= 1.00D-01 BMatC= 3.48D-02 BMatP= 1.34D-01
 IDIUse=3 WtCom= 7.80D-01 WtEn= 2.20D-01
 Coeff-Com:  0.150D+00 0.421D-01 0.313D+00 0.495D+00
 Coeff-En:   0.000D+00 0.000D+00 0.232D+00 0.768D+00
 Coeff:      0.117D+00 0.328D-01 0.296D+00 0.555D+00
 Gap=     0.168 Goal=   None    Shift=    0.000
 RMSDP=4.18D-03 MaxDP=5.04D-02 DE=-9.96D-02 OVMax= 1.27D-01

 Cycle   5  Pass 0  IDiag  1:
 E= -323.447008099832     Delta-E=       -0.029621719431 Rises=F Damp=F
 DIIS: error= 7.53D-03 at cycle   5 NSaved=   5.
 NSaved= 5 IEnMin= 5 EnMin= -323.447008099832     IErMin= 5 ErrMin= 7.53D-03
 ErrMax= 7.53D-03  0.00D+00 EMaxC= 1.00D-01 BMatC= 3.54D-03 BMatP= 3.48D-02
 IDIUse=3 WtCom= 9.25D-01 WtEn= 7.53D-02
 Coeff-Com: -0.738D-03-0.732D-02 0.726D-01 0.302D+00 0.633D+00
 Coeff-En:   0.000D+00 0.000D+00 0.000D+00 0.141D+00 0.859D+00
 Coeff:     -0.683D-03-0.677D-02 0.671D-01 0.290D+00 0.650D+00
 Gap=     0.163 Goal=   None    Shift=    0.000
 RMSDP=1.35D-03 MaxDP=1.63D-02 DE=-2.96D-02 OVMax= 4.35D-02

 Cycle   6  Pass 0  IDiag  1:
 E= -323.450250418761     Delta-E=       -0.003242318929 Rises=F Damp=F
 DIIS: error= 2.17D-03 at cycle   6 NSaved=   6.
 NSaved= 6 IEnMin= 6 EnMin= -323.450250418761     IErMin= 6 ErrMin= 2.17D-03
 ErrMax= 2.17D-03  0.00D+00 EMaxC= 1.00D-01 BMatC= 2.83D-04 BMatP= 3.54D-03
 IDIUse=3 WtCom= 9.78D-01 WtEn= 2.17D-02
 Coeff-Com: -0.776D-02-0.907D-02 0.172D-01 0.107D+00 0.365D+00 0.527D+00
 Coeff-En:   0.000D+00 0.000D+00 0.000D+00 0.000D+00 0.101D+00 0.899D+00
 Coeff:     -0.760D-02-0.888D-02 0.168D-01 0.105D+00 0.359D+00 0.535D+00
 Gap=     0.164 Goal=   None    Shift=    0.000
 RMSDP=3.07D-04 MaxDP=4.58D-03 DE=-3.24D-03 OVMax= 8.54D-03

 Cycle   7  Pass 0  IDiag  1:
 E= -323.450536011821     Delta-E=       -0.000285593060 Rises=F Damp=F
 DIIS: error= 6.31D-04 at cycle   7 NSaved=   7.
 NSaved= 7 IEnMin= 7 EnMin= -323.450536011821     IErMin= 7 ErrMin= 6.31D-04
 ErrMax= 6.31D-04  0.00D+00 EMaxC= 1.00D-01 BMatC= 2.14D-05 BMatP= 2.83D-04
 IDIUse=3 WtCom= 9.94D-01 WtEn= 6.31D-03
 Coeff-Com: -0.490D-03-0.282D-02 0.196D-02 0.496D-02 0.902D-01 0.286D+00
 Coeff-Com:  0.620D+00
 Coeff-En:   0.000D+00 0.000D+00 0.000D+00 0.000D+00 0.000D+00 0.000D+00
 Coeff-En:   0.100D+01
 Coeff:     -0.486D-03-0.280D-02 0.194D-02 0.493D-02 0.897D-01 0.284D+00
 Coeff:      0.623D+00
 Gap=     0.164 Goal=   None    Shift=    0.000
 RMSDP=8.42D-05 MaxDP=7.12D-04 DE=-2.86D-04 OVMax= 1.36D-03

 Cycle   8  Pass 0  IDiag  1:
 E= -323.450554722072     Delta-E=       -0.000018710251 Rises=F Damp=F
 DIIS: error= 7.03D-05 at cycle   8 NSaved=   8.
 NSaved= 8 IEnMin= 8 EnMin= -323.450554722072     IErMin= 8 ErrMin= 7.03D-05
 ErrMax= 7.03D-05  0.00D+00 EMaxC= 1.00D-01 BMatC= 8.12D-07 BMatP= 2.14D-05
 IDIUse=1 WtCom= 1.00D+00 WtEn= 0.00D+00
 Coeff-Com:  0.675D-03-0.631D-03-0.678D-04-0.647D-02 0.143D-01 0.952D-01
 Coeff-Com:  0.284D+00 0.613D+00
 Coeff:      0.675D-03-0.631D-03-0.678D-04-0.647D-02 0.143D-01 0.952D-01
 Coeff:      0.284D+00 0.613D+00
 Gap=     0.164 Goal=   None    Shift=    0.000
 RMSDP=1.94D-05 MaxDP=1.77D-04 DE=-1.87D-05 OVMax= 3.23D-04

 Cycle   9  Pass 0  IDiag  1:
 E= -323.450555477167     Delta-E=       -0.000000755095 Rises=F Damp=F
 DIIS: error= 2.02D-05 at cycle   9 NSaved=   9.
 NSaved= 9 IEnMin= 9 EnMin= -323.450555477167     IErMin= 9 ErrMin= 2.02D-05
 ErrMax= 2.02D-05  0.00D+00 EMaxC= 1.00D-01 BMatC= 4.38D-08 BMatP= 8.12D-07
 IDIUse=1 WtCom= 1.00D+00 WtEn= 0.00D+00
 Coeff-Com:  0.204D-03-0.388D-04-0.190D-03-0.219D-02-0.291D-02 0.588D-02
 Coeff-Com:  0.379D-01 0.228D+00 0.733D+00
 Coeff:      0.204D-03-0.388D-04-0.190D-03-0.219D-02-0.291D-02 0.588D-02
 Coeff:      0.379D-01 0.228D+00 0.733D+00
 Gap=     0.164 Goal=   None    Shift=    0.000
 RMSDP=8.10D-06 MaxDP=8.10D-05 DE=-7.55D-07 OVMax= 2.26D-04

 Initial convergence to 1.0D-05 achieved.  Increase integral accuracy.
 Cycle  10  Pass 1  IDiag  1:
 E= -323.450611181760     Delta-E=       -0.000055704593 Rises=F Damp=F
 DIIS: error= 1.36D-05 at cycle   1 NSaved=   1.
 NSaved= 1 IEnMin= 1 EnMin= -323.450611181760     IErMin= 1 ErrMin= 1.36D-05
 ErrMax= 1.36D-05  0.00D+00 EMaxC= 1.00D-01 BMatC= 2.62D-08 BMatP= 2.62D-08
 IDIUse=1 WtCom= 1.00D+00 WtEn= 0.00D+00
 Coeff-Com:  0.100D+01
 Coeff:      0.100D+01
 Gap=     0.164 Goal=   None    Shift=    0.000
 RMSDP=8.10D-06 MaxDP=8.10D-05 DE=-5.57D-05 OVMax= 1.08D-04

 Cycle  11  Pass 1  IDiag  1:
 E= -323.450611183786     Delta-E=       -0.000000002026 Rises=F Damp=F
 DIIS: error= 1.73D-05 at cycle   2 NSaved=   2.
 NSaved= 2 IEnMin= 2 EnMin= -323.450611183786     IErMin= 1 ErrMin= 1.36D-05
 ErrMax= 1.73D-05  0.00D+00 EMaxC= 1.00D-01 BMatC= 4.31D-08 BMatP= 2.62D-08
 IDIUse=1 WtCom= 1.00D+00 WtEn= 0.00D+00
 Coeff-Com:  0.579D+00 0.421D+00
 Coeff:      0.579D+00 0.421D+00
 Gap=     0.164 Goal=   None    Shift=    0.000
 RMSDP=5.43D-06 MaxDP=6.67D-05 DE=-2.03D-09 OVMax= 1.28D-04

 Cycle  12  Pass 1  IDiag  1:
 E= -323.450611211006     Delta-E=       -0.000000027220 Rises=F Damp=F
 DIIS: error= 1.40D-05 at cycle   3 NSaved=   3.
 NSaved= 3 IEnMin= 3 EnMin= -323.450611211006     IErMin= 1 ErrMin= 1.36D-05
 ErrMax= 1.40D-05  0.00D+00 EMaxC= 1.00D-01 BMatC= 1.53D-08 BMatP= 2.62D-08
 IDIUse=1 WtCom= 1.00D+00 WtEn= 0.00D+00
 Coeff-Com:  0.175D+00 0.343D+00 0.482D+00
 Coeff:      0.175D+00 0.343D+00 0.482D+00
 Gap=     0.164 Goal=   None    Shift=    0.000
 RMSDP=2.99D-06 MaxDP=4.17D-05 DE=-2.72D-08 OVMax= 7.10D-05

 Cycle  13  Pass 1  IDiag  1:
 E= -323.450611222201     Delta-E=       -0.000000011195 Rises=F Damp=F
 DIIS: error= 5.22D-06 at cycle   4 NSaved=   4.
 NSaved= 4 IEnMin= 4 EnMin= -323.450611222201     IErMin= 4 ErrMin= 5.22D-06
 ErrMax= 5.22D-06  0.00D+00 EMaxC= 1.00D-01 BMatC= 2.72D-09 BMatP= 1.53D-08
 IDIUse=1 WtCom= 1.00D+00 WtEn= 0.00D+00
 Coeff-Com: -0.536D-02 0.158D+00 0.352D+00 0.495D+00
 Coeff:     -0.536D-02 0.158D+00 0.352D+00 0.495D+00
 Gap=     0.164 Goal=   None    Shift=    0.000
 RMSDP=9.49D-07 MaxDP=1.29D-05 DE=-1.12D-08 OVMax= 2.57D-05

 Cycle  14  Pass 1  IDiag  1:
 E= -323.450611224634     Delta-E=       -0.000000002433 Rises=F Damp=F
 DIIS: error= 9.94D-07 at cycle   5 NSaved=   5.
 NSaved= 5 IEnMin= 5 EnMin= -323.450611224634     IErMin= 5 ErrMin= 9.94D-07
 ErrMax= 9.94D-07  0.00D+00 EMaxC= 1.00D-01 BMatC= 7.32D-11 BMatP= 2.72D-09
 IDIUse=1 WtCom= 1.00D+00 WtEn= 0.00D+00
 Coeff-Com: -0.121D-01 0.711D-01 0.162D+00 0.262D+00 0.517D+00
 Coeff:     -0.121D-01 0.711D-01 0.162D+00 0.262D+00 0.517D+00
 Gap=     0.164 Goal=   None    Shift=    0.000
 RMSDP=2.09D-07 MaxDP=2.50D-06 DE=-2.43D-09 OVMax= 5.15D-06

 Cycle  15  Pass 1  IDiag  1:
 E= -323.450611224714     Delta-E=       -0.000000000080 Rises=F Damp=F
 DIIS: error= 2.97D-07 at cycle   6 NSaved=   6.
 NSaved= 6 IEnMin= 6 EnMin= -323.450611224714     IErMin= 6 ErrMin= 2.97D-07
 ErrMax= 2.97D-07  0.00D+00 EMaxC= 1.00D-01 BMatC= 8.41D-12 BMatP= 7.32D-11
 IDIUse=1 WtCom= 1.00D+00 WtEn= 0.00D+00
 Coeff-Com: -0.548D-02 0.235D-01 0.500D-01 0.876D-01 0.292D+00 0.553D+00
 Coeff:     -0.548D-02 0.235D-01 0.500D-01 0.876D-01 0.292D+00 0.553D+00
 Gap=     0.164 Goal=   None    Shift=    0.000
 RMSDP=6.51D-08 MaxDP=7.38D-07 DE=-8.04D-11 OVMax= 1.34D-06

 Cycle  16  Pass 1  IDiag  1:
 E= -323.450611224721     Delta-E=       -0.000000000007 Rises=F Damp=F
 DIIS: error= 9.35D-08 at cycle   7 NSaved=   7.
 NSaved= 7 IEnMin= 7 EnMin= -323.450611224721     IErMin= 7 ErrMin= 9.35D-08
 ErrMax= 9.35D-08  0.00D+00 EMaxC= 1.00D-01 BMatC= 6.35D-13 BMatP= 8.41D-12
 IDIUse=1 WtCom= 1.00D+00 WtEn= 0.00D+00
 Coeff-Com: -0.889D-03 0.182D-02-0.259D-03 0.532D-02 0.596D-01 0.233D+00
 Coeff-Com:  0.701D+00
 Coeff:     -0.889D-03 0.182D-02-0.259D-03 0.532D-02 0.596D-01 0.233D+00
 Coeff:      0.701D+00
 Gap=     0.164 Goal=   None    Shift=    0.000
 RMSDP=1.90D-08 MaxDP=2.14D-07 DE=-7.05D-12 OVMax= 3.92D-07

 Cycle  17  Pass 1  IDiag  1:
 E= -323.450611224722     Delta-E=       -0.000000000001 Rises=F Damp=F
 DIIS: error= 2.88D-08 at cycle   8 NSaved=   8.
 NSaved= 8 IEnMin= 8 EnMin= -323.450611224722     IErMin= 8 ErrMin= 2.88D-08
 ErrMax= 2.88D-08  0.00D+00 EMaxC= 1.00D-01 BMatC= 7.26D-14 BMatP= 6.35D-13
 IDIUse=1 WtCom= 1.00D+00 WtEn= 0.00D+00
 Coeff-Com: -0.810D-04-0.644D-03-0.375D-02-0.350D-02 0.605D-02 0.712D-01
 Coeff-Com:  0.345D+00 0.585D+00
 Coeff:     -0.810D-04-0.644D-03-0.375D-02-0.350D-02 0.605D-02 0.712D-01
 Coeff:      0.345D+00 0.585D+00
 Gap=     0.164 Goal=   None    Shift=    0.000
 RMSDP=6.97D-09 MaxDP=7.40D-08 DE=-1.25D-12 OVMax= 1.67D-07

 SCF Done:  E(RB3LYP) =  -323.450611225     A.U. after   17 cycles
            NFock= 17  Conv=0.70D-08     -V/T= 2.0063
 KE= 3.214272703118D+02 PE=-1.239691091166D+03 EE= 3.536217280163D+02
 Leave Link  502 at Thu Apr 14 08:49:08 2016, MaxMem=    33554432 cpu:        12.6
 (Enter /usr/local/gau/g09/l801.exe)
 DoSCS=F DFT=T ScalE2(SS,OS)=  1.000000  1.000000
 Range of M.O.s used for correlation:     1    68
 NBasis=    68 NAE=    24 NBE=    24 NFC=     0 NFV=     0
 NROrb=     68 NOA=    24 NOB=    24 NVA=    44 NVB=    44
 Leave Link  801 at Thu Apr 14 08:49:09 2016, MaxMem=    33554432 cpu:         0.0
 (Enter /usr/local/gau/g09/l1101.exe)
 Using compressed storage, NAtomX=    13.
 Will process     14 centers per pass.
 Leave Link 1101 at Thu Apr 14 08:49:09 2016, MaxMem=    33554432 cpu:         0.1
 (Enter /usr/local/gau/g09/l1102.exe)
 Symmetrizing basis deriv contribution to polar:
 IMax=3 JMax=2 DiffMx= 0.00D+00
 Leave Link 1102 at Thu Apr 14 08:49:09 2016, MaxMem=    33554432 cpu:         0.0
 (Enter /usr/local/gau/g09/l1110.exe)
 Forming Gx(P) for the SCF density, NAtomX=    13.
 Integral derivatives from FoFJK, PRISM(SPDF).
 Do as many integral derivatives as possible in FoFJK.
 G2DrvN: MDV=      33554224.
 G2DrvN: will do    14 centers at a time, making    1 passes.
 Calling FoFCou, ICntrl=  3107 FMM=F I1Cent=   0 AccDes= 0.00D+00.
 FoFJK:  IHMeth= 1 ICntrl=    3107 DoSepK=F KAlg= 0 I1Cent=   0 FoldK=F
 IRaf=         0 NMat=   1 IRICut=       1 DoRegI=T DoRafI=F ISym2E= 0.
 FoFCou: FMM=F IPFlag=           0 FMFlag=      100000 FMFlg1=           0
         NFxFlg=           0 DoJE=F BraDBF=F KetDBF=F FulRan=T
         wScrn=  0.000000 ICntrl=    3107 IOpCl=  0 I1Cent=           0 NGrid=           0
         NMat0=    1 NMatS0=      1 NMatT0=    0 NMatD0=    1 NMtDS0=    0 NMtDT0=    0
 Symmetry not used in FoFCou.
 End of G2Drv F.D. properties file   721 does not exist.
 End of G2Drv F.D. properties file   722 does not exist.
 End of G2Drv F.D. properties file   788 does not exist.
 Leave Link 1110 at Thu Apr 14 08:49:46 2016, MaxMem=    33554432 cpu:        24.2
 (Enter /usr/local/gau/g09/l1002.exe)
 Minotr:  Closed shell wavefunction.
          IDoAtm=1111111111111
          Direct CPHF calculation.
          Differentiating once with respect to nuclear coordinates.
          Requested convergence is 1.0D-08 RMS, and 1.0D-07 maximum.
          Secondary convergence is 1.0D-12 RMS, and 1.0D-12 maximum.
          NewPWx=T KeepS1=F KeepF1=F KeepIn=T MapXYZ=F SortEE=F KeepMc=T.
          MDV=      33554230 using IRadAn=       2.
 Generate precomputed XC quadrature information.
 Keep R1 ints in memory in canonical form, NReq=3645297.
 FoFCou: FMM=F IPFlag=           0 FMFlag=           0 FMFlg1=           0
         NFxFlg=           0 DoJE=F BraDBF=F KetDBF=F FulRan=T
         wScrn=  0.000000 ICntrl=     600 IOpCl=  0 I1Cent=           0 NGrid=           0
         NMat0=    1 NMatS0=   2346 NMatT0=    0 NMatD0=    1 NMtDS0=    0 NMtDT0=    0
 Symmetry not used in FoFCou.
          Solving linear equations simultaneously, MaxMat=       0.
          There are    42 degrees of freedom in the 1st order CPHF.  IDoFFX=6 NUNeed=     0.
     36 vectors produced by pass  0 Test12= 2.51D-15 2.38D-09 XBig12= 2.16D-01 1.06D-01.
 AX will form    36 AO Fock derivatives at one time.
     36 vectors produced by pass  1 Test12= 2.51D-15 2.38D-09 XBig12= 4.77D-02 4.38D-02.
     36 vectors produced by pass  2 Test12= 2.51D-15 2.38D-09 XBig12= 1.95D-04 2.53D-03.
     36 vectors produced by pass  3 Test12= 2.51D-15 2.38D-09 XBig12= 3.66D-07 9.45D-05.
     36 vectors produced by pass  4 Test12= 2.51D-15 2.38D-09 XBig12= 2.62D-10 2.08D-06.
     19 vectors produced by pass  5 Test12= 2.51D-15 2.38D-09 XBig12= 1.36D-13 4.08D-08.
 InvSVY:  IOpt=1 It=  1 EMax= 2.00D-15
 Solved reduced A of dimension   199 with    36 vectors.
 End of Minotr F.D. properties file   721 does not exist.
 End of Minotr F.D. properties file   722 does not exist.
 End of Minotr F.D. properties file   788 does not exist.
 Leave Link 1002 at Thu Apr 14 08:50:09 2016, MaxMem=    33554432 cpu:        15.6
 (Enter /usr/local/gau/g09/l601.exe)
 Copying SCF densities to generalized density rwf, IOpCl= 0 IROHF=0.

 **********************************************************************

            Population analysis using the SCF density.

 **********************************************************************

 Orbital symmetries:
       Occupied  (A) (A) (A) (A) (A) (A) (A) (A) (A) (A) (A) (A)
                 (A) (A) (A) (A) (A) (A) (A) (A) (A) (A) (A) (A)
       Virtual   (A) (A) (A) (A) (A) (A) (A) (A) (A) (A) (A) (A)
                 (A) (A) (A) (A) (A) (A) (A) (A) (A) (A) (A) (A)
                 (A) (A) (A) (A) (A) (A) (A) (A) (A) (A) (A) (A)
                 (A) (A) (A) (A) (A) (A) (A) (A)
 The electronic state is 1-A.
 Alpha  occ. eigenvalues --  -19.17295 -19.08593 -14.35049 -10.32121 -10.27712
 Alpha  occ. eigenvalues --  -10.20626  -1.06361  -0.96227  -0.91278  -0.77770
 Alpha  occ. eigenvalues --   -0.71120  -0.60290  -0.56298  -0.51329  -0.47879
 Alpha  occ. eigenvalues --   -0.45520  -0.42828  -0.41436  -0.39317  -0.36055
 Alpha  occ. eigenvalues --   -0.31070  -0.28181  -0.22890  -0.17749
 Alpha virt. eigenvalues --   -0.01319   0.00963   0.06296   0.08141   0.11050
 Alpha virt. eigenvalues --    0.12875   0.15673   0.15986   0.18572   0.21047
 Alpha virt. eigenvalues --    0.24437   0.33768   0.35880   0.51047   0.52648
 Alpha virt. eigenvalues --    0.54747   0.59802   0.61609   0.63792   0.65353
 Alpha virt. eigenvalues --    0.70767   0.73910   0.74770   0.79666   0.82400
 Alpha virt. eigenvalues --    0.85985   0.86424   0.90156   0.92246   0.93158
 Alpha virt. eigenvalues --    0.94015   0.96768   0.99017   1.05705   1.07701
 Alpha virt. eigenvalues --    1.09303   1.15092   1.20436   1.26467   1.29711
 Alpha virt. eigenvalues --    1.42691   1.56094   1.69812   1.97708
          Condensed to atoms (all electrons):
               1          2          3          4          5          6
     1  N    7.245896   0.326869   0.126251  -0.000105  -0.076466  -0.069541
     2  H    0.326869   0.379506  -0.023795   0.000002  -0.004852   0.004970
     3  C    0.126251  -0.023795   5.671656   0.003283   0.294570   0.087074
     4  H   -0.000105   0.000002   0.003283   0.374857  -0.000026  -0.019041
     5  C   -0.076466  -0.004852   0.294570  -0.000026   5.155906  -0.013232
     6  C   -0.069541   0.004970   0.087074  -0.019041  -0.013232   5.072493
     7  H    0.006578   0.000340  -0.040136  -0.000019   0.362123   0.002030
     8  H    0.003715   0.000023  -0.032333  -0.000198   0.371659  -0.002358
     9  H   -0.003586   0.002232  -0.038816   0.000039   0.371742  -0.001060
    10  O    0.004337   0.000210  -0.132937   0.002843   0.002217   0.349904
    11  H    0.305349  -0.016968  -0.042136  -0.000021   0.005134   0.004628
    12  O    0.001849  -0.000004  -0.107149   0.238736  -0.000709   0.145468
    13  H   -0.082015   0.002615   0.049940   0.001307   0.004037   0.118684
               7          8          9         10         11         12
     1  N    0.006578   0.003715  -0.003586   0.004337   0.305349   0.001849
     2  H    0.000340   0.000023   0.002232   0.000210  -0.016968  -0.000004
     3  C   -0.040136  -0.032333  -0.038816  -0.132937  -0.042136  -0.107149
     4  H   -0.000019  -0.000198   0.000039   0.002843  -0.000021   0.238736
     5  C    0.362123   0.371659   0.371742   0.002217   0.005134  -0.000709
     6  C    0.002030  -0.002358  -0.001060   0.349904   0.004628   0.145468
     7  H    0.572289  -0.024325  -0.036937   0.000001  -0.000094  -0.000008
     8  H   -0.024325   0.508970  -0.022606   0.000125  -0.000169   0.008967
     9  H   -0.036937  -0.022606   0.560040  -0.000027  -0.000108   0.000214
    10  O    0.000001   0.000125  -0.000027   8.401719   0.017899  -0.092971
    11  H   -0.000094  -0.000169  -0.000108   0.017899   0.376850   0.000361
    12  O   -0.000008   0.008967   0.000214  -0.092971   0.000361   8.388415
    13  H   -0.004550   0.000163   0.001358   0.008860   0.006958   0.004926
              13
     1  N   -0.082015
     2  H    0.002615
     3  C    0.049940
     4  H    0.001307
     5  C    0.004037
     6  C    0.118684
     7  H   -0.004550
     8  H    0.000163
     9  H    0.001358
    10  O    0.008860
    11  H    0.006958
    12  O    0.004926
    13  H    0.568817
 Mulliken charges:
               1
     1  N   -0.789131
     2  H    0.328852
     3  C    0.184527
     4  H    0.398344
     5  C   -0.472104
     6  C    0.319981
     7  H    0.162705
     8  H    0.188367
     9  H    0.167516
    10  O   -0.562179
    11  H    0.342317
    12  O   -0.588096
    13  H    0.318901
 Sum of Mulliken charges =   0.00000
 Mulliken charges with hydrogens summed into heavy atoms:
               1
     1  N   -0.117962
     3  C    0.503428
     5  C    0.046485
     6  C    0.319981
    10  O   -0.562179
    12  O   -0.189752
 APT charges:
               1
     1  N   -1.331902
     2  H    0.751382
     3  C    0.184544
     4  H    0.705153
     5  C   -1.249825
     6  C   -0.145969
     7  H    0.441396
     8  H    0.368271
     9  H    0.484319
    10  O   -0.430949
    11  H    0.537175
    12  O   -0.697409
    13  H    0.383814
 Sum of APT charges =   0.00000
 APT charges with hydrogens summed into heavy atoms:
               1
     1  N   -0.043345
     3  C    0.568359
     5  C    0.044161
     6  C   -0.145969
    10  O   -0.430949
    12  O    0.007743
 Electronic spatial extent (au):  <R**2>=            634.5366
 Charge=              0.0000 electrons
 Dipole moment (field-independent basis, Debye):
    X=             -4.4228    Y=              1.6488    Z=             -1.1254  Tot=              4.8525
 Quadrupole moment (field-independent basis, Debye-Ang):
   XX=            -34.1881   YY=            -36.7534   ZZ=            -36.5879
   XY=              6.6799   XZ=             -2.7490   YZ=             -2.9581
 Traceless Quadrupole moment (field-independent basis, Debye-Ang):
   XX=              1.6550   YY=             -0.9103   ZZ=             -0.7448
   XY=              6.6799   XZ=             -2.7490   YZ=             -2.9581
 Octapole moment (field-independent basis, Debye-Ang**2):
  XXX=             -8.8469  YYY=             -4.1359  ZZZ=             -1.2538  XYY=             -9.0056
  XXY=              8.7071  XXZ=            -10.2808  XZZ=              4.8019  YZZ=              1.9246
  YYZ=             -3.4349  XYZ=             -6.1874
 Hexadecapole moment (field-independent basis, Debye-Ang**3):
 XXXX=           -388.8628 YYYY=           -266.1526 ZZZZ=            -45.6872 XXXY=             47.1793
 XXXZ=            -14.6543 YYYX=             26.2325 YYYZ=             -3.6483 ZZZX=             -2.4123
 ZZZY=             -1.9967 XXYY=           -117.5626 XXZZ=            -78.2550 YYZZ=            -55.8114
 XXYZ=             -9.6293 YYXZ=             -4.4109 ZZXY=              2.0717
 N-N= 2.411914816135D+02 E-N=-1.239691091936D+03  KE= 3.214272703118D+02
  Exact polarizability:   0.000   0.000   0.000   0.000   0.000   0.000
 Approx polarizability: 128.980 -13.445  81.729  -4.429  -5.851  41.613
 No NMR shielding tensors so no spin-rotation constants.
 Leave Link  601 at Thu Apr 14 08:50:10 2016, MaxMem=    33554432 cpu:         0.1
 (Enter /usr/local/gau/g09/l701.exe)
 Compute integral second derivatives.
 ... and contract with generalized density number  0.
 Leave Link  701 at Thu Apr 14 08:50:10 2016, MaxMem=    33554432 cpu:         0.1
 (Enter /usr/local/gau/g09/l702.exe)
 L702 exits ... SP integral derivatives will be done elsewhere.
 Leave Link  702 at Thu Apr 14 08:50:10 2016, MaxMem=    33554432 cpu:         0.0
 (Enter /usr/local/gau/g09/l703.exe)
 Compute integral second derivatives, UseDBF=F ICtDFT=           0.
 Integral derivatives from FoFJK, PRISM(SPDF).
 Calling FoFJK, ICntrl=    100147 FMM=F ISym2X=0 I1Cent= 0 IOpClX= 0 NMat=1 NMatS=1 NMatT=0.
 FoFJK:  IHMeth= 1 ICntrl=  100147 DoSepK=F KAlg= 0 I1Cent=   0 FoldK=F
 IRaf=         0 NMat=   1 IRICut=       1 DoRegI=T DoRafI=F ISym2E= 0.
 FoFCou: FMM=F IPFlag=           0 FMFlag=      100000 FMFlg1=         800
         NFxFlg=           0 DoJE=F BraDBF=F KetDBF=F FulRan=T
         wScrn=  0.000000 ICntrl=  100147 IOpCl=  0 I1Cent=           0 NGrid=           0
         NMat0=    1 NMatS0=      1 NMatT0=    0 NMatD0=    1 NMtDS0=    0 NMtDT0=    0
 Symmetry not used in FoFCou.
 Leave Link  703 at Thu Apr 14 08:50:42 2016, MaxMem=    33554432 cpu:        23.9
 (Enter /usr/local/gau/g09/l716.exe)
 Dipole        =-1.74006206D+00 6.48691345D-01-4.42784051D-01
 Polarizability= 0.00000000D+00 0.00000000D+00 0.00000000D+00
                 0.00000000D+00 0.00000000D+00 0.00000000D+00
 ***** Axes restored to original set *****
 -------------------------------------------------------------------
 Center     Atomic                   Forces (Hartrees/Bohr)
 Number     Number              X              Y              Z
 -------------------------------------------------------------------
      1        7           0.019837568    0.026454300   -0.023508972
      2        1           0.000506772   -0.000862871   -0.001881578
      3        6          -0.053061383   -0.021983311    0.005810171
      4        1          -0.001091519    0.007171099    0.003751327
      5        6          -0.003974497    0.000033419    0.016551441
      6        6          -0.016479609    0.090674124   -0.023260243
      7        1           0.001928018   -0.002206995   -0.000665085
      8        1          -0.000489613   -0.000299982   -0.000240990
      9        1          -0.003016840    0.003619832   -0.000948101
     10        8           0.043432474   -0.046898168   -0.002075165
     11        1          -0.000849337    0.005025526   -0.005955080
     12        8           0.028660833   -0.007765876    0.005158225
     13        1          -0.015402866   -0.052961098    0.027264049
 -------------------------------------------------------------------
 Cartesian Forces:  Max     0.090674124 RMS     0.024417237
 Force constants in Cartesian coordinates: 
                1             2             3             4             5 
      1  0.877398D+00
      2 -0.137207D-01  0.734566D+00
      3 -0.254378D-01 -0.674587D-01 -0.531371D-03
      4 -0.475342D+00 -0.259113D-01  0.291083D-01  0.490478D+00
      5 -0.216609D-01 -0.718990D-01  0.393486D-02  0.307056D-01  0.698339D-01
      6  0.477194D-01  0.260192D-02 -0.580258D-03 -0.351675D-01 -0.368862D-02
      7 -0.176926D+00 -0.647625D-01  0.116638D-01 -0.892146D-02 -0.389276D-01
      8 -0.130292D+00 -0.292425D+00  0.497600D-01  0.285387D-02 -0.231084D-02
      9 -0.177336D-01 -0.151593D-01  0.106158D-01  0.210697D-02  0.281484D-02
     10  0.411081D-03  0.229634D-02 -0.363011D-03 -0.181954D-03 -0.491052D-03
     11  0.912643D-04  0.116572D-02  0.317848D-03  0.140703D-03 -0.124531D-03
     12  0.457670D-03 -0.121580D-02  0.993745D-03  0.310805D-03  0.270023D-03
     13  0.110495D-01 -0.159515D-01  0.354543D-02  0.151713D-02 -0.128482D-03
     14  0.250193D-01 -0.375218D-01 -0.238929D-02  0.148875D-02  0.192995D-02
     15 -0.448758D-02 -0.302102D-02 -0.281869D-03 -0.569705D-03  0.262945D-03
     16  0.110519D-01  0.191190D-01 -0.274777D-01  0.177809D-03  0.223348D-02
     17 -0.423431D-01  0.405800D-02  0.390190D-02  0.258597D-02 -0.568534D-02
     18  0.266996D-01  0.266467D-01 -0.131838D-01  0.507495D-03  0.250377D-02
     19  0.178584D-02 -0.148133D-02  0.143556D-03  0.382609D-03  0.136119D-03
     20 -0.757676D-03  0.241240D-02 -0.105265D-02 -0.256958D-03 -0.741369D-03
     21  0.884968D-03  0.177159D-03 -0.687280D-03 -0.317643D-04  0.692196D-03
     22 -0.373344D-02  0.366686D-02 -0.131284D-04 -0.161918D-03  0.195304D-03
     23  0.511037D-02 -0.294777D-02 -0.175884D-03  0.413031D-03  0.451820D-03
     24  0.231863D-03  0.109410D-03  0.151972D-02 -0.848027D-04  0.471363D-05
     25  0.245240D-02 -0.108708D-02 -0.211285D-02  0.336042D-03  0.315770D-03
     26 -0.546877D-03  0.179130D-02  0.876204D-03 -0.811243D-03 -0.551245D-03
     27 -0.898661D-03 -0.723848D-04  0.118660D-02  0.258554D-03 -0.914819D-03
     28 -0.292881D-02 -0.151378D-01  0.212070D-02  0.417113D-03  0.949463D-03
     29  0.160754D-01  0.216920D-01 -0.146469D-01 -0.201801D-02  0.168459D-02
     30  0.614443D-03 -0.115056D-01 -0.606726D-02  0.289673D-03 -0.150458D-03
     31 -0.196711D+00  0.178705D+00 -0.176638D-01 -0.927160D-02  0.289339D-01
     32  0.180652D+00 -0.338065D+00  0.310660D-01 -0.848684D-02  0.873606D-02
     33 -0.307561D-01  0.492729D-01 -0.721661D-02  0.344521D-02 -0.451259D-02
     34 -0.756427D-02 -0.201696D-02 -0.725407D-03  0.957861D-03 -0.108021D-02
     35 -0.521359D-02 -0.635994D-02 -0.411213D-03  0.462262D-03 -0.469522D-04
     36 -0.174418D-02  0.427449D-02  0.305573D-02 -0.301330D-03 -0.115396D-02
     37 -0.409432D-01 -0.637185D-01  0.272120D-01 -0.387113D-03 -0.118143D-02
     38 -0.124131D-01 -0.164663D-01 -0.372220D-02 -0.116587D-02 -0.127704D-02
     39  0.445004D-02  0.153502D-01  0.111768D-01  0.128066D-03 -0.628975D-04
                6             7             8             9            10 
      6 -0.365273D-03
      7 -0.479895D-02  0.515427D+00
      8  0.383236D-02  0.244704D-02  0.600685D+00
      9  0.333128D-02  0.357746D-01 -0.401111D-01  0.830936D-01
     10  0.248908D-03 -0.373905D-02 -0.400160D-02 -0.313277D-03  0.154820D+00
     11  0.309506D-03  0.927438D-04 -0.272657D-02 -0.122008D-02  0.650668D-01
     12  0.502317D-03  0.227943D-02  0.247525D-02 -0.336665D-02  0.207215D+00
     13  0.772679D-03 -0.131463D+00  0.614978D-01 -0.481763D-02 -0.237165D-03
     14 -0.236043D-03  0.523227D-01 -0.164493D+00  0.938832D-02 -0.454637D-03
     15  0.241415D-02 -0.462688D-02  0.178856D-03 -0.740097D-01  0.389641D-03
     16 -0.604239D-02 -0.214400D+00  0.280626D-01  0.552828D-01 -0.157069D-01
     17 -0.340013D-03 -0.321394D-01 -0.117605D+00  0.152562D-01 -0.106200D-01
     18 -0.997071D-02 -0.467266D-01  0.312630D-01  0.584670D-01 -0.183316D-01
     19 -0.594869D-03 -0.205264D-01  0.485866D-02 -0.152010D-01  0.184821D-03
     20  0.912524D-03  0.224516D-01 -0.253066D-02  0.235046D-01  0.363312D-04
     21 -0.816809D-03 -0.140852D-04  0.268186D-03  0.522406D-02  0.634364D-04
     22 -0.729602D-04  0.125631D-01  0.204718D-01 -0.383332D-03 -0.156091D-03
     23  0.579528D-04 -0.158928D-01 -0.232722D-01  0.559902D-03  0.120484D-03
     24 -0.842736D-03  0.425108D-03 -0.445195D-03 -0.224651D-02 -0.454192D-03
     25  0.474705D-03 -0.162856D-01  0.378074D-02  0.176116D-01 -0.142728D-03
     26 -0.557917D-03  0.192997D-01 -0.307592D-02 -0.242381D-01  0.129206D-03
     27 -0.454255D-03 -0.293474D-03 -0.378951D-03  0.329330D-02 -0.479229D-04
     28  0.164312D-03 -0.754402D-02  0.361314D-01 -0.230464D-01  0.346092D-03
     29 -0.415102D-02 -0.537393D-02  0.407219D-02  0.361127D-01  0.222822D-02
     30  0.439909D-03  0.170031D-01  0.828264D-02 -0.344711D-02 -0.303805D-03
     31 -0.587648D-02  0.173669D-01 -0.141494D-01 -0.489301D-03  0.187076D-03
     32 -0.725519D-04  0.187138D-01 -0.247338D-01  0.529387D-02 -0.970930D-04
     33  0.252742D-02 -0.226346D-02 -0.115310D-01 -0.572444D-02 -0.460689D-04
     34 -0.781829D-03 -0.722849D-02 -0.264880D-01  0.338470D-02 -0.135662D+00
     35 -0.339180D-03  0.199446D-02  0.654164D-03 -0.105690D-02 -0.574284D-01
     36  0.212680D-02 -0.745659D-02 -0.646032D-02 -0.551307D-02 -0.191868D+00
     37  0.395504D-02  0.416777D-01  0.148273D-01 -0.521761D-01 -0.123306D-03
     38  0.167109D-02  0.397743D-01  0.277624D-01 -0.111449D-01  0.321540D-02
     39  0.168817D-02 -0.965927D-03 -0.371338D-01 -0.697176D-01  0.381127D-02
               11            12            13            14            15 
     11  0.450390D-01
     12  0.528020D-01  0.305221D+00
     13  0.423073D-03  0.206325D-03  0.535087D+00
     14  0.386173D-03  0.298827D-03  0.634625D-01  0.542572D+00
     15 -0.398683D-03 -0.382215D-03  0.229629D-02 -0.596353D-02  0.535553D+00
     16 -0.338764D-01  0.101336D-01 -0.183818D-01  0.360695D-02  0.102148D-01
     17 -0.173423D-01  0.110746D-01  0.237807D-01  0.927975D-02 -0.171521D-02
     18 -0.315939D-01  0.376950D-02 -0.325667D-02 -0.178864D-02 -0.348207D-02
     19  0.858813D-04  0.345947D-04 -0.130675D+00 -0.359394D-02 -0.119654D+00
     20 -0.951217D-04 -0.139371D-03 -0.258867D-02 -0.498831D-01 -0.114815D-02
     21  0.682799D-04  0.164277D-04 -0.120030D+00 -0.169770D-02 -0.216619D+00
     22 -0.179484D-03 -0.143003D-03 -0.130775D+00 -0.129789D+00 -0.598134D-03
     23  0.247625D-03 -0.307035D-04 -0.122806D+00 -0.245261D+00 -0.953820D-03
     24  0.285942D-03  0.101884D-03 -0.485741D-03 -0.598426D-03 -0.491414D-01
     25  0.199302D-03  0.182557D-03 -0.133400D+00 -0.490801D-02  0.123290D+00
     26 -0.978613D-04 -0.249509D-04 -0.321057D-02 -0.476487D-01  0.268500D-02
     27 -0.393391D-04  0.332963D-04  0.121664D+00  0.497977D-02 -0.213878D+00
     28  0.659478D-02  0.209828D-02 -0.103218D-02 -0.418729D-02 -0.481019D-03
     29  0.236033D-03  0.154924D-02 -0.199960D-02  0.491287D-03  0.639731D-02
     30  0.604377D-02  0.114352D-02  0.171059D-02 -0.111375D-02  0.780064D-02
     31 -0.114419D-03 -0.318962D-03 -0.195266D-02 -0.291242D-02 -0.460539D-03
     32 -0.226028D-03 -0.137603D-03 -0.446903D-02 -0.236603D-02  0.100308D-02
     33 -0.544083D-04 -0.176181D-03 -0.129238D-02 -0.245824D-05  0.121633D-02
     34 -0.383630D-01 -0.220418D+00  0.801636D-03  0.171524D-03  0.935416D-04
     35 -0.292561D-01 -0.685644D-01  0.439211D-03 -0.300165D-02  0.236532D-03
     36 -0.279405D-01 -0.306039D+00 -0.280743D-03 -0.426049D-03  0.681057D-03
     37 -0.161215D-03 -0.203861D-02 -0.539030D-03 -0.225966D-03 -0.540696D-02
     38  0.279394D-02  0.164294D-02  0.155063D-02 -0.448360D-02  0.243669D-02
     39  0.141960D-02 -0.181805D-02 -0.320281D-04 -0.451026D-03  0.101293D-01
               16            17            18            19            20 
     16  0.399189D+00
     17  0.106498D+00  0.404042D+00
     18 -0.256313D-01 -0.136994D-01  0.143402D+00
     19  0.201015D-02  0.255687D-02 -0.345618D-02  0.148111D+00
     20 -0.210702D-02 -0.301132D-02  0.242501D-02 -0.297921D-02  0.516925D-01
     21  0.977973D-03  0.356502D-03 -0.828008D-03  0.133796D+00  0.126746D-02
     22  0.139830D-02  0.176487D-02  0.112436D-02 -0.101851D-01 -0.164384D-01
     23 -0.228242D-02 -0.209318D-02 -0.794127D-03  0.960813D-03  0.112996D-02
     24  0.162889D-05  0.287055D-03  0.900318D-03 -0.154177D-01 -0.245619D-01
     25 -0.137883D-02  0.329223D-02  0.134820D-02  0.112911D-01  0.632169D-03
     26  0.178269D-02 -0.434134D-02 -0.765295D-03 -0.543304D-03  0.310623D-03
     27 -0.106788D-02  0.120685D-03 -0.974514D-03  0.172131D-01  0.194501D-02
     28 -0.130003D+00  0.689854D-01 -0.952198D-03 -0.150318D-02  0.123137D-02
     29 -0.726027D-02 -0.120055D+00 -0.187046D-01  0.105352D-02 -0.880010D-03
     30 -0.205836D-01  0.443153D-01 -0.566910D-01  0.111777D-02 -0.113070D-02
     31  0.438788D-02 -0.403670D-02  0.366141D-02 -0.282368D-03  0.208443D-03
     32  0.128503D-02 -0.282291D-02 -0.529368D-03  0.589935D-04  0.183360D-03
     33  0.421950D-02 -0.125060D-02  0.531791D-02  0.428016D-03 -0.428393D-03
     34 -0.117145D+00 -0.828150D-01  0.236308D-02 -0.358031D-03  0.184360D-03
     35 -0.605830D-01 -0.176400D+00  0.358298D-01 -0.560137D-03  0.111914D-02
     36 -0.213312D-01 -0.149723D-01 -0.696701D-01  0.346194D-03  0.883427D-04
     37  0.788013D-01 -0.375093D-01  0.626504D-01 -0.234987D-03  0.383646D-03
     38 -0.564782D-01  0.319777D-01 -0.307929D-01 -0.552929D-03  0.293667D-03
     39  0.213037D-01 -0.433347D-01 -0.570563D-01  0.124472D-02 -0.168173D-02
               21            22            23            24            25 
     21  0.236225D+00
     22  0.133549D-02  0.140540D+00
     23  0.613387D-03  0.135172D+00  0.270425D+00
     24  0.274631D-03  0.756208D-03  0.128500D-02  0.492489D-01
     25 -0.170179D-01 -0.955361D-02  0.676125D-03  0.151932D-01  0.147358D+00
     26 -0.715703D-03 -0.153502D-01  0.563595D-03  0.243509D-01  0.808283D-03
     27 -0.236322D-01 -0.158384D-02 -0.831304D-03  0.639715D-03 -0.135604D+00
     28 -0.298670D-03 -0.232881D-03  0.359516D-03 -0.143550D-04 -0.108923D-02
     29 -0.246625D-03 -0.705504D-04  0.132733D-03  0.471426D-04 -0.384361D-03
     30 -0.602054D-03 -0.312278D-03  0.265212D-03 -0.208028D-03 -0.134384D-02
     31  0.139404D-04  0.704718D-03 -0.849620D-03 -0.983312D-04 -0.176916D-03
     32  0.141065D-03  0.111543D-02 -0.737755D-03 -0.601411D-05 -0.967725D-04
     33  0.273567D-03  0.587216D-04 -0.248837D-03  0.724430D-03 -0.121973D-03
     34 -0.170145D-03 -0.512238D-03 -0.814808D-03  0.112621D-03 -0.342418D-03
     35 -0.300764D-03 -0.112904D-02  0.219895D-02 -0.357202D-03 -0.469638D-03
     36  0.283262D-04 -0.115662D-03  0.399353D-05 -0.839629D-03 -0.313888D-03
     37  0.491095D-03  0.104941D-03 -0.166977D-03 -0.165546D-03  0.931334D-03
     38 -0.623435D-03  0.570573D-03 -0.837954D-03 -0.401405D-03 -0.275875D-02
     39  0.114372D-02 -0.524419D-04  0.249226D-03 -0.131338D-03 -0.158627D-02
               26            27            28            29            30 
     26  0.499543D-01
     27 -0.509622D-02  0.234107D+00
     28  0.105379D-02  0.175701D-03  0.165120D+00
     29  0.153599D-02 -0.578548D-03 -0.843906D-01  0.172026D+00
     30  0.163636D-02  0.110542D-03  0.141973D-01 -0.322990D-01  0.337995D-01
     31  0.752797D-04 -0.484679D-04 -0.173007D-02  0.679803D-02 -0.232020D-02
     32  0.322134D-03 -0.123437D-03  0.203613D-02  0.197563D-02 -0.204266D-03
     33  0.352797D-03 -0.156547D-04  0.113855D-02  0.201148D-02 -0.161821D-02
     34 -0.899109D-03 -0.294063D-04  0.221844D-01  0.138443D-01  0.417880D-02
     35  0.989990D-03  0.995407D-04 -0.159953D-01 -0.580311D-01 -0.102556D-02
     36  0.787261D-04 -0.292933D-04  0.874932D-02  0.242467D-02  0.148607D-01
     37 -0.178760D-02  0.262471D-03 -0.420045D-01  0.614978D-01 -0.142480D-01
     38  0.247074D-03  0.889991D-03  0.236911D-02 -0.248805D-01 -0.131140D-01
     39  0.141821D-02 -0.387010D-03 -0.385150D-02  0.220842D-01  0.104789D-01
               31            32            33            34            35 
     31  0.189500D+00
     32 -0.188854D+00  0.361857D+00
     33  0.198393D-01 -0.402979D-01  0.951511D-02
     34 -0.412439D-03  0.503774D-03  0.366340D-03  0.248722D+00
     35  0.107435D-02  0.143726D-02  0.311504D-03  0.136620D+00  0.275963D+00
     36  0.355748D-03 -0.199948D-03 -0.650108D-03  0.215656D+00  0.362029D-01
     37 -0.160943D-02 -0.236167D-02  0.498434D-02 -0.344088D-02  0.789167D-03
     38 -0.487935D-02 -0.555951D-02  0.637748D-02  0.115348D-02 -0.926625D-02
     39  0.340568D-02  0.406706D-02 -0.417358D-02 -0.403113D-02 -0.624937D-03
               36            37            38            39 
     36  0.347334D+00
     37 -0.169583D-02 -0.322328D-01
     38  0.807998D-02  0.296148D-01 -0.303619D-03
     39  0.146543D-01 -0.238242D-01  0.387007D-01  0.840127D-01
 FormGI is forming the generalized inverse of G from B-inverse, IUseBI=4.
 Leave Link  716 at Thu Apr 14 08:50:42 2016, MaxMem=    33554432 cpu:         0.0
 (Enter /usr/local/gau/g09/l103.exe)

 GradGradGradGradGradGradGradGradGradGradGradGradGradGradGradGradGradGrad
 Berny optimization.
 Red2BG is reusing G-inverse.
 Internal  Forces:  Max     0.063077157 RMS     0.017211195
 Search for a saddle point.
 Step number   1 out of a maximum of   65
 All quantities printed in internal units (Hartrees-Bohrs-Radians)
 Swapping is turned off.
 Second derivative matrix not updated -- analytic derivatives used.
 ITU=  0
     Eigenvalues ---   -0.11055  -0.03558  -0.00679  -0.00382   0.00098
     Eigenvalues ---    0.00337   0.01234   0.02278   0.03071   0.04768
     Eigenvalues ---    0.04869   0.06120   0.08034   0.10575   0.12015
     Eigenvalues ---    0.12264   0.12843   0.14168   0.14985   0.15521
     Eigenvalues ---    0.18159   0.20569   0.24633   0.29491   0.32300
     Eigenvalues ---    0.33153   0.34039   0.35728   0.36247   0.46885
     Eigenvalues ---    0.47550   0.49513   0.50161
 Eigenvectors required to have negative eigenvalues:
                          A18       R6        R13       D22       A8
   1                   -0.40766   0.38927  -0.30409  -0.29594   0.28251
                          R11       A19       D2        D5        D6
   1                    0.24971   0.20610  -0.20271  -0.19748   0.18577
 Eigenvalue     2 is  -3.56D-02 should be greater than     0.000000 Eigenvector:
                          D16       R13       R6        A19       D18
   1                   -0.37228   0.34652  -0.31966   0.30370  -0.28549
                          A18       A6        D13       D21       D15
   1                   -0.27785  -0.21776   0.20235   0.19993   0.19902
 Eigenvalue     3 is  -6.79D-03 should be greater than     0.000000 Eigenvector:
                          D21       D22       D20       A20       A19
   1                    0.58172   0.57728   0.55954   0.05245  -0.04090
                          R13       D14       D15       D13       D17
   1                   -0.04057  -0.03518  -0.03072  -0.02932   0.02842
 Eigenvalue     4 is  -3.82D-03 should be greater than     0.000000 Eigenvector:
                          D3        D2        D1        D6        D5
   1                    0.56111   0.51852   0.51415   0.23490   0.19232
                          D4        R6        A5        D19       D17
   1                    0.18795   0.06646   0.05442   0.05035   0.04576
 RFO step:  Lambda0=1.777764849D-02 Lambda=-7.68351584D-02.
 Linear search not attempted -- option 19 set.
 Maximum step size (   0.300) exceeded in Quadratic search.
    -- Step size scaled by   0.371
 Iteration  1 RMS(Cart)=  0.05851653 RMS(Int)=  0.00343996
 Iteration  2 RMS(Cart)=  0.00237524 RMS(Int)=  0.00136255
 Iteration  3 RMS(Cart)=  0.00001021 RMS(Int)=  0.00136254
 Iteration  4 RMS(Cart)=  0.00000005 RMS(Int)=  0.00136254
 ITry= 1 IFail=0 DXMaxC= 2.11D-01 DCOld= 1.00D+10 DXMaxT= 3.00D-01 DXLimC= 3.00D+00 Rises=F
 Variable       Old X    -DE/DX   Delta X   Delta X   Delta X     New X
                                 (Linear)    (Quad)   (Total)
    R1        1.89636   0.00059   0.00000  -0.00154  -0.00154   1.89482
    R2        2.63279   0.03551   0.00000  -0.01741  -0.01741   2.61538
    R3        1.89992   0.00519   0.00000   0.00356   0.00356   1.90348
    R4        2.84087  -0.00434   0.00000  -0.00541  -0.00541   2.83545
    R5        2.83459  -0.04555   0.00000  -0.07241  -0.07305   2.76154
    R6        2.64562   0.00921   0.00000   0.16719   0.16618   2.81179
    R7        1.85600  -0.00364   0.00000  -0.00153  -0.00153   1.85446
    R8        2.07561   0.00060   0.00000  -0.00015  -0.00015   2.07546
    R9        2.06050   0.00052   0.00000   0.00070   0.00070   2.06119
   R10        2.07718  -0.00101   0.00000  -0.00143  -0.00143   2.07575
   R11        2.66481  -0.06308   0.00000  -0.00175  -0.00175   2.66306
   R12        2.64885  -0.01240   0.00000  -0.00695  -0.00695   2.64191
   R13        2.67181  -0.02341   0.00000  -0.18024  -0.17838   2.49343
    A1        2.10258  -0.00263   0.00000   0.00604   0.00600   2.10858
    A2        2.07788  -0.00070   0.00000   0.00711   0.00706   2.08495
    A3        2.08053   0.00256   0.00000  -0.00966  -0.00970   2.07083
    A4        2.03345  -0.00658   0.00000  -0.00795  -0.00767   2.02578
    A5        2.10966  -0.00557   0.00000  -0.05121  -0.05088   2.05878
    A6        1.34545   0.02882   0.00000   0.06516   0.06433   1.40977
    A7        2.14004   0.01223   0.00000   0.05897   0.05810   2.19814
    A8        2.43925  -0.03651   0.00000  -0.04047  -0.03721   2.40205
    A9        1.93153   0.00581   0.00000   0.00510   0.00509   1.93663
   A10        1.93081   0.00009   0.00000   0.00169   0.00168   1.93249
   A11        1.93804  -0.00784   0.00000  -0.00966  -0.00965   1.92838
   A12        1.88943  -0.00137   0.00000  -0.00020  -0.00022   1.88922
   A13        1.87473   0.00096   0.00000   0.00193   0.00194   1.87668
   A14        1.89759   0.00249   0.00000   0.00131   0.00130   1.89889
   A15        2.10339  -0.00709   0.00000   0.01257   0.01037   2.11376
   A16        2.16418  -0.01791   0.00000  -0.04289  -0.04285   2.12134
   A17        2.01544   0.02511   0.00000   0.03155   0.03138   2.04683
   A18        1.40382   0.01175   0.00000  -0.00144   0.00193   1.40575
   A19        2.36585  -0.04489   0.00000  -0.08598  -0.09122   2.27463
   A20        1.93088  -0.00817   0.00000  -0.02007  -0.02007   1.91081
    D1        0.10954   0.00717   0.00000  -0.03559  -0.03731   0.07223
    D2       -3.04060   0.01720   0.00000  -0.05921  -0.06046  -3.10106
    D3        2.54488  -0.02161   0.00000  -0.05105  -0.04809   2.49678
    D4        3.02427   0.00318   0.00000  -0.01715  -0.01886   3.00540
    D5       -0.12587   0.01321   0.00000  -0.04077  -0.04201  -0.16788
    D6       -0.82358  -0.02560   0.00000  -0.03260  -0.02964  -0.85322
    D7        1.03078   0.00692   0.00000   0.01439   0.01377   1.04455
    D8        3.12490   0.00904   0.00000   0.01856   0.01795  -3.14034
    D9       -1.04963   0.00702   0.00000   0.01490   0.01430  -1.03533
   D10       -2.10210  -0.00320   0.00000   0.03905   0.03964  -2.06246
   D11       -0.00799  -0.00108   0.00000   0.04322   0.04382   0.03583
   D12        2.10067  -0.00311   0.00000   0.03956   0.04016   2.14084
   D13       -0.74424  -0.00656   0.00000  -0.05689  -0.05688  -0.80112
   D14        1.34987  -0.00443   0.00000  -0.05272  -0.05270   1.29717
   D15       -2.82466  -0.00646   0.00000  -0.05637  -0.05635  -2.88101
   D16        0.09061  -0.00727   0.00000   0.06045   0.05946   0.15007
   D17       -3.03040  -0.01456   0.00000  -0.01504  -0.01665  -3.04705
   D18       -3.06006   0.00328   0.00000   0.03497   0.03338  -3.02669
   D19        0.10211  -0.00401   0.00000  -0.04051  -0.04274   0.05938
   D20       -2.06781  -0.00409   0.00000  -0.05784  -0.05688  -2.12469
   D21        1.09343  -0.01073   0.00000  -0.12971  -0.13001   0.96342
   D22        2.88896   0.00466   0.00000  -0.15765  -0.15830   2.73066
         Item               Value     Threshold  Converged?
 Maximum Force            0.063077     0.000450     NO 
 RMS     Force            0.017211     0.000300     NO 
 Maximum Displacement     0.211224     0.001800     NO 
 RMS     Displacement     0.058691     0.001200     NO 
 Predicted change in Energy=-2.126398D-02
 Lowest energy point so far.  Saving SCF results.
 GradGradGradGradGradGradGradGradGradGradGradGradGradGradGradGradGradGrad

 Leave Link  103 at Thu Apr 14 08:50:42 2016, MaxMem=    33554432 cpu:         0.0
 (Enter /usr/local/gau/g09/l202.exe)
                          Input orientation:                          
 ---------------------------------------------------------------------
 Center     Atomic      Atomic             Coordinates (Angstroms)
 Number     Number       Type             X           Y           Z
 ---------------------------------------------------------------------
      1          7           0        1.257627    1.069378    0.156892
      2          1           0        2.254759    1.162882    0.108047
      3          6           0        0.660972   -0.179279    0.139283
      4          1           0       -2.071376   -1.566083   -0.515925
      5          6           0        1.592728   -1.355373    0.141498
      6          6           0       -0.798884   -0.241422    0.161309
      7          1           0        2.229278   -1.350623    1.036492
      8          1           0        1.032896   -2.291343    0.125602
      9          1           0        2.254079   -1.323573   -0.734954
     10          8           0       -1.579467    0.923176    0.018690
     11          1           0        0.677213    1.883716    0.036147
     12          8           0       -1.477684   -1.459761    0.258188
     13          1           0       -0.247110    0.505523    1.098651
 ---------------------------------------------------------------------
                    Distance matrix (angstroms):
                    1          2          3          4          5
     1  N    0.000000
     2  H    1.002696   0.000000
     3  C    1.383999   2.083873   0.000000
     4  H    4.298907   5.152866   3.133409   0.000000
     5  C    2.447846   2.604038   1.500457   3.728574   0.000000
     6  C    2.438741   3.361494   1.461345   1.957705   2.638388
     7  H    2.752128   2.679620   2.153280   4.577341   1.098286
     8  H    3.368372   3.664004   2.144604   3.251779   1.090735
     9  H    2.741262   2.625473   2.147484   4.337782   1.098437
    10  O    2.844218   3.842750   2.499903   2.593106   3.907645
    11  H    1.007277   1.735921   2.065635   4.445294   3.367635
    12  O    3.726760   4.564201   2.495521   0.981339   3.074401
    13  H    1.862546   2.769976   1.487937   3.197867   2.786410
                    6          7          8          9         10
     6  C    0.000000
     7  H    3.341563   0.000000
     8  H    2.749340   1.773698   0.000000
     9  H    3.360792   1.771825   1.780007   0.000000
    10  O    1.409233   4.551112   4.143549   4.506876   0.000000
    11  H    2.590509   3.724318   4.191137   3.656201   2.452661
    12  O    1.398036   3.789358   2.648041   3.864057   2.397104
    13  H    1.319467   3.095423   3.226097   3.600507   1.765198
                   11         12         13
    11  H    0.000000
    12  O    3.983933   0.000000
    13  H    1.970458   2.466381   0.000000
 Stoichiometry    C3H7NO2
 Framework group  C1[X(C3H7NO2)]
 Deg. of freedom    33
 Full point group                 C1      NOp   1
 RotChk:  IX=3 Diff= 8.48D-02
 Largest Abelian subgroup         C1      NOp   1
 Largest concise Abelian subgroup C1      NOp   1
                         Standard orientation:                         
 ---------------------------------------------------------------------
 Center     Atomic      Atomic             Coordinates (Angstroms)
 Number     Number       Type             X           Y           Z
 ---------------------------------------------------------------------
      1          7           0       -1.310818   -1.249594    0.011393
      2          1           0       -2.309499   -1.315264   -0.049631
      3          6           0       -0.678182   -0.018994   -0.017727
      4          1           0        2.101502    1.278178   -0.657219
      5          6           0       -1.575543    1.183198   -0.046828
      6          6           0        0.782440    0.001640    0.023320
      7          1           0       -2.223763    1.211152    0.839323
      8          1           0       -0.988763    2.102363   -0.069808
      9          1           0       -2.225871    1.156205   -0.931649
     10          8           0        1.530896   -1.186999   -0.090205
     11          1           0       -0.752606   -2.082073   -0.088529
     12          8           0        1.494788    1.201434    0.110266
     13          1           0        0.196966   -0.713945    0.964676
 ---------------------------------------------------------------------
 Rotational constants (GHZ):      4.8995599      3.0772380      1.9381130
 Leave Link  202 at Thu Apr 14 08:50:42 2016, MaxMem=    33554432 cpu:         0.0
 (Enter /usr/local/gau/g09/l301.exe)
 Standard basis: 6-31G (6D, 7F)
 Ernie: Thresh=  0.10000D-02 Tol=  0.10000D-05 Strict=F.
 There are    68 symmetry adapted cartesian basis functions of A   symmetry.
 There are    68 symmetry adapted basis functions of A   symmetry.
    68 basis functions,   160 primitive gaussians,    68 cartesian basis functions
    24 alpha electrons       24 beta electrons
       nuclear repulsion energy       243.2190870036 Hartrees.
 IExCor=  402 DFT=T Ex+Corr=B3LYP ExCW=0 ScaHFX=  0.200000
 ScaDFX=  0.800000  0.720000  1.000000  0.810000 ScalE2=  1.000000  1.000000
 IRadAn=      0 IRanWt=     -1 IRanGd=            0 ICorTp=0 IEmpDi=  4
 NAtoms=   13 NActive=   13 NUniq=   13 SFac= 1.00D+00 NAtFMM=   60 NAOKFM=F Big=F
 Integral buffers will be    131072 words long.
 Raffenetti 2 integral format.
 Two-electron integral symmetry is turned on.
 Leave Link  301 at Thu Apr 14 08:50:42 2016, MaxMem=    33554432 cpu:         0.0
 (Enter /usr/local/gau/g09/l302.exe)
 NPDir=0 NMtPBC=     1 NCelOv=     1 NCel=       1 NClECP=     1 NCelD=      1
         NCelK=      1 NCelE2=     1 NClLst=     1 CellRange=     0.0.
 One-electron integrals computed using PRISM.
 NBasis=    68 RedAO= T EigKep=  3.49D-03  NBF=    68
 NBsUse=    68 1.00D-06 EigRej= -1.00D+00 NBFU=    68
 Precomputing XC quadrature grid using
 IXCGrd= 4 IRadAn=           0 IRanWt=          -1 IRanGd=           0 AccXCQ= 0.00D+00.
 Generated NRdTot=       0 NPtTot=           0 NUsed=           0 NTot=          32
 NSgBfM=    68    68    68    68    68 MxSgAt=    13 MxSgA2=    13.
 Leave Link  302 at Thu Apr 14 08:50:43 2016, MaxMem=    33554432 cpu:         0.3
 (Enter /usr/local/gau/g09/l303.exe)
 DipDrv:  MaxL=1.
 Leave Link  303 at Thu Apr 14 08:50:43 2016, MaxMem=    33554432 cpu:         0.0
 (Enter /usr/local/gau/g09/l401.exe)
 Initial guess from the checkpoint file:  "Ala-S-opt-freq-tsa3-6-31g.chk"
 B after Tr=     0.000000    0.000000    0.000000
         Rot=    0.999660    0.002711   -0.001330   -0.025900 Ang=   2.99 deg.
 Guess basis will be translated and rotated to current coordinates.
 JPrj=2 DoOrth=T DoCkMO=T.
 Generating alternative initial guess.
 ExpMin= 1.61D-01 ExpMax= 5.48D+03 ExpMxC= 8.25D+02 IAcc=1 IRadAn=         1 AccDes= 0.00D+00
 Harris functional with IExCor=  402 and IRadAn=       1 diagonalized for initial guess.
 HarFok:  IExCor=  402 AccDes= 0.00D+00 IRadAn=         1 IDoV= 1 UseB2=F ITyADJ=14
 ICtDFT=  3500011 ScaDFX=  1.000000  1.000000  1.000000  1.000000
 FoFCou: FMM=F IPFlag=           0 FMFlag=      100000 FMFlg1=           0
         NFxFlg=           0 DoJE=T BraDBF=F KetDBF=T FulRan=T
         wScrn=  0.000000 ICntrl=     500 IOpCl=  0 I1Cent=   200000004 NGrid=           0
         NMat0=    1 NMatS0=      1 NMatT0=    0 NMatD0=    1 NMtDS0=    0 NMtDT0=    0
 Petite list used in FoFCou.
 Harris En= -323.546707400910    
 Leave Link  401 at Thu Apr 14 08:50:43 2016, MaxMem=    33554432 cpu:         0.5
 (Enter /usr/local/gau/g09/l502.exe)
 Closed shell SCF:
 Using DIIS extrapolation, IDIIS=  1040.
 Integral symmetry usage will be decided dynamically.
 Keep R1 ints in memory in canonical form, NReq=3676491.
 IVT=       33364 IEndB=       33364 NGot=    33554432 MDV=    30768038
 LenX=    30768038 LenY=    30762973
 Requested convergence on RMS density matrix=1.00D-08 within 128 cycles.
 Requested convergence on MAX density matrix=1.00D-06.
 Requested convergence on             energy=1.00D-06.
 No special actions if energy rises.
 FoFCou: FMM=F IPFlag=           0 FMFlag=           0 FMFlg1=           0
         NFxFlg=           0 DoJE=F BraDBF=F KetDBF=F FulRan=T
         wScrn=  0.000000 ICntrl=     600 IOpCl=  0 I1Cent=           0 NGrid=           0
         NMat0=    1 NMatS0=   2346 NMatT0=    0 NMatD0=    1 NMtDS0=    0 NMtDT0=    0
 Symmetry not used in FoFCou.
 Integral accuracy reduced to 1.0D-05 until final iterations.

 Cycle   1  Pass 0  IDiag  1:
 E= -323.461570289295    
 DIIS: error= 4.93D-03 at cycle   1 NSaved=   1.
 NSaved= 1 IEnMin= 1 EnMin= -323.461570289295     IErMin= 1 ErrMin= 4.93D-03
 ErrMax= 4.93D-03  0.00D+00 EMaxC= 1.00D-01 BMatC= 3.70D-03 BMatP= 3.70D-03
 IDIUse=3 WtCom= 9.51D-01 WtEn= 4.93D-02
 Coeff-Com:  0.100D+01
 Coeff-En:   0.100D+01
 Coeff:      0.100D+01
 Gap=     0.546 Goal=   None    Shift=    0.000
 GapD=    0.546 DampG=2.000 DampE=1.000 DampFc=2.0000 IDamp=-1.
 RMSDP=3.66D-03 MaxDP=3.31D-02              OVMax= 8.01D-02

 Cycle   2  Pass 0  IDiag  1:
 E= -323.468385095546     Delta-E=       -0.006814806251 Rises=F Damp=F
 DIIS: error= 5.63D-03 at cycle   2 NSaved=   2.
 NSaved= 2 IEnMin= 2 EnMin= -323.468385095546     IErMin= 1 ErrMin= 4.93D-03
 ErrMax= 5.63D-03  0.00D+00 EMaxC= 1.00D-01 BMatC= 2.78D-03 BMatP= 3.70D-03
 IDIUse=3 WtCom= 9.44D-01 WtEn= 5.63D-02
 Coeff-Com:  0.442D+00 0.558D+00
 Coeff-En:   0.000D+00 0.100D+01
 Coeff:      0.417D+00 0.583D+00
 Gap=     0.151 Goal=   None    Shift=    0.000
 RMSDP=2.02D-03 MaxDP=2.09D-02 DE=-6.81D-03 OVMax= 6.37D-02

 Cycle   3  Pass 0  IDiag  1:
 E= -323.468206175660     Delta-E=        0.000178919886 Rises=F Damp=F
 DIIS: error= 6.85D-03 at cycle   3 NSaved=   3.
 NSaved= 3 IEnMin= 2 EnMin= -323.468385095546     IErMin= 1 ErrMin= 4.93D-03
 ErrMax= 6.85D-03  0.00D+00 EMaxC= 1.00D-01 BMatC= 3.21D-03 BMatP= 2.78D-03
 IDIUse=3 WtCom= 1.08D-01 WtEn= 8.92D-01
 Coeff-Com:  0.621D-01 0.495D+00 0.443D+00
 Coeff-En:   0.000D+00 0.511D+00 0.489D+00
 Coeff:      0.670D-02 0.509D+00 0.484D+00
 Gap=     0.158 Goal=   None    Shift=    0.000
 RMSDP=1.44D-03 MaxDP=1.81D-02 DE= 1.79D-04 OVMax= 4.40D-02

 Cycle   4  Pass 0  IDiag  1:
 E= -323.470739024104     Delta-E=       -0.002532848445 Rises=F Damp=F
 DIIS: error= 2.99D-03 at cycle   4 NSaved=   4.
 NSaved= 4 IEnMin= 4 EnMin= -323.470739024104     IErMin= 4 ErrMin= 2.99D-03
 ErrMax= 2.99D-03  0.00D+00 EMaxC= 1.00D-01 BMatC= 9.01D-04 BMatP= 2.78D-03
 IDIUse=3 WtCom= 9.70D-01 WtEn= 2.99D-02
 EnCoef did     6 forward-backward iterations
 Coeff-Com: -0.323D-01 0.311D+00 0.369D+00 0.352D+00
 Coeff-En:   0.000D+00 0.494D-01 0.222D+00 0.729D+00
 Coeff:     -0.313D-01 0.303D+00 0.364D+00 0.364D+00
 Gap=     0.155 Goal=   None    Shift=    0.000
 RMSDP=5.53D-04 MaxDP=7.22D-03 DE=-2.53D-03 OVMax= 8.71D-03

 Cycle   5  Pass 0  IDiag  1:
 E= -323.471516888667     Delta-E=       -0.000777864562 Rises=F Damp=F
 DIIS: error= 3.10D-04 at cycle   5 NSaved=   5.
 NSaved= 5 IEnMin= 5 EnMin= -323.471516888667     IErMin= 5 ErrMin= 3.10D-04
 ErrMax= 3.10D-04  0.00D+00 EMaxC= 1.00D-01 BMatC= 1.20D-05 BMatP= 9.01D-04
 IDIUse=3 WtCom= 9.97D-01 WtEn= 3.10D-03
 Coeff-Com: -0.158D-01 0.956D-01 0.126D+00 0.172D+00 0.622D+00
 Coeff-En:   0.000D+00 0.000D+00 0.000D+00 0.000D+00 0.100D+01
 Coeff:     -0.158D-01 0.953D-01 0.126D+00 0.172D+00 0.623D+00
 Gap=     0.155 Goal=   None    Shift=    0.000
 RMSDP=6.56D-05 MaxDP=7.57D-04 DE=-7.78D-04 OVMax= 1.04D-03

 Cycle   6  Pass 0  IDiag  1:
 E= -323.471526662935     Delta-E=       -0.000009774268 Rises=F Damp=F
 DIIS: error= 1.15D-04 at cycle   6 NSaved=   6.
 NSaved= 6 IEnMin= 6 EnMin= -323.471526662935     IErMin= 6 ErrMin= 1.15D-04
 ErrMax= 1.15D-04  0.00D+00 EMaxC= 1.00D-01 BMatC= 1.27D-06 BMatP= 1.20D-05
 IDIUse=3 WtCom= 9.99D-01 WtEn= 1.15D-03
 Coeff-Com: -0.332D-02 0.872D-02 0.185D-01 0.473D-01 0.322D+00 0.607D+00
 Coeff-En:   0.000D+00 0.000D+00 0.000D+00 0.000D+00 0.000D+00 0.100D+01
 Coeff:     -0.332D-02 0.871D-02 0.185D-01 0.472D-01 0.322D+00 0.607D+00
 Gap=     0.155 Goal=   None    Shift=    0.000
 RMSDP=2.19D-05 MaxDP=2.50D-04 DE=-9.77D-06 OVMax= 3.40D-04

 Cycle   7  Pass 0  IDiag  1:
 E= -323.471527740463     Delta-E=       -0.000001077528 Rises=F Damp=F
 DIIS: error= 4.53D-05 at cycle   7 NSaved=   7.
 NSaved= 7 IEnMin= 7 EnMin= -323.471527740463     IErMin= 7 ErrMin= 4.53D-05
 ErrMax= 4.53D-05  0.00D+00 EMaxC= 1.00D-01 BMatC= 1.34D-07 BMatP= 1.27D-06
 IDIUse=1 WtCom= 1.00D+00 WtEn= 0.00D+00
 Coeff-Com: -0.281D-03-0.504D-02-0.174D-02 0.850D-02 0.104D+00 0.315D+00
 Coeff-Com:  0.579D+00
 Coeff:     -0.281D-03-0.504D-02-0.174D-02 0.850D-02 0.104D+00 0.315D+00
 Coeff:      0.579D+00
 Gap=     0.155 Goal=   None    Shift=    0.000
 RMSDP=7.71D-06 MaxDP=8.57D-05 DE=-1.08D-06 OVMax= 1.08D-04

 Initial convergence to 1.0D-05 achieved.  Increase integral accuracy.
 Cycle   8  Pass 1  IDiag  1:
 E= -323.471570332020     Delta-E=       -0.000042591557 Rises=F Damp=F
 DIIS: error= 9.91D-06 at cycle   1 NSaved=   1.
 NSaved= 1 IEnMin= 1 EnMin= -323.471570332020     IErMin= 1 ErrMin= 9.91D-06
 ErrMax= 9.91D-06  0.00D+00 EMaxC= 1.00D-01 BMatC= 1.61D-08 BMatP= 1.61D-08
 IDIUse=1 WtCom= 1.00D+00 WtEn= 0.00D+00
 Coeff-Com:  0.100D+01
 Coeff:      0.100D+01
 Gap=     0.155 Goal=   None    Shift=    0.000
 RMSDP=7.71D-06 MaxDP=8.57D-05 DE=-4.26D-05 OVMax= 1.18D-04

 Cycle   9  Pass 1  IDiag  1:
 E= -323.471570336241     Delta-E=       -0.000000004221 Rises=F Damp=F
 DIIS: error= 2.03D-05 at cycle   2 NSaved=   2.
 NSaved= 2 IEnMin= 2 EnMin= -323.471570336241     IErMin= 1 ErrMin= 9.91D-06
 ErrMax= 2.03D-05  0.00D+00 EMaxC= 1.00D-01 BMatC= 2.57D-08 BMatP= 1.61D-08
[...]
   A15        2.08748  -0.00001   0.00000  -0.00007  -0.00007   2.08741
   A16        2.05674   0.00001   0.00000   0.00005   0.00005   2.05679
   A17        2.04436   0.00000   0.00000   0.00003   0.00003   2.04439
   A18        1.02898   0.00003   0.00000  -0.00017  -0.00017   1.02881
   A19        2.07631  -0.00001   0.00000   0.00008   0.00008   2.07639
   A20        1.87719   0.00001   0.00000   0.00008   0.00008   1.87727
    D1       -0.16841   0.00000   0.00000  -0.00045  -0.00045  -0.16886
    D2        2.92986   0.00000   0.00000  -0.00027  -0.00027   2.92959
    D3        2.46223  -0.00001   0.00000  -0.00032  -0.00032   2.46192
    D4        3.00399   0.00001   0.00000   0.00025   0.00025   3.00424
    D5       -0.18092   0.00001   0.00000   0.00043   0.00043  -0.18049
    D6       -0.64855   0.00000   0.00000   0.00039   0.00039  -0.64817
    D7        0.92088   0.00000   0.00000  -0.00056  -0.00056   0.92032
    D8        3.03805   0.00000   0.00000  -0.00053  -0.00053   3.03752
    D9       -1.16266   0.00000   0.00000  -0.00056  -0.00056  -1.16322
   D10       -2.17443   0.00000   0.00000  -0.00075  -0.00075  -2.17518
   D11       -0.05727   0.00000   0.00000  -0.00072  -0.00072  -0.05798
   D12        2.02521   0.00000   0.00000  -0.00075  -0.00075   2.02446
   D13       -1.49114   0.00000   0.00000  -0.00074  -0.00074  -1.49188
   D14        0.62603   0.00000   0.00000  -0.00071  -0.00071   0.62532
   D15        2.70850   0.00000   0.00000  -0.00074  -0.00074   2.70776
   D16        0.13316   0.00001   0.00000  -0.00025  -0.00025   0.13290
   D17        2.80858  -0.00001   0.00000  -0.00022  -0.00022   2.80836
   D18       -3.05328   0.00001   0.00000  -0.00007  -0.00007  -3.05336
   D19       -0.37786   0.00000   0.00000  -0.00004  -0.00004  -0.37790
   D20       -3.03347   0.00000   0.00000  -0.00069  -0.00069  -3.03415
   D21       -0.34649  -0.00002   0.00000  -0.00068  -0.00068  -0.34718
   D22        0.83595   0.00002   0.00000  -0.00084  -0.00084   0.83511
         Item               Value     Threshold  Converged?
 Maximum Force            0.000030     0.000450     YES
 RMS     Force            0.000007     0.000300     YES
 Maximum Displacement     0.001090     0.001800     YES
 RMS     Displacement     0.000313     0.001200     YES
 Predicted change in Energy=-7.903942D-10
 Optimization completed.
    -- Stationary point found.
                           ----------------------------
                           !   Optimized Parameters   !
                           ! (Angstroms and Degrees)  !
 --------------------------                            --------------------------
 ! Name  Definition              Value          Derivative Info.                !
 --------------------------------------------------------------------------------
 ! R1    R(1,2)                  1.0057         -DE/DX =    0.0                 !
 ! R2    R(1,3)                  1.3599         -DE/DX =    0.0                 !
 ! R3    R(1,11)                 1.0126         -DE/DX =    0.0                 !
 ! R4    R(3,5)                  1.4962         -DE/DX =    0.0                 !
 ! R5    R(3,6)                  1.397          -DE/DX =    0.0                 !
 ! R6    R(3,13)                 2.1526         -DE/DX =    0.0                 !
 ! R7    R(4,12)                 0.9772         -DE/DX =    0.0                 !
 ! R8    R(5,7)                  1.099          -DE/DX =    0.0                 !
 ! R9    R(5,8)                  1.0901         -DE/DX =    0.0                 !
 ! R10   R(5,9)                  1.0985         -DE/DX =    0.0                 !
 ! R11   R(6,10)                 1.4713         -DE/DX =    0.0                 !
 ! R12   R(6,12)                 1.4111         -DE/DX =    0.0                 !
 ! R13   R(6,13)                 1.2188         -DE/DX =    0.0                 !
 ! A1    A(2,1,3)              122.5189         -DE/DX =    0.0                 !
 ! A2    A(2,1,11)             120.5016         -DE/DX =    0.0                 !
 ! A3    A(3,1,11)             116.9558         -DE/DX =    0.0                 !
 ! A4    A(1,3,5)              120.0193         -DE/DX =    0.0                 !
 ! A5    A(1,3,6)              116.6917         -DE/DX =    0.0                 !
 ! A6    A(1,3,13)              97.2729         -DE/DX =    0.0                 !
 ! A7    A(5,3,6)              123.2392         -DE/DX =    0.0                 !
 ! A8    A(5,3,13)             133.3031         -DE/DX =    0.0                 !
 ! A9    A(3,5,7)              111.7789         -DE/DX =    0.0                 !
 ! A10   A(3,5,8)              110.3143         -DE/DX =    0.0                 !
 ! A11   A(3,5,9)              110.2485         -DE/DX =    0.0                 !
 ! A12   A(7,5,8)              108.8858         -DE/DX =    0.0                 !
 ! A13   A(7,5,9)              107.3973         -DE/DX =    0.0                 !
 ! A14   A(8,5,9)              108.0987         -DE/DX =    0.0                 !
 ! A15   A(3,6,10)             119.6036         -DE/DX =    0.0                 !
 ! A16   A(3,6,12)             117.8423         -DE/DX =    0.0                 !
 ! A17   A(10,6,12)            117.1333         -DE/DX =    0.0                 !
 ! A18   A(10,6,13)             58.9563         -DE/DX =    0.0                 !
 ! A19   A(12,6,13)            118.9635         -DE/DX =    0.0                 !
 ! A20   A(4,12,6)             107.555          -DE/DX =    0.0                 !
 ! D1    D(2,1,3,5)             -9.649          -DE/DX =    0.0                 !
 ! D2    D(2,1,3,6)            167.8689         -DE/DX =    0.0                 !
 ! D3    D(2,1,3,13)           141.0757         -DE/DX =    0.0                 !
 ! D4    D(11,1,3,5)           172.116          -DE/DX =    0.0                 !
 ! D5    D(11,1,3,6)           -10.3661         -DE/DX =    0.0                 !
 ! D6    D(11,1,3,13)          -37.1593         -DE/DX =    0.0                 !
 ! D7    D(1,3,5,7)             52.7626         -DE/DX =    0.0                 !
 ! D8    D(1,3,5,8)            174.0674         -DE/DX =    0.0                 !
 ! D9    D(1,3,5,9)            -66.6157         -DE/DX =    0.0                 !
 ! D10   D(6,3,5,7)           -124.5859         -DE/DX =    0.0                 !
 ! D11   D(6,3,5,8)             -3.2811         -DE/DX =    0.0                 !
 ! D12   D(6,3,5,9)            116.0358         -DE/DX =    0.0                 !
 ! D13   D(13,3,5,7)           -85.4361         -DE/DX =    0.0                 !
 ! D14   D(13,3,5,8)            35.8688         -DE/DX =    0.0                 !
 ! D15   D(13,3,5,9)           155.1856         -DE/DX =    0.0                 !
 ! D16   D(1,3,6,10)             7.6293         -DE/DX =    0.0                 !
 ! D17   D(1,3,6,12)           160.9198         -DE/DX =    0.0                 !
 ! D18   D(5,3,6,10)          -174.9402         -DE/DX =    0.0                 !
 ! D19   D(5,3,6,12)           -21.6497         -DE/DX =    0.0                 !
 ! D20   D(3,6,12,4)          -173.8048         -DE/DX =    0.0                 !
 ! D21   D(10,6,12,4)          -19.8526         -DE/DX =    0.0                 !
 ! D22   D(13,6,12,4)           47.8965         -DE/DX =    0.0                 !
 --------------------------------------------------------------------------------
 GradGradGradGradGradGradGradGradGradGradGradGradGradGradGradGradGradGrad

 Leave Link  103 at Thu Apr 14 09:08:41 2016, MaxMem=    33554432 cpu:         0.0
 (Enter /usr/local/gau/g09/l9999.exe)

 Test job not archived.
 1\1\GINC-KALI\Freq\RB3LYP\6-31G\C3H7N1O2\ROOT\14-Apr-2016\0\\#P Geom=A
 llCheck Guess=TCheck SCRF=Check Test GenChk RB3LYP/6-31G Freq\\Ala-S-o
 pt-freq-tsa3-6-31g\\0,1\N,1.3069619367,1.0669025126,0.0597061592\H,2.2
 918287829,1.2331959504,0.1774311529\C,0.7635595209,-0.1782391281,0.119
 3716735\H,-2.212549999,-1.3293007124,-0.129671949\C,1.6517928491,-1.38
 18671386,0.1513500353\C,-0.6290921772,-0.2518608366,0.2017394363\H,2.4
 05484234,-1.3114063916,0.9481483085\H,1.0603009819,-2.2847816216,0.303
 9751484\H,2.1893743258,-1.4830481665,-0.8012211995\O,-1.4318172676,0.9
 718088664,0.0504032614\H,0.6687268417,1.8398817473,-0.0835233646\O,-1.
 2460733237,-1.4730787986,-0.1435433515\H,-1.0334646253,0.3590120672,1.
 1757546992\\Version=ES64L-G09RevD.01\State=1-A\HF=-323.5135361\RMSD=8.
 063e-09\RMSF=9.597e-06\ZeroPoint=0.1013225\Thermal=0.1085863\Dipole=1.
 3058034,-0.0497044,0.4493784\DipoleDeriv=-0.6395466,-0.160666,0.142022
 6,-0.8824911,-0.7376697,0.0772911,0.111136,-0.0119337,-0.7403932,0.197
 9994,0.0147615,-0.0373926,0.0014277,0.2202161,0.0264124,-0.0947149,0.0
 191604,0.384709,0.9706379,0.062483,-0.2236051,0.7755681,0.5826621,-0.0
 984708,-0.3051917,-0.1153352,0.1742518,0.2243829,0.062587,0.0106718,0.
 1964932,0.3066562,-0.0334,0.0489458,-0.0345216,0.383438,0.0589743,0.07
 55601,0.0355421,-0.0679,-0.0699445,0.0080382,0.1169412,-0.0300263,0.10
 9004,-0.1532966,0.2740218,0.2055377,0.7007964,0.706245,0.2183335,1.313
 342,0.1632275,-0.0143045,-0.0792897,0.0318508,-0.1075622,0.0008512,0.0
 417729,-0.0469613,-0.1503507,0.0049027,-0.0259192,0.0715574,-0.0768464
 ,0.0137028,-0.0194189,0.001281,0.0161332,0.0082148,0.0295757,0.1028169
 ,-0.0211456,0.0550019,0.0844404,0.0553622,0.0513667,0.0131875,0.103055
 5,-0.0129401,-0.0576649,-0.8517167,0.1274041,0.0685906,0.5898608,-0.73
 73464,-0.1658784,-0.8323741,0.1749279,-0.3078979,0.1003702,0.0556902,-
 0.0066683,0.019991,0.2289204,-0.0006706,0.0273609,0.0029419,0.3747236,
 -0.4523683,-0.3304632,-0.1288148,-0.6245054,-0.8573216,-0.0851807,-0.3
 795154,-0.0893769,-0.5044777,0.5734415,-0.1913849,-0.0564649,-0.746035
 1,0.2631618,0.071166,0.0331505,-0.1006022,0.121714\Polar=73.2040412,-2
 .1455114,49.8123103,-1.5180645,0.8508309,27.9709615\PG=C01 [X(C3H7N1O2
 )]\NImag=1\\0.88272969,0.00882321,0.76575394,0.08893319,-0.06763356,0.
 06604690,-0.45353789,-0.05829995,-0.05198674,0.47003636,-0.05703507,-0
 .08461147,0.00143487,0.06889714,0.07811456,-0.05465023,0.00082156,-0.0
 1382738,0.05431189,0.00104897,0.01500546,-0.17802754,-0.08466179,-0.00
 463794,-0.01020404,-0.03939326,-0.00022731,0.74782797,-0.09829347,-0.3
 4719131,0.01512911,0.00106610,-0.00143980,-0.00034025,0.02969156,0.706
 15441,0.00022118,0.00843421,-0.04510550,0.00038003,-0.00395558,-0.0026
 7564,0.00797017,-0.00911215,0.16770959,0.00075632,0.00274719,-0.000647
 80,-0.00005271,-0.00015773,0.00028206,-0.00154053,-0.00364680,-0.00028
 888,0.48011748,-0.00104320,0.00178528,-0.00007565,-0.00026426,-0.00049
 702,0.00021608,-0.00211866,-0.00866270,-0.00119622,-0.04514237,0.05241
 429,0.00010706,0.00034887,0.00107933,-0.00000581,0.00011201,0.00075641
 ,0.00125203,-0.00009247,-0.00043848,0.00008176,0.01414379,0.00729092,0
 .01431299,-0.01281411,-0.00020520,0.00118371,0.00022395,0.00123392,-0.
 14254891,0.06291403,-0.00054865,0.00039834,0.00054545,-0.00034328,0.54
 793962,0.02414994,-0.03690996,0.00192199,0.00087547,0.00247158,0.00029
 061,0.05660937,-0.17574052,0.00430117,0.00015698,-0.00037782,-0.000080
 02,0.05358511,0.54676967,-0.00169148,0.00096933,0.00309553,0.00070949,
 -0.00071970,-0.00104494,-0.01061002,0.00532635,-0.07301233,-0.00005016
 ,0.00007438,-0.00058057,-0.00186955,-0.00715439,0.53437456,-0.03864932
 ,-0.03934410,0.00650093,0.00301524,0.00127916,0.00193349,-0.33895980,-
 0.00522061,0.00000005,-0.02506134,-0.05060998,-0.01310377,-0.01689842,
 0.00907143,0.01200847,0.63154967,-0.04148691,-0.00032206,0.00264892,-0
 .00116624,-0.00587020,0.00199426,-0.03985225,-0.09683052,0.00818465,0.
 00552210,-0.00765906,0.00022646,0.02636766,0.00410961,-0.00560265,0.10
 693492,0.42113936,0.02192225,0.04853050,0.00499594,-0.00613839,-0.0004
 5101,0.00612724,-0.05334636,-0.03179990,-0.05177637,-0.00144787,-0.006
 72155,-0.00234800,-0.00121791,0.00027316,0.00467955,0.06401257,0.03446
 311,0.17548945,0.00166120,-0.00155740,0.00157680,0.00041554,0.00057109
 ,-0.00088319,-0.02150659,0.00141192,-0.01362263,0.00009423,0.00029784,
 -0.00018180,-0.16198392,-0.01549294,-0.12556271,0.00367636,0.00148596,
 -0.00118170,0.18116514,-0.00023785,0.00221684,-0.00116510,-0.00078615,
 -0.00063773,0.00044939,0.02560639,0.00009595,0.02169981,-0.00017960,0.
 00017380,-0.00009856,-0.01380602,-0.05192033,-0.01250486,-0.00286603,-
 0.00307634,-0.00025965,0.01098198,0.05378862,0.00045484,0.00049365,0.0
 0055759,-0.00030082,0.00091506,-0.00032135,0.00095271,-0.00092627,0.00
 257338,0.00012070,0.00002932,0.00004521,-0.12585773,-0.01381718,-0.181
 51025,0.00094401,0.00013773,0.00020857,0.14047951,0.01576448,0.1981943
 1,-0.00368686,0.00354856,-0.00020857,-0.00015899,0.00012606,-0.0001124
 4,0.01392311,0.02066289,-0.00391414,0.00008928,-0.00033781,-0.00002198
 ,-0.13377666,-0.12986477,0.02206953,-0.00000034,0.00189473,0.00145039,
 -0.01158562,-0.01782905,0.00453733,0.14421762,0.00518508,-0.00248865,0
 .00038353,0.00028894,0.00042168,0.00021268,-0.01834617,-0.02475638,0.0
 0459771,-0.00023242,0.00057014,0.00000364,-0.12193670,-0.23816247,0.03
 231441,-0.00040558,-0.00172796,-0.00189183,0.00008290,-0.00057710,0.00
 072501,0.13459383,0.26240672,-0.00017246,0.00005478,0.00153364,0.00003
 750,0.00008440,-0.00063277,0.00096140,-0.00089595,-0.00147119,0.000161
 08,-0.00025420,-0.00001733,0.02044890,0.03282263,-0.05524488,-0.000101
 29,0.00080907,0.00062453,-0.01431546,-0.02205441,0.00384283,-0.0240339
 9,-0.03556675,0.05571254,0.00101870,-0.00157484,-0.00100933,0.00025270
 ,0.00002282,0.00044959,-0.01470914,0.00481852,0.01838216,0.00008258,0.
 00012914,0.00012688,-0.10437669,0.00856155,0.10901285,-0.00039787,0.00
 320178,0.00072449,0.01076383,-0.00214000,-0.02153123,-0.00828229,0.002
 55425,0.01675692,0.11652909,-0.00055238,0.00113415,0.00186966,-0.00007
 779,-0.00062610,-0.00110347,0.01689648,-0.00536279,-0.02530474,-0.0001
 2614,-0.00001965,0.00014000,0.00939887,-0.04949793,-0.01900447,0.00062
 046,-0.00293299,-0.00089266,0.00104693,0.00003920,-0.00338855,-0.01288
 429,0.00340821,0.02557278,-0.01491515,0.05262010,-0.00039945,0.0002523
 6,0.00081160,0.00011003,-0.00040576,-0.00051955,0.00059875,0.00029771,
 0.00409926,-0.00005758,-0.00006647,-0.00005203,0.10749651,-0.01744537,
 -0.24068949,-0.00146333,-0.00001009,-0.00092371,0.01270183,-0.00131598
 ,-0.02297219,0.00098290,-0.00133217,-0.00397646,-0.12056389,0.02037325
 ,0.26418475,-0.00288693,-0.00240550,0.00024492,-0.00026022,0.00212126,
 0.00170523,-0.01751739,0.03875020,-0.01247283,0.00288127,0.00468835,0.
 00114721,-0.00218907,-0.00363512,-0.00031950,-0.11538909,0.06308563,-0
 .00194482,-0.00132011,0.00166312,-0.00024626,0.00000092,0.00009729,-0.
 00022849,-0.00105903,0.00077192,0.00006270,0.12843828,0.00309978,0.021
 94774,-0.00221310,-0.00325224,0.00193698,0.00129726,-0.01455153,-0.029
 01233,0.00325954,0.00170122,0.00322685,-0.00003385,-0.00166480,0.00324
 441,0.00329784,0.09401382,-0.15554831,-0.02967076,0.00161034,-0.001306
 94,0.00068274,-0.00005586,0.00001024,-0.00002212,0.00017188,0.00030034
 ,-0.00036656,-0.09712468,0.17846911,-0.01308735,-0.02680745,-0.0009010
 5,0.00302035,-0.00120874,-0.00134276,0.05611977,0.01181651,0.00167423,
 0.00255475,0.00530094,-0.00184120,0.00119137,0.00087605,0.00638657,-0.
 11874772,0.09335030,0.04469710,0.00090606,-0.00080927,-0.00053162,-0.0
 0059329,0.00051941,-0.00040460,-0.00089890,0.00086450,-0.00027921,0.02
 262129,-0.01098041,-0.00600180,-0.22106080,0.17272342,-0.03878784,-0.0
 0949309,0.02449477,-0.00370682,0.02280568,-0.00587401,0.00037935,0.000
 22813,-0.00034343,0.00006840,-0.00120600,-0.00348159,-0.00044144,-0.00
 652403,-0.00355031,0.01242755,-0.00051245,0.00021709,-0.00008223,0.000
 50891,-0.00075147,0.00000500,-0.00030977,0.00006298,0.00005869,0.00181
 747,0.01140796,-0.00990086,0.20978062,0.17558055,-0.28931953,0.0438659
 7,-0.01092597,0.01138600,-0.00224742,0.02150521,-0.03050588,0.00502510
 ,-0.00018614,-0.00013906,-0.00000214,-0.00463347,-0.00211716,0.0014091
 3,0.00223067,-0.00451024,-0.00130529,0.00008632,0.00022943,0.00013031,
 0.00109505,-0.00089685,-0.00003067,-0.00007864,0.00032289,-0.00017580,
 0.00262485,0.00137626,-0.00022721,-0.18742817,0.31281090,-0.03961164,0
 .04326575,-0.02487436,-0.00077690,0.00235535,-0.00182872,0.00255900,0.
 00247194,0.00429018,-0.00010085,-0.00010460,-0.00023944,-0.00056858,-0
 .00098987,0.00364255,-0.00224368,0.00049122,-0.00293520,0.00034201,-0.
 00049693,0.00006164,0.00019780,-0.00036983,0.00062531,-0.00028600,0.00
 067473,-0.00001027,-0.00056035,-0.00282282,-0.00202910,0.03978766,-0.0
 4734272,0.02475734,-0.00707725,0.00047091,0.00090470,-0.00019393,-0.00
 166024,0.00059484,-0.02111414,-0.04189750,-0.01561898,-0.45728616,0.09
 722774,0.01186413,-0.00036529,-0.00051278,-0.00069077,-0.13155016,-0.0
 9551816,-0.03702980,-0.00062329,-0.00069827,0.00017473,-0.00144739,-0.
 00102711,0.00020189,-0.00014563,0.00019615,0.00034126,0.01563292,0.011
 53586,0.01871003,0.00002316,0.00050764,-0.00057552,0.61185012,-0.00395
 714,-0.00800994,0.00061123,0.00102310,-0.00005450,-0.00172021,0.001100
 29,0.00214447,-0.00853231,0.03803214,-0.04440034,-0.01316712,0.0011949
 2,-0.00226536,0.00122805,-0.04988840,-0.18187576,-0.03277204,-0.000705
 08,0.00087364,-0.00039076,-0.00050159,0.00136081,-0.00018528,-0.000790
 94,0.00088796,0.00025351,-0.00360313,-0.03694505,-0.01190306,0.0005186
 8,0.00091449,0.00039771,0.02312025,0.28509225,-0.00385798,-0.01062666,
 0.00462888,0.00109170,0.00035255,-0.00008192,0.01288292,0.00607290,-0.
 00069624,-0.00073162,-0.00929793,-0.00424274,0.00039877,-0.00043884,-0
 .00081714,-0.03487137,-0.04883130,-0.04827944,-0.00001119,0.00055867,-
 0.00008990,-0.00029583,0.00027733,-0.00060038,-0.00065012,-0.00016887,
 0.00017314,0.00959134,0.00264492,0.00621774,-0.00246449,0.00040848,-0.
 00034536,0.02943841,0.07223351,0.04358855,0.00444769,0.01234440,-0.000
 67712,-0.00100270,0.00051005,-0.00093102,-0.03842868,-0.00438282,0.019
 13318,-0.00070689,-0.00302880,-0.00099082,-0.00048970,-0.00002263,-0.0
 0256471,0.03518910,-0.02691892,0.00176960,-0.00024431,0.00007439,0.000
 35443,0.00019832,-0.00010285,0.00027899,0.00063350,-0.00043803,0.00013
 158,-0.00814901,-0.00689174,0.03810449,0.00394216,-0.00037789,0.001837
 05,-0.00770296,-0.00554310,-0.01052052,0.01231348,-0.01423253,-0.02398
 502,0.00322213,0.00262185,-0.00059399,-0.00091945,0.04751436,0.0111074
 0,-0.00740119,0.00151158,0.00358529,-0.00150062,0.00062511,0.00039629,
 0.00036659,-0.06581575,0.03510449,0.02249791,0.00018013,0.00010096,-0.
 00035553,-0.00044774,0.00043162,-0.00033430,0.00003963,-0.00027341,-0.
 00005861,-0.00703418,0.01230071,-0.06079156,-0.00799593,0.00044873,0.0
 0247006,0.00825552,-0.01772266,-0.01318476,0.03477795,-0.02090040,0.00
 183208,0.00189666,0.00195888,-0.00045232,0.00043759,0.00038594,-0.0144
 7513,0.00205248,-0.00517089,0.00012441,-0.00204789,0.00058791,-0.00015
 858,-0.00055995,0.00072084,0.08513164,-0.08786168,-0.13055966,-0.00024
 752,0.00023241,-0.00005822,-0.00005770,0.00012687,0.00000877,-0.000513
 42,0.00036784,0.00015417,-0.01960045,0.03492731,-0.04564429,0.00265704
 ,0.00049225,-0.00111457,-0.00831493,-0.00605323,0.00054481,-0.04592511
 ,0.05598934,0.17818631\\-0.00000642,0.00000583,0.00001632,-0.00000049,
 0.00000266,-0.00000435,-0.00000167,-0.00001924,-0.00001098,0.00000321,
 0.00000048,0.00000010,0.00000512,0.00000260,-0.00000002,0.00001229,-0.
 00000377,-0.00002027,0.00000038,0.00000199,0.00000212,0.00000166,0.000
 00026,0.00000338,0.00000262,-0.00000121,0.00000330,-0.00000248,-0.0000
 1335,0.00002263,0.00000160,-0.00000151,-0.00001094,0.00000469,-0.00000
 187,0.00000510,-0.00002050,0.00002712,-0.00000638\\\@


 LAWS OF PROGRAMMING DEFINITION:  A WORKING PROGRAM
                                  IS ONE THAT HAS
                                  ONLY UNOBSERVED
                                  BUGS.
 Job cpu time:       0 days  0 hours  1 minutes 12.3 seconds.
 File lengths (MBytes):  RWF=     12 Int=      0 D2E=      0 Chk=      2 Scr=      1
 Normal termination of Gaussian 09 at Thu Apr 14 09:08:41 2016.
