 Entering Gaussian System, Link 0=g09
 Input=Ala-S-opt-freq-tsa3-6-31g.com
 Output=Ala-S-opt-freq-tsa3-6-31g.log
 Initial command:
 /usr/local/gau/g09/l1.exe "/tmp/Gau-3470.inp" -scrdir="/tmp/"
 Entering Link 1 = /usr/local/gau/g09/l1.exe PID=      3472.
  
 Copyright (c) 1988,1990,1992,1993,1995,1998,2003,2009,2013,
            Gaussian, Inc.  All Rights Reserved.
  
 This is part of the Gaussian(R) 09 program.  It is based on
 the Gaussian(R) 03 system (copyright 2003, Gaussian, Inc.),
 the Gaussian(R) 98 system (copyright 1998, Gaussian, Inc.),
 the Gaussian(R) 94 system (copyright 1995, Gaussian, Inc.),
 the Gaussian 92(TM) system (copyright 1992, Gaussian, Inc.),
 the Gaussian 90(TM) system (copyright 1990, Gaussian, Inc.),
 the Gaussian 88(TM) system (copyright 1988, Gaussian, Inc.),
 the Gaussian 86(TM) system (copyright 1986, Carnegie Mellon
 University), and the Gaussian 82(TM) system (copyright 1983,
 Carnegie Mellon University). Gaussian is a federally registered
 trademark of Gaussian, Inc.
  
 This software contains proprietary and confidential information,
 including trade secrets, belonging to Gaussian, Inc.
  
 This software is provided under written license and may be
 used, copied, transmitted, or stored only in accord with that
 written license.
  
 The following legend is applicable only to US Government
 contracts under FAR:
  
                    RESTRICTED RIGHTS LEGEND
  
 Use, reproduction and disclosure by the US Government is
 subject to restrictions as set forth in subparagraphs (a)
 and (c) of the Commercial Computer Software - Restricted
 Rights clause in FAR 52.227-19.
  
 Gaussian, Inc.
 340 Quinnipiac St., Bldg. 40, Wallingford CT 06492
  
  
 ---------------------------------------------------------------
 Warning -- This program may not be used in any manner that
 competes with the business of Gaussian, Inc. or will provide
 assistance to any competitor of Gaussian, Inc.  The licensee
 of this program is prohibited from giving any competitor of
 Gaussian, Inc. access to this program.  By using this program,
 the user acknowledges that Gaussian, Inc. is engaged in the
 business of creating and licensing software in the field of
 computational chemistry and represents and warrants to the
 licensee that it is not a competitor of Gaussian, Inc. and that
 it will not use this program in any manner prohibited above.
 ---------------------------------------------------------------
  

 Cite this work as:
 Gaussian 09, Revision D.01,
 M. J. Frisch, G. W. Trucks, H. B. Schlegel, G. E. Scuseria, 
 M. A. Robb, J. R. Cheeseman, G. Scalmani, V. Barone, B. Mennucci, 
 G. A. Petersson, H. Nakatsuji, M. Caricato, X. Li, H. P. Hratchian, 
 A. F. Izmaylov, J. Bloino, G. Zheng, J. L. Sonnenberg, M. Hada, 
 M. Ehara, K. Toyota, R. Fukuda, J. Hasegawa, M. Ishida, T. Nakajima, 
 Y. Honda, O. Kitao, H. Nakai, T. Vreven, J. A. Montgomery, Jr., 
 J. E. Peralta, F. Ogliaro, M. Bearpark, J. J. Heyd, E. Brothers, 
 K. N. Kudin, V. N. Staroverov, T. Keith, R. Kobayashi, J. Normand, 
 K. Raghavachari, A. Rendell, J. C. Burant, S. S. Iyengar, J. Tomasi, 
 M. Cossi, N. Rega, J. M. Millam, M. Klene, J. E. Knox, J. B. Cross, 
 V. Bakken, C. Adamo, J. Jaramillo, R. Gomperts, R. E. Stratmann, 
 O. Yazyev, A. J. Austin, R. Cammi, C. Pomelli, J. W. Ochterski, 
 R. L. Martin, K. Morokuma, V. G. Zakrzewski, G. A. Voth, 
 P. Salvador, J. J. Dannenberg, S. Dapprich, A. D. Daniels, 
 O. Farkas, J. B. Foresman, J. V. Ortiz, J. Cioslowski, 
 and D. J. Fox, Gaussian, Inc., Wallingford CT, 2013.
 
 ******************************************
 Gaussian 09:  ES64L-G09RevD.01 24-Apr-2013
                13-Apr-2016 
 ******************************************
 %chk=Ala-S-opt-freq-tsa3-6-31g.chk
 ------------------------------------------------
 #p opt=(calcfc,ts) freq rb3lyp/6-31g iop(1/11=1)
 ------------------------------------------------
 1/5=1,10=4,11=1,14=-1,18=20,26=3,38=1/1,3;
 2/9=110,12=2,17=6,18=5,40=1/2;
 3/5=1,6=6,11=2,16=1,25=1,30=1,71=2,74=-5,116=1,140=1/1,2,3;
 4//1;
 5/5=2,38=5/2;
 8/6=4,10=90,11=11/1;
 11/6=1,8=1,9=11,15=111,16=1/1,2,10;
 10/6=1,13=1/2;
 6/7=2,8=2,9=2,10=2,28=1/1;
 7/10=1,18=20,25=1/1,2,3,16;
 1/5=1,10=4,11=1,14=-1,18=20,26=3/3(2);
 2/9=110/2;
 99//99;
 2/9=110/2;
 3/5=1,6=6,11=2,16=1,25=1,30=1,71=1,74=-5,116=1/1,2,3;
 4/5=5,16=3,69=1/1;
 5/5=2,38=5/2;
 7//1,2,3,16;
 1/5=1,11=1,14=-1,18=20,26=3/3(-5);
 2/9=110/2;
 6/7=2,8=2,9=2,10=2,19=2,28=1/1;
 99/9=1/99;
 Leave Link    1 at Wed Apr 13 23:58:41 2016, MaxMem=           0 cpu:         0.0
 (Enter /usr/local/gau/g09/l101.exe)
 -------------------------
 Ala-S-opt-freq-tsa3-6-31g
 -------------------------
 Symbolic Z-matrix:
 Charge =  0 Multiplicity = 1
 N                     1.38587   1.00408   0.06539 
 H                     2.3831    1.08     -0.01708 
 C                     0.76793  -0.24434   0.04015 
 H                    -1.95961  -1.7387   -0.66622 
 C                     1.67595  -1.44243   0.03247 
 C                    -0.72735  -0.36309   0.03293 
 H                     2.32147  -1.44534   0.92113 
 H                     1.09469  -2.36493   0.02949 
 H                     2.33118  -1.43538  -0.85005 
 O                    -1.53663   0.78812  -0.05837 
 H                     0.82352   1.83186  -0.03133 
 O                    -1.41759  -1.57862   0.13704 
 H                    -0.23718   0.6685    1.15345 
 
 Add virtual bond connecting atoms H13        and C3         Dist= 3.32D+00.
 Add virtual bond connecting atoms H13        and C6         Dist= 3.02D+00.
 NAtoms=     13 NQM=       13 NQMF=       0 NMMI=      0 NMMIF=      0
                NMic=       0 NMicF=      0.
                    Isotopes and Nuclear Properties:
 (Nuclear quadrupole moments (NQMom) in fm**2, nuclear magnetic moments (NMagM)
  in nuclear magnetons)

  Atom         1           2           3           4           5           6           7           8           9          10
 IAtWgt=          14           1          12           1          12          12           1           1           1          16
 AtmWgt=  14.0030740   1.0078250  12.0000000   1.0078250  12.0000000  12.0000000   1.0078250   1.0078250   1.0078250  15.9949146
 NucSpn=           2           1           0           1           0           0           1           1           1           0
 AtZEff=   0.0000000   0.0000000   0.0000000   0.0000000   0.0000000   0.0000000   0.0000000   0.0000000   0.0000000   0.0000000
 NQMom=    2.0440000   0.0000000   0.0000000   0.0000000   0.0000000   0.0000000   0.0000000   0.0000000   0.0000000   0.0000000
 NMagM=    0.4037610   2.7928460   0.0000000   2.7928460   0.0000000   0.0000000   2.7928460   2.7928460   2.7928460   0.0000000
 AtZNuc=   7.0000000   1.0000000   6.0000000   1.0000000   6.0000000   6.0000000   1.0000000   1.0000000   1.0000000   8.0000000

  Atom        11          12          13
 IAtWgt=           1          16           1
 AtmWgt=   1.0078250  15.9949146   1.0078250
 NucSpn=           1           0           1
 AtZEff=   0.0000000   0.0000000   0.0000000
 NQMom=    0.0000000   0.0000000   0.0000000
 NMagM=    2.7928460   0.0000000   2.7928460
 AtZNuc=   1.0000000   8.0000000   1.0000000
 Leave Link  101 at Wed Apr 13 23:58:41 2016, MaxMem=    33554432 cpu:         0.2
 (Enter /usr/local/gau/g09/l103.exe)

 GradGradGradGradGradGradGradGradGradGradGradGradGradGradGradGradGradGrad
 Berny optimization.
 Initialization pass.
                           ----------------------------
                           !    Initial Parameters    !
                           ! (Angstroms and Degrees)  !
 --------------------------                            --------------------------
 ! Name  Definition              Value          Derivative Info.                !
 --------------------------------------------------------------------------------
 ! R1    R(1,2)                  1.0035         calculate D2E/DX2 analytically  !
 ! R2    R(1,3)                  1.3932         calculate D2E/DX2 analytically  !
 ! R3    R(1,11)                 1.0054         calculate D2E/DX2 analytically  !
 ! R4    R(3,5)                  1.5033         calculate D2E/DX2 analytically  !
 ! R5    R(3,6)                  1.5            calculate D2E/DX2 analytically  !
 ! R6    R(3,13)                 1.7558         calculate D2E/DX2 analytically  !
 ! R7    R(4,12)                 0.9822         calculate D2E/DX2 analytically  !
 ! R8    R(5,7)                  1.0984         calculate D2E/DX2 analytically  !
 ! R9    R(5,8)                  1.0904         calculate D2E/DX2 analytically  !
 ! R10   R(5,9)                  1.0992         calculate D2E/DX2 analytically  !
 ! R11   R(6,10)                 1.4102         calculate D2E/DX2 analytically  !
 ! R12   R(6,12)                 1.4017         calculate D2E/DX2 analytically  !
 ! R13   R(6,13)                 1.6            calculate D2E/DX2 analytically  !
 ! A1    A(2,1,3)              120.4689         calculate D2E/DX2 analytically  !
 ! A2    A(2,1,11)             119.0538         calculate D2E/DX2 analytically  !
 ! A3    A(3,1,11)             119.2059         calculate D2E/DX2 analytically  !
 ! A4    A(1,3,5)              116.508          calculate D2E/DX2 analytically  !
 ! A5    A(1,3,6)              120.8748         calculate D2E/DX2 analytically  !
 ! A6    A(1,3,13)              77.0884         calculate D2E/DX2 analytically  !
 ! A7    A(5,3,6)              122.6153         calculate D2E/DX2 analytically  !
 ! A8    A(5,3,13)             139.7589         calculate D2E/DX2 analytically  !
 ! A9    A(3,5,7)              110.6686         calculate D2E/DX2 analytically  !
 ! A10   A(3,5,8)              110.6273         calculate D2E/DX2 analytically  !
 ! A11   A(3,5,9)              111.0413         calculate D2E/DX2 analytically  !
 ! A12   A(7,5,8)              108.2564         calculate D2E/DX2 analytically  !
 ! A13   A(7,5,9)              107.4144         calculate D2E/DX2 analytically  !
 ! A14   A(8,5,9)              108.7238         calculate D2E/DX2 analytically  !
 ! A15   A(3,6,10)             120.5154         calculate D2E/DX2 analytically  !
 ! A16   A(3,6,12)             123.9986         calculate D2E/DX2 analytically  !
 ! A17   A(10,6,12)            115.4764         calculate D2E/DX2 analytically  !
 ! A18   A(10,6,13)             72.2303         calculate D2E/DX2 analytically  !
 ! A19   A(12,6,13)            131.1438         calculate D2E/DX2 analytically  !
 ! A20   A(4,12,6)             110.6311         calculate D2E/DX2 analytically  !
 ! D1    D(2,1,3,5)              6.2762         calculate D2E/DX2 analytically  !
 ! D2    D(2,1,3,6)           -174.2135         calculate D2E/DX2 analytically  !
 ! D3    D(2,1,3,13)           145.8108         calculate D2E/DX2 analytically  !
 ! D4    D(11,1,3,5)           173.2777         calculate D2E/DX2 analytically  !
 ! D5    D(11,1,3,6)            -7.2119         calculate D2E/DX2 analytically  !
 ! D6    D(11,1,3,13)          -47.1877         calculate D2E/DX2 analytically  !
 ! D7    D(1,3,5,7)             59.0596         calculate D2E/DX2 analytically  !
 ! D8    D(1,3,5,8)            179.0434         calculate D2E/DX2 analytically  !
 ! D9    D(1,3,5,9)            -60.1392         calculate D2E/DX2 analytically  !
 ! D10   D(6,3,5,7)           -120.4415         calculate D2E/DX2 analytically  !
 ! D11   D(6,3,5,8)             -0.4577         calculate D2E/DX2 analytically  !
 ! D12   D(6,3,5,9)            120.3597         calculate D2E/DX2 analytically  !
 ! D13   D(13,3,5,7)           -42.6421         calculate D2E/DX2 analytically  !
 ! D14   D(13,3,5,8)            77.3418         calculate D2E/DX2 analytically  !
 ! D15   D(13,3,5,9)          -161.8408         calculate D2E/DX2 analytically  !
 ! D16   D(1,3,6,10)             5.1914         calculate D2E/DX2 analytically  !
 ! D17   D(1,3,6,12)          -173.6291         calculate D2E/DX2 analytically  !
 ! D18   D(5,3,6,10)          -175.3288         calculate D2E/DX2 analytically  !
 ! D19   D(5,3,6,12)             5.8507         calculate D2E/DX2 analytically  !
 ! D20   D(3,6,12,4)          -118.4765         calculate D2E/DX2 analytically  !
 ! D21   D(10,6,12,4)           62.649          calculate D2E/DX2 analytically  !
 ! D22   D(13,6,12,4)          150.7793         calculate D2E/DX2 analytically  !
 --------------------------------------------------------------------------------
 Trust Radius=3.00D-01 FncErr=1.00D-07 GrdErr=1.00D-06
 Number of steps in this run=     65 maximum allowed number of steps=    100.
 Search for a saddle point of order  1.
 GradGradGradGradGradGradGradGradGradGradGradGradGradGradGradGradGradGrad

 Leave Link  103 at Wed Apr 13 23:58:41 2016, MaxMem=    33554432 cpu:         0.0
 (Enter /usr/local/gau/g09/l202.exe)
                          Input orientation:                          
 ---------------------------------------------------------------------
 Center     Atomic      Atomic             Coordinates (Angstroms)
 Number     Number       Type             X           Y           Z
 ---------------------------------------------------------------------
      1          7           0        1.385869    1.004077    0.065388
      2          1           0        2.383099    1.080003   -0.017076
      3          6           0        0.767928   -0.244343    0.040154
      4          1           0       -1.959607   -1.738697   -0.666216
      5          6           0        1.675954   -1.442427    0.032474
      6          6           0       -0.727347   -0.363089    0.032933
      7          1           0        2.321471   -1.445339    0.921130
      8          1           0        1.094687   -2.364935    0.029494
      9          1           0        2.331179   -1.435377   -0.850055
     10          8           0       -1.536628    0.788118   -0.058369
     11          1           0        0.823521    1.831861   -0.031334
     12          8           0       -1.417595   -1.578620    0.137039
     13          1           0       -0.237183    0.668503    1.153450
 ---------------------------------------------------------------------
                    Distance matrix (angstroms):
                    1          2          3          4          5
     1  N    0.000000
     2  H    1.003510   0.000000
     3  C    1.393212   2.089484   0.000000
     4  H    4.387513   5.217811   3.189279   0.000000
     5  C    2.463862   2.620145   1.503321   3.713926   0.000000
     6  C    2.517117   3.429270   1.500000   1.974733   2.634545
     7  H    2.758131   2.694695   2.152210   4.575299   1.098367
     8  H    3.381762   3.678284   2.145646   3.194511   1.090367
     9  H    2.771747   2.650224   2.157496   4.305420   1.099194
    10  O    2.933077   3.930797   2.527184   2.633094   3.912067
    11  H    1.005394   1.731409   2.078178   4.571407   3.384032
    12  O    3.812462   4.640830   2.562458   0.982151   3.098310
    13  H    1.982621   2.899196   1.755836   3.474556   3.061487
                    6          7          8          9         10
     6  C    0.000000
     7  H    3.354914   0.000000
     8  H    2.706881   1.773604   0.000000
     9  H    3.359174   1.771240   1.779493   0.000000
    10  O    1.410159   4.564283   4.107710   4.531073   0.000000
    11  H    2.688332   3.727074   4.205987   3.690282   2.580782
    12  O    1.401712   3.822719   2.634657   3.879198   2.377772
    13  H    1.600000   3.327012   3.498413   3.877734   1.780834
                   11         12         13
    11  H    0.000000
    12  O    4.084401   0.000000
    13  H    1.970332   2.734232   0.000000
 Stoichiometry    C3H7NO2
 Framework group  C1[X(C3H7NO2)]
 Deg. of freedom    33
 Full point group                 C1      NOp   1
 Largest Abelian subgroup         C1      NOp   1
 Largest concise Abelian subgroup C1      NOp   1
                         Standard orientation:                         
 ---------------------------------------------------------------------
 Center     Atomic      Atomic             Coordinates (Angstroms)
 Number     Number       Type             X           Y           Z
 ---------------------------------------------------------------------
      1          7           0       -1.424286   -1.203955   -0.005501
      2          1           0       -2.423212   -1.197561   -0.101099
      3          6           0       -0.705917   -0.010275   -0.016264
      4          1           0        2.143882    1.258503   -0.679849
      5          6           0       -1.512612    1.258209   -0.029236
      6          6           0        0.794025   -0.014428   -0.003755
      7          1           0       -2.167366    1.310274    0.851103
      8          1           0       -0.857771    2.129987   -0.019931
      9          1           0       -2.154538    1.308582   -0.920089
     10          8           0        1.507456   -1.227685   -0.090770
     11          1           0       -0.930383   -2.074622   -0.099388
     12          8           0        1.580055    1.140006    0.115561
     13          1           0        0.206328   -1.007082    1.104960
 ---------------------------------------------------------------------
 Rotational constants (GHZ):      4.8480039      2.9638162      1.8891797
 Leave Link  202 at Wed Apr 13 23:58:41 2016, MaxMem=    33554432 cpu:         0.0
 (Enter /usr/local/gau/g09/l301.exe)
 Standard basis: 6-31G (6D, 7F)
 Ernie: Thresh=  0.10000D-02 Tol=  0.10000D-05 Strict=F.
 There are    68 symmetry adapted cartesian basis functions of A   symmetry.
 There are    68 symmetry adapted basis functions of A   symmetry.
    68 basis functions,   160 primitive gaussians,    68 cartesian basis functions
    24 alpha electrons       24 beta electrons
       nuclear repulsion energy       239.9824262124 Hartrees.
 IExCor=  402 DFT=T Ex+Corr=B3LYP ExCW=0 ScaHFX=  0.200000
 ScaDFX=  0.800000  0.720000  1.000000  0.810000 ScalE2=  1.000000  1.000000
 IRadAn=      0 IRanWt=     -1 IRanGd=            0 ICorTp=0 IEmpDi=  4
 NAtoms=   13 NActive=   13 NUniq=   13 SFac= 1.00D+00 NAtFMM=   60 NAOKFM=F Big=F
 Integral buffers will be    131072 words long.
 Raffenetti 2 integral format.
 Two-electron integral symmetry is turned on.
 Leave Link  301 at Wed Apr 13 23:58:41 2016, MaxMem=    33554432 cpu:         0.0
 (Enter /usr/local/gau/g09/l302.exe)
 NPDir=0 NMtPBC=     1 NCelOv=     1 NCel=       1 NClECP=     1 NCelD=      1
         NCelK=      1 NCelE2=     1 NClLst=     1 CellRange=     0.0.
 One-electron integrals computed using PRISM.
 NBasis=    68 RedAO= T EigKep=  3.89D-03  NBF=    68
 NBsUse=    68 1.00D-06 EigRej= -1.00D+00 NBFU=    68
 Precomputing XC quadrature grid using
 IXCGrd= 4 IRadAn=           0 IRanWt=          -1 IRanGd=           0 AccXCQ= 0.00D+00.
 Generated NRdTot=       0 NPtTot=           0 NUsed=           0 NTot=          32
 NSgBfM=    68    68    68    68    68 MxSgAt=    13 MxSgA2=    13.
 Leave Link  302 at Wed Apr 13 23:58:41 2016, MaxMem=    33554432 cpu:         0.2
 (Enter /usr/local/gau/g09/l303.exe)
 DipDrv:  MaxL=1.
 Leave Link  303 at Wed Apr 13 23:58:41 2016, MaxMem=    33554432 cpu:         0.0
 (Enter /usr/local/gau/g09/l401.exe)
 ExpMin= 1.61D-01 ExpMax= 5.48D+03 ExpMxC= 8.25D+02 IAcc=1 IRadAn=         1 AccDes= 0.00D+00
 Harris functional with IExCor=  402 and IRadAn=       1 diagonalized for initial guess.
 HarFok:  IExCor=  402 AccDes= 0.00D+00 IRadAn=         1 IDoV= 1 UseB2=F ITyADJ=14
 ICtDFT=  3500011 ScaDFX=  1.000000  1.000000  1.000000  1.000000
 FoFCou: FMM=F IPFlag=           0 FMFlag=      100000 FMFlg1=           0
         NFxFlg=           0 DoJE=T BraDBF=F KetDBF=T FulRan=T
         wScrn=  0.000000 ICntrl=     500 IOpCl=  0 I1Cent=   200000004 NGrid=           0
         NMat0=    1 NMatS0=      1 NMatT0=    0 NMatD0=    1 NMtDS0=    0 NMtDT0=    0
 Petite list used in FoFCou.
 Harris En= -323.525619534809    
 JPrj=0 DoOrth=F DoCkMO=F.
 Leave Link  401 at Wed Apr 13 23:58:42 2016, MaxMem=    33554432 cpu:         0.5
 (Enter /usr/local/gau/g09/l502.exe)
 Closed shell SCF:
 Using DIIS extrapolation, IDIIS=  1040.
 Integral symmetry usage will be decided dynamically.
 Keep R1 ints in memory in canonical form, NReq=3676491.
 IVT=       33364 IEndB=       33364 NGot=    33554432 MDV=    30768038
 LenX=    30768038 LenY=    30762973
 Requested convergence on RMS density matrix=1.00D-08 within 128 cycles.
 Requested convergence on MAX density matrix=1.00D-06.
 Requested convergence on             energy=1.00D-06.
 No special actions if energy rises.
 FoFCou: FMM=F IPFlag=           0 FMFlag=           0 FMFlg1=           0
         NFxFlg=           0 DoJE=F BraDBF=F KetDBF=F FulRan=T
         wScrn=  0.000000 ICntrl=     600 IOpCl=  0 I1Cent=           0 NGrid=           0
         NMat0=    1 NMatS0=   2346 NMatT0=    0 NMatD0=    1 NMtDS0=    0 NMtDT0=    0
 Symmetry not used in FoFCou.
 Integral accuracy reduced to 1.0D-05 until final iterations.

 Cycle   1  Pass 0  IDiag  1:
 E= -323.186013252959    
 DIIS: error= 4.48D-02 at cycle   1 NSaved=   1.
 NSaved= 1 IEnMin= 1 EnMin= -323.186013252959     IErMin= 1 ErrMin= 4.48D-02
 ErrMax= 4.48D-02  0.00D+00 EMaxC= 1.00D-01 BMatC= 2.81D-01 BMatP= 2.81D-01
 IDIUse=3 WtCom= 5.52D-01 WtEn= 4.48D-01
 Coeff-Com:  0.100D+01
 Coeff-En:   0.100D+01
 Coeff:      0.100D+01
 Gap=     0.029 Goal=   None    Shift=    0.000
 GapD=    0.029 DampG=0.250 DampE=0.500 DampFc=0.2500 IDamp=-1.
 Damping current iteration by 2.50D-01
 RMSDP=3.02D-02 MaxDP=5.73D-01              OVMax= 7.93D-01

 Cycle   2  Pass 0  IDiag  1:
 E= -323.200477711914     Delta-E=       -0.014464458956 Rises=F Damp=T
 DIIS: error= 1.85D-02 at cycle   2 NSaved=   2.
 NSaved= 2 IEnMin= 2 EnMin= -323.200477711914     IErMin= 2 ErrMin= 1.85D-02
 ErrMax= 1.85D-02  0.00D+00 EMaxC= 1.00D-01 BMatC= 4.90D-02 BMatP= 2.81D-01
 IDIUse=3 WtCom= 8.15D-01 WtEn= 1.85D-01
 Coeff-Com: -0.589D-02 0.101D+01
 Coeff-En:   0.463D+00 0.537D+00
 Coeff:      0.810D-01 0.919D+00
 Gap=    -0.064 Goal=   None    Shift=    0.000
 RMSDP=1.06D-02 MaxDP=1.21D-01 DE=-1.45D-02 OVMax= 6.53D-01

 Cycle   3  Pass 0  IDiag  1:
 E= -323.212270200736     Delta-E=       -0.011792488821 Rises=F Damp=F
 DIIS: error= 4.94D-02 at cycle   3 NSaved=   3.
 NSaved= 3 IEnMin= 3 EnMin= -323.212270200736     IErMin= 2 ErrMin= 1.85D-02
 ErrMax= 4.94D-02  0.00D+00 EMaxC= 1.00D-01 BMatC= 2.21D-01 BMatP= 4.90D-02
 IDIUse=2 WtCom= 0.00D+00 WtEn= 1.00D+00
 EnCoef did     2 forward-backward iterations
 Coeff-En:   0.122D+00 0.409D+00 0.468D+00
 Coeff:      0.122D+00 0.409D+00 0.468D+00
 Gap=     0.106 Goal=   None    Shift=    0.000
 RMSDP=1.84D-02 MaxDP=2.31D-01 DE=-1.18D-02 OVMax= 4.97D-01

 Cycle   4  Pass 0  IDiag  1:
 E= -322.942601156067     Delta-E=        0.269669044668 Rises=F Damp=F
 DIIS: error= 8.15D-02 at cycle   4 NSaved=   4.
 NSaved= 4 IEnMin= 3 EnMin= -323.212270200736     IErMin= 2 ErrMin= 1.85D-02
 ErrMax= 8.15D-02  0.00D+00 EMaxC= 1.00D-01 BMatC= 5.25D-01 BMatP= 4.90D-02
 IDIUse=2 WtCom= 0.00D+00 WtEn= 1.00D+00
 EnCoef did     2 forward-backward iterations
 Coeff-En:   0.168D+00 0.000D+00 0.501D+00 0.332D+00
 Coeff:      0.168D+00 0.000D+00 0.501D+00 0.332D+00
 Gap=     0.089 Goal=   None    Shift=    0.000
 RMSDP=1.14D-02 MaxDP=1.53D-01 DE= 2.70D-01 OVMax= 3.68D-01

 Cycle   5  Pass 0  IDiag  1:
 E= -323.436639374953     Delta-E=       -0.494038218886 Rises=F Damp=F
 DIIS: error= 7.58D-03 at cycle   5 NSaved=   5.
 NSaved= 5 IEnMin= 5 EnMin= -323.436639374953     IErMin= 5 ErrMin= 7.58D-03
 ErrMax= 7.58D-03  0.00D+00 EMaxC= 1.00D-01 BMatC= 6.45D-03 BMatP= 4.90D-02
 IDIUse=3 WtCom= 9.24D-01 WtEn= 7.58D-02
 Coeff-Com: -0.115D+00 0.181D+00 0.150D+00-0.168D-01 0.801D+00
 Coeff-En:   0.000D+00 0.000D+00 0.000D+00 0.000D+00 0.100D+01
 Coeff:     -0.106D+00 0.168D+00 0.138D+00-0.155D-01 0.816D+00
 Gap=     0.097 Goal=   None    Shift=    0.000
 RMSDP=1.30D-03 MaxDP=2.00D-02 DE=-4.94D-01 OVMax= 3.30D-02

 Cycle   6  Pass 0  IDiag  1:
 E= -323.440806971611     Delta-E=       -0.004167596658 Rises=F Damp=F
 DIIS: error= 4.75D-03 at cycle   6 NSaved=   6.
 NSaved= 6 IEnMin= 6 EnMin= -323.440806971611     IErMin= 6 ErrMin= 4.75D-03
 ErrMax= 4.75D-03  0.00D+00 EMaxC= 1.00D-01 BMatC= 1.83D-03 BMatP= 6.45D-03
 IDIUse=3 WtCom= 9.52D-01 WtEn= 4.75D-02
 Coeff-Com: -0.880D-01 0.114D+00 0.595D-01-0.183D-01 0.497D+00 0.436D+00
 Coeff-En:   0.000D+00 0.000D+00 0.000D+00 0.000D+00 0.151D+00 0.849D+00
 Coeff:     -0.838D-01 0.108D+00 0.567D-01-0.174D-01 0.481D+00 0.455D+00
 Gap=     0.096 Goal=   None    Shift=    0.000
 RMSDP=5.30D-04 MaxDP=7.43D-03 DE=-4.17D-03 OVMax= 8.86D-03

 Cycle   7  Pass 0  IDiag  1:
 E= -323.442132972383     Delta-E=       -0.001326000772 Rises=F Damp=F
 DIIS: error= 2.17D-03 at cycle   7 NSaved=   7.
 NSaved= 7 IEnMin= 7 EnMin= -323.442132972383     IErMin= 7 ErrMin= 2.17D-03
 ErrMax= 2.17D-03  0.00D+00 EMaxC= 1.00D-01 BMatC= 3.16D-04 BMatP= 1.83D-03
 IDIUse=3 WtCom= 9.78D-01 WtEn= 2.17D-02
 Coeff-Com: -0.315D-01 0.397D-01-0.129D-02 0.186D-02 0.888D-01 0.142D+00
 Coeff-Com:  0.760D+00
 Coeff-En:   0.000D+00 0.000D+00 0.000D+00 0.000D+00 0.000D+00 0.000D+00
 Coeff-En:   0.100D+01
 Coeff:     -0.308D-01 0.388D-01-0.126D-02 0.182D-02 0.869D-01 0.139D+00
 Coeff:      0.766D+00
 Gap=     0.097 Goal=   None    Shift=    0.000
 RMSDP=2.28D-04 MaxDP=2.53D-03 DE=-1.33D-03 OVMax= 6.56D-03

 Cycle   8  Pass 0  IDiag  1:
 E= -323.442399839492     Delta-E=       -0.000266867109 Rises=F Damp=F
 DIIS: error= 1.01D-03 at cycle   8 NSaved=   8.
 NSaved= 8 IEnMin= 8 EnMin= -323.442399839492     IErMin= 8 ErrMin= 1.01D-03
 ErrMax= 1.01D-03  0.00D+00 EMaxC= 1.00D-01 BMatC= 6.52D-05 BMatP= 3.16D-04
 IDIUse=3 WtCom= 9.90D-01 WtEn= 1.01D-02
 Coeff-Com: -0.688D-02 0.566D-02-0.148D-01 0.671D-02-0.347D-01 0.109D-02
 Coeff-Com:  0.471D+00 0.572D+00
 Coeff-En:   0.000D+00 0.000D+00 0.000D+00 0.000D+00 0.000D+00 0.000D+00
 Coeff-En:   0.000D+00 0.100D+01
 Coeff:     -0.681D-02 0.560D-02-0.146D-01 0.664D-02-0.343D-01 0.108D-02
 Coeff:      0.467D+00 0.576D+00
 Gap=     0.097 Goal=   None    Shift=    0.000
 RMSDP=1.08D-04 MaxDP=1.10D-03 DE=-2.67D-04 OVMax= 2.31D-03

 Cycle   9  Pass 0  IDiag  1:
 E= -323.442454462249     Delta-E=       -0.000054622758 Rises=F Damp=F
 DIIS: error= 3.13D-04 at cycle   9 NSaved=   9.
 NSaved= 9 IEnMin= 9 EnMin= -323.442454462249     IErMin= 9 ErrMin= 3.13D-04
 ErrMax= 3.13D-04  0.00D+00 EMaxC= 1.00D-01 BMatC= 5.66D-06 BMatP= 6.52D-05
 IDIUse=3 WtCom= 9.97D-01 WtEn= 3.13D-03
 Coeff-Com: -0.121D-02-0.441D-03-0.243D-02 0.156D-02-0.944D-03-0.586D-02
 Coeff-Com: -0.364D-01 0.147D+00 0.898D+00
 Coeff-En:   0.000D+00 0.000D+00 0.000D+00 0.000D+00 0.000D+00 0.000D+00
 Coeff-En:   0.000D+00 0.000D+00 0.100D+01
 Coeff:     -0.121D-02-0.440D-03-0.242D-02 0.155D-02-0.941D-03-0.584D-02
 Coeff:     -0.363D-01 0.147D+00 0.899D+00
 Gap=     0.097 Goal=   None    Shift=    0.000
 RMSDP=4.39D-05 MaxDP=4.54D-04 DE=-5.46D-05 OVMax= 1.19D-03

 Cycle  10  Pass 0  IDiag  1:
 E= -323.442459684551     Delta-E=       -0.000005222302 Rises=F Damp=F
 DIIS: error= 4.83D-05 at cycle  10 NSaved=  10.
 NSaved=10 IEnMin=10 EnMin= -323.442459684551     IErMin=10 ErrMin= 4.83D-05
 ErrMax= 4.83D-05  0.00D+00 EMaxC= 1.00D-01 BMatC= 3.38D-07 BMatP= 5.66D-06
 IDIUse=1 WtCom= 1.00D+00 WtEn= 0.00D+00
 Coeff-Com: -0.854D-03 0.104D-02 0.413D-03-0.119D-03 0.486D-02-0.919D-03
 Coeff-Com: -0.709D-01 0.190D-01 0.528D+00 0.520D+00
 Coeff:     -0.854D-03 0.104D-02 0.413D-03-0.119D-03 0.486D-02-0.919D-03
 Coeff:     -0.709D-01 0.190D-01 0.528D+00 0.520D+00
 Gap=     0.097 Goal=   None    Shift=    0.000
 RMSDP=1.32D-05 MaxDP=2.25D-04 DE=-5.22D-06 OVMax= 2.86D-04

 Cycle  11  Pass 0  IDiag  1:
 E= -323.442460013393     Delta-E=       -0.000000328842 Rises=F Damp=F
 DIIS: error= 3.26D-05 at cycle  11 NSaved=  11.
 NSaved=11 IEnMin=11 EnMin= -323.442460013393     IErMin=11 ErrMin= 3.26D-05
 ErrMax= 3.26D-05  0.00D+00 EMaxC= 1.00D-01 BMatC= 7.45D-08 BMatP= 3.38D-07
 IDIUse=1 WtCom= 1.00D+00 WtEn= 0.00D+00
 Coeff-Com: -0.264D-03 0.339D-03 0.179D-03-0.461D-04 0.160D-02-0.118D-02
 Coeff-Com: -0.321D-01-0.115D-02 0.185D+00 0.220D+00 0.627D+00
 Coeff:     -0.264D-03 0.339D-03 0.179D-03-0.461D-04 0.160D-02-0.118D-02
 Coeff:     -0.321D-01-0.115D-02 0.185D+00 0.220D+00 0.627D+00
 Gap=     0.097 Goal=   None    Shift=    0.000
 RMSDP=5.03D-06 MaxDP=6.64D-05 DE=-3.29D-07 OVMax= 1.12D-04

 Initial convergence to 1.0D-05 achieved.  Increase integral accuracy.
 Cycle  12  Pass 1  IDiag  1:
 E= -323.442501675513     Delta-E=       -0.000041662120 Rises=F Damp=F
 DIIS: error= 1.08D-05 at cycle   1 NSaved=   1.
 NSaved= 1 IEnMin= 1 EnMin= -323.442501675513     IErMin= 1 ErrMin= 1.08D-05
 ErrMax= 1.08D-05  0.00D+00 EMaxC= 1.00D-01 BMatC= 1.94D-08 BMatP= 1.94D-08
 IDIUse=1 WtCom= 1.00D+00 WtEn= 0.00D+00
 Coeff-Com:  0.100D+01
 Coeff:      0.100D+01
 Gap=     0.097 Goal=   None    Shift=    0.000
 RMSDP=5.03D-06 MaxDP=6.64D-05 DE=-4.17D-05 OVMax= 2.78D-04

 Cycle  13  Pass 1  IDiag  1:
 E= -323.442501582933     Delta-E=        0.000000092580 Rises=F Damp=F
 DIIS: error= 3.63D-05 at cycle   2 NSaved=   2.
 NSaved= 2 IEnMin= 1 EnMin= -323.442501675513     IErMin= 1 ErrMin= 1.08D-05
 ErrMax= 3.63D-05  0.00D+00 EMaxC= 1.00D-01 BMatC= 1.31D-07 BMatP= 1.94D-08
 IDIUse=1 WtCom= 1.00D+00 WtEn= 0.00D+00
 Coeff-Com:  0.756D+00 0.244D+00
 Coeff:      0.756D+00 0.244D+00
 Gap=     0.097 Goal=   None    Shift=    0.000
 RMSDP=6.85D-06 MaxDP=8.77D-05 DE= 9.26D-08 OVMax= 2.26D-04

 Cycle  14  Pass 1  IDiag  1:
 E= -323.442501703779     Delta-E=       -0.000000120846 Rises=F Damp=F
 DIIS: error= 5.55D-06 at cycle   3 NSaved=   3.
 NSaved= 3 IEnMin= 3 EnMin= -323.442501703779     IErMin= 3 ErrMin= 5.55D-06
 ErrMax= 5.55D-06  0.00D+00 EMaxC= 1.00D-01 BMatC= 2.38D-09 BMatP= 1.94D-08
 IDIUse=1 WtCom= 1.00D+00 WtEn= 0.00D+00
 Coeff-Com:  0.338D-01 0.113D+00 0.853D+00
 Coeff:      0.338D-01 0.113D+00 0.853D+00
 Gap=     0.097 Goal=   None    Shift=    0.000
 RMSDP=1.12D-06 MaxDP=1.28D-05 DE=-1.21D-07 OVMax= 3.28D-05

 Cycle  15  Pass 1  IDiag  1:
 E= -323.442501705304     Delta-E=       -0.000000001525 Rises=F Damp=F
 DIIS: error= 2.98D-06 at cycle   4 NSaved=   4.
 NSaved= 4 IEnMin= 4 EnMin= -323.442501705304     IErMin= 4 ErrMin= 2.98D-06
 ErrMax= 2.98D-06  0.00D+00 EMaxC= 1.00D-01 BMatC= 7.90D-10 BMatP= 2.38D-09
 IDIUse=1 WtCom= 1.00D+00 WtEn= 0.00D+00
 Coeff-Com: -0.185D-01 0.561D-01 0.530D+00 0.433D+00
 Coeff:     -0.185D-01 0.561D-01 0.530D+00 0.433D+00
 Gap=     0.097 Goal=   None    Shift=    0.000
 RMSDP=5.43D-07 MaxDP=8.83D-06 DE=-1.52D-09 OVMax= 1.59D-05

 Cycle  16  Pass 1  IDiag  1:
 E= -323.442501706149     Delta-E=       -0.000000000844 Rises=F Damp=F
 DIIS: error= 6.74D-07 at cycle   5 NSaved=   5.
 NSaved= 5 IEnMin= 5 EnMin= -323.442501706149     IErMin= 5 ErrMin= 6.74D-07
 ErrMax= 6.74D-07  0.00D+00 EMaxC= 1.00D-01 BMatC= 2.94D-11 BMatP= 7.90D-10
 IDIUse=1 WtCom= 1.00D+00 WtEn= 0.00D+00
 Coeff-Com: -0.114D-01 0.219D-01 0.192D+00 0.218D+00 0.580D+00
 Coeff:     -0.114D-01 0.219D-01 0.192D+00 0.218D+00 0.580D+00
 Gap=     0.097 Goal=   None    Shift=    0.000
 RMSDP=1.21D-07 MaxDP=1.24D-06 DE=-8.44D-10 OVMax= 3.73D-06

 Cycle  17  Pass 1  IDiag  1:
 E= -323.442501706181     Delta-E=       -0.000000000032 Rises=F Damp=F
 DIIS: error= 1.54D-07 at cycle   6 NSaved=   6.
 NSaved= 6 IEnMin= 6 EnMin= -323.442501706181     IErMin= 6 ErrMin= 1.54D-07
 ErrMax= 1.54D-07  0.00D+00 EMaxC= 1.00D-01 BMatC= 2.40D-12 BMatP= 2.94D-11
 IDIUse=1 WtCom= 1.00D+00 WtEn= 0.00D+00
 Coeff-Com: -0.362D-02 0.457D-02 0.363D-01 0.668D-01 0.291D+00 0.605D+00
 Coeff:     -0.362D-02 0.457D-02 0.363D-01 0.668D-01 0.291D+00 0.605D+00
 Gap=     0.097 Goal=   None    Shift=    0.000
 RMSDP=4.12D-08 MaxDP=3.59D-07 DE=-3.21D-11 OVMax= 1.18D-06

 Cycle  18  Pass 1  IDiag  1:
 E= -323.442501706185     Delta-E=       -0.000000000005 Rises=F Damp=F
 DIIS: error= 8.46D-08 at cycle   7 NSaved=   7.
 NSaved= 7 IEnMin= 7 EnMin= -323.442501706185     IErMin= 7 ErrMin= 8.46D-08
 ErrMax= 8.46D-08  0.00D+00 EMaxC= 1.00D-01 BMatC= 5.08D-13 BMatP= 2.40D-12
 IDIUse=1 WtCom= 1.00D+00 WtEn= 0.00D+00
 Coeff-Com: -0.435D-03-0.999D-03-0.357D-02 0.953D-02 0.722D-01 0.315D+00
 Coeff-Com:  0.608D+00
 Coeff:     -0.435D-03-0.999D-03-0.357D-02 0.953D-02 0.722D-01 0.315D+00
 Coeff:      0.608D+00
 Gap=     0.097 Goal=   None    Shift=    0.000
 RMSDP=1.54D-08 MaxDP=1.16D-07 DE=-4.55D-12 OVMax= 2.79D-07

 Cycle  19  Pass 1  IDiag  1:
 E= -323.442501706185     Delta-E=        0.000000000001 Rises=F Damp=F
 DIIS: error= 3.50D-08 at cycle   8 NSaved=   8.
 NSaved= 8 IEnMin= 7 EnMin= -323.442501706185     IErMin= 8 ErrMin= 3.50D-08
 ErrMax= 3.50D-08  0.00D+00 EMaxC= 1.00D-01 BMatC= 1.14D-13 BMatP= 5.08D-13
 IDIUse=1 WtCom= 1.00D+00 WtEn= 0.00D+00
 Coeff-Com:  0.354D-03-0.162D-02-0.642D-02-0.401D-02-0.111D-01 0.561D-01
 Coeff-Com:  0.235D+00 0.732D+00
 Coeff:      0.354D-03-0.162D-02-0.642D-02-0.401D-02-0.111D-01 0.561D-01
 Coeff:      0.235D+00 0.732D+00
 Gap=     0.097 Goal=   None    Shift=    0.000
 RMSDP=8.56D-09 MaxDP=8.44D-08 DE= 6.82D-13 OVMax= 2.74D-07

 SCF Done:  E(RB3LYP) =  -323.442501706     A.U. after   19 cycles
            NFock= 19  Conv=0.86D-08     -V/T= 2.0067
 KE= 3.212830893475D+02 PE=-1.237344375912D+03 EE= 3.526363586460D+02
 Leave Link  502 at Wed Apr 13 23:59:00 2016, MaxMem=    33554432 cpu:        16.4
 (Enter /usr/local/gau/g09/l801.exe)
 DoSCS=F DFT=T ScalE2(SS,OS)=  1.000000  1.000000
 Range of M.O.s used for correlation:     1    68
 NBasis=    68 NAE=    24 NBE=    24 NFC=     0 NFV=     0
 NROrb=     68 NOA=    24 NOB=    24 NVA=    44 NVB=    44

 **** Warning!!: The smallest alpha delta epsilon is  0.96674873D-01

 Leave Link  801 at Wed Apr 13 23:59:00 2016, MaxMem=    33554432 cpu:         0.0
 (Enter /usr/local/gau/g09/l1101.exe)
 Using compressed storage, NAtomX=    13.
 Will process     14 centers per pass.
 Leave Link 1101 at Wed Apr 13 23:59:00 2016, MaxMem=    33554432 cpu:         0.1
 (Enter /usr/local/gau/g09/l1102.exe)
 Symmetrizing basis deriv contribution to polar:
 IMax=3 JMax=2 DiffMx= 0.00D+00
 Leave Link 1102 at Wed Apr 13 23:59:00 2016, MaxMem=    33554432 cpu:         0.0
 (Enter /usr/local/gau/g09/l1110.exe)
 Forming Gx(P) for the SCF density, NAtomX=    13.
 Integral derivatives from FoFJK, PRISM(SPDF).
 Do as many integral derivatives as possible in FoFJK.
 G2DrvN: MDV=      33554224.
 G2DrvN: will do    14 centers at a time, making    1 passes.
 Calling FoFCou, ICntrl=  3107 FMM=F I1Cent=   0 AccDes= 0.00D+00.
 FoFJK:  IHMeth= 1 ICntrl=    3107 DoSepK=F KAlg= 0 I1Cent=   0 FoldK=F
 IRaf=         0 NMat=   1 IRICut=       1 DoRegI=T DoRafI=F ISym2E= 0.
 FoFCou: FMM=F IPFlag=           0 FMFlag=      100000 FMFlg1=           0
         NFxFlg=           0 DoJE=F BraDBF=F KetDBF=F FulRan=T
         wScrn=  0.000000 ICntrl=    3107 IOpCl=  0 I1Cent=           0 NGrid=           0
         NMat0=    1 NMatS0=      1 NMatT0=    0 NMatD0=    1 NMtDS0=    0 NMtDT0=    0
 Symmetry not used in FoFCou.
 End of G2Drv F.D. properties file   721 does not exist.
 End of G2Drv F.D. properties file   722 does not exist.
 End of G2Drv F.D. properties file   788 does not exist.
 Leave Link 1110 at Wed Apr 13 23:59:29 2016, MaxMem=    33554432 cpu:        29.6
 (Enter /usr/local/gau/g09/l1002.exe)
 Minotr:  Closed shell wavefunction.
          IDoAtm=1111111111111
          Direct CPHF calculation.
          Differentiating once with respect to nuclear coordinates.
          Requested convergence is 1.0D-08 RMS, and 1.0D-07 maximum.
          Secondary convergence is 1.0D-12 RMS, and 1.0D-12 maximum.
          NewPWx=T KeepS1=F KeepF1=F KeepIn=T MapXYZ=F SortEE=F KeepMc=T.
          MDV=      33554230 using IRadAn=       2.
 Generate precomputed XC quadrature information.
 Keep R1 ints in memory in canonical form, NReq=3645297.
 FoFCou: FMM=F IPFlag=           0 FMFlag=           0 FMFlg1=           0
         NFxFlg=           0 DoJE=F BraDBF=F KetDBF=F FulRan=T
         wScrn=  0.000000 ICntrl=     600 IOpCl=  0 I1Cent=           0 NGrid=           0
         NMat0=    1 NMatS0=   2346 NMatT0=    0 NMatD0=    1 NMtDS0=    0 NMtDT0=    0
 Symmetry not used in FoFCou.
          Solving linear equations simultaneously, MaxMat=       0.
          There are    42 degrees of freedom in the 1st order CPHF.  IDoFFX=6 NUNeed=     0.
     36 vectors produced by pass  0 Test12= 2.51D-15 2.38D-09 XBig12= 2.33D-01 1.72D-01.
 AX will form    36 AO Fock derivatives at one time.
     36 vectors produced by pass  1 Test12= 2.51D-15 2.38D-09 XBig12= 3.57D-02 5.76D-02.
     36 vectors produced by pass  2 Test12= 2.51D-15 2.38D-09 XBig12= 2.45D-04 3.83D-03.
     36 vectors produced by pass  3 Test12= 2.51D-15 2.38D-09 XBig12= 5.82D-07 1.27D-04.
     36 vectors produced by pass  4 Test12= 2.51D-15 2.38D-09 XBig12= 6.10D-10 3.33D-06.
     20 vectors produced by pass  5 Test12= 2.51D-15 2.38D-09 XBig12= 3.16D-13 8.35D-08.
 InvSVY:  IOpt=1 It=  1 EMax= 1.55D-15
 Solved reduced A of dimension   200 with    36 vectors.
 End of Minotr F.D. properties file   721 does not exist.
 End of Minotr F.D. properties file   722 does not exist.
 End of Minotr F.D. properties file   788 does not exist.
 Leave Link 1002 at Wed Apr 13 23:59:52 2016, MaxMem=    33554432 cpu:        18.4
 (Enter /usr/local/gau/g09/l601.exe)
 Copying SCF densities to generalized density rwf, IOpCl= 0 IROHF=0.

 **********************************************************************

            Population analysis using the SCF density.

 **********************************************************************

 Orbital symmetries:
       Occupied  (A) (A) (A) (A) (A) (A) (A) (A) (A) (A) (A) (A)
                 (A) (A) (A) (A) (A) (A) (A) (A) (A) (A) (A) (A)
       Virtual   (A) (A) (A) (A) (A) (A) (A) (A) (A) (A) (A) (A)
                 (A) (A) (A) (A) (A) (A) (A) (A) (A) (A) (A) (A)
                 (A) (A) (A) (A) (A) (A) (A) (A) (A) (A) (A) (A)
                 (A) (A) (A) (A) (A) (A) (A) (A)
 The electronic state is 1-A.
 Alpha  occ. eigenvalues --  -19.17492 -19.09128 -14.34677 -10.31857 -10.27345
 Alpha  occ. eigenvalues --  -10.20131  -1.06404  -0.94777  -0.91378  -0.76976
 Alpha  occ. eigenvalues --   -0.68668  -0.59731  -0.55607  -0.50645  -0.46258
 Alpha  occ. eigenvalues --   -0.45167  -0.42702  -0.41051  -0.39303  -0.35459
 Alpha  occ. eigenvalues --   -0.31069  -0.28897  -0.23497  -0.16637
 Alpha virt. eigenvalues --   -0.06970   0.01840   0.06194   0.07659   0.11275
 Alpha virt. eigenvalues --    0.13348   0.15969   0.16321   0.19334   0.21258
 Alpha virt. eigenvalues --    0.24321   0.34442   0.36233   0.52729   0.52989
 Alpha virt. eigenvalues --    0.55180   0.59312   0.61939   0.63759   0.65932
 Alpha virt. eigenvalues --    0.70142   0.74857   0.75333   0.78985   0.82089
 Alpha virt. eigenvalues --    0.84569   0.87501   0.90318   0.92087   0.92784
 Alpha virt. eigenvalues --    0.94389   0.97102   0.98932   1.04765   1.07030
 Alpha virt. eigenvalues --    1.10805   1.15687   1.20720   1.24738   1.30475
 Alpha virt. eigenvalues --    1.42961   1.55465   1.69771   1.98125
          Condensed to atoms (all electrons):
               1          2          3          4          5          6
     1  N    7.150687   0.326922   0.199698  -0.000092  -0.080083  -0.073978
     2  H    0.326922   0.389393  -0.025759   0.000002  -0.004719   0.005073
     3  C    0.199698  -0.025759   5.434716   0.003078   0.302001   0.198519
     4  H   -0.000092   0.000002   0.003078   0.391180   0.000005  -0.018373
     5  C   -0.080083  -0.004719   0.302001   0.000005   5.170868  -0.014693
     6  C   -0.073978   0.005073   0.198519  -0.018373  -0.014693   4.975609
     7  H    0.004467   0.000593  -0.038096  -0.000032   0.362301   0.001425
     8  H    0.003832   0.000001  -0.031827  -0.000203   0.371153  -0.002391
     9  H   -0.002465   0.002068  -0.041317   0.000077   0.367144  -0.000449
    10  O    0.002486   0.000205  -0.120519   0.004083   0.002178   0.291616
    11  H    0.305518  -0.019095  -0.035918  -0.000023   0.005256   0.000873
    12  O    0.001795  -0.000008  -0.100182   0.228348  -0.000647   0.152637
    13  H   -0.067193   0.001989  -0.006453   0.001381   0.004415   0.159748
               7          8          9         10         11         12
     1  N    0.004467   0.003832  -0.002465   0.002486   0.305518   0.001795
     2  H    0.000593   0.000001   0.002068   0.000205  -0.019095  -0.000008
     3  C   -0.038096  -0.031827  -0.041317  -0.120519  -0.035918  -0.100182
     4  H   -0.000032  -0.000203   0.000077   0.004083  -0.000023   0.228348
     5  C    0.362301   0.371153   0.367144   0.002178   0.005256  -0.000647
     6  C    0.001425  -0.002391  -0.000449   0.291616   0.000873   0.152637
     7  H    0.567970  -0.024306  -0.037201   0.000018  -0.000061   0.000074
     8  H   -0.024306   0.512358  -0.023276   0.000123  -0.000168   0.008762
     9  H   -0.037201  -0.023276   0.572033  -0.000037  -0.000134   0.000126
    10  O    0.000018   0.000123  -0.000037   8.451329   0.016632  -0.091605
    11  H   -0.000061  -0.000168  -0.000134   0.016632   0.383221   0.000335
    12  O    0.000074   0.008762   0.000126  -0.091605   0.000335   8.381381
    13  H   -0.002649   0.000016   0.000622   0.005594   0.009526   0.004083
              13
     1  N   -0.067193
     2  H    0.001989
     3  C   -0.006453
     4  H    0.001381
     5  C    0.004415
     6  C    0.159748
     7  H   -0.002649
     8  H    0.000016
     9  H    0.000622
    10  O    0.005594
    11  H    0.009526
    12  O    0.004083
    13  H    0.633561
 Mulliken charges:
               1
     1  N   -0.771594
     2  H    0.323335
     3  C    0.262058
     4  H    0.390569
     5  C   -0.485180
     6  C    0.324384
     7  H    0.165497
     8  H    0.185924
     9  H    0.162809
    10  O   -0.562101
    11  H    0.334038
    12  O   -0.585099
    13  H    0.255359
 Sum of Mulliken charges =   0.00000
 Mulliken charges with hydrogens summed into heavy atoms:
               1
     1  N   -0.114221
     3  C    0.262058
     5  C    0.029052
     6  C    0.579743
    10  O   -0.562101
    12  O   -0.194530
 APT charges:
               1
     1  N   -1.254743
     2  H    0.742757
     3  C    0.199795
     4  H    0.683273
     5  C   -1.240945
     6  C   -0.145748
     7  H    0.448484
     8  H    0.365545
     9  H    0.467399
    10  O   -0.462136
    11  H    0.531177
    12  O   -0.687396
    13  H    0.352538
 Sum of APT charges =   0.00000
 APT charges with hydrogens summed into heavy atoms:
               1
     1  N    0.019191
     3  C    0.199795
     5  C    0.040483
     6  C    0.206789
    10  O   -0.462136
    12  O   -0.004123
 Electronic spatial extent (au):  <R**2>=            637.3359
 Charge=              0.0000 electrons
 Dipole moment (field-independent basis, Debye):
    X=             -4.1808    Y=              1.4113    Z=             -1.1033  Tot=              4.5484
 Quadrupole moment (field-independent basis, Debye-Ang):
   XX=            -34.2348   YY=            -36.4773   ZZ=            -36.4453
   XY=              6.5959   XZ=             -2.6362   YZ=             -3.2628
 Traceless Quadrupole moment (field-independent basis, Debye-Ang):
   XX=              1.4843   YY=             -0.7582   ZZ=             -0.7261
   XY=              6.5959   XZ=             -2.6362   YZ=             -3.2628
 Octapole moment (field-independent basis, Debye-Ang**2):
  XXX=             -8.5730  YYY=             -4.5721  ZZZ=             -1.1251  XYY=             -8.5724
  XXY=              8.5516  XXZ=             -9.7766  XZZ=              4.8762  YZZ=              1.3775
  YYZ=             -2.8715  XYZ=             -6.5810
 Hexadecapole moment (field-independent basis, Debye-Ang**3):
 XXXX=           -391.3051 YYYY=           -268.2732 ZZZZ=            -48.3520 XXXY=             47.3544
 XXXZ=            -14.6392 YYYX=             26.6929 YYYZ=             -3.6441 ZZZX=             -2.5679
 ZZZY=             -2.4222 XXYY=           -118.2014 XXZZ=            -79.0326 YYZZ=            -55.9218
 XXYZ=             -8.9882 YYXZ=             -4.1627 ZZXY=              2.1319
 N-N= 2.399824262124D+02 E-N=-1.237344376455D+03  KE= 3.212830893475D+02
  Exact polarizability:   0.000   0.000   0.000   0.000   0.000   0.000
 Approx polarizability: 145.459 -21.325  94.200  -2.688 -16.075  54.255
 No NMR shielding tensors so no spin-rotation constants.
 Leave Link  601 at Wed Apr 13 23:59:52 2016, MaxMem=    33554432 cpu:         0.1
 (Enter /usr/local/gau/g09/l701.exe)
 Compute integral second derivatives.
 ... and contract with generalized density number  0.
 Leave Link  701 at Wed Apr 13 23:59:52 2016, MaxMem=    33554432 cpu:         0.1
 (Enter /usr/local/gau/g09/l702.exe)
 L702 exits ... SP integral derivatives will be done elsewhere.
 Leave Link  702 at Wed Apr 13 23:59:52 2016, MaxMem=    33554432 cpu:         0.0
 (Enter /usr/local/gau/g09/l703.exe)
 Compute integral second derivatives, UseDBF=F ICtDFT=           0.
 Integral derivatives from FoFJK, PRISM(SPDF).
 Calling FoFJK, ICntrl=    100147 FMM=F ISym2X=0 I1Cent= 0 IOpClX= 0 NMat=1 NMatS=1 NMatT=0.
 FoFJK:  IHMeth= 1 ICntrl=  100147 DoSepK=F KAlg= 0 I1Cent=   0 FoldK=F
 IRaf=         0 NMat=   1 IRICut=       1 DoRegI=T DoRafI=F ISym2E= 0.
 FoFCou: FMM=F IPFlag=           0 FMFlag=      100000 FMFlg1=         800
         NFxFlg=           0 DoJE=F BraDBF=F KetDBF=F FulRan=T
         wScrn=  0.000000 ICntrl=  100147 IOpCl=  0 I1Cent=           0 NGrid=           0
         NMat0=    1 NMatS0=      1 NMatT0=    0 NMatD0=    1 NMtDS0=    0 NMtDT0=    0
 Symmetry not used in FoFCou.
 Leave Link  703 at Thu Apr 14 00:00:31 2016, MaxMem=    33554432 cpu:        30.2
 (Enter /usr/local/gau/g09/l716.exe)
 Dipole        =-1.64485266D+00 5.55239219D-01-4.34081604D-01
 Polarizability= 0.00000000D+00 0.00000000D+00 0.00000000D+00
                 0.00000000D+00 0.00000000D+00 0.00000000D+00
 ***** Axes restored to original set *****
 -------------------------------------------------------------------
 Center     Atomic                   Forces (Hartrees/Bohr)
 Number     Number              X              Y              Z
 -------------------------------------------------------------------
      1        7           0.008313182    0.005279980   -0.017996092
      2        1           0.000703403   -0.000943341   -0.001923906
      3        6          -0.047987370   -0.014842912    0.011834165
      4        1          -0.004049053    0.004898856    0.002887337
      5        6          -0.004991495    0.001328074    0.008837103
      6        6           0.013546920    0.075618873    0.022242275
      7        1           0.001400363   -0.001379498   -0.000515008
      8        1          -0.000466834   -0.000364013   -0.000099065
      9        1          -0.001195350    0.002017694   -0.000784085
     10        8           0.030275286   -0.026720201   -0.001376227
     11        1          -0.001173230    0.003848826   -0.003592417
     12        8           0.028867561   -0.002891071   -0.005224280
     13        1          -0.023243385   -0.045851267   -0.014289800
 -------------------------------------------------------------------
 Cartesian Forces:  Max     0.075618873 RMS     0.019629237
 Force constants in Cartesian coordinates: 
                1             2             3             4             5 
      1  0.875754D+00
      2 -0.342584D-01  0.715698D+00
      3 -0.274490D-01 -0.704008D-01  0.485907D-02
      4 -0.474568D+00 -0.246088D-01  0.304848D-01  0.490639D+00
      5 -0.221286D-01 -0.735911D-01  0.481109D-02  0.307788D-01  0.700906D-01
      6  0.458847D-01  0.451700D-02 -0.630748D-03 -0.355888D-01 -0.471105D-02
      7 -0.179535D+00 -0.521104D-01  0.256443D-01 -0.109016D-01 -0.379312D-01
      8 -0.109363D+00 -0.272333D+00  0.475580D-01  0.182358D-02 -0.553525D-03
      9 -0.122561D-01 -0.720402D-02  0.204997D-03  0.198954D-02  0.325603D-02
     10  0.626711D-04  0.687755D-03 -0.493821D-03 -0.140962D-03 -0.478157D-03
     11 -0.603366D-03  0.944854D-03  0.131571D-02  0.984812D-04 -0.123418D-03
     12 -0.205463D-03 -0.122377D-02  0.148616D-02  0.331919D-03  0.252595D-03
     13  0.116320D-01 -0.137535D-01  0.343209D-02  0.137722D-02  0.602061D-04
     14  0.243495D-01 -0.381116D-01 -0.261006D-02  0.145298D-02  0.168182D-02
     15 -0.287299D-02 -0.463759D-02  0.596704D-03 -0.374686D-03  0.379432D-03
     16  0.919761D-02 -0.701458D-02 -0.423774D-01  0.118721D-02  0.558711D-03
     17 -0.496649D-01  0.133486D-01  0.258990D-01  0.810152D-03 -0.492544D-02
     18  0.217922D-01  0.302411D-01 -0.726376D-02 -0.321539D-03  0.130800D-02
     19  0.166507D-02 -0.231673D-02 -0.141345D-04  0.407727D-03  0.115839D-03
     20 -0.515502D-03  0.224097D-02 -0.138798D-02 -0.301820D-03 -0.723272D-03
     21  0.766720D-03 -0.696374D-04 -0.468775D-03 -0.462508D-04  0.672573D-03
     22 -0.370939D-02  0.373644D-02  0.359358D-04 -0.148293D-03  0.209027D-03
     23  0.520762D-02 -0.293567D-02 -0.194436D-03  0.400037D-03  0.452766D-03
     24  0.225646D-03  0.307861D-04  0.171623D-02 -0.982842D-04  0.591682D-05
     25  0.209112D-02 -0.134519D-02 -0.221935D-02  0.398898D-03  0.257651D-03
     26 -0.459928D-03  0.904892D-03  0.103261D-02 -0.703230D-03 -0.588964D-03
     27 -0.634234D-03  0.157142D-03  0.115347D-02  0.170289D-03 -0.859906D-03
     28 -0.436268D-02 -0.186027D-01  0.348012D-03  0.855748D-03  0.863907D-03
     29  0.197779D-01  0.100485D-01 -0.260473D-01 -0.146450D-02  0.800028D-03
     30  0.367479D-02 -0.252388D-01 -0.187692D-01  0.125775D-02 -0.731107D-03
     31 -0.195981D+00  0.177468D+00 -0.178184D-01 -0.942387D-02  0.289677D-01
     32  0.181637D+00 -0.337832D+00  0.307276D-01 -0.867473D-02  0.856710D-02
     33 -0.278135D-01  0.517731D-01 -0.669237D-02  0.311962D-02 -0.429166D-02
     34 -0.884014D-02  0.141401D-02  0.367707D-02  0.596604D-03 -0.111514D-02
     35 -0.473350D-02 -0.564721D-02 -0.151117D-02  0.444059D-03 -0.152143D-03
     36 -0.139505D-02  0.650310D-03  0.229053D-02 -0.328096D-03 -0.957287D-03
     37 -0.334057D-01 -0.292958D-01  0.267501D-01 -0.279244D-03 -0.158744D-03
     38 -0.924549D-02 -0.127351D-01 -0.919224D-02 -0.549372D-04 -0.934452D-03
     39  0.282272D-03  0.214052D-01  0.215177D-01 -0.596280D-03  0.865370D-03
                6             7             8             9            10 
      6  0.130512D-02
      7 -0.336250D-02  0.514697D+00
      8  0.644330D-03 -0.124514D-01  0.596911D+00
      9  0.203591D-02  0.207449D-01 -0.348812D-01  0.853747D-01
     10  0.393545D-03 -0.918351D-03 -0.252560D-02 -0.111120D-02  0.154972D+00
     11  0.582822D-03 -0.975661D-03 -0.348937D-02 -0.294756D-02  0.662624D-01
     12  0.643213D-03  0.151317D-02  0.226165D-02 -0.427081D-02  0.206012D+00
     13  0.571265D-03 -0.135273D+00  0.577410D-01 -0.385856D-02 -0.233589D-03
     14 -0.215957D-04  0.531674D-01 -0.166169D+00  0.535423D-02 -0.488159D-03
     15  0.156558D-02 -0.523282D-02  0.180486D-03 -0.717217D-01  0.181443D-03
     16 -0.636839D-02 -0.166880D+00  0.399078D-01  0.595974D-01 -0.200829D-01
     17  0.273592D-02 -0.597753D-01 -0.138666D+00 -0.167490D-01 -0.113636D-01
     18 -0.827919D-02 -0.396127D-01  0.595943D-02  0.296744D-01 -0.177994D-01
     19 -0.654601D-03 -0.197935D-01  0.513619D-02 -0.148669D-01  0.109916D-03
     20  0.903803D-03  0.221256D-01 -0.219196D-02  0.231047D-01  0.495385D-04
     21 -0.759332D-03  0.573071D-03  0.455164D-03  0.513995D-02  0.492995D-04
     22 -0.534240D-04  0.132276D-01  0.206000D-01 -0.189943D-03 -0.147558D-03
     23  0.514146D-04 -0.169487D-01 -0.237213D-01  0.407641D-03  0.153617D-03
     24 -0.853257D-03  0.136996D-03 -0.276581D-03 -0.220799D-02 -0.426084D-03
     25  0.583959D-03 -0.170947D-01  0.385141D-02  0.171734D-01 -0.138646D-03
     26 -0.662420D-03  0.192520D-01 -0.199721D-02 -0.237423D-01  0.169827D-03
     27 -0.505535D-03 -0.686339D-05 -0.299738D-03  0.343124D-02 -0.252786D-04
     28  0.374483D-04 -0.645893D-02  0.425799D-01 -0.214117D-01  0.899924D-03
     29 -0.553922D-02  0.232115D-01  0.128847D-01  0.460727D-01  0.406690D-03
     30 -0.107459D-02  0.449016D-01  0.308919D-01  0.118816D-01 -0.143109D-02
     31 -0.572259D-02  0.198220D-01 -0.110693D-01  0.591155D-03  0.474140D-04
     32  0.210759D-03  0.194809D-01 -0.255437D-01  0.462559D-02 -0.349591D-04
     33  0.176587D-02 -0.640634D-02 -0.124072D-01 -0.635494D-02  0.132923D-03
     34 -0.103622D-03 -0.118911D-01 -0.317458D-01 -0.240214D-02 -0.134049D+00
     35 -0.676838D-03  0.496790D-02  0.172224D-03  0.217271D-02 -0.553557D-01
     36  0.214084D-02 -0.461169D-02 -0.293764D-02 -0.464146D-02 -0.189733D+00
     37  0.438295D-02  0.999224D-03 -0.448495D-02 -0.439999D-01 -0.380638D-03
     38  0.196508D-02  0.379873D-01  0.246969D-01  0.530463D-03  0.251634D-02
     39  0.264611D-02 -0.342811D-01 -0.371486D-01 -0.485458D-01  0.425062D-02
               11            12            13            14            15 
     11  0.445663D-01
     12  0.536043D-01  0.302143D+00
     13  0.410994D-03  0.263161D-03  0.533419D+00
     14  0.321110D-03  0.184350D-03  0.641327D-01  0.543297D+00
     15 -0.603978D-03 -0.342260D-03  0.240019D-02 -0.308373D-02  0.530940D+00
     16 -0.310663D-01  0.104153D-01 -0.155698D-01  0.213441D-02  0.109092D-01
     17 -0.176884D-01  0.650314D-02  0.231636D-01  0.895176D-02 -0.417192D-02
     18 -0.318851D-01  0.386513D-02 -0.315945D-02 -0.978519D-03 -0.930250D-03
     19  0.485017D-04 -0.875178D-05 -0.129955D+00 -0.395036D-02 -0.120840D+00
     20 -0.870860D-04 -0.144164D-03 -0.252222D-02 -0.490966D-01 -0.763931D-03
     21  0.991787D-04  0.115576D-05 -0.120654D+00 -0.193337D-02 -0.215892D+00
     22 -0.181006D-03 -0.161371D-03 -0.130833D+00 -0.129466D+00 -0.696568D-03
     23  0.234985D-03 -0.190930D-05 -0.122597D+00 -0.245162D+00 -0.950927D-03
     24  0.286518D-03  0.106224D-03 -0.443200D-03 -0.582632D-03 -0.493214D-01
     25  0.191259D-03  0.146629D-03 -0.132279D+00 -0.544968D-02  0.122688D+00
     26 -0.122070D-03  0.240690D-04 -0.293934D-02 -0.481756D-01  0.186064D-02
     27 -0.121840D-04  0.437372D-04  0.120720D+00  0.479026D-02 -0.211808D+00
     28  0.736794D-02  0.228697D-02 -0.103442D-02 -0.417928D-02 -0.449590D-03
     29  0.109380D-02  0.218062D-02 -0.188788D-02  0.398737D-03  0.511149D-02
     30  0.825626D-02  0.226903D-02  0.174457D-02 -0.171441D-02  0.694484D-02
     31  0.532588D-05 -0.234425D-03 -0.174372D-02 -0.306759D-02 -0.713251D-03
     32 -0.259777D-03 -0.111565D-03 -0.477316D-02 -0.244190D-02  0.721243D-03
     33 -0.209693D-03 -0.345323D-03 -0.122747D-02 -0.179098D-04  0.260503D-02
     34 -0.394323D-01 -0.217463D+00  0.329107D-03  0.435232D-03 -0.218455D-03
     35 -0.303544D-01 -0.659523D-01  0.320531D-03 -0.272718D-02  0.477321D-03
     36 -0.286952D-01 -0.303439D+00 -0.108914D-03 -0.581033D-03 -0.590253D-04
     37 -0.212627D-02 -0.289640D-02  0.163577D-03  0.929240D-03 -0.478066D-02
     38  0.496347D-02  0.242302D-02  0.264436D-02 -0.276693D-02  0.548147D-02
     39  0.208922D-03 -0.216025D-02  0.319966D-03  0.119442D-02  0.742252D-02
               16            17            18            19            20 
     16  0.349636D+00
     17  0.160632D+00  0.348040D+00
     18 -0.364249D-02 -0.342359D-01  0.115543D+00
     19  0.147401D-02  0.282521D-02 -0.241941D-02  0.147258D+00
     20 -0.194200D-02 -0.296473D-02  0.181637D-02 -0.242714D-02  0.511463D-01
     21 -0.839958D-04  0.102147D-02 -0.830236D-03  0.134181D+00  0.163833D-02
     22  0.860001D-03  0.178338D-02  0.116529D-02 -0.101715D-01 -0.163966D-01
     23 -0.170923D-02 -0.216444D-02 -0.848573D-03  0.902172D-03  0.908330D-03
     24  0.148156D-03  0.192477D-03  0.524043D-03 -0.153899D-01 -0.244588D-01
     25 -0.108849D-02  0.363935D-02  0.172138D-02  0.111839D-01  0.445598D-03
     26  0.231310D-02 -0.484683D-02 -0.774884D-03 -0.384642D-03  0.409935D-03
     27 -0.138626D-02  0.134059D-03 -0.151094D-02  0.173669D-01  0.175421D-02
     28 -0.138960D+00  0.828686D-01 -0.758063D-02 -0.170499D-02  0.129462D-02
     29 -0.393846D-01 -0.807160D-01 -0.680767D-02  0.587796D-03 -0.635262D-03
     30 -0.855357D-01  0.965541D-01 -0.349118D-01  0.439256D-03 -0.686640D-03
     31 -0.628024D-03 -0.119120D-02  0.438119D-02 -0.368956D-03  0.262255D-03
     32  0.148474D-02 -0.304959D-02 -0.614688D-03  0.377280D-04  0.272794D-03
     33  0.943808D-02 -0.639186D-02  0.336337D-02  0.692392D-03 -0.555734D-03
     34 -0.109078D+00 -0.874370D-01 -0.776252D-03 -0.210524D-03  0.826986D-04
     35 -0.681495D-01 -0.173280D+00  0.318531D-01 -0.463850D-03  0.115360D-02
     36 -0.275383D-01 -0.113028D-01 -0.674951D-01  0.144388D-03  0.217071D-03
     37  0.899317D-01 -0.662904D-01  0.462518D-01  0.105572D-03 -0.155045D-03
     38 -0.577646D-01  0.579607D-01  0.496726D-02 -0.110712D-03 -0.433039D-03
     39  0.764245D-01 -0.601886D-01 -0.317490D-01  0.136991D-02 -0.143726D-02
               21            22            23            24            25 
     21  0.236110D+00
     22  0.133212D-02  0.140492D+00
     23  0.676104D-03  0.135210D+00  0.270248D+00
     24  0.304680D-03  0.839896D-03  0.106584D-02  0.493877D-01
     25 -0.168981D-01 -0.970371D-02  0.874266D-03  0.151347D-01  0.147688D+00
     26 -0.823760D-03 -0.155151D-01  0.727571D-03  0.242424D-01  0.345868D-03
     27 -0.238627D-01 -0.155934D-02 -0.762404D-03  0.589781D-03 -0.135350D+00
     28 -0.307170D-03 -0.197561D-03  0.410542D-03  0.000000D+00 -0.130250D-02
     29 -0.708389D-03 -0.944765D-04  0.954546D-04  0.144731D-03 -0.528419D-04
     30 -0.983847D-03 -0.357925D-03  0.312962D-03 -0.395789D-04 -0.153147D-02
     31 -0.114015D-04  0.680000D-03 -0.846120D-03 -0.978058D-04 -0.214796D-03
     32  0.156424D-03  0.115179D-02 -0.813041D-03 -0.131718D-04 -0.896711D-04
     33  0.320082D-03 -0.102873D-04 -0.207525D-03  0.769871D-03 -0.207062D-03
     34  0.281356D-04 -0.526880D-03 -0.849334D-03  0.112381D-03 -0.277783D-03
     35 -0.327144D-03 -0.106761D-02  0.222939D-02 -0.378343D-03 -0.488689D-03
     36  0.150772D-04 -0.143539D-03  0.978746D-04 -0.748657D-03 -0.261811D-03
     37  0.107095D-02  0.178601D-03 -0.207600D-03 -0.141744D-03  0.737279D-03
     38 -0.856940D-03  0.305802D-04 -0.997579D-04 -0.259106D-03 -0.217932D-02
     39  0.906047D-03 -0.200847D-03  0.353941D-03 -0.227656D-03 -0.980616D-03
               26            27            28            29            30 
     26  0.497914D-01
     27 -0.450967D-02  0.232545D+00
     28  0.102236D-02  0.349983D-03  0.165044D+00
     29  0.160916D-02 -0.602803D-03 -0.970811D-01  0.139511D+00
     30  0.179601D-02  0.354557D-03  0.134423D-01 -0.672843D-01 -0.113037D-01
     31  0.430978D-05 -0.215740D-04 -0.232930D-02  0.447100D-02 -0.474755D-02
     32  0.348497D-03 -0.127335D-03  0.175511D-02  0.208598D-02 -0.441857D-03
     33  0.578151D-03 -0.226114D-04  0.235990D-02  0.606275D-02  0.289115D-02
     34 -0.926216D-03  0.159659D-04  0.224750D-01  0.195388D-01  0.122457D-01
     35  0.102039D-02  0.109006D-03 -0.163996D-01 -0.575602D-01 -0.612360D-02
     36  0.487433D-04  0.864261D-04  0.122579D-01 -0.245546D-02  0.135621D-01
     37 -0.217900D-02  0.359715D-03 -0.329238D-01  0.719717D-01  0.158978D-01
     38  0.918844D-03  0.229359D-03 -0.190035D-02 -0.296159D-01 -0.355905D-01
     39  0.930423D-03 -0.493952D-03 -0.133275D-02  0.498728D-01  0.291794D-01
               31            32            33            34            35 
     31  0.190110D+00
     32 -0.190692D+00  0.359384D+00
     33  0.196296D-01 -0.384994D-01  0.100507D-01
     34  0.250442D-03  0.380209D-03 -0.900912D-03  0.247311D+00
     35  0.812332D-03  0.151613D-02  0.270680D-03  0.135501D+00  0.276400D+00
     36  0.239088D-03 -0.197182D-03 -0.736187D-05  0.214910D+00  0.379212D-01
     37 -0.220725D-03 -0.166310D-02  0.119308D-02 -0.608879D-02  0.461214D-02
     38 -0.512444D-02 -0.223485D-02  0.389630D-02  0.415341D-02 -0.127713D-01
     39  0.452600D-02  0.356359D-02 -0.834345D-02 -0.912485D-02  0.216535D-02
               36            37            38            39 
     36  0.344784D+00
     37 -0.343070D-02 -0.188171D-01
     38  0.819141D-02  0.290478D-01 -0.269486D-01
     39  0.135116D-01 -0.406569D-01  0.182144D-01  0.163369D-01
 FormGI is forming the generalized inverse of G from B-inverse, IUseBI=4.
 Leave Link  716 at Thu Apr 14 00:00:31 2016, MaxMem=    33554432 cpu:         0.0
 (Enter /usr/local/gau/g09/l103.exe)

 GradGradGradGradGradGradGradGradGradGradGradGradGradGradGradGradGradGrad
 Berny optimization.
 Red2BG is reusing G-inverse.
 Internal  Forces:  Max     0.054814703 RMS     0.013707515
 Search for a saddle point.
 Step number   1 out of a maximum of   65
 All quantities printed in internal units (Hartrees-Bohrs-Radians)
 Swapping is turned off.
 Second derivative matrix not updated -- analytic derivatives used.
 ITU=  0
     Eigenvalues ---   -0.27851  -0.03955  -0.00863  -0.00535  -0.00075
     Eigenvalues ---    0.00094   0.00645   0.01257   0.02490   0.03632
     Eigenvalues ---    0.04805   0.04855   0.07983   0.10850   0.12220
     Eigenvalues ---    0.12527   0.12892   0.14211   0.14936   0.15105
     Eigenvalues ---    0.18527   0.21015   0.24885   0.30833   0.32336
     Eigenvalues ---    0.33061   0.34054   0.35717   0.35859   0.44809
     Eigenvalues ---    0.46723   0.48934   0.49800
 Eigenvectors required to have negative eigenvalues:
                          A18       D22       D21       A8        R11
   1                   -0.53230  -0.31997   0.27910   0.27577   0.25466
                          R5        A19       D18       A6        R13
   1                   -0.23576   0.20011  -0.19783  -0.18381  -0.18305
 Eigenvalue     2 is  -3.96D-02 should be greater than     0.000000 Eigenvector:
                          R13       D16       R6        D18       A19
   1                    0.50716  -0.38674  -0.35060  -0.22466   0.21465
                          D15       D14       D13       D10       D11
   1                    0.18732   0.18632   0.18344  -0.17039  -0.16752
 Eigenvalue     3 is  -8.63D-03 should be greater than     0.000000 Eigenvector:
                          R6        R13       D22       D21       D6
   1                   -0.51681  -0.40659   0.32657   0.31948  -0.26411
                          D3        D5        D18       D2        A8
   1                   -0.23409  -0.18598  -0.17122  -0.15596  -0.14215
 Eigenvalue     4 is  -5.35D-03 should be greater than     0.000000 Eigenvector:
                          D20       D22       D21       R6        D6
   1                    0.56176   0.48546   0.47962   0.25189   0.16791
                          R13       D3        D5        D4        D2
   1                    0.16077   0.14765   0.13015   0.11054   0.10989
 Eigenvalue     5 is  -7.52D-04 should be greater than     0.000000 Eigenvector:
                          D1        D3        D2        R6        R13
   1                    0.56938   0.52463   0.48075  -0.19612  -0.19493
                          D17       D5        D20       A19       D19
   1                    0.16195  -0.11146  -0.10023  -0.08576   0.06775
 RFO step:  Lambda0=6.201833019D-04 Lambda=-6.91339177D-02.
 Linear search not attempted -- option 19 set.
 Maximum step size (   0.300) exceeded in Quadratic search.
    -- Step size scaled by   0.317
 Iteration  1 RMS(Cart)=  0.05212481 RMS(Int)=  0.00800271
 Iteration  2 RMS(Cart)=  0.00852204 RMS(Int)=  0.00119961
 Iteration  3 RMS(Cart)=  0.00004627 RMS(Int)=  0.00119910
 Iteration  4 RMS(Cart)=  0.00000029 RMS(Int)=  0.00119910
 ITry= 1 IFail=0 DXMaxC= 2.50D-01 DCOld= 1.00D+10 DXMaxT= 3.00D-01 DXLimC= 3.00D+00 Rises=F
 Variable       Old X    -DE/DX   Delta X   Delta X   Delta X     New X
                                 (Linear)    (Quad)   (Total)
    R1        1.89636   0.00079   0.00000  -0.00043  -0.00043   1.89593
    R2        2.63279   0.01039   0.00000  -0.00967  -0.00967   2.62312
    R3        1.89992   0.00417   0.00000   0.00325   0.00325   1.90317
    R4        2.84087  -0.00449   0.00000  -0.00567  -0.00567   2.83520
    R5        2.83459  -0.05481   0.00000  -0.06074  -0.06141   2.77318
    R6        3.31805   0.00279   0.00000  -0.01422  -0.01496   3.30309
    R7        1.85600  -0.00093   0.00000  -0.00067  -0.00067   1.85532
    R8        2.07561   0.00041   0.00000   0.00006   0.00006   2.07567
    R9        2.06050   0.00056   0.00000   0.00091   0.00091   2.06140
   R10        2.07718  -0.00007   0.00000  -0.00125  -0.00125   2.07593
   R11        2.66481  -0.03910   0.00000   0.01430   0.01430   2.67912
   R12        2.64885  -0.01414   0.00000  -0.00672  -0.00672   2.64213
   R13        3.02356  -0.04118   0.00000  -0.25446  -0.25290   2.77066
    A1        2.10258  -0.00221   0.00000   0.00680   0.00680   2.10937
    A2        2.07788  -0.00008   0.00000   0.00665   0.00664   2.08453
    A3        2.08053   0.00173   0.00000  -0.01461  -0.01462   2.06592
    A4        2.03345  -0.00655   0.00000   0.00301   0.00347   2.03692
    A5        2.10966  -0.00584   0.00000  -0.05527  -0.05530   2.05437
    A6        1.34545   0.01996   0.00000   0.06240   0.06218   1.40763
    A7        2.14004   0.01244   0.00000   0.05211   0.05149   2.19153
    A8        2.43925  -0.01660   0.00000  -0.04510  -0.04267   2.39658
    A9        1.93153   0.00366   0.00000   0.00442   0.00442   1.93595
   A10        1.93081  -0.00010   0.00000   0.00084   0.00084   1.93165
   A11        1.93804  -0.00427   0.00000  -0.00563  -0.00563   1.93240
   A12        1.88943  -0.00085   0.00000  -0.00061  -0.00062   1.88881
   A13        1.87473   0.00018   0.00000   0.00121   0.00121   1.87595
   A14        1.89759   0.00143   0.00000  -0.00017  -0.00017   1.89741
   A15        2.10339  -0.00142   0.00000  -0.00742  -0.00881   2.09458
   A16        2.16418  -0.02338   0.00000  -0.02157  -0.02119   2.14299
   A17        2.01544   0.02496   0.00000   0.02947   0.03014   2.04558
   A18        1.26066   0.00122   0.00000   0.00849   0.01240   1.27306
   A19        2.28889  -0.02503   0.00000  -0.08471  -0.08816   2.20073
   A20        1.93088  -0.00339   0.00000  -0.00751  -0.00751   1.92337
    D1        0.10954   0.00248   0.00000  -0.00505  -0.00673   0.10281
    D2       -3.04060   0.00844   0.00000  -0.02436  -0.02580  -3.06640
    D3        2.54488  -0.00800   0.00000  -0.02464  -0.02153   2.52335
    D4        3.02427  -0.00031   0.00000  -0.01007  -0.01175   3.01251
    D5       -0.12587   0.00565   0.00000  -0.02938  -0.03082  -0.15669
    D6       -0.82358  -0.01079   0.00000  -0.02966  -0.02655  -0.85013
    D7        1.03078   0.00582   0.00000   0.01649   0.01590   1.04669
    D8        3.12490   0.00708   0.00000   0.01916   0.01857  -3.13972
    D9       -1.04963   0.00597   0.00000   0.01575   0.01516  -1.03446
   D10       -2.10210  -0.00016   0.00000   0.03675   0.03725  -2.06485
   D11       -0.00799   0.00110   0.00000   0.03941   0.03992   0.03193
   D12        2.10067  -0.00001   0.00000   0.03600   0.03651   2.13718
   D13       -0.74424  -0.00745   0.00000  -0.06088  -0.06080  -0.80505
   D14        1.34987  -0.00619   0.00000  -0.05821  -0.05813   1.29174
   D15       -2.82466  -0.00730   0.00000  -0.06162  -0.06154  -2.88619
   D16        0.09061  -0.00479   0.00000   0.02025   0.01898   0.10959
   D17       -3.03040  -0.01466   0.00000  -0.00989  -0.01102  -3.04142
   D18       -3.06006   0.00144   0.00000  -0.00055  -0.00226  -3.06233
   D19        0.10211  -0.00843   0.00000  -0.03070  -0.03226   0.06985
   D20       -2.06781  -0.00173   0.00000   0.01161   0.01191  -2.05590
   D21        1.09343  -0.01090   0.00000  -0.01679  -0.01690   1.07653
   D22        2.63160   0.00102   0.00000  -0.01756  -0.01775   2.61384
         Item               Value     Threshold  Converged?
 Maximum Force            0.054815     0.000450     NO 
 RMS     Force            0.013708     0.000300     NO 
 Maximum Displacement     0.250015     0.001800     NO 
 RMS     Displacement     0.058221     0.001200     NO 
 Predicted change in Energy=-2.197048D-02
 Lowest energy point so far.  Saving SCF results.
 GradGradGradGradGradGradGradGradGradGradGradGradGradGradGradGradGradGrad

 Leave Link  103 at Thu Apr 14 00:00:31 2016, MaxMem=    33554432 cpu:         0.0
 (Enter /usr/local/gau/g09/l202.exe)
                          Input orientation:                          
 ---------------------------------------------------------------------
 Center     Atomic      Atomic             Coordinates (Angstroms)
 Number     Number       Type             X           Y           Z
 ---------------------------------------------------------------------
      1          7           0        1.355768    0.988824    0.045307
      2          1           0        2.351155    1.089929   -0.029265
      3          6           0        0.764665   -0.267050    0.031415
      4          1           0       -1.952978   -1.678806   -0.648788
      5          6           0        1.690067   -1.447959    0.038211
      6          6           0       -0.701343   -0.331362    0.047330
      7          1           0        2.324174   -1.444213    0.935081
      8          1           0        1.124443   -2.380601    0.024283
      9          1           0        2.354822   -1.425817   -0.836081
     10          8           0       -1.464509    0.858736   -0.058477
     11          1           0        0.766018    1.796605   -0.072841
     12          8           0       -1.405250   -1.534750    0.153187
     13          1           0       -0.301679    0.536200    1.159651
 ---------------------------------------------------------------------
                    Distance matrix (angstroms):
                    1          2          3          4          5
     1  N    0.000000
     2  H    1.003284   0.000000
     3  C    1.388098   2.088546   0.000000
     4  H    4.306486   5.155120   3.137087   0.000000
     5  C    2.459617   2.623446   1.500321   3.714436   0.000000
     6  C    2.444300   3.368038   1.467504   1.966412   2.639264
     7  H    2.765715   2.711562   2.152764   4.567023   1.098399
     8  H    3.377422   3.681341   2.143966   3.227392   1.090846
     9  H    2.757798   2.641959   2.150324   4.319285   1.098534
    10  O    2.825183   3.822774   2.498938   2.650696   3.909161
    11  H    1.007112   1.736074   2.066287   4.450071   3.375410
    12  O    3.742096   4.586154   2.516033   0.981795   3.098667
    13  H    2.047868   2.959336   1.747918   3.302043   3.026809
                    6          7          8          9         10
     6  C    0.000000
     7  H    3.343694   0.000000
     8  H    2.744705   1.773620   0.000000
     9  H    3.364282   1.771523   1.779233   0.000000
    10  O    1.417727   4.543661   4.147629   4.517870   0.000000
    11  H    2.587631   3.734523   4.193680   3.672988   2.419722
    12  O    1.398153   3.811582   2.670473   3.889558   2.403557
    13  H    1.466169   3.296600   3.439566   3.858687   1.714654
                   11         12         13
    11  H    0.000000
    12  O    3.982890   0.000000
    13  H    2.060979   2.553365   0.000000
 Stoichiometry    C3H7NO2
 Framework group  C1[X(C3H7NO2)]
 Deg. of freedom    33
 Full point group                 C1      NOp   1
 RotChk:  IX=3 Diff= 8.30D-02
 Largest Abelian subgroup         C1      NOp   1
 Largest concise Abelian subgroup C1      NOp   1
                         Standard orientation:                         
 ---------------------------------------------------------------------
 Center     Atomic      Atomic             Coordinates (Angstroms)
 Number     Number       Type             X           Y           Z
 ---------------------------------------------------------------------
      1          7           0       -1.310153   -1.253680   -0.001048
      2          1           0       -2.307270   -1.330401   -0.081360
      3          6           0       -0.687617   -0.013168   -0.020957
      4          1           0        2.068904    1.324510   -0.694397
      5          6           0       -1.583093    1.190581   -0.029555
      6          6           0        0.779412    0.014506    0.004084
      7          1           0       -2.222795    1.209947    0.863131
      8          1           0       -0.994146    2.108611   -0.047119
      9          1           0       -2.242610    1.178073   -0.907994
     10          8           0        1.513106   -1.195160   -0.087318
     11          1           0       -0.740135   -2.076913   -0.108945
     12          8           0        1.512632    1.200686    0.105072
     13          1           0        0.351006   -0.833787    1.120561
 ---------------------------------------------------------------------
 Rotational constants (GHZ):      4.8352974      3.0642200      1.9276743
 Leave Link  202 at Thu Apr 14 00:00:31 2016, MaxMem=    33554432 cpu:         0.0
 (Enter /usr/local/gau/g09/l301.exe)
 Standard basis: 6-31G (6D, 7F)
 Ernie: Thresh=  0.10000D-02 Tol=  0.10000D-05 Strict=F.
 There are    68 symmetry adapted cartesian basis functions of A   symmetry.
 There are    68 symmetry adapted basis functions of A   symmetry.
    68 basis functions,   160 primitive gaussians,    68 cartesian basis functions
    24 alpha electrons       24 beta electrons
       nuclear repulsion energy       241.8315756054 Hartrees.
 IExCor=  402 DFT=T Ex+Corr=B3LYP ExCW=0 ScaHFX=  0.200000
 ScaDFX=  0.800000  0.720000  1.000000  0.810000 ScalE2=  1.000000  1.000000
 IRadAn=      0 IRanWt=     -1 IRanGd=            0 ICorTp=0 IEmpDi=  4
 NAtoms=   13 NActive=   13 NUniq=   13 SFac= 1.00D+00 NAtFMM=   60 NAOKFM=F Big=F
 Integral buffers will be    131072 words long.
 Raffenetti 2 integral format.
 Two-electron integral symmetry is turned on.
 Leave Link  301 at Thu Apr 14 00:00:31 2016, MaxMem=    33554432 cpu:         0.0
 (Enter /usr/local/gau/g09/l302.exe)
 NPDir=0 NMtPBC=     1 NCelOv=     1 NCel=       1 NClECP=     1 NCelD=      1
         NCelK=      1 NCelE2=     1 NClLst=     1 CellRange=     0.0.
 One-electron integrals computed using PRISM.
 NBasis=    68 RedAO= T EigKep=  3.45D-03  NBF=    68
 NBsUse=    68 1.00D-06 EigRej= -1.00D+00 NBFU=    68
 Precomputing XC quadrature grid using
 IXCGrd= 4 IRadAn=           0 IRanWt=          -1 IRanGd=           0 AccXCQ= 0.00D+00.
 Generated NRdTot=       0 NPtTot=           0 NUsed=           0 NTot=          32
 NSgBfM=    68    68    68    68    68 MxSgAt=    13 MxSgA2=    13.
 Leave Link  302 at Thu Apr 14 00:00:32 2016, MaxMem=    33554432 cpu:         0.2
 (Enter /usr/local/gau/g09/l303.exe)
 DipDrv:  MaxL=1.
 Leave Link  303 at Thu Apr 14 00:00:32 2016, MaxMem=    33554432 cpu:         0.0
 (Enter /usr/local/gau/g09/l401.exe)
 Initial guess from the checkpoint file:  "Ala-S-opt-freq-tsa3-6-31g.chk"
 B after Tr=     0.000000    0.000000    0.000000
         Rot=    0.999734    0.003846   -0.001703   -0.022678 Ang=   2.64 deg.
 Guess basis will be translated and rotated to current coordinates.
 JPrj=2 DoOrth=T DoCkMO=T.
 Generating alternative initial guess.
 ExpMin= 1.61D-01 ExpMax= 5.48D+03 ExpMxC= 8.25D+02 IAcc=1 IRadAn=         1 AccDes= 0.00D+00
 Harris functional with IExCor=  402 and IRadAn=       1 diagonalized for initial guess.
 HarFok:  IExCor=  402 AccDes= 0.00D+00 IRadAn=         1 IDoV= 1 UseB2=F ITyADJ=14
 ICtDFT=  3500011 ScaDFX=  1.000000  1.000000  1.000000  1.000000
 FoFCou: FMM=F IPFlag=           0 FMFlag=      100000 FMFlg1=           0
         NFxFlg=           0 DoJE=T BraDBF=F KetDBF=T FulRan=T
         wScrn=  0.000000 ICntrl=     500 IOpCl=  0 I1Cent=   200000004 NGrid=           0
         NMat0=    1 NMatS0=      1 NMatT0=    0 NMatD0=    1 NMtDS0=    0 NMtDT0=    0
 Petite list used in FoFCou.
 Harris En= -323.542094464004    
 Leave Link  401 at Thu Apr 14 00:00:33 2016, MaxMem=    33554432 cpu:         0.7
 (Enter /usr/local/gau/g09/l502.exe)
 Closed shell SCF:
 Using DIIS extrapolation, IDIIS=  1040.
 Integral symmetry usage will be decided dynamically.
 Keep R1 ints in memory in canonical form, NReq=3676491.
 IVT=       33364 IEndB=       33364 NGot=    33554432 MDV=    30768038
 LenX=    30768038 LenY=    30762973
 Requested convergence on RMS density matrix=1.00D-08 within 128 cycles.
 Requested convergence on MAX density matrix=1.00D-06.
 Requested convergence on             energy=1.00D-06.
 No special actions if energy rises.
 FoFCou: FMM=F IPFlag=           0 FMFlag=           0 FMFlg1=           0
         NFxFlg=           0 DoJE=F BraDBF=F KetDBF=F FulRan=T
         wScrn=  0.000000 ICntrl=     600 IOpCl=  0 I1Cent=           0 NGrid=           0
         NMat0=    1 NMatS0=   2346 NMatT0=    0 NMatD0=    1 NMtDS0=    0 NMtDT0=    0
 Symmetry not used in FoFCou.
 Integral accuracy reduced to 1.0D-05 until final iterations.

 Cycle   1  Pass 0  IDiag  1:
 E= -323.458046748158    
 DIIS: error= 4.34D-03 at cycle   1 NSaved=   1.
 NSaved= 1 IEnMin= 1 EnMin= -323.458046748158     IErMin= 1 ErrMin= 4.34D-03
 ErrMax= 4.34D-03  0.00D+00 EMaxC= 1.00D-01 BMatC= 2.25D-03 BMatP= 2.25D-03
 IDIUse=3 WtCom= 9.57D-01 WtEn= 4.34D-02
 Coeff-Com:  0.100D+01
 Coeff-En:   0.100D+01
 Coeff:      0.100D+01
 Gap=     0.510 Goal=   None    Shift=    0.000
 GapD=    0.510 DampG=2.000 DampE=1.000 DampFc=2.0000 IDamp=-1.
 RMSDP=2.79D-03 MaxDP=2.77D-02              OVMax= 4.66D-02

 Cycle   2  Pass 0  IDiag  1:
 E= -323.462927649889     Delta-E=       -0.004880901731 Rises=F Damp=F
 DIIS: error= 3.25D-03 at cycle   2 NSaved=   2.
 NSaved= 2 IEnMin= 2 EnMin= -323.462927649889     IErMin= 2 ErrMin= 3.25D-03
 ErrMax= 3.25D-03  0.00D+00 EMaxC= 1.00D-01 BMatC= 1.06D-03 BMatP= 2.25D-03
 IDIUse=3 WtCom= 9.68D-01 WtEn= 3.25D-02
 Coeff-Com:  0.353D+00 0.647D+00
 Coeff-En:   0.000D+00 0.100D+01
 Coeff:      0.342D+00 0.658D+00
 Gap=     0.117 Goal=   None    Shift=    0.000
 RMSDP=1.02D-03 MaxDP=1.54D-02 DE=-4.88D-03 OVMax= 2.34D-02

 Cycle   3  Pass 0  IDiag  1:
 E= -323.463447582420     Delta-E=       -0.000519932530 Rises=F Damp=F
 DIIS: error= 2.63D-03 at cycle   3 NSaved=   3.
 NSaved= 3 IEnMin= 3 EnMin= -323.463447582420     IErMin= 3 ErrMin= 2.63D-03
 ErrMax= 2.63D-03  0.00D+00 EMaxC= 1.00D-01 BMatC= 6.69D-04 BMatP= 1.06D-03
 IDIUse=3 WtCom= 9.74D-01 WtEn= 2.63D-02
 Coeff-Com: -0.153D-01 0.443D+00 0.572D+00
 Coeff-En:   0.000D+00 0.383D+00 0.617D+00
 Coeff:     -0.149D-01 0.442D+00 0.573D+00
 Gap=     0.117 Goal=   None    Shift=    0.000
 RMSDP=5.48D-04 MaxDP=7.24D-03 DE=-5.20D-04 OVMax= 1.65D-02

 Cycle   4  Pass 0  IDiag  1:
 E= -323.464117298664     Delta-E=       -0.000669716244 Rises=F Damp=F
 DIIS: error= 1.06D-03 at cycle   4 NSaved=   4.
 NSaved= 4 IEnMin= 4 EnMin= -323.464117298664     IErMin= 4 ErrMin= 1.06D-03
 ErrMax= 1.06D-03  0.00D+00 EMaxC= 1.00D-01 BMatC= 8.25D-05 BMatP= 6.69D-04
 IDIUse=3 WtCom= 9.89D-01 WtEn= 1.06D-02
 Coeff-Com: -0.325D-01 0.274D+00 0.387D+00 0.372D+00
 Coeff-En:   0.000D+00 0.000D+00 0.000D+00 0.100D+01
 Coeff:     -0.322D-01 0.271D+00 0.383D+00 0.378D+00
 Gap=     0.117 Goal=   None    Shift=    0.000
 RMSDP=2.53D-04 MaxDP=3.30D-03 DE=-6.70D-04 OVMax= 8.92D-03

 Cycle   5  Pass 0  IDiag  1:
 E= -323.464171337126     Delta-E=       -0.000054038462 Rises=F Damp=F
 DIIS: error= 6.13D-04 at cycle   5 NSaved=   5.
 NSaved= 5 IEnMin= 5 EnMin= -323.464171337126     IErMin= 5 ErrMin= 6.13D-04
 ErrMax= 6.13D-04  0.00D+00 EMaxC= 1.00D-01 BMatC= 3.24D-05 BMatP= 8.25D-05
 IDIUse=3 WtCom= 9.94D-01 WtEn= 6.13D-03
 Coeff-Com: -0.184D-01 0.103D+00 0.161D+00 0.355D+00 0.400D+00
 Coeff-En:   0.000D+00 0.000D+00 0.000D+00 0.322D+00 0.678D+00
 Coeff:     -0.183D-01 0.102D+00 0.160D+00 0.354D+00 0.402D+00
 Gap=     0.117 Goal=   None    Shift=    0.000
 RMSDP=1.03D-04 MaxDP=1.23D-03 DE=-5.40D-05 OVMax= 2.81D-03

 Cycle   6  Pass 0  IDiag  1:
 E= -323.464202380058     Delta-E=       -0.000031042931 Rises=F Damp=F
 DIIS: error= 6.84D-05 at cycle   6 NSaved=   6.
 NSaved= 6 IEnMin= 6 EnMin= -323.464202380058     IErMin= 6 ErrMin= 6.84D-05
[...]
   A14        1.90041   0.00000   0.00000   0.00003   0.00003   1.90043
   A15        2.08736   0.00001   0.00000   0.00005   0.00005   2.08741
   A16        2.05680  -0.00001   0.00000  -0.00001  -0.00001   2.05679
   A17        2.04439   0.00002   0.00000  -0.00001  -0.00001   2.04439
   A18        1.02822  -0.00011   0.00000   0.00060   0.00060   1.02881
   A19        2.07700  -0.00004   0.00000  -0.00061  -0.00061   2.07639
   A20        1.87750  -0.00003   0.00000  -0.00024  -0.00024   1.87727
    D1       -0.16996   0.00000   0.00000   0.00111   0.00111  -0.16886
    D2        2.92919  -0.00001   0.00000   0.00039   0.00039   2.92958
    D3        2.46157   0.00002   0.00000   0.00034   0.00034   2.46191
    D4        3.00337   0.00000   0.00000   0.00088   0.00088   3.00425
    D5       -0.18066  -0.00001   0.00000   0.00017   0.00017  -0.18050
    D6       -0.64828   0.00002   0.00000   0.00012   0.00012  -0.64817
    D7       -1.16348  -0.00001   0.00000   0.00031   0.00031  -1.16317
    D8        0.92010  -0.00001   0.00000   0.00027   0.00027   0.92038
    D9        3.03730  -0.00001   0.00000   0.00028   0.00028   3.03757
   D10        2.02342   0.00001   0.00000   0.00110   0.00110   2.02452
   D11       -2.17618   0.00001   0.00000   0.00105   0.00105  -2.17512
   D12       -0.05898   0.00001   0.00000   0.00106   0.00106  -0.05793
   D13        2.70662   0.00000   0.00000   0.00121   0.00121   2.70783
   D14       -1.49298   0.00000   0.00000   0.00117   0.00117  -1.49182
   D15        0.62421   0.00000   0.00000   0.00117   0.00117   0.62538
   D16        0.13264  -0.00003   0.00000   0.00026   0.00026   0.13291
   D17        2.80802   0.00002   0.00000   0.00034   0.00034   2.80836
   D18       -3.05286  -0.00005   0.00000  -0.00049  -0.00049  -3.05336
   D19       -0.37748   0.00000   0.00000  -0.00042  -0.00042  -0.37790
   D20       -3.03471   0.00001   0.00000   0.00058   0.00058  -3.03413
   D21       -0.34782   0.00006   0.00000   0.00067   0.00067  -0.34715
   D22        0.83395  -0.00008   0.00000   0.00118   0.00118   0.83513
         Item               Value     Threshold  Converged?
 Maximum Force            0.000144     0.000450     YES
 RMS     Force            0.000033     0.000300     YES
 Maximum Displacement     0.001451     0.001800     YES
 RMS     Displacement     0.000515     0.001200     YES
 Predicted change in Energy= 9.471003D-09
 Optimization completed.
    -- Stationary point found.
                           ----------------------------
                           !   Optimized Parameters   !
                           ! (Angstroms and Degrees)  !
 --------------------------                            --------------------------
 ! Name  Definition              Value          Derivative Info.                !
 --------------------------------------------------------------------------------
 ! R1    R(1,2)                  1.0057         -DE/DX =    0.0                 !
 ! R2    R(1,3)                  1.3599         -DE/DX =    0.0                 !
 ! R3    R(1,11)                 1.0126         -DE/DX =    0.0                 !
 ! R4    R(3,5)                  1.4962         -DE/DX =    0.0                 !
 ! R5    R(3,6)                  1.3971         -DE/DX =   -0.0001              !
 ! R6    R(3,13)                 2.1529         -DE/DX =    0.0                 !
 ! R7    R(4,12)                 0.9772         -DE/DX =    0.0                 !
 ! R8    R(5,7)                  1.0985         -DE/DX =    0.0                 !
 ! R9    R(5,8)                  1.099          -DE/DX =    0.0                 !
 ! R10   R(5,9)                  1.0902         -DE/DX =    0.0                 !
 ! R11   R(6,10)                 1.4713         -DE/DX =    0.0                 !
 ! R12   R(6,12)                 1.4111         -DE/DX =    0.0                 !
 ! R13   R(6,13)                 1.2192         -DE/DX =    0.0                 !
 ! A1    A(2,1,3)              122.5169         -DE/DX =    0.0                 !
 ! A2    A(2,1,11)             120.5041         -DE/DX =    0.0                 !
 ! A3    A(3,1,11)             116.9539         -DE/DX =    0.0                 !
 ! A4    A(1,3,5)              120.0294         -DE/DX =    0.0                 !
 ! A5    A(1,3,6)              116.7086         -DE/DX =    0.0                 !
 ! A6    A(1,3,13)              97.2703         -DE/DX =    0.0                 !
 ! A7    A(5,3,6)              123.2143         -DE/DX =    0.0                 !
 ! A8    A(5,3,13)             133.3272         -DE/DX =    0.0                 !
 ! A9    A(3,5,7)              110.2461         -DE/DX =    0.0                 !
 ! A10   A(3,5,8)              111.7785         -DE/DX =    0.0                 !
 ! A11   A(3,5,9)              110.3176         -DE/DX =    0.0                 !
 ! A12   A(7,5,8)              107.4006         -DE/DX =    0.0                 !
 ! A13   A(7,5,9)              108.0953         -DE/DX =    0.0                 !
 ! A14   A(8,5,9)              108.8854         -DE/DX =    0.0                 !
 ! A15   A(3,6,10)             119.5968         -DE/DX =    0.0                 !
 ! A16   A(3,6,12)             117.8459         -DE/DX =    0.0                 !
 ! A17   A(10,6,12)            117.1352         -DE/DX =    0.0                 !
 ! A18   A(10,6,13)             58.9124         -DE/DX =   -0.0001              !
 ! A19   A(12,6,13)            119.0034         -DE/DX =    0.0                 !
 ! A20   A(4,12,6)             107.5731         -DE/DX =    0.0                 !
 ! D1    D(2,1,3,5)             -9.7382         -DE/DX =    0.0                 !
 ! D2    D(2,1,3,6)            167.8304         -DE/DX =    0.0                 !
 ! D3    D(2,1,3,13)           141.0376         -DE/DX =    0.0                 !
 ! D4    D(11,1,3,5)           172.0802         -DE/DX =    0.0                 !
 ! D5    D(11,1,3,6)           -10.3512         -DE/DX =    0.0                 !
 ! D6    D(11,1,3,13)          -37.144          -DE/DX =    0.0                 !
 ! D7    D(1,3,5,7)            -66.6625         -DE/DX =    0.0                 !
 ! D8    D(1,3,5,8)             52.7181         -DE/DX =    0.0                 !
 ! D9    D(1,3,5,9)            174.0242         -DE/DX =    0.0                 !
 ! D10   D(6,3,5,7)            115.9337         -DE/DX =    0.0                 !
 ! D11   D(6,3,5,8)           -124.6857         -DE/DX =    0.0                 !
 ! D12   D(6,3,5,9)             -3.3796         -DE/DX =    0.0                 !
 ! D13   D(13,3,5,7)           155.0778         -DE/DX =    0.0                 !
 ! D14   D(13,3,5,8)           -85.5416         -DE/DX =    0.0                 !
 ! D15   D(13,3,5,9)            35.7646         -DE/DX =    0.0                 !
 ! D16   D(1,3,6,10)             7.5999         -DE/DX =    0.0                 !
 ! D17   D(1,3,6,12)           160.8879         -DE/DX =    0.0                 !
 ! D18   D(5,3,6,10)          -174.9163         -DE/DX =    0.0                 !
 ! D19   D(5,3,6,12)           -21.6282         -DE/DX =    0.0                 !
 ! D20   D(3,6,12,4)          -173.8761         -DE/DX =    0.0                 !
 ! D21   D(10,6,12,4)          -19.9287         -DE/DX =    0.0001              !
 ! D22   D(13,6,12,4)           47.782          -DE/DX =   -0.0001              !
 --------------------------------------------------------------------------------
 GradGradGradGradGradGradGradGradGradGradGradGradGradGradGradGradGradGrad

 Leave Link  103 at Thu Apr 14 00:17:31 2016, MaxMem=    33554432 cpu:         0.0
 (Enter /usr/local/gau/g09/l9999.exe)

 Test job not archived.
 1\1\GINC-KALI\Freq\RB3LYP\6-31G\C3H7N1O2\ROOT\14-Apr-2016\0\\#P Geom=A
 llCheck Guess=TCheck SCRF=Check Test GenChk RB3LYP/6-31G Freq\\Ala-S-o
 pt-freq-tsa3-6-31g\\0,1\N,1.3849340697,0.9686449823,0.3425609674\H,2.3
 33315064,1.09398441,0.6529545049\C,0.8500928144,-0.2586232363,0.103746
 0324\H,-2.0289692047,-1.2958863957,-0.834776372\C,1.7299419386,-1.4687
 316386,0.0882046128\C,-0.5353532426,-0.3175418209,-0.0662344207\H,2.42
 27061427,-1.4241107627,-0.7630978165\H,2.336267499,-1.5437917725,1.001
 7679356\H,1.1287158869,-2.3726231105,-0.0115225877\O,-1.3109741689,0.9
 299498011,-0.1493498668\H,0.7740550977,1.7670587329,0.2212125148\O,-1.
 0729755996,-1.453583634,-0.7077074576\H,-1.1064023773,0.1349929249,0.9
 112555933\\Version=ES64L-G09RevD.01\State=1-A\HF=-323.5135361\RMSD=1.9
 88e-09\RMSF=5.333e-05\ZeroPoint=0.101317\Thermal=0.1085811\Dipole=1.20
 74572,-0.14807,0.6519879\DipoleDeriv=-0.6765023,-0.1786243,0.1249826,-
 0.889873,-0.7273718,-0.0793674,-0.0241237,-0.0435524,-0.7140588,0.2258
 922,0.0218852,-0.0626881,0.0170575,0.2164511,0.0024126,-0.1218984,-0.0
 030868,0.3605422,1.0287779,0.0964636,-0.0589913,0.7996359,0.5884642,0.
 1152451,-0.0244808,-0.0239753,0.1098521,0.2164747,0.0687176,-0.0065867
 ,0.1921902,0.3149529,-0.0118831,0.0531708,-0.0354306,0.3830724,0.03475
 1,0.0755655,0.0356684,-0.0836604,-0.0612805,-0.0358583,0.0924536,-0.04
 83614,0.1248146,-0.4130179,0.2064724,0.1709511,0.4295723,0.611662,0.39
 85597,1.3321648,0.280704,0.340635,-0.0547334,0.0408894,0.0928037,0.033
 8973,0.0468599,0.0350748,0.110747,0.0094774,-0.0197216,-0.0347323,0.04
 72661,-0.1023479,0.0328906,0.0452482,-0.0277872,-0.1486202,0.0282755,-
 0.0740574,0.0696002,-0.0803921,-0.0054911,-0.021397,-0.0014442,-0.0050
 734,-0.001308,-0.0016733,0.1073891,-0.7131159,0.0948531,0.0154983,0.75
 04889,-0.7439796,-0.1108938,-0.791172,0.1380844,-0.4397792,0.104337,0.
 0613075,-0.0442692,0.0217162,0.2308842,-0.0208695,-0.0164211,-0.010994
 9,0.3687217,-0.3598641,-0.2845715,-0.1524488,-0.529837,-0.8031423,-0.2
 27421,-0.4483003,-0.1837358,-0.6513323,0.5721327,-0.1698325,-0.0070809
 ,-0.7526814,0.2826957,-0.0321387,-0.0122116,-0.1057308,0.1039223\Polar
 =72.4167568,-3.0439849,49.0367833,5.7847233,3.8983873,29.5266835\PG=C0
 1 [X(C3H7N1O2)]\NImag=1\\0.82800246,-0.01594913,0.76912251,0.22300880,
 0.04473366,0.11725079,-0.42136627,-0.03944246,-0.13158504,0.43689150,-
 0.03788729,-0.08131994,-0.01553213,0.04882941,0.07391443,-0.13407243,-
 0.01639151,-0.04925407,0.13804940,0.01849883,0.05232960,-0.17175331,-0
 .07779645,-0.04028933,-0.00969304,-0.03743540,-0.00772669,0.72730864,-
 0.09296287,-0.33933264,-0.05034232,0.00114440,-0.00004523,0.00031960,0
 .01331163,0.69370672,-0.03783076,-0.05454322,-0.05917073,-0.00063302,-
 0.01021537,-0.00459251,0.10923879,0.08130786,0.20048688,0.00084481,0.0
 0271717,-0.00024623,-0.00007190,-0.00019090,0.00010630,-0.00162463,-0.
 00338688,-0.00104846,0.46716182,-0.00101635,0.00168788,-0.00014605,-0.
 00026462,-0.00050683,-0.00004606,-0.00196801,-0.00811384,-0.00284062,-
 0.05545416,0.04845227,-0.00010860,0.00093698,0.00108811,-0.00019842,-0
 .00013210,0.00078589,0.00072526,-0.00201737,-0.00089410,0.07138302,0.0
 1156173,0.02420037,0.01420826,-0.01247263,-0.00036412,0.00077990,0.000
 06875,0.00158663,-0.13962399,0.06253385,-0.00183776,0.00043003,0.00055
 323,-0.00007888,0.54728305,0.02352236,-0.03649517,-0.00055172,0.000614
 54,0.00243229,0.00096502,0.05823350,-0.17689586,-0.00281511,0.00015275
 ,-0.00039702,-0.00001663,0.05318479,0.54658747,0.00418306,-0.00781630,
 0.00280287,0.00115479,-0.00015386,-0.00060137,-0.01275787,-0.00083284,
 -0.07476451,0.00015095,0.00020620,-0.00059369,0.00941991,0.00414177,0.
 53522898,-0.04136818,-0.04649293,-0.00941362,0.00382129,0.00115773,0.0
 0172487,-0.32098501,0.00603809,-0.04662918,-0.02152059,-0.04545012,-0.
 02432432,-0.01841824,0.00726840,0.00936528,0.59456156,-0.04329178,-0.0
 0678312,-0.00708109,-0.00031371,-0.00580986,-0.00006918,-0.02563726,-0
 .09125003,-0.00285060,0.00598711,-0.00567921,0.00098761,0.02723737,0.0
 0431391,-0.00117346,0.07700661,0.39999575,0.00635283,0.03863815,0.0141
 5191,-0.00668254,-0.00213279,0.00526907,-0.10574501,-0.03678684,-0.075
 21170,-0.00376240,-0.01533650,-0.00785551,-0.00071644,0.00152360,0.005
 93450,0.15169309,0.08510542,0.23331583,0.00126905,-0.00141578,-0.00119
 479,0.00013322,0.00000251,0.00057825,-0.01756250,0.00210697,0.01540866
 ,0.00006741,0.00011273,0.00016706,-0.14485065,-0.01012919,0.12578678,-
 0.00032276,0.00299721,0.00135880,0.16156501,-0.00079955,0.00082176,0.0
 0178285,0.00008210,-0.00037637,-0.00109229,0.02109124,-0.00146986,-0.0
 2329604,-0.00013994,-0.00003252,0.00011776,-0.00880151,-0.04837562,0.0
 0916223,0.00099622,-0.00280293,-0.00106850,0.00565789,0.05151037,-0.00
 046087,0.00001805,0.00087199,0.00024370,-0.00038735,-0.00065022,0.0003
 4387,-0.00028158,0.00305745,-0.00006009,-0.00004301,-0.00002476,0.1244
 4979,0.01054853,-0.20132398,-0.00121363,0.00022898,-0.00111919,-0.1394
 4424,-0.01150037,0.22024558,0.00130218,-0.00188138,0.00142575,0.000597
 27,0.00053277,-0.00064808,-0.01887219,0.00422875,-0.01705569,0.0001016
 9,0.00031183,-0.00012087,-0.12016068,0.00551143,-0.11553255,0.00362544
 ,0.00157751,-0.00033552,0.01126926,-0.00137154,0.01865932,0.13437898,-
 0.00013894,0.00232435,-0.00093790,-0.00080564,-0.00084795,0.00024008,0
 .02153252,-0.00374173,0.02502221,-0.00017960,0.00017961,-0.00010553,0.
 00697538,-0.05141719,0.01287062,-0.00293102,-0.00294914,-0.00128569,0.
 00078595,0.00018080,0.00242151,-0.01248879,0.05308119,0.00056539,0.000
 46002,0.00081149,-0.00028770,0.00094090,-0.00029097,0.00081856,-0.0012
 8072,0.00378223,0.00010185,0.00010440,0.00003259,-0.11557789,0.0112889
 3,-0.22388563,0.00106317,-0.00013120,0.00012707,-0.01567098,0.00063596
 ,-0.02361749,0.12903457,-0.01334723,0.24572944,-0.00354135,0.00360658,
 -0.00050314,-0.00016293,0.00010854,-0.00001544,0.01395221,0.02076038,0
 .00217716,0.00006648,-0.00028753,-0.00005470,-0.13645188,-0.13213414,-
 0.01427109,-0.00022533,0.00150353,0.00158588,-0.01101504,-0.01690216,-
 0.00305471,-0.00938053,-0.01406274,-0.00007861,0.14739499,0.00513700,-
 0.00262196,0.00060344,0.00021967,0.00033721,0.00042055,-0.01887683,-0.
 02476746,-0.00247119,-0.00026087,0.00060657,0.00006248,-0.12407999,-0.
 23868252,-0.02011884,-0.00001855,-0.00151615,-0.00231297,0.00007403,-0
 .00043033,-0.00076442,0.00257531,0.00327626,0.00099930,0.13710530,0.26
 289237,-0.00020625,-0.00000577,0.00152461,0.00015740,0.00026801,-0.000
 54253,0.00053027,-0.00119688,-0.00148899,0.00013717,-0.00020854,-0.000
 03072,-0.01457546,-0.02098527,-0.05201990,-0.00026381,0.00073311,0.000
 63905,0.01555087,0.02324881,0.00258836,-0.01620843,-0.02465404,-0.0022
 1523,0.01497345,0.02312347,0.05202764,-0.00070484,0.00194147,0.0006258
 9,-0.00107783,0.00195058,0.00209175,-0.02448215,0.03850641,-0.01083102
 ,0.00206986,0.00334592,0.00241255,-0.00203568,-0.00342870,-0.00241173,
 -0.09162849,0.05031035,-0.01728287,-0.00090350,0.00060077,0.00005888,-
 0.00143602,0.00181931,-0.00010954,0.00012862,0.00002916,-0.00013246,0.
 11855471,0.00530577,0.02594654,0.00317897,-0.00390946,0.00187164,0.001
 13824,-0.02313486,-0.03095569,-0.00596816,0.00112056,0.00212962,0.0008
 0907,-0.00216893,0.00276068,0.00233736,0.12053561,-0.16392227,-0.04394
 755,0.00038982,0.00017819,-0.00022676,0.00131974,-0.00132470,0.0007997
 2,0.00003324,-0.00008370,0.00004203,-0.10029291,0.18087965,-0.01211202
 ,-0.02209288,-0.00706541,0.00246346,-0.00040471,-0.00046303,0.04830530
 ,0.01218914,0.01058927,0.00341980,0.00658851,0.00005702,-0.00065026,-0
 .00035075,0.00673183,-0.12509215,0.07101908,0.02930333,-0.00096876,0.0
 0108251,-0.00032103,0.00098916,-0.00065308,-0.00039711,-0.00050500,0.0
 0059630,-0.00043867,0.02809853,0.00222334,0.00141673,-0.20488083,0.172
 80096,-0.04254793,-0.00862283,0.02402505,-0.00089780,0.02162498,-0.006
 24709,0.00235432,0.00022496,-0.00033693,0.00009584,-0.00082316,-0.0029
 9792,-0.00175077,-0.00811669,-0.00545760,0.01076955,-0.00026189,-0.000
 06055,0.00000683,-0.00054145,0.00031857,-0.00013659,0.00047313,-0.0006
 5144,-0.00013085,0.00333879,0.01304199,-0.00689253,0.19396221,0.175585
 24,-0.30328712,0.02962401,-0.01007721,0.01072559,-0.00188296,0.0195812
 6,-0.03106313,0.00261188,-0.00017437,-0.00011439,-0.00001283,-0.004510
 25,-0.00187536,-0.00027691,0.00287533,-0.00427498,-0.00129314,0.000003
 02,0.00023284,-0.00013816,0.00001582,0.00027876,0.00017293,0.00105202,
 -0.00079784,-0.00008571,0.00253750,0.00147556,0.00100409,-0.18653294,0
 .32787089,-0.04288944,0.02850358,-0.02707258,-0.00371309,0.00877931,-0
 .00204697,0.00891807,-0.00456436,0.00600993,-0.00004798,-0.00014196,-0
 .00026044,-0.00211350,-0.00245442,0.00301742,-0.00271128,-0.00064540,-
 0.00155987,-0.00033852,0.00072091,0.00003125,0.00024686,-0.00041750,0.
 00004218,0.00035553,-0.00073415,0.00055926,0.00083091,0.00003295,-0.00
 364821,0.03937249,-0.03095562,0.02551827,-0.00621641,0.00243044,-0.000
 59730,-0.00047269,-0.00176546,0.00025287,-0.01969289,-0.03881828,-0.02
 564146,-0.44723606,0.10289364,-0.04830833,-0.00033643,-0.00030798,-0.0
 0068671,-0.11584199,-0.07602830,-0.06195831,-0.00007681,0.00016438,0.0
 0032903,-0.00062498,-0.00080233,-0.00004618,-0.00139795,-0.00107937,-0
 .00011565,0.01048379,0.00796466,0.02116758,0.00051744,0.00049118,-0.00
 035321,0.58522503,-0.00301165,-0.00600577,-0.00169963,0.00111444,0.000
 18056,-0.00151809,0.00077266,0.00323726,-0.00757972,0.04811544,-0.0423
 1689,-0.01157183,0.00089114,-0.00237058,0.00116678,-0.03480831,-0.1626
 2337,-0.05796162,-0.00070894,0.00086754,0.00024326,-0.00061125,0.00084
 792,-0.00035030,-0.00040843,0.00132394,0.00005659,-0.00276433,-0.03433
 981,-0.01976447,0.00081169,0.00072197,0.00073679,-0.00700444,0.2546937
 1,-0.00623862,-0.01207745,0.00177762,0.00122389,0.00006988,-0.00004317
 ,0.00978967,-0.00027426,-0.00323018,-0.07036544,0.00222543,-0.01638989
 ,0.00064426,-0.00076710,-0.00074365,-0.05267046,-0.08158116,-0.0833333
 8,-0.00082298,-0.00001077,0.00013029,-0.00021386,0.00058215,-0.0000646
 6,-0.00051321,0.00042024,-0.00061664,0.00999308,-0.00293276,0.00878259
 ,-0.00221359,0.00072999,-0.00064762,0.12319350,0.10710220,0.10066753,0
 .00420444,0.01195415,0.00168104,-0.00075570,0.00060370,-0.00102963,-0.
 03859611,-0.00721535,0.01232842,-0.00051388,-0.00243963,-0.00158962,-0
 .00000054,0.00051016,-0.00265007,0.01641898,-0.01589104,0.02472295,0.0
 0068920,-0.00051735,0.00014213,-0.00025897,-0.00002268,0.00032393,0.00
 015958,-0.00017343,0.00028374,-0.01230726,-0.02020524,0.04177690,0.003
 10534,-0.00084659,0.00244316,-0.00433006,-0.00238803,-0.01180625,0.032
 18498,-0.01449279,-0.02405732,-0.00363209,0.00280854,-0.00055552,-0.00
 058223,0.05032599,0.01069149,0.00363806,0.00169369,0.00410476,-0.00061
 934,0.00058880,0.00041497,0.00048725,-0.08617706,0.04330139,0.03685843
 ,0.00012378,-0.00030389,-0.00011867,0.00027980,0.00011182,-0.00029271,
 -0.00037459,0.00046362,-0.00033580,0.00544447,0.01538429,-0.05143707,-
 0.00871381,0.00010721,0.00113986,0.01186186,-0.01421646,-0.01348640,0.
 03663132,-0.03544637,-0.00019110,-0.00036331,0.00228339,-0.00019285,0.
 00040137,0.00010031,-0.01215089,0.00376058,-0.00457304,0.00023151,-0.0
 0192353,-0.00011488,-0.00018628,-0.00052686,0.00021714,0.09847204,-0.0
 6454211,-0.11966111,-0.00041015,0.00021693,0.00013174,-0.00024066,0.00
 026440,-0.00005392,-0.00009611,0.00017580,0.00001375,-0.01334397,0.042
 51355,-0.04454732,0.00197102,0.00050243,0.00005738,-0.00723584,-0.0088
 5996,-0.00628885,-0.06662670,0.02838070,0.17243540\\0.00001340,-0.0000
 0212,-0.00001016,0.00000486,-0.00000288,0.00000422,0.00015793,0.000075
 75,0.00007642,-0.00000592,-0.00001369,-0.00000883,-0.00001248,-0.00000
 887,-0.00002401,-0.00021526,0.00000447,0.00004826,-0.00000163,-0.00000
 345,0.00000096,-0.00001373,0.00000561,-0.00000315,0.00000026,-0.000013
 13,0.00000277,0.00001452,0.00002675,-0.00010150,-0.00001816,0.00000216
 ,-0.00001627,0.00001270,0.00000290,-0.00001525,0.00006353,-0.00007350,
 0.00004654\\\@


 Children are likely to live up to what you believe of them.
 -- Lady Bird Johnson
 Job cpu time:       0 days  0 hours  1 minutes 29.3 seconds.
 File lengths (MBytes):  RWF=     13 Int=      0 D2E=      0 Chk=      2 Scr=      1
 Normal termination of Gaussian 09 at Thu Apr 14 00:17:31 2016.
