 Entering Gaussian System, Link 0=g09
 Input=Ala-S-opt-freq-tsb2-6-31g.com
 Output=Ala-S-opt-freq-tsb2-6-31g.log
 Initial command:
 /usr/local/gau/g09/l1.exe "/tmp/Gau-6363.inp" -scrdir="/tmp/"
 Entering Link 1 = /usr/local/gau/g09/l1.exe PID=      6365.
  
 Copyright (c) 1988,1990,1992,1993,1995,1998,2003,2009,2013,
            Gaussian, Inc.  All Rights Reserved.
  
 This is part of the Gaussian(R) 09 program.  It is based on
 the Gaussian(R) 03 system (copyright 2003, Gaussian, Inc.),
 the Gaussian(R) 98 system (copyright 1998, Gaussian, Inc.),
 the Gaussian(R) 94 system (copyright 1995, Gaussian, Inc.),
 the Gaussian 92(TM) system (copyright 1992, Gaussian, Inc.),
 the Gaussian 90(TM) system (copyright 1990, Gaussian, Inc.),
 the Gaussian 88(TM) system (copyright 1988, Gaussian, Inc.),
 the Gaussian 86(TM) system (copyright 1986, Carnegie Mellon
 University), and the Gaussian 82(TM) system (copyright 1983,
 Carnegie Mellon University). Gaussian is a federally registered
 trademark of Gaussian, Inc.
  
 This software contains proprietary and confidential information,
 including trade secrets, belonging to Gaussian, Inc.
  
 This software is provided under written license and may be
 used, copied, transmitted, or stored only in accord with that
 written license.
  
 The following legend is applicable only to US Government
 contracts under FAR:
  
                    RESTRICTED RIGHTS LEGEND
  
 Use, reproduction and disclosure by the US Government is
 subject to restrictions as set forth in subparagraphs (a)
 and (c) of the Commercial Computer Software - Restricted
 Rights clause in FAR 52.227-19.
  
 Gaussian, Inc.
 340 Quinnipiac St., Bldg. 40, Wallingford CT 06492
  
  
 ---------------------------------------------------------------
 Warning -- This program may not be used in any manner that
 competes with the business of Gaussian, Inc. or will provide
 assistance to any competitor of Gaussian, Inc.  The licensee
 of this program is prohibited from giving any competitor of
 Gaussian, Inc. access to this program.  By using this program,
 the user acknowledges that Gaussian, Inc. is engaged in the
 business of creating and licensing software in the field of
 computational chemistry and represents and warrants to the
 licensee that it is not a competitor of Gaussian, Inc. and that
 it will not use this program in any manner prohibited above.
 ---------------------------------------------------------------
  

 Cite this work as:
 Gaussian 09, Revision D.01,
 M. J. Frisch, G. W. Trucks, H. B. Schlegel, G. E. Scuseria, 
 M. A. Robb, J. R. Cheeseman, G. Scalmani, V. Barone, B. Mennucci, 
 G. A. Petersson, H. Nakatsuji, M. Caricato, X. Li, H. P. Hratchian, 
 A. F. Izmaylov, J. Bloino, G. Zheng, J. L. Sonnenberg, M. Hada, 
 M. Ehara, K. Toyota, R. Fukuda, J. Hasegawa, M. Ishida, T. Nakajima, 
 Y. Honda, O. Kitao, H. Nakai, T. Vreven, J. A. Montgomery, Jr., 
 J. E. Peralta, F. Ogliaro, M. Bearpark, J. J. Heyd, E. Brothers, 
 K. N. Kudin, V. N. Staroverov, T. Keith, R. Kobayashi, J. Normand, 
 K. Raghavachari, A. Rendell, J. C. Burant, S. S. Iyengar, J. Tomasi, 
 M. Cossi, N. Rega, J. M. Millam, M. Klene, J. E. Knox, J. B. Cross, 
 V. Bakken, C. Adamo, J. Jaramillo, R. Gomperts, R. E. Stratmann, 
 O. Yazyev, A. J. Austin, R. Cammi, C. Pomelli, J. W. Ochterski, 
 R. L. Martin, K. Morokuma, V. G. Zakrzewski, G. A. Voth, 
 P. Salvador, J. J. Dannenberg, S. Dapprich, A. D. Daniels, 
 O. Farkas, J. B. Foresman, J. V. Ortiz, J. Cioslowski, 
 and D. J. Fox, Gaussian, Inc., Wallingford CT, 2013.
 
 ******************************************
 Gaussian 09:  ES64L-G09RevD.01 24-Apr-2013
                10-Apr-2016 
 ******************************************
 %chk=Ala-S-opt-freq-tsb2-6-31g.chk
 -----------------------------------------------
 # opt=(calcfc,ts) freq rb3lyp/6-31g iop(1/11=1)
 -----------------------------------------------
 1/5=1,10=4,11=1,14=-1,18=20,26=3,38=1/1,3;
 2/9=110,12=2,17=6,18=5,40=1/2;
 3/5=1,6=6,11=2,16=1,25=1,30=1,71=2,74=-5,116=1,140=1/1,2,3;
 4//1;
 5/5=2,38=5/2;
 8/6=4,10=90,11=11/1;
 11/6=1,8=1,9=11,15=111,16=1/1,2,10;
 10/6=1,13=1/2;
 6/7=2,8=2,9=2,10=2,28=1/1;
 7/10=1,18=20,25=1/1,2,3,16;
 1/5=1,10=4,11=1,14=-1,18=20,26=3/3(2);
 2/9=110/2;
 99//99;
 2/9=110/2;
 3/5=1,6=6,11=2,16=1,25=1,30=1,71=1,74=-5,116=1/1,2,3;
 4/5=5,16=3,69=1/1;
 5/5=2,38=5/2;
 7//1,2,3,16;
 1/5=1,11=1,14=-1,18=20,26=3/3(-5);
 2/9=110/2;
 6/7=2,8=2,9=2,10=2,19=2,28=1/1;
 99/9=1/99;
 -------------------------
 Ala-S-opt-freq-tsb2-6-31g
 -------------------------
 Symbolic Z-matrix:
 Charge =  0 Multiplicity = 1
 N                    -0.18727   1.22518  -0.1721 
 H                     1.11152   1.59243  -0.11903 
 C                    -0.10963   0.008     0.2312 
 H                     1.34426  -0.84915   1.61551 
 C                    -1.21642  -0.99771   0.34817 
 C                     1.30221  -0.46744   0.59072 
 H                    -2.17335  -0.59066   0.00818 
 H                    -0.96407  -1.8844   -0.24306 
 H                    -1.32642  -1.32806   1.38929 
 O                     2.23212   0.58494   0.41876 
 H                    -1.12186   1.54701  -0.44494 
 O                     1.62873  -1.59724  -0.26818 
 H                     2.23361  -1.25992  -0.96215 
 
 Add virtual bond connecting atoms H2         and N1         Dist= 2.55D+00.

 GradGradGradGradGradGradGradGradGradGradGradGradGradGradGradGradGradGrad
 Berny optimization.
 Initialization pass.
                           ----------------------------
                           !    Initial Parameters    !
                           ! (Angstroms and Degrees)  !
 --------------------------                            --------------------------
 ! Name  Definition              Value          Derivative Info.                !
 --------------------------------------------------------------------------------
 ! R1    R(1,2)                  1.3508         calculate D2E/DX2 analytically  !
 ! R2    R(1,3)                  1.2846         calculate D2E/DX2 analytically  !
 ! R3    R(1,11)                 1.0254         calculate D2E/DX2 analytically  !
 ! R4    R(3,5)                  1.5            calculate D2E/DX2 analytically  !
 ! R5    R(3,6)                  1.5325         calculate D2E/DX2 analytically  !
 ! R6    R(4,6)                  1.0944         calculate D2E/DX2 analytically  !
 ! R7    R(5,7)                  1.0941         calculate D2E/DX2 analytically  !
 ! R8    R(5,8)                  1.0952         calculate D2E/DX2 analytically  !
 ! R9    R(5,9)                  1.0978         calculate D2E/DX2 analytically  !
 ! R10   R(6,10)                 1.4149         calculate D2E/DX2 analytically  !
 ! R11   R(6,12)                 1.4563         calculate D2E/DX2 analytically  !
 ! R12   R(12,13)                0.9804         calculate D2E/DX2 analytically  !
 ! A1    A(2,1,3)              100.7874         calculate D2E/DX2 analytically  !
 ! A2    A(2,1,11)             143.2717         calculate D2E/DX2 analytically  !
 ! A3    A(3,1,11)             115.8494         calculate D2E/DX2 analytically  !
 ! A4    A(1,3,5)              127.9628         calculate D2E/DX2 analytically  !
 ! A5    A(1,3,6)              115.0423         calculate D2E/DX2 analytically  !
 ! A6    A(5,3,6)              116.9653         calculate D2E/DX2 analytically  !
 ! A7    A(3,5,7)              111.8195         calculate D2E/DX2 analytically  !
 ! A8    A(3,5,8)              109.3119         calculate D2E/DX2 analytically  !
 ! A9    A(3,5,9)              110.4653         calculate D2E/DX2 analytically  !
 ! A10   A(7,5,8)              109.572          calculate D2E/DX2 analytically  !
 ! A11   A(7,5,9)              108.6037         calculate D2E/DX2 analytically  !
 ! A12   A(8,5,9)              106.943          calculate D2E/DX2 analytically  !
 ! A13   A(3,6,4)              111.3017         calculate D2E/DX2 analytically  !
 ! A14   A(3,6,10)             110.2565         calculate D2E/DX2 analytically  !
 ! A15   A(3,6,12)             107.9916         calculate D2E/DX2 analytically  !
 ! A16   A(4,6,10)             110.3649         calculate D2E/DX2 analytically  !
 ! A17   A(4,6,12)             105.8475         calculate D2E/DX2 analytically  !
 ! A18   A(10,6,12)            110.9781         calculate D2E/DX2 analytically  !
 ! A19   A(6,12,13)            106.7902         calculate D2E/DX2 analytically  !
 ! D1    D(2,1,3,5)           -177.1856         calculate D2E/DX2 analytically  !
 ! D2    D(2,1,3,6)              0.7553         calculate D2E/DX2 analytically  !
 ! D3    D(11,1,3,5)             0.1528         calculate D2E/DX2 analytically  !
 ! D4    D(11,1,3,6)           178.0937         calculate D2E/DX2 analytically  !
 ! D5    D(1,3,5,7)              1.7557         calculate D2E/DX2 analytically  !
 ! D6    D(1,3,5,8)            123.2662         calculate D2E/DX2 analytically  !
 ! D7    D(1,3,5,9)           -119.3223         calculate D2E/DX2 analytically  !
 ! D8    D(6,3,5,7)           -176.1512         calculate D2E/DX2 analytically  !
 ! D9    D(6,3,5,8)            -54.6407         calculate D2E/DX2 analytically  !
 ! D10   D(6,3,5,9)             62.7708         calculate D2E/DX2 analytically  !
 ! D11   D(1,3,6,4)            124.0828         calculate D2E/DX2 analytically  !
 ! D12   D(1,3,6,10)             1.2602         calculate D2E/DX2 analytically  !
 ! D13   D(1,3,6,12)          -120.1447         calculate D2E/DX2 analytically  !
 ! D14   D(5,3,6,4)            -57.7385         calculate D2E/DX2 analytically  !
 ! D15   D(5,3,6,10)           179.4389         calculate D2E/DX2 analytically  !
 ! D16   D(5,3,6,12)            58.034          calculate D2E/DX2 analytically  !
 ! D17   D(3,6,12,13)          103.0987         calculate D2E/DX2 analytically  !
 ! D18   D(4,6,12,13)         -137.611          calculate D2E/DX2 analytically  !
 ! D19   D(10,6,12,13)         -17.8576         calculate D2E/DX2 analytically  !
 --------------------------------------------------------------------------------
 Trust Radius=3.00D-01 FncErr=1.00D-07 GrdErr=1.00D-06
 Number of steps in this run=     60 maximum allowed number of steps=    100.
 Search for a saddle point of order  1.
 GradGradGradGradGradGradGradGradGradGradGradGradGradGradGradGradGradGrad

                          Input orientation:                          
 ---------------------------------------------------------------------
 Center     Atomic      Atomic             Coordinates (Angstroms)
 Number     Number       Type             X           Y           Z
 ---------------------------------------------------------------------
      1          7           0       -0.187274    1.225177   -0.172101
      2          1           0        1.111517    1.592433   -0.119025
      3          6           0       -0.109630    0.007998    0.231203
      4          1           0        1.344259   -0.849154    1.615513
      5          6           0       -1.216417   -0.997709    0.348167
      6          6           0        1.302214   -0.467443    0.590723
      7          1           0       -2.173353   -0.590664    0.008176
      8          1           0       -0.964068   -1.884396   -0.243056
      9          1           0       -1.326425   -1.328062    1.389288
     10          8           0        2.232117    0.584940    0.418760
     11          1           0       -1.121858    1.547009   -0.444939
     12          8           0        1.628728   -1.597242   -0.268181
     13          1           0        2.233607   -1.259919   -0.962146
 ---------------------------------------------------------------------
                    Distance matrix (angstroms):
                    1          2          3          4          5
     1  N    0.000000
     2  H    1.350759   0.000000
     3  C    1.284604   2.030835   0.000000
     4  H    3.137516   3.004020   2.182846   0.000000
     5  C    2.504204   3.513741   1.500035   2.860996   0.000000
     6  C    2.380218   2.187052   1.532515   1.094379   2.585250
     7  H    2.697089   3.946196   2.160345   3.876073   1.094078
     8  H    3.205914   4.051145   2.129822   3.139168   1.095189
     9  H    3.202285   4.092415   2.146347   2.722698   1.097801
    10  O    2.571473   1.600000   2.419053   2.068124   3.795016
    11  H    1.025409   2.257486   1.962225   4.008590   2.667124
    12  O    3.357550   3.234777   2.418278   2.046671   2.972234
    13  H    3.558165   3.178970   2.919324   2.757534   3.699776
                    6          7          8          9         10
     6  C    0.000000
     7  H    3.526203   0.000000
     8  H    2.799817   1.788639   0.000000
     9  H    2.878908   1.780032   1.762202   0.000000
    10  O    1.414850   4.578077   4.092825   4.155084   0.000000
    11  H    3.317640   2.424995   3.440958   3.416470   3.594538
    12  O    1.456287   3.942765   2.608770   3.398910   2.365985
    13  H    1.976591   4.561877   3.336493   4.267050   2.304432
                   11         12         13
    11  H    0.000000
    12  O    4.181301   0.000000
    13  H    4.405167   0.980435   0.000000
 Stoichiometry    C3H7NO2
 Framework group  C1[X(C3H7NO2)]
 Deg. of freedom    33
 Full point group                 C1      NOp   1
 Largest Abelian subgroup         C1      NOp   1
 Largest concise Abelian subgroup C1      NOp   1
                         Standard orientation:                         
 ---------------------------------------------------------------------
 Center     Atomic      Atomic             Coordinates (Angstroms)
 Number     Number       Type             X           Y           Z
 ---------------------------------------------------------------------
      1          7           0       -0.823941    1.434495   -0.332368
      2          1           0        0.463554    1.839095   -0.275747
      3          6           0       -0.710802    0.216769    0.060763
      4          1           0        0.767353   -0.609090    1.438380
      5          6           0       -1.787735   -0.821800    0.168902
      6          6           0        0.714292   -0.220200    0.416806
      7          1           0       -2.756119   -0.440062   -0.168019
      8          1           0       -1.509507   -1.695749   -0.429629
      9          1           0       -1.888165   -1.163936    1.207182
     10          8           0        1.613059    0.860314    0.253996
     11          1           0       -1.767499    1.731149   -0.602843
     12          8           0        1.073791   -1.332740   -0.451405
     13          1           0        1.668636   -0.972081   -1.142302
 ---------------------------------------------------------------------
 Rotational constants (GHZ):      4.8465492      3.2820045      2.1906162
 Standard basis: 6-31G (6D, 7F)
 There are    68 symmetry adapted cartesian basis functions of A   symmetry.
 There are    68 symmetry adapted basis functions of A   symmetry.
    68 basis functions,   160 primitive gaussians,    68 cartesian basis functions
    24 alpha electrons       24 beta electrons
       nuclear repulsion energy       246.6189759922 Hartrees.
 NAtoms=   13 NActive=   13 NUniq=   13 SFac= 1.00D+00 NAtFMM=   60 NAOKFM=F Big=F
 Integral buffers will be    131072 words long.
 Raffenetti 2 integral format.
 Two-electron integral symmetry is turned on.
 One-electron integrals computed using PRISM.
 NBasis=    68 RedAO= T EigKep=  4.14D-03  NBF=    68
 NBsUse=    68 1.00D-06 EigRej= -1.00D+00 NBFU=    68
 ExpMin= 1.61D-01 ExpMax= 5.48D+03 ExpMxC= 8.25D+02 IAcc=1 IRadAn=         1 AccDes= 0.00D+00
 Harris functional with IExCor=  402 and IRadAn=       1 diagonalized for initial guess.
 HarFok:  IExCor=  402 AccDes= 0.00D+00 IRadAn=         1 IDoV= 1 UseB2=F ITyADJ=14
 ICtDFT=  3500011 ScaDFX=  1.000000  1.000000  1.000000  1.000000
 FoFCou: FMM=F IPFlag=           0 FMFlag=      100000 FMFlg1=           0
         NFxFlg=           0 DoJE=T BraDBF=F KetDBF=T FulRan=T
         wScrn=  0.000000 ICntrl=     500 IOpCl=  0 I1Cent=   200000004 NGrid=           0
         NMat0=    1 NMatS0=      1 NMatT0=    0 NMatD0=    1 NMtDS0=    0 NMtDT0=    0
 Petite list used in FoFCou.
 Keep R1 ints in memory in canonical form, NReq=3676491.
 Requested convergence on RMS density matrix=1.00D-08 within 128 cycles.
 Requested convergence on MAX density matrix=1.00D-06.
 Requested convergence on             energy=1.00D-06.
 No special actions if energy rises.
 Integral accuracy reduced to 1.0D-05 until final iterations.
 EnCoef did     2 forward-backward iterations
 EnCoef did     2 forward-backward iterations
 Initial convergence to 1.0D-05 achieved.  Increase integral accuracy.
 SCF Done:  E(RB3LYP) =  -323.557213040     A.U. after   18 cycles
            NFock= 18  Conv=0.64D-08     -V/T= 2.0063
 DoSCS=F DFT=T ScalE2(SS,OS)=  1.000000  1.000000
 Range of M.O.s used for correlation:     1    68
 NBasis=    68 NAE=    24 NBE=    24 NFC=     0 NFV=     0
 NROrb=     68 NOA=    24 NOB=    24 NVA=    44 NVB=    44
 Symmetrizing basis deriv contribution to polar:
 IMax=3 JMax=2 DiffMx= 0.00D+00
 G2DrvN: will do    14 centers at a time, making    1 passes.
 Calling FoFCou, ICntrl=  3107 FMM=F I1Cent=   0 AccDes= 0.00D+00.
 End of G2Drv F.D. properties file   721 does not exist.
 End of G2Drv F.D. properties file   722 does not exist.
 End of G2Drv F.D. properties file   788 does not exist.
          IDoAtm=1111111111111
          Differentiating once with respect to nuclear coordinates.
 Keep R1 ints in memory in canonical form, NReq=3645290.
          There are    42 degrees of freedom in the 1st order CPHF.  IDoFFX=6 NUNeed=     0.
     36 vectors produced by pass  0 Test12= 2.51D-15 2.38D-09 XBig12= 1.23D-01 1.10D-01.
 AX will form    36 AO Fock derivatives at one time.
     36 vectors produced by pass  1 Test12= 2.51D-15 2.38D-09 XBig12= 3.76D-02 6.17D-02.
     36 vectors produced by pass  2 Test12= 2.51D-15 2.38D-09 XBig12= 2.22D-04 2.43D-03.
     36 vectors produced by pass  3 Test12= 2.51D-15 2.38D-09 XBig12= 4.83D-07 1.38D-04.
     36 vectors produced by pass  4 Test12= 2.51D-15 2.38D-09 XBig12= 3.23D-10 2.78D-06.
     17 vectors produced by pass  5 Test12= 2.51D-15 2.38D-09 XBig12= 1.90D-13 9.35D-08.
 InvSVY:  IOpt=1 It=  1 EMax= 1.89D-15
 Solved reduced A of dimension   197 with    36 vectors.
 End of Minotr F.D. properties file   721 does not exist.
 End of Minotr F.D. properties file   722 does not exist.
 End of Minotr F.D. properties file   788 does not exist.

 **********************************************************************

            Population analysis using the SCF density.

 **********************************************************************

 Orbital symmetries:
       Occupied  (A) (A) (A) (A) (A) (A) (A) (A) (A) (A) (A) (A)
                 (A) (A) (A) (A) (A) (A) (A) (A) (A) (A) (A) (A)
       Virtual   (A) (A) (A) (A) (A) (A) (A) (A) (A) (A) (A) (A)
                 (A) (A) (A) (A) (A) (A) (A) (A) (A) (A) (A) (A)
                 (A) (A) (A) (A) (A) (A) (A) (A) (A) (A) (A) (A)
                 (A) (A) (A) (A) (A) (A) (A) (A)
 The electronic state is 1-A.
 Alpha  occ. eigenvalues --  -19.12514 -19.07497 -14.40611 -10.29036 -10.26554
 Alpha  occ. eigenvalues --  -10.21899  -1.02579  -0.98336  -0.90188  -0.78213
 Alpha  occ. eigenvalues --   -0.68168  -0.60260  -0.53318  -0.49909  -0.48424
 Alpha  occ. eigenvalues --   -0.44374  -0.43331  -0.42500  -0.37967  -0.36440
 Alpha  occ. eigenvalues --   -0.31638  -0.26682  -0.23645  -0.21009
 Alpha virt. eigenvalues --   -0.05655   0.03406   0.09098   0.10363   0.10901
 Alpha virt. eigenvalues --    0.13056   0.15573   0.16835   0.20894   0.22491
 Alpha virt. eigenvalues --    0.25722   0.29133   0.37181   0.51834   0.51963
 Alpha virt. eigenvalues --    0.54563   0.58083   0.60778   0.64950   0.66218
 Alpha virt. eigenvalues --    0.69319   0.71505   0.75678   0.76827   0.80042
 Alpha virt. eigenvalues --    0.81156   0.86166   0.89975   0.91035   0.92041
 Alpha virt. eigenvalues --    0.93178   0.94497   1.01559   1.07322   1.11878
 Alpha virt. eigenvalues --    1.15988   1.18396   1.20790   1.32428   1.34060
 Alpha virt. eigenvalues --    1.45588   1.58898   1.74999   1.97150
          Condensed to atoms (all electrons):
               1          2          3          4          5          6
     1  N    7.109619   0.073424   0.375131   0.002448  -0.086092  -0.065650
     2  H    0.073424   0.464669  -0.056994   0.006625   0.005295  -0.019635
     3  C    0.375131  -0.056994   5.316313  -0.110350   0.290889   0.075156
     4  H    0.002448   0.006625  -0.110350   0.698629  -0.003010   0.381496
     5  C   -0.086092   0.005295   0.290889  -0.003010   5.206070  -0.043690
     6  C   -0.065650  -0.019635   0.075156   0.381496  -0.043690   5.008050
     7  H   -0.004150  -0.000141  -0.033468  -0.000060   0.359267   0.003124
     8  H    0.001276  -0.000086  -0.033599   0.001082   0.362540  -0.000142
     9  H    0.001868  -0.000028  -0.030766   0.003348   0.363454   0.000278
    10  O   -0.068123   0.168673  -0.043344  -0.053517   0.003588   0.291216
    11  H    0.302982   0.001657  -0.043905  -0.000215  -0.001445   0.006574
    12  O   -0.000251   0.002785  -0.059119  -0.074039  -0.003984   0.150322
    13  H    0.000838   0.000432  -0.000886   0.009791  -0.000664  -0.020463
               7          8          9         10         11         12
     1  N   -0.004150   0.001276   0.001868  -0.068123   0.302982  -0.000251
     2  H   -0.000141  -0.000086  -0.000028   0.168673   0.001657   0.002785
     3  C   -0.033468  -0.033599  -0.030766  -0.043344  -0.043905  -0.059119
     4  H   -0.000060   0.001082   0.003348  -0.053517  -0.000215  -0.074039
     5  C    0.359267   0.362540   0.363454   0.003588  -0.001445  -0.003984
     6  C    0.003124  -0.000142   0.000278   0.291216   0.006574   0.150322
     7  H    0.577854  -0.024538  -0.027637  -0.000060   0.004866   0.000046
     8  H   -0.024538   0.481056  -0.020733   0.000196  -0.000168   0.011898
     9  H   -0.027637  -0.020733   0.520735   0.000016  -0.000025   0.000016
    10  O   -0.000060   0.000196   0.000016   8.382895   0.001259  -0.082700
    11  H    0.004866  -0.000168  -0.000025   0.001259   0.411483  -0.000189
    12  O    0.000046   0.011898   0.000016  -0.082700  -0.000189   8.440773
    13  H    0.000005  -0.000061   0.000020   0.016333  -0.000009   0.212693
              13
     1  N    0.000838
     2  H    0.000432
     3  C   -0.000886
     4  H    0.009791
     5  C   -0.000664
     6  C   -0.020463
     7  H    0.000005
     8  H   -0.000061
     9  H    0.000020
    10  O    0.016333
    11  H   -0.000009
    12  O    0.212693
    13  H    0.423909
 Mulliken charges:
               1
     1  N   -0.643321
     2  H    0.353326
     3  C    0.354941
     4  H    0.137772
     5  C   -0.452218
     6  C    0.233364
     7  H    0.144892
     8  H    0.221278
     9  H    0.189453
    10  O   -0.616432
    11  H    0.317134
    12  O   -0.598250
    13  H    0.358061
 Sum of Mulliken charges =   0.00000
 Mulliken charges with hydrogens summed into heavy atoms:
               1
     1  N    0.027139
     3  C    0.354941
     5  C    0.103405
     6  C    0.371136
    10  O   -0.616432
    12  O   -0.240189
 APT charges:
               1
     1  N   -0.806720
     2  H    0.385999
     3  C    0.326673
     4  H    0.402453
     5  C   -1.235440
     6  C   -0.307047
     7  H    0.482010
     8  H    0.401318
     9  H    0.451333
    10  O   -0.613984
    11  H    0.676003
    12  O   -0.711046
    13  H    0.548448
 Sum of APT charges =   0.00000
 APT charges with hydrogens summed into heavy atoms:
               1
     1  N    0.255283
     3  C    0.326673
     5  C    0.099220
     6  C    0.095406
    10  O   -0.613984
    12  O   -0.162598
 Electronic spatial extent (au):  <R**2>=            584.8311
 Charge=              0.0000 electrons
 Dipole moment (field-independent basis, Debye):
    X=             -5.9206    Y=              0.4559    Z=             -1.0628  Tot=              6.0324
 Quadrupole moment (field-independent basis, Debye-Ang):
   XX=            -36.4015   YY=            -38.3579   ZZ=            -33.9796
   XY=             -3.6138   XZ=             -2.1571   YZ=             -2.3683
 Traceless Quadrupole moment (field-independent basis, Debye-Ang):
   XX=             -0.1552   YY=             -2.1116   ZZ=              2.2667
   XY=             -3.6138   XZ=             -2.1571   YZ=             -2.3683
 Octapole moment (field-independent basis, Debye-Ang**2):
  XXX=            -15.0512  YYY=             10.5644  ZZZ=             -3.0199  XYY=            -10.2339
  XXY=             -3.4661  XXZ=             -9.0940  XZZ=              3.8482  YZZ=             -3.1911
  YYZ=             -3.3318  XYZ=              2.3411
 Hexadecapole moment (field-independent basis, Debye-Ang**3):
 XXXX=           -384.7986 YYYY=           -254.5994 ZZZZ=            -67.6712 XXXY=            -31.8799
 XXXZ=             -7.9945 YYYX=             -1.9296 YYYZ=             -5.2354 ZZZX=             -6.8343
 ZZZY=              2.0461 XXYY=           -102.8206 XXZZ=            -69.1514 YYZZ=            -52.4157
 XXYZ=             -3.6012 YYXZ=              0.6658 ZZXY=             -5.8830
 N-N= 2.466189759922D+02 E-N=-1.251050233365D+03  KE= 3.215301294583D+02
  Exact polarizability:   0.000   0.000   0.000   0.000   0.000   0.000
 Approx polarizability:  71.486  -4.689  85.633   2.918 -10.435  46.715
 Calling FoFJK, ICntrl=    100147 FMM=F ISym2X=0 I1Cent= 0 IOpClX= 0 NMat=1 NMatS=1 NMatT=0.
 ***** Axes restored to original set *****
 -------------------------------------------------------------------
 Center     Atomic                   Forces (Hartrees/Bohr)
 Number     Number              X              Y              Z
 -------------------------------------------------------------------
      1        7           0.019160199   -0.001860248    0.002562497
      2        1          -0.006656327   -0.029920499    0.010898101
      3        6           0.000562383   -0.023136417    0.005594816
      4        1          -0.006330408   -0.003694025    0.002776416
      5        6          -0.003936846    0.009633508   -0.003207040
      6        6           0.038480108    0.027749149    0.000692760
      7        1          -0.001837626   -0.001483008    0.000206952
      8        1           0.002240154    0.001214618    0.000184163
      9        1           0.001679816    0.001045530   -0.000502716
     10        8          -0.044717314    0.015954629   -0.013746681
     11        1           0.010588767    0.011234235   -0.002638685
     12        8          -0.010435416   -0.010540487   -0.005085437
     13        1           0.001202511    0.003803014    0.002264854
 -------------------------------------------------------------------
 Cartesian Forces:  Max     0.044717314 RMS     0.013779640
 FormGI is forming the generalized inverse of G from B-inverse, IUseBI=4.

 GradGradGradGradGradGradGradGradGradGradGradGradGradGradGradGradGradGrad
 Berny optimization.
 Internal  Forces:  Max     0.109868732 RMS     0.026109279
 Search for a saddle point.
 Step number   1 out of a maximum of   60
 All quantities printed in internal units (Hartrees-Bohrs-Radians)
 Swapping is turned off.
 Second derivative matrix not updated -- analytic derivatives used.
 ITU=  0
     Eigenvalues ---   -0.28922   0.00132   0.00398   0.00680   0.01234
     Eigenvalues ---    0.01529   0.05777   0.06046   0.06508   0.07982
     Eigenvalues ---    0.09043   0.11079   0.12631   0.13938   0.14221
     Eigenvalues ---    0.14405   0.17208   0.18070   0.18272   0.21026
     Eigenvalues ---    0.24035   0.28514   0.31099   0.32168   0.32788
     Eigenvalues ---    0.33984   0.34572   0.34958   0.35665   0.42534
     Eigenvalues ---    0.47631   0.48181   0.76312
 Eigenvectors required to have negative eigenvalues:
                          R1        A1        A5        A2        A14
   1                    0.68188  -0.35661  -0.34851   0.29067  -0.23109
                          A4        A6        R10       A15       D17
   1                    0.20572   0.14273   0.12910   0.12550  -0.11428
 RFO step:  Lambda0=3.167554803D-02 Lambda=-7.04941083D-02.
 Linear search not attempted -- option 19 set.
 Maximum step size (   0.300) exceeded in Quadratic search.
    -- Step size scaled by   0.540
 Iteration  1 RMS(Cart)=  0.04978284 RMS(Int)=  0.00683009
 Iteration  2 RMS(Cart)=  0.00651285 RMS(Int)=  0.00019390
 Iteration  3 RMS(Cart)=  0.00000285 RMS(Int)=  0.00019388
 Iteration  4 RMS(Cart)=  0.00000000 RMS(Int)=  0.00019388
 Variable       Old X    -DE/DX   Delta X   Delta X   Delta X     New X
                                 (Linear)    (Quad)   (Total)
    R1        2.55257  -0.01411   0.00000  -0.24686  -0.24686   2.30570
    R2        2.42755  -0.02426   0.00000   0.00415   0.00415   2.43170
    R3        1.93774  -0.00542   0.00000  -0.01163  -0.01163   1.92612
    R4        2.83466  -0.00587   0.00000  -0.01796  -0.01796   2.81670
    R5        2.89603  -0.03347   0.00000   0.00573   0.00573   2.90177
    R6        2.06808   0.00365   0.00000   0.00718   0.00718   2.07526
    R7        2.06751   0.00099   0.00000   0.00025   0.00025   2.06776
    R8        2.06961  -0.00056   0.00000   0.00011   0.00011   2.06972
    R9        2.07454  -0.00096   0.00000  -0.00080  -0.00080   2.07374
   R10        2.67368  -0.01585   0.00000  -0.04970  -0.04970   2.62398
   R11        2.75198   0.00481   0.00000   0.02315   0.02315   2.77513
   R12        1.85275   0.00044   0.00000   0.00210   0.00210   1.85486
    A1        1.75907  -0.05923   0.00000   0.02668   0.02667   1.78574
    A2        2.50056   0.01545   0.00000  -0.08585  -0.08586   2.41471
    A3        2.02195   0.04381   0.00000   0.05939   0.05938   2.08134
    A4        2.23337   0.04649   0.00000   0.00788   0.00788   2.24125
    A5        2.00787  -0.10987   0.00000  -0.06746  -0.06746   1.94041
    A6        2.04143   0.06337   0.00000   0.05948   0.05948   2.10091
    A7        1.95162   0.00470   0.00000   0.01447   0.01449   1.96611
    A8        1.90785  -0.00394   0.00000  -0.01193  -0.01195   1.89590
    A9        1.92798  -0.00289   0.00000  -0.00732  -0.00735   1.92063
   A10        1.91239   0.00047   0.00000   0.00282   0.00285   1.91524
   A11        1.89549  -0.00001   0.00000   0.00137   0.00138   1.89687
   A12        1.86651   0.00157   0.00000   0.00009   0.00000   1.86651
   A13        1.94258   0.00899   0.00000  -0.00520  -0.00531   1.93727
   A14        1.92434  -0.06532   0.00000  -0.03243  -0.03234   1.89199
   A15        1.88481   0.00688   0.00000  -0.03310  -0.03338   1.85142
   A16        1.92623   0.02299   0.00000   0.03884   0.03853   1.96476
   A17        1.84739   0.00007   0.00000   0.00130   0.00082   1.84821
   A18        1.93693   0.02973   0.00000   0.03109   0.03036   1.96729
   A19        1.86384  -0.00803   0.00000  -0.02509  -0.02509   1.83875
    D1       -3.09247  -0.00218   0.00000  -0.00201  -0.00207  -3.09454
    D2        0.01318  -0.00176   0.00000  -0.00432  -0.00426   0.00893
    D3        0.00267  -0.00155   0.00000  -0.00227  -0.00233   0.00033
    D4        3.10832  -0.00112   0.00000  -0.00458  -0.00452   3.10380
    D5        0.03064  -0.00118   0.00000  -0.00126  -0.00128   0.02936
    D6        2.15140  -0.00020   0.00000   0.00364   0.00356   2.15496
    D7       -2.08257  -0.00235   0.00000  -0.00773  -0.00772  -2.09029
    D8       -3.07442   0.00144   0.00000   0.00335   0.00340  -3.07102
    D9       -0.95366   0.00243   0.00000   0.00825   0.00823  -0.94543
   D10        1.09556   0.00027   0.00000  -0.00312  -0.00305   1.09251
   D11        2.16565  -0.00751   0.00000   0.01847   0.01834   2.18400
   D12        0.02200   0.00279   0.00000  -0.00475  -0.00441   0.01759
   D13       -2.09692   0.00157   0.00000  -0.00234  -0.00252  -2.09944
   D14       -1.00773  -0.00700   0.00000   0.01566   0.01551  -0.99222
   D15        3.13180   0.00330   0.00000  -0.00756  -0.00724   3.12456
   D16        1.01288   0.00208   0.00000  -0.00515  -0.00535   1.00753
   D17        1.79941  -0.02314   0.00000   0.00406   0.00373   1.80314
   D18       -2.40176  -0.00910   0.00000  -0.01813  -0.01840  -2.42017
   D19       -0.31167   0.03482   0.00000   0.04633   0.04693  -0.26474
         Item               Value     Threshold  Converged?
 Maximum Force            0.109869     0.000450     NO 
 RMS     Force            0.026109     0.000300     NO 
 Maximum Displacement     0.176981     0.001800     NO 
 RMS     Displacement     0.052720     0.001200     NO 
 Predicted change in Energy=-1.712597D-02
 GradGradGradGradGradGradGradGradGradGradGradGradGradGradGradGradGradGrad

                          Input orientation:                          
 ---------------------------------------------------------------------
 Center     Atomic      Atomic             Coordinates (Angstroms)
 Number     Number       Type             X           Y           Z
 ---------------------------------------------------------------------
      1          7           0       -0.140312    1.192378   -0.161784
      2          1           0        1.034019    1.518543   -0.104594
      3          6           0       -0.106346   -0.027965    0.244992
      4          1           0        1.377763   -0.841124    1.626516
      5          6           0       -1.230631   -1.000969    0.349561
      6          6           0        1.325371   -0.454750    0.599885
      7          1           0       -2.180940   -0.585946    0.000330
      8          1           0       -0.978351   -1.891333   -0.236252
      9          1           0       -1.350663   -1.326558    1.390630
     10          8           0        2.169393    0.628512    0.394353
     11          1           0       -1.028203    1.592695   -0.462249
     12          8           0        1.639259   -1.592154   -0.274409
     13          1           0        2.223064   -1.228359   -0.974595
 ---------------------------------------------------------------------
                    Distance matrix (angstroms):
                    1          2          3          4          5
     1  N    0.000000
     2  H    1.220126   0.000000
     3  C    1.286801   1.953031   0.000000
     4  H    3.104465   2.946681   2.184586   0.000000
     5  C    2.502207   3.418017   1.490533   2.908588   0.000000
     6  C    2.332681   2.115434   1.535548   1.098181   2.625674
     7  H    2.711620   3.843936   2.162208   3.920965   1.094210
     8  H    3.196424   3.961593   2.112848   3.181842   1.095248
     9  H    3.196870   4.002125   2.132406   2.781294   1.097378
    10  O    2.441715   1.526491   2.373238   2.074785   3.770594
    11  H    1.019256   2.094320   1.994129   4.009375   2.725272
    12  O    3.306536   3.173577   2.400751   2.060569   2.995848
    13  H    3.479393   3.117081   2.890413   2.762293   3.705820
                    6          7          8          9         10
     6  C    0.000000
     7  H    3.559620   0.000000
     8  H    2.840780   1.790594   0.000000
     9  H    2.923437   1.780674   1.761911   0.000000
    10  O    1.388551   4.533824   4.081124   4.147970   0.000000
    11  H    3.295371   2.507839   3.491706   3.472633   3.447903
    12  O    1.468538   3.960033   2.634928   3.432569   2.379001
    13  H    1.970611   4.556141   3.351678   4.286660   2.307568
                   11         12         13
    11  H    0.000000
    12  O    4.158594   0.000000
    13  H    4.334926   0.981547   0.000000
 Stoichiometry    C3H7NO2
 Framework group  C1[X(C3H7NO2)]
 Deg. of freedom    33
 Full point group                 C1      NOp   1
 Largest Abelian subgroup         C1      NOp   1
 Largest concise Abelian subgroup C1      NOp   1
                         Standard orientation:                         
 ---------------------------------------------------------------------
 Center     Atomic      Atomic             Coordinates (Angstroms)
 Number     Number       Type             X           Y           Z
 ---------------------------------------------------------------------
      1          7           0       -0.722629    1.428238   -0.332701
      2          1           0        0.453023    1.747027   -0.262528
      3          6           0       -0.699847    0.205573    0.067835
      4          1           0        0.766053   -0.623809    1.459122
      5          6           0       -1.830866   -0.761193    0.156424
      6          6           0        0.725826   -0.231690    0.434121
      7          1           0       -2.775286   -0.338617   -0.199657
      8          1           0       -1.578286   -1.649939   -0.431711
      9          1           0       -1.962828   -1.091569    1.194536
     10          8           0        1.578226    0.847552    0.242485
     11          1           0       -1.605191    1.835475   -0.639500
     12          8           0        1.041307   -1.366309   -0.443212
     13          1           0        1.633967   -1.002324   -1.135818
 ---------------------------------------------------------------------
 Rotational constants (GHZ):      4.8723480      3.3532588      2.2275693
 Standard basis: 6-31G (6D, 7F)
 There are    68 symmetry adapted cartesian basis functions of A   symmetry.
 There are    68 symmetry adapted basis functions of A   symmetry.
    68 basis functions,   160 primitive gaussians,    68 cartesian basis functions
    24 alpha electrons       24 beta electrons
       nuclear repulsion energy       248.4315426097 Hartrees.
 NAtoms=   13 NActive=   13 NUniq=   13 SFac= 1.00D+00 NAtFMM=   60 NAOKFM=F Big=F
 Integral buffers will be    131072 words long.
 Raffenetti 2 integral format.
 Two-electron integral symmetry is turned on.
 One-electron integrals computed using PRISM.
 NBasis=    68 RedAO= T EigKep=  3.63D-03  NBF=    68
 NBsUse=    68 1.00D-06 EigRej= -1.00D+00 NBFU=    68
 Initial guess from the checkpoint file:  "Ala-S-opt-freq-tsb2-6-31g.chk"
 B after Tr=     0.000000    0.000000    0.000000
         Rot=    0.999891    0.002577    0.003530    0.014137 Ang=   1.70 deg.
 ExpMin= 1.61D-01 ExpMax= 5.48D+03 ExpMxC= 8.25D+02 IAcc=1 IRadAn=         1 AccDes= 0.00D+00
 Harris functional with IExCor=  402 and IRadAn=       1 diagonalized for initial guess.
 HarFok:  IExCor=  402 AccDes= 0.00D+00 IRadAn=         1 IDoV= 1 UseB2=F ITyADJ=14
 ICtDFT=  3500011 ScaDFX=  1.000000  1.000000  1.000000  1.000000
 FoFCou: FMM=F IPFlag=           0 FMFlag=      100000 FMFlg1=           0
         NFxFlg=           0 DoJE=T BraDBF=F KetDBF=T FulRan=T
         wScrn=  0.000000 ICntrl=     500 IOpCl=  0 I1Cent=   200000004 NGrid=           0
         NMat0=    1 NMatS0=      1 NMatT0=    0 NMatD0=    1 NMtDS0=    0 NMtDT0=    0
 Petite list used in FoFCou.
 Keep R1 ints in memory in canonical form, NReq=3676491.
 Requested convergence on RMS density matrix=1.00D-08 within 128 cycles.
 Requested convergence on MAX density matrix=1.00D-06.
 Requested convergence on             energy=1.00D-06.
 No special actions if energy rises.
 Integral accuracy reduced to 1.0D-05 until final iterations.
 Initial convergence to 1.0D-05 achieved.  Increase integral accuracy.
 SCF Done:  E(RB3LYP) =  -323.573544085     A.U. after   14 cycles
            NFock= 14  Conv=0.42D-08     -V/T= 2.0058
 Calling FoFJK, ICntrl=      2127 FMM=F ISym2X=0 I1Cent= 0 IOpClX= 0 NMat=1 NMatS=1 NMatT=0.
 ***** Axes restored to original set *****
 -------------------------------------------------------------------
 Center     Atomic                   Forces (Hartrees/Bohr)
 Number     Number              X              Y              Z
 -------------------------------------------------------------------
      1        7           0.003750646   -0.000430276   -0.000172524
      2        1          -0.002541425   -0.015386812    0.006238575
      3        6          -0.000993760   -0.013850484    0.004040340
      4        1          -0.003892643   -0.003257629    0.001024473
      5        6          -0.002635908    0.006775032   -0.002371300
      6        6           0.026254268    0.017601302    0.002422631
      7        1          -0.000953482   -0.000960435    0.000100526
      8        1           0.001445428    0.000443390    0.000322790
      9        1           0.001128335    0.000301136   -0.000268375
     10        8          -0.022916008    0.006254628   -0.007371476
     11        1           0.007022797    0.007122420   -0.001993222
     12        8          -0.007066576   -0.006627586   -0.003764823
     13        1           0.001398327    0.002015313    0.001792384
 -------------------------------------------------------------------
 Cartesian Forces:  Max     0.026254268 RMS     0.007911963

 GradGradGradGradGradGradGradGradGradGradGradGradGradGradGradGradGradGrad
 Berny optimization.
 FormGI is forming the generalized inverse of G from B-inverse, IUseBI=4.
 Internal  Forces:  Max     0.053085313 RMS     0.012684210
 Search for a saddle point.
 Step number   2 out of a maximum of   60
 All quantities printed in internal units (Hartrees-Bohrs-Radians)
 Swapping is turned off.
 Update second derivatives using D2CorX and points    1    2
 ITU=  0  0
     Eigenvalues ---   -0.30248   0.00132   0.00394   0.00680   0.01234
     Eigenvalues ---    0.01520   0.05776   0.06040   0.06498   0.07989
     Eigenvalues ---    0.08974   0.11077   0.12629   0.13987   0.14277
     Eigenvalues ---    0.14420   0.17154   0.18160   0.18913   0.21409
     Eigenvalues ---    0.24024   0.30708   0.31103   0.32320   0.33925
     Eigenvalues ---    0.33984   0.34644   0.34978   0.35852   0.42562
     Eigenvalues ---    0.47640   0.49032   0.76407
 Eigenvectors required to have negative eigenvalues:
                          R1        A1        A5        A2        A14
   1                    0.68291  -0.35372  -0.34435   0.29553  -0.23046
                          A4        A6        R10       A15       D17
   1                    0.20612   0.13820   0.13139   0.13051  -0.11580
 RFO step:  Lambda0=7.233403706D-03 Lambda=-1.88992506D-02.
 Linear search not attempted -- option 19 set.
 Iteration  1 RMS(Cart)=  0.05594274 RMS(Int)=  0.00258655
 Iteration  2 RMS(Cart)=  0.00298869 RMS(Int)=  0.00042036
 Iteration  3 RMS(Cart)=  0.00000285 RMS(Int)=  0.00042035
 Iteration  4 RMS(Cart)=  0.00000000 RMS(Int)=  0.00042035
 Variable       Old X    -DE/DX   Delta X   Delta X   Delta X     New X
                                 (Linear)    (Quad)   (Total)
    R1        2.30570  -0.00627   0.00000  -0.19247  -0.19247   2.11324
    R2        2.43170  -0.00975   0.00000   0.00555   0.00555   2.43725
    R3        1.92612  -0.00273   0.00000  -0.01387  -0.01387   1.91224
    R4        2.81670  -0.00367   0.00000  -0.02280  -0.02280   2.79390
    R5        2.90177  -0.01160   0.00000   0.03852   0.03852   2.94029
    R6        2.07526   0.00192   0.00000   0.00618   0.00618   2.08144
    R7        2.06776   0.00043   0.00000  -0.00086  -0.00086   2.06689
    R8        2.06972  -0.00020   0.00000   0.00096   0.00096   2.07068
    R9        2.07374  -0.00047   0.00000  -0.00016  -0.00016   2.07359
   R10        2.62398  -0.00796   0.00000  -0.06128  -0.06128   2.56270
   R11        2.77513   0.00353   0.00000   0.03862   0.03862   2.81376
   R12        1.85486   0.00030   0.00000   0.00259   0.00259   1.85744
    A1        1.78574  -0.03013   0.00000   0.01602   0.01601   1.80175
    A2        2.41471   0.00566   0.00000  -0.11227  -0.11229   2.30242
    A3        2.08134   0.02449   0.00000   0.09532   0.09530   2.17664
    A4        2.24125   0.02114   0.00000   0.00305   0.00299   2.24425
    A5        1.94041  -0.05309   0.00000  -0.06871  -0.06875   1.87166
    A6        2.10091   0.03193   0.00000   0.06496   0.06487   2.16578
    A7        1.96611   0.00287   0.00000   0.01881   0.01882   1.98494
    A8        1.89590  -0.00235   0.00000  -0.01651  -0.01656   1.87934
    A9        1.92063  -0.00165   0.00000  -0.00725  -0.00734   1.91329
   A10        1.91524   0.00034   0.00000   0.00539   0.00545   1.92069
   A11        1.89687   0.00008   0.00000   0.00408   0.00405   1.90092
   A12        1.86651   0.00062   0.00000  -0.00572  -0.00589   1.86062
   A13        1.93727   0.00410   0.00000  -0.00566  -0.00632   1.93096
   A14        1.89199  -0.03077   0.00000  -0.02193  -0.02204   1.86995
   A15        1.85142   0.00110   0.00000  -0.06607  -0.06700   1.78442
   A16        1.96476   0.01196   0.00000   0.06331   0.06295   2.02771
   A17        1.84821   0.00011   0.00000  -0.00377  -0.00504   1.84317
   A18        1.96729   0.01406   0.00000   0.02712   0.02563   1.99291
   A19        1.83875  -0.00464   0.00000  -0.03345  -0.03345   1.80530
    D1       -3.09454  -0.00146   0.00000   0.00882   0.00836  -3.08618
    D2        0.00893  -0.00144   0.00000  -0.01174  -0.01128  -0.00235
    D3        0.00033  -0.00096   0.00000  -0.01090  -0.01136  -0.01103
    D4        3.10380  -0.00095   0.00000  -0.03146  -0.03100   3.07280
    D5        0.02936  -0.00066   0.00000  -0.00858  -0.00882   0.02055
    D6        2.15496   0.00001   0.00000  -0.00098  -0.00135   2.15361
    D7       -2.09029  -0.00154   0.00000  -0.02149  -0.02169  -2.11198
    D8       -3.07102   0.00094   0.00000   0.01630   0.01660  -3.05442
    D9       -0.94543   0.00160   0.00000   0.02390   0.02407  -0.92135
   D10        1.09251   0.00005   0.00000   0.00340   0.00373   1.09624
   D11        2.18400  -0.00242   0.00000   0.05953   0.05912   2.24311
   D12        0.01759   0.00100   0.00000  -0.00132  -0.00068   0.01691
   D13       -2.09944   0.00033   0.00000   0.01570   0.01547  -2.08398
   D14       -0.99222  -0.00247   0.00000   0.03963   0.03922  -0.95300
   D15        3.12456   0.00095   0.00000  -0.02122  -0.02057   3.10399
   D16        1.00753   0.00028   0.00000  -0.00420  -0.00443   1.00310
   D17        1.80314  -0.01039   0.00000   0.04926   0.04859   1.85172
   D18       -2.42017  -0.00512   0.00000   0.00953   0.00956  -2.41061
   D19       -0.26474   0.01858   0.00000   0.10272   0.10337  -0.16137
         Item               Value     Threshold  Converged?
 Maximum Force            0.053085     0.000450     NO 
 RMS     Force            0.012684     0.000300     NO 
 Maximum Displacement     0.202442     0.001800     NO 
 RMS     Displacement     0.056182     0.001200     NO 
 Predicted change in Energy=-6.557461D-03
 GradGradGradGradGradGradGradGradGradGradGradGradGradGradGradGradGradGrad

                          Input orientation:                          
 ---------------------------------------------------------------------
 Center     Atomic      Atomic             Coordinates (Angstroms)
 Number     Number       Type             X           Y           Z
 ---------------------------------------------------------------------
      1          7           0       -0.109001    1.156100   -0.153148
      2          1           0        0.969048    1.446375   -0.089134
      3          6           0       -0.112298   -0.062286    0.269875
      4          1           0        1.421168   -0.850681    1.636990
      5          6           0       -1.247544   -1.005538    0.355632
      6          6           0        1.357784   -0.432851    0.619840
      7          1           0       -2.191479   -0.592723   -0.011609
      8          1           0       -0.980649   -1.900432   -0.217618
      9          1           0       -1.381096   -1.327829    1.395991
     10          8           0        2.115632    0.664930    0.375684
     11          1           0       -0.921075    1.645570   -0.506594
     12          8           0        1.623031   -1.573943   -0.299186
     13          1           0        2.209901   -1.183723   -0.984340
 ---------------------------------------------------------------------
                    Distance matrix (angstroms):
                    1          2          3          4          5
     1  N    0.000000
     2  H    1.118278   0.000000
     3  C    1.289738   1.890570   0.000000
     4  H    3.094056   2.908674   2.200475   0.000000
     5  C    2.495560   3.335113   1.478466   2.964437   0.000000
     6  C    2.296461   2.045789   1.555935   1.101451   2.680580
     7  H    2.723074   3.762029   2.164160   3.979402   1.093752
     8  H    3.179044   3.875429   2.090566   3.210962   1.095757
     9  H    3.191859   3.927465   2.116503   2.852795   1.097294
    10  O    2.338782   1.463341   2.345999   2.090515   3.755240
    11  H    1.011914   1.945897   2.042988   4.038852   2.806847
    12  O    3.236417   3.097440   2.370717   2.076688   2.998678
    13  H    3.397493   3.042783   2.867627   2.757606   3.712304
                    6          7          8          9         10
     6  C    0.000000
     7  H    3.608538   0.000000
     8  H    2.885030   1.794060   0.000000
     9  H    2.984101   1.782817   1.758400   0.000000
    10  O    1.356124   4.503653   4.064487   4.152015   0.000000
    11  H    3.283578   2.620857   3.558257   3.559853   3.310840
    12  O    1.488977   3.949174   2.625337   3.458175   2.389698
    13  H    1.965529   4.546166   3.358741   4.310685   2.296970
                   11         12         13
    11  H    0.000000
    12  O    4.108620   0.000000
    13  H    4.246899   0.982917   0.000000
 Stoichiometry    C3H7NO2
 Framework group  C1[X(C3H7NO2)]
 Deg. of freedom    33
 Full point group                 C1      NOp   1
 Largest Abelian subgroup         C1      NOp   1
 Largest concise Abelian subgroup C1      NOp   1
                         Standard orientation:                         
 ---------------------------------------------------------------------
 Center     Atomic      Atomic             Coordinates (Angstroms)
 Number     Number       Type             X           Y           Z
 ---------------------------------------------------------------------
      1          7           0       -0.615439    1.420153   -0.335555
      2          1           0        0.475476    1.651317   -0.251816
      3          6           0       -0.692643    0.203657    0.085874
      4          1           0        0.770771   -0.667325    1.479395
      5          6           0       -1.878888   -0.676437    0.150067
      6          6           0        0.748554   -0.246438    0.461773
      7          1           0       -2.792192   -0.212784   -0.233593
      8          1           0       -1.650788   -1.584402   -0.419368
      9          1           0       -2.048504   -0.991214    1.187468
     10          8           0        1.569284    0.808530    0.232606
     11          1           0       -1.393179    1.953169   -0.702958
     12          8           0        0.967845   -1.400068   -0.453706
     13          1           0        1.587329   -1.042211   -1.127726
 ---------------------------------------------------------------------
 Rotational constants (GHZ):      4.9170573      3.3981309      2.2670917
 Standard basis: 6-31G (6D, 7F)
 There are    68 symmetry adapted cartesian basis functions of A   symmetry.
 There are    68 symmetry adapted basis functions of A   symmetry.
    68 basis functions,   160 primitive gaussians,    68 cartesian basis functions
    24 alpha electrons       24 beta electrons
       nuclear repulsion energy       250.0496268880 Hartrees.
 NAtoms=   13 NActive=   13 NUniq=   13 SFac= 1.00D+00 NAtFMM=   60 NAOKFM=F Big=F
 Integral buffers will be    131072 words long.
 Raffenetti 2 integral format.
 Two-electron integral symmetry is turned on.
 One-electron integrals computed using PRISM.
 NBasis=    68 RedAO= T EigKep=  3.26D-03  NBF=    68
 NBsUse=    68 1.00D-06 EigRej= -1.00D+00 NBFU=    68
 Initial guess from the checkpoint file:  "Ala-S-opt-freq-tsb2-6-31g.chk"
 B after Tr=     0.000000    0.000000    0.000000
         Rot=    0.999776    0.001568    0.001595    0.021060 Ang=   2.43 deg.
 ExpMin= 1.61D-01 ExpMax= 5.48D+03 ExpMxC= 8.25D+02 IAcc=1 IRadAn=         1 AccDes= 0.00D+00
 Harris functional with IExCor=  402 and IRadAn=       1 diagonalized for initial guess.
 HarFok:  IExCor=  402 AccDes= 0.00D+00 IRadAn=         1 IDoV= 1 UseB2=F ITyADJ=14
 ICtDFT=  3500011 ScaDFX=  1.000000  1.000000  1.000000  1.000000
 FoFCou: FMM=F IPFlag=           0 FMFlag=      100000 FMFlg1=           0
         NFxFlg=           0 DoJE=T BraDBF=F KetDBF=T FulRan=T
         wScrn=  0.000000 ICntrl=     500 IOpCl=  0 I1Cent=   200000004 NGrid=           0
         NMat0=    1 NMatS0=      1 NMatT0=    0 NMatD0=    1 NMtDS0=    0 NMtDT0=    0
 Petite list used in FoFCou.
 Keep R1 ints in memory in canonical form, NReq=3676491.
 Requested convergence on RMS density matrix=1.00D-08 within 128 cycles.
 Requested convergence on MAX density matrix=1.00D-06.
 Requested convergence on             energy=1.00D-06.
 No special actions if energy rises.
 Integral accuracy reduced to 1.0D-05 until final iterations.
 Initial convergence to 1.0D-05 achieved.  Increase integral accuracy.
 SCF Done:  E(RB3LYP) =  -323.578303144     A.U. after   14 cycles
            NFock= 14  Conv=0.41D-08     -V/T= 2.0053
 Calling FoFJK, ICntrl=      2127 FMM=F ISym2X=0 I1Cent= 0 IOpClX= 0 NMat=1 NMatS=1 NMatT=0.
 ***** Axes restored to original set *****
 -------------------------------------------------------------------
 Center     Atomic                   Forces (Hartrees/Bohr)
 Number     Number              X              Y              Z
 -------------------------------------------------------------------
      1        7          -0.020386924   -0.001951691   -0.003781708
      2        1           0.012558875    0.003302216    0.001927489
      3        6           0.000241929    0.000373628    0.001522272
      4        1          -0.000208965   -0.000585964   -0.000317319
      5        6          -0.001243162    0.000679875   -0.000161352
      6        6           0.005360430    0.000109380    0.002080319
      7        1          -0.000137892   -0.000167809   -0.000096068
      8        1           0.000075767   -0.000128408    0.000157833
      9        1           0.000057646   -0.000186978   -0.000022922
     10        8           0.004316857   -0.000426356    0.000951609
     11        1          -0.000239399    0.001028103   -0.000831198
     12        8          -0.001617793   -0.001565473   -0.002140076
     13        1           0.001222633   -0.000480523    0.000711122
 -------------------------------------------------------------------
 Cartesian Forces:  Max     0.020386924 RMS     0.004168694

 GradGradGradGradGradGradGradGradGradGradGradGradGradGradGradGradGradGrad
 Berny optimization.
 FormGI is forming the generalized inverse of G from B-inverse, IUseBI=4.
 Internal  Forces:  Max     0.013075835 RMS     0.003346170
 Search for a saddle point.
 Step number   3 out of a maximum of   60
 All quantities printed in internal units (Hartrees-Bohrs-Radians)
 Swapping is turned off.
 Update second derivatives using D2CorX and points    2    3
 ITU=  0  0  0
     Eigenvalues ---   -0.31207   0.00049   0.00135   0.00680   0.01232
     Eigenvalues ---    0.01378   0.05756   0.05872   0.06200   0.07990
     Eigenvalues ---    0.08630   0.11041   0.12616   0.14003   0.14311
     Eigenvalues ---    0.14436   0.16957   0.18045   0.19269   0.21820
     Eigenvalues ---    0.23833   0.31026   0.31487   0.32339   0.33983
     Eigenvalues ---    0.34529   0.34940   0.35368   0.39199   0.42634
     Eigenvalues ---    0.47644   0.52211   0.76602
 Eigenvectors required to have negative eigenvalues:
                          R1        A5        A1        A2        A14
   1                    0.66422  -0.35215  -0.34991   0.30428  -0.23781
                          A4        A15       A6        R10       D17
   1                    0.21359   0.14244   0.13877   0.13511  -0.12820
 RFO step:  Lambda0=1.798651043D-06 Lambda=-3.96505268D-03.
 Linear search not attempted -- option 19 set.
 Iteration  1 RMS(Cart)=  0.06586695 RMS(Int)=  0.04273503
 Iteration  2 RMS(Cart)=  0.03701599 RMS(Int)=  0.00353765
 Iteration  3 RMS(Cart)=  0.00337704 RMS(Int)=  0.00052657
 Iteration  4 RMS(Cart)=  0.00001466 RMS(Int)=  0.00052648
 Iteration  5 RMS(Cart)=  0.00000000 RMS(Int)=  0.00052648
 Variable       Old X    -DE/DX   Delta X   Delta X   Delta X     New X
                                 (Linear)    (Quad)   (Total)
    R1        2.11324   0.01308   0.00000   0.11631   0.11631   2.22955
    R2        2.43725   0.00311   0.00000  -0.00402  -0.00402   2.43323
    R3        1.91224   0.00098   0.00000  -0.00358  -0.00358   1.90866
    R4        2.79390   0.00083   0.00000   0.00097   0.00097   2.79486
    R5        2.94029   0.00957   0.00000   0.03764   0.03764   2.97793
    R6        2.08144  -0.00008   0.00000  -0.00151  -0.00151   2.07993
    R7        2.06689   0.00009   0.00000  -0.00076  -0.00076   2.06613
    R8        2.07068   0.00004   0.00000   0.00078   0.00078   2.07146
    R9        2.07359   0.00002   0.00000   0.00063   0.00063   2.07422
   R10        2.56270   0.00189   0.00000  -0.02763  -0.02763   2.53507
   R11        2.81376   0.00238   0.00000   0.04706   0.04706   2.86081
   R12        1.85744   0.00004   0.00000   0.00043   0.00043   1.85788
    A1        1.80175  -0.00120   0.00000  -0.01705  -0.01775   1.78400
    A2        2.30242  -0.00017   0.00000  -0.04778  -0.04848   2.25394
    A3        2.17664   0.00143   0.00000   0.05995   0.05926   2.23590
    A4        2.24425  -0.00650   0.00000  -0.01457  -0.01531   2.22894
    A5        1.87166   0.01088   0.00000   0.01545   0.01458   1.88624
    A6        2.16578  -0.00440   0.00000  -0.00467  -0.00549   2.16029
    A7        1.98494   0.00033   0.00000   0.00466   0.00464   1.98958
    A8        1.87934  -0.00009   0.00000  -0.01341  -0.01341   1.86593
    A9        1.91329   0.00004   0.00000   0.00417   0.00414   1.91743
   A10        1.92069  -0.00007   0.00000   0.00386   0.00386   1.92455
   A11        1.90092  -0.00004   0.00000   0.00408   0.00404   1.90496
   A12        1.86062  -0.00020   0.00000  -0.00403  -0.00404   1.85658
   A13        1.93096  -0.00179   0.00000   0.01492   0.01375   1.94471
   A14        1.86995   0.00696   0.00000   0.03358   0.03173   1.90168
   A15        1.78442  -0.00297   0.00000  -0.09642  -0.09702   1.68740
   A16        2.02771  -0.00154   0.00000   0.03915   0.03802   2.06573
   A17        1.84317   0.00002   0.00000   0.00955   0.00940   1.85257
   A18        1.99291  -0.00108   0.00000  -0.01795  -0.01793   1.97499
   A19        1.80530   0.00026   0.00000  -0.03381  -0.03381   1.77149
    D1       -3.08618  -0.00091   0.00000   0.04095   0.04093  -3.04525
    D2       -0.00235  -0.00133   0.00000  -0.03174  -0.03182  -0.03417
    D3       -0.01103  -0.00009   0.00000  -0.02986  -0.02978  -0.04081
    D4        3.07280  -0.00051   0.00000  -0.10255  -0.10253   2.97028
    D5        0.02055   0.00007   0.00000  -0.03175  -0.03144  -0.01090
    D6        2.15361   0.00012   0.00000  -0.03345  -0.03317   2.12044
    D7       -2.11198  -0.00014   0.00000  -0.04339  -0.04311  -2.15508
    D8       -3.05442   0.00013   0.00000   0.05160   0.05132  -3.00310
    D9       -0.92135   0.00018   0.00000   0.04990   0.04960  -0.87176
   D10        1.09624  -0.00008   0.00000   0.03996   0.03966   1.13590
   D11        2.24311   0.00167   0.00000   0.13444   0.13514   2.37825
   D12        0.01691  -0.00011   0.00000   0.05086   0.05057   0.06748
   D13       -2.08398  -0.00047   0.00000   0.10340   0.10389  -1.98009
   D14       -0.95300   0.00116   0.00000   0.06538   0.06548  -0.88752
   D15        3.10399  -0.00063   0.00000  -0.01821  -0.01910   3.08489
   D16        1.00310  -0.00098   0.00000   0.03434   0.03422   1.03732
   D17        1.85172   0.00396   0.00000   0.35958   0.36025   2.21197
   D18       -2.41061   0.00076   0.00000   0.33963   0.34007  -2.07054
   D19       -0.16137  -0.00203   0.00000   0.38571   0.38460   0.22324
         Item               Value     Threshold  Converged?
 Maximum Force            0.013076     0.000450     NO 
 RMS     Force            0.003346     0.000300     NO 
 Maximum Displacement     0.232804     0.001800     NO 
 RMS     Displacement     0.074536     0.001200     NO 
 Predicted change in Energy=-2.962727D-03
 GradGradGradGradGradGradGradGradGradGradGradGradGradGradGradGradGradGrad

                          Input orientation:                          
 ---------------------------------------------------------------------
 Center     Atomic      Atomic             Coordinates (Angstroms)
 Number     Number       Type             X           Y           Z
 ---------------------------------------------------------------------
      1          7           0       -0.150125    1.155400   -0.158416
      2          1           0        0.987217    1.463624   -0.099775
      3          6           0       -0.131636   -0.044501    0.308309
      4          1           0        1.449439   -0.929974    1.603663
      5          6           0       -1.254739   -1.003995    0.381710
      6          6           0        1.364173   -0.420206    0.631913
      7          1           0       -2.199492   -0.613106   -0.005663
      8          1           0       -0.951720   -1.893345   -0.182936
      9          1           0       -1.398865   -1.330687    1.419637
     10          8           0        2.141414    0.648938    0.402880
     11          1           0       -0.922353    1.645895   -0.586456
     12          8           0        1.507306   -1.497149   -0.422380
     13          1           0        2.312801   -1.197925   -0.900103
 ---------------------------------------------------------------------
                    Distance matrix (angstroms):
                    1          2          3          4          5
     1  N    0.000000
     2  H    1.179825   0.000000
     3  C    1.287609   1.921668   0.000000
     4  H    3.164224   2.973998   2.227511   0.000000
     5  C    2.484933   3.368581   1.478978   2.968371   0.000000
     6  C    2.323845   2.055792   1.575855   1.100651   2.694831
     7  H    2.711246   3.804837   2.167468   4.000629   1.093348
     8  H    3.152460   3.877581   2.081366   3.144135   1.096171
     9  H    3.198473   3.976201   2.120187   2.882234   1.097630
    10  O    2.413029   1.499515   2.378352   2.100874   3.777101
    11  H    1.010020   1.979025   2.069607   4.130027   2.840729
    12  O    3.138912   3.023366   2.308728   2.104730   2.918674
    13  H    3.486294   3.079211   2.960730   2.661961   3.795787
                    6          7          8          9         10
     6  C    0.000000
     7  H    3.625386   0.000000
     8  H    2.863124   1.796489   0.000000
     9  H    3.013945   1.785331   1.756349   0.000000
    10  O    1.341503   4.539067   4.046463   4.181660   0.000000
    11  H    3.313819   2.659227   3.562290   3.620982   3.370367
    12  O    1.513878   3.833476   2.502222   3.444788   2.385128
    13  H    1.962604   4.637114   3.413948   4.378959   2.266725
                   11         12         13
    11  H    0.000000
    12  O    3.976039   0.000000
    13  H    4.318785   0.983146   0.000000
 Stoichiometry    C3H7NO2
 Framework group  C1[X(C3H7NO2)]
 Deg. of freedom    33
 Full point group                 C1      NOp   1
 Largest Abelian subgroup         C1      NOp   1
 Largest concise Abelian subgroup C1      NOp   1
                         Standard orientation:                         
 ---------------------------------------------------------------------
 Center     Atomic      Atomic             Coordinates (Angstroms)
 Number     Number       Type             X           Y           Z
 ---------------------------------------------------------------------
      1          7           0       -0.580908    1.425489   -0.363211
      2          1           0        0.578421    1.628671   -0.281601
      3          6           0       -0.684274    0.237825    0.123313
      4          1           0        0.777843   -0.765410    1.471474
      5          6           0       -1.892731   -0.612615    0.184648
      6          6           0        0.762506   -0.268017    0.489742
      7          1           0       -2.788092   -0.143596   -0.232196
      8          1           0       -1.660382   -1.536387   -0.357799
      9          1           0       -2.090324   -0.905388    1.223894
     10          8           0        1.640405    0.720568    0.262538
     11          1           0       -1.294378    1.977030   -0.818078
     12          8           0        0.829613   -1.372880   -0.543021
     13          1           0        1.670123   -1.158012   -1.005568
 ---------------------------------------------------------------------
 Rotational constants (GHZ):      4.9796631      3.3409211      2.3035235
 Standard basis: 6-31G (6D, 7F)
 There are    68 symmetry adapted cartesian basis functions of A   symmetry.
 There are    68 symmetry adapted basis functions of A   symmetry.
    68 basis functions,   160 primitive gaussians,    68 cartesian basis functions
    24 alpha electrons       24 beta electrons
       nuclear repulsion energy       249.6619421876 Hartrees.
 NAtoms=   13 NActive=   13 NUniq=   13 SFac= 1.00D+00 NAtFMM=   60 NAOKFM=F Big=F
 Integral buffers will be    131072 words long.
 Raffenetti 2 integral format.
 Two-electron integral symmetry is turned on.
 One-electron integrals computed using PRISM.
 NBasis=    68 RedAO= T EigKep=  3.49D-03  NBF=    68
 NBsUse=    68 1.00D-06 EigRej= -1.00D+00 NBFU=    68
 Initial guess from the checkpoint file:  "Ala-S-opt-freq-tsb2-6-31g.chk"
 B after Tr=     0.000000    0.000000    0.000000
         Rot=    0.999757   -0.003988   -0.004672    0.021178 Ang=  -2.53 deg.
 ExpMin= 1.61D-01 ExpMax= 5.48D+03 ExpMxC= 8.25D+02 IAcc=1 IRadAn=         1 AccDes= 0.00D+00
 Harris functional with IExCor=  402 and IRadAn=       1 diagonalized for initial guess.
 HarFok:  IExCor=  402 AccDes= 0.00D+00 IRadAn=         1 IDoV= 1 UseB2=F ITyADJ=14
 ICtDFT=  3500011 ScaDFX=  1.000000  1.000000  1.000000  1.000000
 FoFCou: FMM=F IPFlag=           0 FMFlag=      100000 FMFlg1=           0
         NFxFlg=           0 DoJE=T BraDBF=F KetDBF=T FulRan=T
         wScrn=  0.000000 ICntrl=     500 IOpCl=  0 I1Cent=   200000004 NGrid=           0
         NMat0=    1 NMatS0=      1 NMatT0=    0 NMatD0=    1 NMtDS0=    0 NMtDT0=    0
 Petite list used in FoFCou.
 Keep R1 ints in memory in canonical form, NReq=3676491.
 Requested convergence on RMS density matrix=1.00D-08 within 128 cycles.
 Requested convergence on MAX density matrix=1.00D-06.
 Requested convergence on             energy=1.00D-06.
 No special actions if energy rises.
 Integral accuracy reduced to 1.0D-05 until final iterations.
 Initial convergence to 1.0D-05 achieved.  Increase integral accuracy.
 SCF Done:  E(RB3LYP) =  -323.577593266     A.U. after   15 cycles
            NFock= 15  Conv=0.27D-08     -V/T= 2.0056
 Calling FoFJK, ICntrl=      2127 FMM=F ISym2X=0 I1Cent= 0 IOpClX= 0 NMat=1 NMatS=1 NMatT=0.
 ***** Axes restored to original set *****
 -------------------------------------------------------------------
 Center     Atomic                   Forces (Hartrees/Bohr)
 Number     Number              X              Y              Z
 -------------------------------------------------------------------
      1        7           0.018375726    0.006563615   -0.000691643
      2        1          -0.006489760   -0.005963495    0.002471167
      3        6           0.000558435    0.001544442   -0.002257827
      4        1           0.001674773    0.002912411    0.000555175
      5        6           0.000767423   -0.002114842    0.002718411
      6        6          -0.010954894   -0.008128862   -0.004173059
      7        1           0.000136576    0.000284586   -0.000077639
      8        1          -0.000782597    0.000062757   -0.000479990
      9        1          -0.000506406    0.000243662   -0.000068523
     10        8          -0.002823675    0.008760986    0.000801585
     11        1          -0.003376848   -0.001858116    0.001548856
     12        8           0.004284431   -0.000576567    0.001907178
     13        1          -0.000863184   -0.001730576   -0.002253690
 -------------------------------------------------------------------
 Cartesian Forces:  Max     0.018375726 RMS     0.004628233

 GradGradGradGradGradGradGradGradGradGradGradGradGradGradGradGradGradGrad
 Berny optimization.
 FormGI is forming the generalized inverse of G from B-inverse, IUseBI=4.
 Internal  Forces:  Max     0.015910349 RMS     0.004481955
 Search for a saddle point.
 Step number   4 out of a maximum of   60
 All quantities printed in internal units (Hartrees-Bohrs-Radians)
 Swapping is turned off.
 Update second derivatives using D2CorX and points    3    4
 ITU=  0  0  0  0
     Eigenvalues ---   -0.31020  -0.00068   0.00134   0.00691   0.01230
     Eigenvalues ---    0.01718   0.05773   0.06000   0.06350   0.07955
     Eigenvalues ---    0.08884   0.11030   0.12607   0.13994   0.14308
     Eigenvalues ---    0.14446   0.17004   0.18010   0.19319   0.21802
     Eigenvalues ---    0.23747   0.31015   0.31533   0.32411   0.33983
     Eigenvalues ---    0.34531   0.34939   0.35461   0.39676   0.42663
     Eigenvalues ---    0.47645   0.52662   0.76608
 Eigenvectors required to have negative eigenvalues:
                          R1        A1        A5        A2        A14
   1                    0.67426  -0.35097  -0.34889   0.29835  -0.23257
                          A4        A6        A15       R10       D19
   1                    0.21108   0.13790   0.13179   0.13129   0.09688
 RFO step:  Lambda0=6.421472808D-04 Lambda=-3.96048415D-03.
 Linear search not attempted -- option 19 set.
 Iteration  1 RMS(Cart)=  0.08813491 RMS(Int)=  0.05196522
 Iteration  2 RMS(Cart)=  0.04369973 RMS(Int)=  0.00531351
 Iteration  3 RMS(Cart)=  0.00455049 RMS(Int)=  0.00102850
 Iteration  4 RMS(Cart)=  0.00004080 RMS(Int)=  0.00102762
 Iteration  5 RMS(Cart)=  0.00000000 RMS(Int)=  0.00102762
 Variable       Old X    -DE/DX   Delta X   Delta X   Delta X     New X
                                 (Linear)    (Quad)   (Total)
    R1        2.22955  -0.00769   0.00000  -0.14792  -0.14792   2.08163
    R2        2.43323  -0.00250   0.00000   0.00914   0.00914   2.44237
    R3        1.90866   0.00102   0.00000   0.00777   0.00777   1.91643
    R4        2.79486   0.00139   0.00000   0.00557   0.00557   2.80043
    R5        2.97793  -0.00919   0.00000  -0.03227  -0.03227   2.94567
    R6        2.07993  -0.00073   0.00000   0.00217   0.00217   2.08210
    R7        2.06613   0.00001   0.00000   0.00199   0.00199   2.06812
    R8        2.07146  -0.00002   0.00000   0.00148   0.00148   2.07294
    R9        2.07422  -0.00007   0.00000  -0.00189  -0.00189   2.07233
   R10        2.53507   0.00521   0.00000   0.05162   0.05162   2.58670
   R11        2.86081   0.00221   0.00000  -0.01834  -0.01834   2.84248
   R12        1.85788  -0.00013   0.00000  -0.00453  -0.00453   1.85335
    A1        1.78400  -0.00483   0.00000   0.02715   0.02389   1.80789
    A2        2.25394   0.00603   0.00000   0.04486   0.04161   2.29554
    A3        2.23590  -0.00103   0.00000  -0.05292  -0.05618   2.17972
    A4        2.22894   0.00905   0.00000   0.00553   0.00426   2.23320
    A5        1.88624  -0.01591   0.00000  -0.00008  -0.00136   1.88488
    A6        2.16029   0.00700   0.00000   0.00540   0.00413   2.16442
    A7        1.98958  -0.00096   0.00000  -0.00738  -0.00738   1.98220
    A8        1.86593   0.00097   0.00000   0.01279   0.01276   1.87870
    A9        1.91743   0.00051   0.00000   0.00102   0.00097   1.91840
   A10        1.92455  -0.00041   0.00000  -0.01445  -0.01443   1.91012
   A11        1.90496  -0.00014   0.00000  -0.00110  -0.00112   1.90384
   A12        1.85658   0.00010   0.00000   0.01052   0.01044   1.86702
   A13        1.94471   0.00256   0.00000   0.00069  -0.00170   1.94301
   A14        1.90168  -0.01223   0.00000  -0.02465  -0.02609   1.87559
   A15        1.68740   0.00858   0.00000   0.06090   0.05984   1.74724
   A16        2.06573   0.00071   0.00000  -0.07644  -0.07768   1.98804
   A17        1.85257  -0.00137   0.00000   0.04704   0.04623   1.89880
   A18        1.97499   0.00370   0.00000   0.02152   0.02172   1.99670
   A19        1.77149   0.00521   0.00000   0.03191   0.03191   1.80340
    D1       -3.04525  -0.00146   0.00000  -0.10178  -0.10173   3.13620
    D2       -0.03417  -0.00011   0.00000  -0.01019  -0.01022  -0.04439
    D3       -0.04081   0.00019   0.00000   0.04294   0.04297   0.00216
    D4        2.97028   0.00154   0.00000   0.13453   0.13447   3.10475
    D5       -0.01090  -0.00007   0.00000   0.03953   0.03962   0.02873
    D6        2.12044  -0.00049   0.00000   0.02568   0.02572   2.14617
    D7       -2.15508   0.00041   0.00000   0.04549   0.04560  -2.10948
    D8       -3.00310  -0.00013   0.00000  -0.06494  -0.06501  -3.06811
    D9       -0.87176  -0.00056   0.00000  -0.07879  -0.07891  -0.95067
   D10        1.13590   0.00035   0.00000  -0.05899  -0.05904   1.07686
   D11        2.37825  -0.00455   0.00000  -0.12124  -0.12081   2.25744
   D12        0.06748   0.00271   0.00000   0.00249   0.00182   0.06929
   D13       -1.98009  -0.00142   0.00000  -0.04083  -0.04043  -2.02052
   D14       -0.88752  -0.00297   0.00000  -0.03406  -0.03374  -0.92125
   D15        3.08489   0.00428   0.00000   0.08967   0.08890  -3.10940
   D16        1.03732   0.00016   0.00000   0.04635   0.04665   1.08397
   D17        2.21197  -0.00520   0.00000   0.40063   0.39994   2.61191
   D18       -2.07054   0.00039   0.00000   0.43634   0.43782  -1.63272
   D19        0.22324   0.00303   0.00000   0.39005   0.38925   0.61249
         Item               Value     Threshold  Converged?
 Maximum Force            0.015910     0.000450     NO 
 RMS     Force            0.004482     0.000300     NO 
 Maximum Displacement     0.423193     0.001800     NO 
 RMS     Displacement     0.124232     0.001200     NO 
 Predicted change in Energy=-2.414731D-03
 GradGradGradGradGradGradGradGradGradGradGradGradGradGradGradGradGradGrad

                          Input orientation:                          
 ---------------------------------------------------------------------
 Center     Atomic      Atomic             Coordinates (Angstroms)
 Number     Number       Type             X           Y           Z
 ---------------------------------------------------------------------
      1          7           0       -0.155148    1.175815   -0.158398
      2          1           0        0.897314    1.493381   -0.088466
      3          6           0       -0.129379   -0.051560    0.245708
      4          1           0        1.459144   -0.880179    1.542992
      5          6           0       -1.266376   -0.993576    0.371989
      6          6           0        1.353328   -0.429619    0.543109
      7          1           0       -2.223224   -0.570159    0.051250
      8          1           0       -1.035594   -1.876663   -0.236451
      9          1           0       -1.355344   -1.334660    1.410425
     10          8           0        2.109215    0.696680    0.359389
     11          1           0       -0.989324    1.672772   -0.451043
     12          8           0        1.566777   -1.497394   -0.494597
     13          1           0        2.522034   -1.421869   -0.703522
 ---------------------------------------------------------------------
                    Distance matrix (angstroms):
                    1          2          3          4          5
     1  N    0.000000
     2  H    1.101551   0.000000
     3  C    1.292445   1.884838   0.000000
     4  H    3.118938   2.934467   2.212004   0.000000
     5  C    2.494473   3.328443   1.481926   2.968596   0.000000
     6  C    2.311932   2.074794   1.558781   1.101801   2.685178
     7  H    2.714648   3.743725   2.165859   3.985127   1.094401
     8  H    3.177876   3.887831   2.093969   3.222284   1.096951
     9  H    3.194395   3.913944   2.122711   2.854027   1.096632
    10  O    2.371710   1.517897   2.363068   2.076053   3.775148
    11  H    1.014129   1.929520   2.048972   4.060632   2.804202
    12  O    3.197514   3.091579   2.348496   2.131738   3.005255
    13  H    3.769937   3.393626   3.131897   2.543617   3.961339
                    6          7          8          9         10
     6  C    0.000000
     7  H    3.612949   0.000000
     8  H    2.899758   1.788908   0.000000
     9  H    2.984667   1.784666   1.763011   0.000000
    10  O    1.368820   4.524363   4.106938   4.151408   0.000000
    11  H    3.300971   2.608744   3.556217   3.555795   3.348208
    12  O    1.504173   3.939774   2.642502   3.492045   2.416090
    13  H    1.975987   4.879813   3.616865   4.417062   2.405920
                   11         12         13
    11  H    0.000000
    12  O    4.072530   0.000000
    13  H    4.687236   0.980750   0.000000
 Stoichiometry    C3H7NO2
 Framework group  C1[X(C3H7NO2)]
 Deg. of freedom    33
 Full point group                 C1      NOp   1
 Largest Abelian subgroup         C1      NOp   1
 Largest concise Abelian subgroup C1      NOp   1
                         Standard orientation:                         
 ---------------------------------------------------------------------
 Center     Atomic      Atomic             Coordinates (Angstroms)
 Number     Number       Type             X           Y           Z
 ---------------------------------------------------------------------
      1          7           0       -0.651362    1.398191   -0.377418
      2          1           0        0.409616    1.674981   -0.271929
      3          6           0       -0.696083    0.188707    0.075970
      4          1           0        0.796586   -0.649541    1.476770
      5          6           0       -1.876859   -0.699818    0.187302
      6          6           0        0.754471   -0.237097    0.455946
      7          1           0       -2.799577   -0.251267   -0.193628
      8          1           0       -1.657447   -1.616221   -0.374273
      9          1           0       -2.026173   -0.993380    1.233308
     10          8           0        1.565293    0.848627    0.262448
     11          1           0       -1.449732    1.916299   -0.727601
     12          8           0        0.967647   -1.355056   -0.527548
     13          1           0        1.933563   -1.327534   -0.695233
 ---------------------------------------------------------------------
 Rotational constants (GHZ):      4.8981792      3.3308665      2.2561339
 Standard basis: 6-31G (6D, 7F)
 There are    68 symmetry adapted cartesian basis functions of A   symmetry.
 There are    68 symmetry adapted basis functions of A   symmetry.
    68 basis functions,   160 primitive gaussians,    68 cartesian basis functions
    24 alpha electrons       24 beta electrons
       nuclear repulsion energy       248.7248730914 Hartrees.
 NAtoms=   13 NActive=   13 NUniq=   13 SFac= 1.00D+00 NAtFMM=   60 NAOKFM=F Big=F
 Integral buffers will be    131072 words long.
 Raffenetti 2 integral format.
 Two-electron integral symmetry is turned on.
 One-electron integrals computed using PRISM.
 NBasis=    68 RedAO= T EigKep=  3.40D-03  NBF=    68
 NBsUse=    68 1.00D-06 EigRej= -1.00D+00 NBFU=    68
 Initial guess from the checkpoint file:  "Ala-S-opt-freq-tsb2-6-31g.chk"
 B after Tr=     0.000000    0.000000    0.000000
         Rot=    0.999515    0.008697    0.005941   -0.029309 Ang=   3.57 deg.
 ExpMin= 1.61D-01 ExpMax= 5.48D+03 ExpMxC= 8.25D+02 IAcc=1 IRadAn=         1 AccDes= 0.00D+00
 Harris functional with IExCor=  402 and IRadAn=       1 diagonalized for initial guess.
[...]
    R5        2.94521  -0.00002   0.00000   0.00845   0.00845   2.95366
    R6        2.08914  -0.00033   0.00000  -0.00243  -0.00243   2.08672
    R7        2.06376   0.00028   0.00000   0.00363   0.00363   2.06739
    R8        2.06676  -0.00002   0.00000   0.00053   0.00053   2.06729
    R9        2.07973  -0.00074   0.00000  -0.00301  -0.00301   2.07672
   R10        2.57680   0.00109   0.00000  -0.02043  -0.02043   2.55637
   R11        2.79964  -0.00210   0.00000   0.02753   0.02753   2.82716
   R12        1.84886   0.00040   0.00000   0.00310   0.00310   1.85196
    A1        1.73761   0.00020   0.00000   0.03524   0.03524   1.77286
    A2        2.35631   0.00146   0.00000  -0.04361  -0.04361   2.31270
    A3        2.18880  -0.00162   0.00000   0.00838   0.00838   2.19718
    A4        2.26155  -0.00195   0.00000  -0.01241  -0.01248   2.24906
    A5        1.86161   0.00116   0.00000   0.01012   0.01003   1.87164
    A6        2.15944   0.00076   0.00000   0.00154   0.00145   2.16089
    A7        1.92506   0.00020   0.00000   0.00011   0.00009   1.92516
    A8        1.98746  -0.00217   0.00000  -0.00390  -0.00391   1.98355
    A9        1.87115   0.00376   0.00000   0.00232   0.00232   1.87347
   A10        1.92569  -0.00028   0.00000  -0.00747  -0.00749   1.91820
   A11        1.83892   0.00080   0.00000   0.00746   0.00745   1.84636
   A12        1.90876  -0.00200   0.00000   0.00276   0.00276   1.91153
   A13        1.91627   0.00110   0.00000   0.00518   0.00471   1.92099
   A14        1.85858   0.00023   0.00000   0.01680   0.01655   1.87513
   A15        1.77708  -0.00314   0.00000  -0.02406  -0.02419   1.75289
   A16        1.98371   0.00062   0.00000   0.03009   0.02978   2.01349
   A17        1.88793   0.00017   0.00000  -0.02339  -0.02349   1.86444
   A18        2.02695   0.00068   0.00000  -0.00855  -0.00846   2.01849
   A19        1.86804  -0.00019   0.00000  -0.02542  -0.02542   1.84262
    D1       -3.08224  -0.00178   0.00000  -0.00992  -0.00995  -3.09220
    D2        0.02291  -0.00253   0.00000  -0.03318  -0.03315  -0.01025
    D3        0.03096  -0.00051   0.00000  -0.01028  -0.01031   0.02065
    D4        3.13611  -0.00126   0.00000  -0.03354  -0.03351   3.10260
    D5       -2.88841   0.00181   0.00000   0.28798   0.28804  -2.60038
    D6       -0.71249  -0.00005   0.00000   0.27519   0.27526  -0.43723
    D7        1.40124  -0.00129   0.00000   0.27786   0.27791   1.67916
    D8        0.29516   0.00268   0.00000   0.31469   0.31463   0.60979
    D9        2.47108   0.00083   0.00000   0.30190   0.30185   2.77293
   D10       -1.69837  -0.00041   0.00000   0.30457   0.30450  -1.39386
   D11        2.18515   0.00037   0.00000   0.08353   0.08374   2.26889
   D12        0.03043  -0.00118   0.00000   0.03330   0.03321   0.06364
   D13       -2.10048  -0.00054   0.00000   0.04725   0.04741  -2.05307
   D14       -0.99022  -0.00040   0.00000   0.06159   0.06162  -0.92859
   D15        3.13825  -0.00195   0.00000   0.01137   0.01109  -3.13384
   D16        1.00734  -0.00131   0.00000   0.02532   0.02529   1.03263
   D17        2.94496  -0.00163   0.00000  -0.32201  -0.32218   2.62278
   D18       -1.31981  -0.00178   0.00000  -0.33649  -0.33622  -1.65603
   D19        0.93445  -0.00021   0.00000  -0.32291  -0.32302   0.61144
         Item               Value     Threshold  Converged?
 Maximum Force            0.020030     0.000450     NO 
 RMS     Force            0.003229     0.000300     NO 
 Maximum Displacement     0.557853     0.001800     NO 
 RMS     Displacement     0.171444     0.001200     NO 
 Predicted change in Energy=-6.889975D-04
 Optimization stopped.
    -- Number of steps exceeded,  NStep=  60
    -- Flag reset to prevent archiving.
                           ----------------------------
                           ! Non-Optimized Parameters !
                           ! (Angstroms and Degrees)  !
 --------------------------                            --------------------------
 ! Name  Definition              Value          Derivative Info.                !
 --------------------------------------------------------------------------------
 ! R1    R(1,2)                  1.1567         -DE/DX =    0.02                !
 ! R2    R(1,3)                  1.287          -DE/DX =    0.0042              !
 ! R3    R(1,11)                 1.0123         -DE/DX =    0.0009              !
 ! R4    R(3,5)                  1.479          -DE/DX =    0.0034              !
 ! R5    R(3,6)                  1.563          -DE/DX =    0.0                 !
 ! R6    R(4,6)                  1.1042         -DE/DX =   -0.0003              !
 ! R7    R(5,7)                  1.094          -DE/DX =    0.0003              !
 ! R8    R(5,8)                  1.094          -DE/DX =    0.0                 !
 ! R9    R(5,9)                  1.099          -DE/DX =   -0.0007              !
 ! R10   R(6,10)                 1.3528         -DE/DX =    0.0011              !
 ! R11   R(6,12)                 1.4961         -DE/DX =   -0.0021              !
 ! R12   R(12,13)                0.98           -DE/DX =    0.0004              !
 ! A1    A(2,1,3)              101.5774         -DE/DX =    0.0002              !
 ! A2    A(2,1,11)             132.5079         -DE/DX =    0.0015              !
 ! A3    A(3,1,11)             125.8892         -DE/DX =   -0.0016              !
 ! A4    A(1,3,5)              128.8618         -DE/DX =   -0.0019              !
 ! A5    A(1,3,6)              107.237          -DE/DX =    0.0012              !
 ! A6    A(5,3,6)              123.8099         -DE/DX =    0.0008              !
 ! A7    A(3,5,7)              110.3033         -DE/DX =    0.0002              !
 ! A8    A(3,5,8)              113.649          -DE/DX =   -0.0022              !
 ! A9    A(3,5,9)              107.3417         -DE/DX =    0.0038              !
 ! A10   A(7,5,8)              109.9048         -DE/DX =   -0.0003              !
 ! A11   A(7,5,9)              105.7889         -DE/DX =    0.0008              !
 ! A12   A(8,5,9)              109.5223         -DE/DX =   -0.002               !
 ! A13   A(3,6,4)              110.0644         -DE/DX =    0.0011              !
 ! A14   A(3,6,10)             107.4373         -DE/DX =    0.0002              !
 ! A15   A(3,6,12)             100.4333         -DE/DX =   -0.0031              !
 ! A16   A(4,6,10)             115.3642         -DE/DX =    0.0006              !
 ! A17   A(4,6,12)             106.8247         -DE/DX =    0.0002              !
 ! A18   A(10,6,12)            115.651          -DE/DX =    0.0007              !
 ! A19   A(6,12,13)            105.5744         -DE/DX =   -0.0002              !
 ! D1    D(2,1,3,5)           -177.1698         -DE/DX =   -0.0018              !
 ! D2    D(2,1,3,6)             -0.587          -DE/DX =   -0.0025              !
 ! D3    D(11,1,3,5)             1.1833         -DE/DX =   -0.0005              !
 ! D4    D(11,1,3,6)           177.766          -DE/DX =   -0.0013              !
 ! D5    D(1,3,5,7)           -148.9905         -DE/DX =    0.0018              !
 ! D6    D(1,3,5,8)            -25.0516         -DE/DX =    0.0                 !
 ! D7    D(1,3,5,9)             96.2086         -DE/DX =   -0.0013              !
 ! D8    D(6,3,5,7)             34.9382         -DE/DX =    0.0027              !
 ! D9    D(6,3,5,8)            158.8772         -DE/DX =    0.0008              !
 ! D10   D(6,3,5,9)            -79.8626         -DE/DX =   -0.0004              !
 ! D11   D(1,3,6,4)            129.9979         -DE/DX =    0.0004              !
 ! D12   D(1,3,6,10)             3.6464         -DE/DX =   -0.0012              !
 ! D13   D(1,3,6,12)          -117.6325         -DE/DX =   -0.0005              !
 ! D14   D(5,3,6,4)            -53.2043         -DE/DX =   -0.0004              !
 ! D15   D(5,3,6,10)          -179.5559         -DE/DX =   -0.0019              !
 ! D16   D(5,3,6,12)            59.1653         -DE/DX =   -0.0013              !
 ! D17   D(3,6,12,13)          150.2742         -DE/DX =   -0.0016              !
 ! D18   D(4,6,12,13)          -94.8834         -DE/DX =   -0.0018              !
 ! D19   D(10,6,12,13)          35.0327         -DE/DX =   -0.0002              !
 --------------------------------------------------------------------------------
 GradGradGradGradGradGradGradGradGradGradGradGradGradGradGradGradGradGrad

                          Input orientation:                          
 ---------------------------------------------------------------------
 Center     Atomic      Atomic             Coordinates (Angstroms)
 Number     Number       Type             X           Y           Z
 ---------------------------------------------------------------------
      1          7           0       -0.128211    1.029957   -0.610745
      2          1           0        1.015890    1.337103   -0.455244
      3          6           0       -0.157131   -0.045907    0.089185
      4          1           0        1.198553   -0.320337    1.793594
      5          6           0       -1.262523   -1.008108    0.293729
      6          6           0        1.268014   -0.223687    0.694493
      7          1           0       -1.041642   -1.665057    1.137706
      8          1           0       -2.240843   -0.537058    0.424656
      9          1           0       -1.289243   -1.665656   -0.588382
     10          8           0        1.999388    0.851811    0.284913
     11          1           0       -0.907219    1.410584   -1.134270
     12          8           0        1.671640   -1.536807    0.139826
     13          1           0        2.626748   -1.643868    0.322923
 ---------------------------------------------------------------------
                    Distance matrix (angstroms):
                    1          2          3          4          5
     1  N    0.000000
     2  H    1.194775   0.000000
     3  C    1.283831   1.893436   0.000000
     4  H    3.060138   2.799598   2.195041   0.000000
     5  C    2.501688   3.354421   1.479715   2.963025   0.000000
     6  C    2.285763   1.954873   1.558538   1.105527   2.679466
     7  H    3.339841   3.972895   2.122122   2.693869   1.092093
     8  H    2.826801   3.859147   2.166939   3.708153   1.093682
     9  H    2.935101   3.787865   2.089104   3.697677   1.100546
    10  O    2.315300   1.323106   2.344095   2.071566   3.754921
    11  H    1.012822   2.040790   2.044710   4.000344   2.831165
    12  O    3.223522   3.007237   2.360032   2.106789   2.985384
    13  H    3.951060   3.476578   3.218400   2.440154   3.940999
                    6          7          8          9         10
     6  C    0.000000
     7  H    2.758349   0.000000
     8  H    3.533141   1.794131   0.000000
     9  H    3.203841   1.743756   1.790397   0.000000
    10  O    1.363584   4.038532   4.464083   4.232655   0.000000
    11  H    3.278239   3.826162   2.828801   3.147568   3.282479
    12  O    1.481503   2.893805   4.048228   3.051838   2.415360
    13  H    2.000284   3.757845   4.992877   4.020688   2.573605
                   11         12         13
    11  H    0.000000
    12  O    4.118367   0.000000
    13  H    4.893058   0.978376   0.000000
 Stoichiometry    C3H7NO2
 Framework group  C1[X(C3H7NO2)]
 Deg. of freedom    33
 Full point group                 C1      NOp   1
 Largest Abelian subgroup         C1      NOp   1
 Largest concise Abelian subgroup C1      NOp   1
                         Standard orientation:                         
 ---------------------------------------------------------------------
 Center     Atomic      Atomic             Coordinates (Angstroms)
 Number     Number       Type             X           Y           Z
 ---------------------------------------------------------------------
      1          7           0       -0.659106    1.409421   -0.335309
      2          1           0        0.517628    1.600753   -0.256721
      3          6           0       -0.704898    0.192691    0.071747
      4          1           0        0.800857   -0.588910    1.464588
      5          6           0       -1.861030   -0.725571    0.170293
      6          6           0        0.757135   -0.215726    0.424870
      7          1           0       -1.606978   -1.589634    0.787966
      8          1           0       -2.773984   -0.249769    0.539440
      9          1           0       -2.042123   -1.130349   -0.836962
     10          8           0        1.530321    0.885918    0.205958
     11          1           0       -1.454664    1.955793   -0.642511
     12          8           0        0.980756   -1.361664   -0.487091
     13          1           0        1.937151   -1.566234   -0.461035
 ---------------------------------------------------------------------
 Rotational constants (GHZ):      4.8790931      3.4257053      2.2458439

 **********************************************************************

            Population analysis using the SCF density.

 **********************************************************************

 Orbital symmetries:
       Occupied  (A) (A) (A) (A) (A) (A) (A) (A) (A) (A) (A) (A)
                 (A) (A) (A) (A) (A) (A) (A) (A) (A) (A) (A) (A)
       Virtual   (A) (A) (A) (A) (A) (A) (A) (A) (A) (A) (A) (A)
                 (A) (A) (A) (A) (A) (A) (A) (A) (A) (A) (A) (A)
                 (A) (A) (A) (A) (A) (A) (A) (A) (A) (A) (A) (A)
                 (A) (A) (A) (A) (A) (A) (A) (A)
 The electronic state is 1-A.
 Alpha  occ. eigenvalues --  -19.12185 -19.06255 -14.38338 -10.28507 -10.26529
 Alpha  occ. eigenvalues --  -10.21521  -1.02860  -0.97883  -0.92016  -0.78092
 Alpha  occ. eigenvalues --   -0.67709  -0.60025  -0.54550  -0.50231  -0.48567
 Alpha  occ. eigenvalues --   -0.45161  -0.42800  -0.40898  -0.37846  -0.35652
 Alpha  occ. eigenvalues --   -0.32117  -0.26411  -0.23597  -0.21400
 Alpha virt. eigenvalues --   -0.05239   0.06648   0.09746   0.11789   0.12631
 Alpha virt. eigenvalues --    0.14722   0.15810   0.18872   0.21975   0.23614
 Alpha virt. eigenvalues --    0.26877   0.30257   0.37312   0.50783   0.52809
 Alpha virt. eigenvalues --    0.56766   0.60599   0.61891   0.63699   0.65322
 Alpha virt. eigenvalues --    0.67187   0.73100   0.76370   0.79517   0.80893
 Alpha virt. eigenvalues --    0.83089   0.85784   0.88691   0.90761   0.92298
 Alpha virt. eigenvalues --    0.93778   0.95510   1.02066   1.08182   1.14586
 Alpha virt. eigenvalues --    1.16346   1.17542   1.29436   1.33401   1.39379
 Alpha virt. eigenvalues --    1.40967   1.70746   1.80290   2.02327
          Condensed to atoms (all electrons):
               1          2          3          4          5          6
     1  N    7.172023   0.086474   0.405321   0.000702  -0.085824  -0.061743
     2  H    0.086474   0.386958  -0.054426   0.009532   0.004088  -0.060719
     3  C    0.405321  -0.054426   5.175130  -0.090630   0.264200   0.156910
     4  H    0.000702   0.009532  -0.090630   0.751238  -0.004362   0.364185
     5  C   -0.085824   0.004088   0.264200  -0.004362   5.206843  -0.032082
     6  C   -0.061743  -0.060719   0.156910   0.364185  -0.032082   4.997974
     7  H    0.004208   0.000017  -0.031979   0.003317   0.369780   0.000019
     8  H   -0.003885  -0.000188  -0.028091  -0.000256   0.361631   0.002026
     9  H   -0.002461  -0.000045  -0.029664   0.000410   0.362377   0.001684
    10  O   -0.146050   0.203046  -0.043754  -0.067244   0.005291   0.281188
    11  H    0.300613  -0.000992  -0.036642  -0.000204  -0.000792   0.007313
    12  O   -0.001629   0.004175  -0.063433  -0.079166   0.008357   0.137920
    13  H   -0.000008  -0.000292   0.010392  -0.000661  -0.000555  -0.028190
               7          8          9         10         11         12
     1  N    0.004208  -0.003885  -0.002461  -0.146050   0.300613  -0.001629
     2  H    0.000017  -0.000188  -0.000045   0.203046  -0.000992   0.004175
     3  C   -0.031979  -0.028091  -0.029664  -0.043754  -0.036642  -0.063433
     4  H    0.003317  -0.000256   0.000410  -0.067244  -0.000204  -0.079166
     5  C    0.369780   0.361631   0.362377   0.005291  -0.000792   0.008357
     6  C    0.000019   0.002026   0.001684   0.281188   0.007313   0.137920
     7  H    0.514029  -0.027883  -0.023508   0.000139  -0.000006   0.000736
     8  H   -0.027883   0.551964  -0.022031  -0.000064   0.001465   0.000172
     9  H   -0.023508  -0.022031   0.506072  -0.000035   0.000348   0.000595
    10  O    0.000139  -0.000064  -0.000035   8.470780   0.003071  -0.072902
    11  H   -0.000006   0.001465   0.000348   0.003071   0.408635  -0.000154
    12  O    0.000736   0.000172   0.000595  -0.072902  -0.000154   8.450301
    13  H   -0.000080  -0.000002   0.000043   0.004755   0.000011   0.231232
              13
     1  N   -0.000008
     2  H   -0.000292
     3  C    0.010392
     4  H   -0.000661
     5  C   -0.000555
     6  C   -0.028190
     7  H   -0.000080
     8  H   -0.000002
     9  H    0.000043
    10  O    0.004755
    11  H    0.000011
    12  O    0.231232
    13  H    0.417835
 Mulliken charges:
               1
     1  N   -0.667741
     2  H    0.422373
     3  C    0.366665
     4  H    0.113139
     5  C   -0.458953
     6  C    0.233514
     7  H    0.191212
     8  H    0.165143
     9  H    0.206215
    10  O   -0.638219
    11  H    0.317334
    12  O   -0.616204
    13  H    0.365521
 Sum of Mulliken charges =   0.00000
 Mulliken charges with hydrogens summed into heavy atoms:
               1
     1  N    0.071966
     3  C    0.366665
     5  C    0.103617
     6  C    0.346653
    10  O   -0.638219
    12  O   -0.250683
 Electronic spatial extent (au):  <R**2>=            572.1782
 Charge=              0.0000 electrons
 Dipole moment (field-independent basis, Debye):
    X=             -4.9713    Y=             -0.1372    Z=              0.1051  Tot=              4.9743
 Quadrupole moment (field-independent basis, Debye-Ang):
   XX=            -33.4172   YY=            -34.9804   ZZ=            -36.4794
   XY=             -7.0519   XZ=              0.1633   YZ=             -3.2776
 Traceless Quadrupole moment (field-independent basis, Debye-Ang):
   XX=              1.5418   YY=             -0.0214   ZZ=             -1.5204
   XY=             -7.0519   XZ=              0.1633   YZ=             -3.2776
 Octapole moment (field-independent basis, Debye-Ang**2):
  XXX=             -6.0939  YYY=              8.4413  ZZZ=             -1.7381  XYY=             -4.3331
  XXY=            -11.8876  XXZ=             -5.5560  XZZ=             -0.1674  YZZ=              0.1132
  YYZ=             -3.6162  XYZ=              0.8528
 Hexadecapole moment (field-independent basis, Debye-Ang**3):
 XXXX=           -359.4923 YYYY=           -234.8303 ZZZZ=            -71.2725 XXXY=            -43.3790
 XXXZ=             -7.5245 YYYX=            -22.2131 YYYZ=             -8.8676 ZZZX=              1.4455
 ZZZY=              0.0547 XXYY=            -85.5564 XXZZ=            -72.7128 YYZZ=            -52.2799
 XXYZ=             -1.0829 YYXZ=              1.3707 ZZXY=             -2.7459
 N-N= 2.498081648158D+02 E-N=-1.257838742458D+03  KE= 3.218765760184D+02


 SATCHEL PAIGE'S GUIDE TO LONGEVITY

    1.  AVOID FRIED MEATS, WHICH ANGRY UP THE BLOOD.

    2.  IF YOUR STOMACH DISPUTES YOU, LIE DOWN AND PACIFY IT WITH COOL
        THOUGHTS.

    3.  KEEP THE JUICES FLOWING BY JANGLING AROUND GENTLY AS YOU MOVE.

    4.  GO VERY LIGHT ON THE VICES, SUCH AS CARRYING ON IN SOCIETY.
        THE SOCIAL RUMBLE AIN'T RESTFUL.

    5.  AVOID RUNNING AT ALL TIMES.

    6.  DON'T LOOK BACK.  SOMETHING MAY BE GAINING ON YOU.
 Error termination request processed by link 9999.
 Error termination via Lnk1e in /usr/local/gau/g09/l9999.exe at Sun Apr 10 16:53:34 2016.
 Job cpu time:       0 days  0 hours 13 minutes 27.8 seconds.
 File lengths (MBytes):  RWF=     12 Int=      0 D2E=      0 Chk=      2 Scr=      1
