 Entering Gaussian System, Link 0=g09
 Input=Ala-S-opt-freq-tsa3-6-31g.com
 Output=Ala-S-opt-freq-tsa3-6-31g.log
 Initial command:
 /usr/local/gau/g09/l1.exe "/tmp/Gau-3832.inp" -scrdir="/tmp/"
 Entering Link 1 = /usr/local/gau/g09/l1.exe PID=      3834.
  
 Copyright (c) 1988,1990,1992,1993,1995,1998,2003,2009,2013,
            Gaussian, Inc.  All Rights Reserved.
  
 This is part of the Gaussian(R) 09 program.  It is based on
 the Gaussian(R) 03 system (copyright 2003, Gaussian, Inc.),
 the Gaussian(R) 98 system (copyright 1998, Gaussian, Inc.),
 the Gaussian(R) 94 system (copyright 1995, Gaussian, Inc.),
 the Gaussian 92(TM) system (copyright 1992, Gaussian, Inc.),
 the Gaussian 90(TM) system (copyright 1990, Gaussian, Inc.),
 the Gaussian 88(TM) system (copyright 1988, Gaussian, Inc.),
 the Gaussian 86(TM) system (copyright 1986, Carnegie Mellon
 University), and the Gaussian 82(TM) system (copyright 1983,
 Carnegie Mellon University). Gaussian is a federally registered
 trademark of Gaussian, Inc.
  
 This software contains proprietary and confidential information,
 including trade secrets, belonging to Gaussian, Inc.
  
 This software is provided under written license and may be
 used, copied, transmitted, or stored only in accord with that
 written license.
  
 The following legend is applicable only to US Government
 contracts under FAR:
  
                    RESTRICTED RIGHTS LEGEND
  
 Use, reproduction and disclosure by the US Government is
 subject to restrictions as set forth in subparagraphs (a)
 and (c) of the Commercial Computer Software - Restricted
 Rights clause in FAR 52.227-19.
  
 Gaussian, Inc.
 340 Quinnipiac St., Bldg. 40, Wallingford CT 06492
  
  
 ---------------------------------------------------------------
 Warning -- This program may not be used in any manner that
 competes with the business of Gaussian, Inc. or will provide
 assistance to any competitor of Gaussian, Inc.  The licensee
 of this program is prohibited from giving any competitor of
 Gaussian, Inc. access to this program.  By using this program,
 the user acknowledges that Gaussian, Inc. is engaged in the
 business of creating and licensing software in the field of
 computational chemistry and represents and warrants to the
 licensee that it is not a competitor of Gaussian, Inc. and that
 it will not use this program in any manner prohibited above.
 ---------------------------------------------------------------
  

 Cite this work as:
 Gaussian 09, Revision D.01,
 M. J. Frisch, G. W. Trucks, H. B. Schlegel, G. E. Scuseria, 
 M. A. Robb, J. R. Cheeseman, G. Scalmani, V. Barone, B. Mennucci, 
 G. A. Petersson, H. Nakatsuji, M. Caricato, X. Li, H. P. Hratchian, 
 A. F. Izmaylov, J. Bloino, G. Zheng, J. L. Sonnenberg, M. Hada, 
 M. Ehara, K. Toyota, R. Fukuda, J. Hasegawa, M. Ishida, T. Nakajima, 
 Y. Honda, O. Kitao, H. Nakai, T. Vreven, J. A. Montgomery, Jr., 
 J. E. Peralta, F. Ogliaro, M. Bearpark, J. J. Heyd, E. Brothers, 
 K. N. Kudin, V. N. Staroverov, T. Keith, R. Kobayashi, J. Normand, 
 K. Raghavachari, A. Rendell, J. C. Burant, S. S. Iyengar, J. Tomasi, 
 M. Cossi, N. Rega, J. M. Millam, M. Klene, J. E. Knox, J. B. Cross, 
 V. Bakken, C. Adamo, J. Jaramillo, R. Gomperts, R. E. Stratmann, 
 O. Yazyev, A. J. Austin, R. Cammi, C. Pomelli, J. W. Ochterski, 
 R. L. Martin, K. Morokuma, V. G. Zakrzewski, G. A. Voth, 
 P. Salvador, J. J. Dannenberg, S. Dapprich, A. D. Daniels, 
 O. Farkas, J. B. Foresman, J. V. Ortiz, J. Cioslowski, 
 and D. J. Fox, Gaussian, Inc., Wallingford CT, 2013.
 
 ******************************************
 Gaussian 09:  ES64L-G09RevD.01 24-Apr-2013
                14-Apr-2016 
 ******************************************
 %chk=Ala-S-opt-freq-tsa3-6-31g.chk
 ------------------------------------------------
 #p opt=(calcfc,ts) freq rb3lyp/6-31g iop(1/11=1)
 ------------------------------------------------
 1/5=1,10=4,11=1,14=-1,18=20,26=3,38=1/1,3;
 2/9=110,12=2,17=6,18=5,40=1/2;
 3/5=1,6=6,11=2,16=1,25=1,30=1,71=2,74=-5,116=1,140=1/1,2,3;
 4//1;
 5/5=2,38=5/2;
 8/6=4,10=90,11=11/1;
 11/6=1,8=1,9=11,15=111,16=1/1,2,10;
 10/6=1,13=1/2;
 6/7=2,8=2,9=2,10=2,28=1/1;
 7/10=1,18=20,25=1/1,2,3,16;
 1/5=1,10=4,11=1,14=-1,18=20,26=3/3(2);
 2/9=110/2;
 99//99;
 2/9=110/2;
 3/5=1,6=6,11=2,16=1,25=1,30=1,71=1,74=-5,116=1/1,2,3;
 4/5=5,16=3,69=1/1;
 5/5=2,38=5/2;
 7//1,2,3,16;
 1/5=1,11=1,14=-1,18=20,26=3/3(-5);
 2/9=110/2;
 6/7=2,8=2,9=2,10=2,19=2,28=1/1;
 99/9=1/99;
 Leave Link    1 at Thu Apr 14 11:32:21 2016, MaxMem=           0 cpu:         0.0
 (Enter /usr/local/gau/g09/l101.exe)
 -------------------------
 Ala-S-opt-freq-tsa3-6-31g
 -------------------------
 Symbolic Z-matrix:
 Charge =  0 Multiplicity = 1
 N                     1.10319   1.31327   0.0413 
 H                     2.10042   1.3892   -0.04116 
 C                     0.48525   0.06485   0.01607 
 H                    -0.19973  -1.06615   0.13247 
 C                     1.39328  -1.13323   0.00839 
 C                    -0.85579  -0.04165   0.00959 
 H                     2.03879  -1.13614   0.89704 
 H                     0.81201  -2.05574   0.00541 
 H                     2.0485   -1.12618  -0.87414 
 O                    -1.66507   1.10956  -0.08171 
 H                     0.54084   2.14106  -0.05542 
 O                    -1.54604  -1.25718   0.1137 
 H                    -2.2781    1.15771   0.68323 
 
 NAtoms=     13 NQM=       13 NQMF=       0 NMMI=      0 NMMIF=      0
                NMic=       0 NMicF=      0.
                    Isotopes and Nuclear Properties:
 (Nuclear quadrupole moments (NQMom) in fm**2, nuclear magnetic moments (NMagM)
  in nuclear magnetons)

  Atom         1           2           3           4           5           6           7           8           9          10
 IAtWgt=          14           1          12           1          12          12           1           1           1          16
 AtmWgt=  14.0030740   1.0078250  12.0000000   1.0078250  12.0000000  12.0000000   1.0078250   1.0078250   1.0078250  15.9949146
 NucSpn=           2           1           0           1           0           0           1           1           1           0
 AtZEff=   0.0000000   0.0000000   0.0000000   0.0000000   0.0000000   0.0000000   0.0000000   0.0000000   0.0000000   0.0000000
 NQMom=    2.0440000   0.0000000   0.0000000   0.0000000   0.0000000   0.0000000   0.0000000   0.0000000   0.0000000   0.0000000
 NMagM=    0.4037610   2.7928460   0.0000000   2.7928460   0.0000000   0.0000000   2.7928460   2.7928460   2.7928460   0.0000000
 AtZNuc=   7.0000000   1.0000000   6.0000000   1.0000000   6.0000000   6.0000000   1.0000000   1.0000000   1.0000000   8.0000000

  Atom        11          12          13
 IAtWgt=           1          16           1
 AtmWgt=   1.0078250  15.9949146   1.0078250
 NucSpn=           1           0           1
 AtZEff=   0.0000000   0.0000000   0.0000000
 NQMom=    0.0000000   0.0000000   0.0000000
 NMagM=    2.7928460   0.0000000   2.7928460
 AtZNuc=   1.0000000   8.0000000   1.0000000
 Leave Link  101 at Thu Apr 14 11:32:22 2016, MaxMem=    33554432 cpu:         0.2
 (Enter /usr/local/gau/g09/l103.exe)

 GradGradGradGradGradGradGradGradGradGradGradGradGradGradGradGradGradGrad
 Berny optimization.
 Initialization pass.
                           ----------------------------
                           !    Initial Parameters    !
                           ! (Angstroms and Degrees)  !
 --------------------------                            --------------------------
 ! Name  Definition              Value          Derivative Info.                !
 --------------------------------------------------------------------------------
 ! R1    R(1,2)                  1.0035         calculate D2E/DX2 analytically  !
 ! R2    R(1,3)                  1.3932         calculate D2E/DX2 analytically  !
 ! R3    R(1,11)                 1.0054         calculate D2E/DX2 analytically  !
 ! R4    R(3,5)                  1.5033         calculate D2E/DX2 analytically  !
 ! R5    R(3,6)                  1.3453         calculate D2E/DX2 analytically  !
 ! R6    R(4,6)                  1.2228         calculate D2E/DX2 analytically  !
 ! R7    R(5,7)                  1.0984         calculate D2E/DX2 analytically  !
 ! R8    R(5,8)                  1.0904         calculate D2E/DX2 analytically  !
 ! R9    R(5,9)                  1.0992         calculate D2E/DX2 analytically  !
 ! R10   R(6,10)                 1.4102         calculate D2E/DX2 analytically  !
 ! R11   R(6,12)                 1.4017         calculate D2E/DX2 analytically  !
 ! R12   R(10,13)                0.9815         calculate D2E/DX2 analytically  !
 ! A1    A(2,1,3)              120.4689         calculate D2E/DX2 analytically  !
 ! A2    A(2,1,11)             119.0538         calculate D2E/DX2 analytically  !
 ! A3    A(3,1,11)             119.2059         calculate D2E/DX2 analytically  !
 ! A4    A(1,3,5)              116.508          calculate D2E/DX2 analytically  !
 ! A5    A(1,3,6)              120.8748         calculate D2E/DX2 analytically  !
 ! A6    A(5,3,6)              122.6153         calculate D2E/DX2 analytically  !
 ! A7    A(3,5,7)              110.6686         calculate D2E/DX2 analytically  !
 ! A8    A(3,5,8)              110.6273         calculate D2E/DX2 analytically  !
 ! A9    A(3,5,9)              111.0413         calculate D2E/DX2 analytically  !
 ! A10   A(7,5,8)              108.2564         calculate D2E/DX2 analytically  !
 ! A11   A(7,5,9)              107.4144         calculate D2E/DX2 analytically  !
 ! A12   A(8,5,9)              108.7238         calculate D2E/DX2 analytically  !
 ! A13   A(3,6,4)               62.0299         calculate D2E/DX2 analytically  !
 ! A14   A(3,6,10)             120.5154         calculate D2E/DX2 analytically  !
 ! A15   A(3,6,12)             123.9986         calculate D2E/DX2 analytically  !
 ! A16   A(4,6,12)              61.9769         calculate D2E/DX2 analytically  !
 ! A17   A(10,6,12)            115.4764         calculate D2E/DX2 analytically  !
 ! A18   A(6,10,13)            110.368          calculate D2E/DX2 analytically  !
 ! A19   L(4,6,10,3,-1)        182.5453         calculate D2E/DX2 analytically  !
 ! A20   L(4,6,10,3,-2)        182.2389         calculate D2E/DX2 analytically  !
 ! D1    D(2,1,3,5)              6.2762         calculate D2E/DX2 analytically  !
 ! D2    D(2,1,3,6)           -174.2135         calculate D2E/DX2 analytically  !
 ! D3    D(11,1,3,5)           173.2777         calculate D2E/DX2 analytically  !
 ! D4    D(11,1,3,6)            -7.2119         calculate D2E/DX2 analytically  !
 ! D5    D(1,3,5,7)             59.0596         calculate D2E/DX2 analytically  !
 ! D6    D(1,3,5,8)            179.0434         calculate D2E/DX2 analytically  !
 ! D7    D(1,3,5,9)            -60.1392         calculate D2E/DX2 analytically  !
 ! D8    D(6,3,5,7)           -120.4415         calculate D2E/DX2 analytically  !
 ! D9    D(6,3,5,8)             -0.4577         calculate D2E/DX2 analytically  !
 ! D10   D(6,3,5,9)            120.3597         calculate D2E/DX2 analytically  !
 ! D11   D(1,3,6,4)           -172.5697         calculate D2E/DX2 analytically  !
 ! D12   D(1,3,6,10)             5.1914         calculate D2E/DX2 analytically  !
 ! D13   D(1,3,6,12)          -173.6291         calculate D2E/DX2 analytically  !
 ! D14   D(5,3,6,4)              6.9101         calculate D2E/DX2 analytically  !
 ! D15   D(5,3,6,10)          -175.3288         calculate D2E/DX2 analytically  !
 ! D16   D(5,3,6,12)             5.8507         calculate D2E/DX2 analytically  !
 ! D17   D(3,6,10,13)         -122.8659         calculate D2E/DX2 analytically  !
 ! D18   D(12,6,10,13)          56.051          calculate D2E/DX2 analytically  !
 --------------------------------------------------------------------------------
 Trust Radius=3.00D-01 FncErr=1.00D-07 GrdErr=1.00D-06
 Number of steps in this run=     60 maximum allowed number of steps=    100.
 Search for a saddle point of order  1.
 GradGradGradGradGradGradGradGradGradGradGradGradGradGradGradGradGradGrad

 Leave Link  103 at Thu Apr 14 11:32:22 2016, MaxMem=    33554432 cpu:         0.0
 (Enter /usr/local/gau/g09/l202.exe)
                          Input orientation:                          
 ---------------------------------------------------------------------
 Center     Atomic      Atomic             Coordinates (Angstroms)
 Number     Number       Type             X           Y           Z
 ---------------------------------------------------------------------
      1          7           0        1.103191    1.313271    0.041300
      2          1           0        2.100421    1.389197   -0.041164
      3          6           0        0.485250    0.064851    0.016066
      4          1           0       -0.199729   -1.066149    0.132466
      5          6           0        1.393276   -1.133233    0.008386
      6          6           0       -0.855792   -0.041647    0.009589
      7          1           0        2.038793   -1.136145    0.897042
      8          1           0        0.812009   -2.055741    0.005406
      9          1           0        2.048501   -1.126183   -0.874143
     10          8           0       -1.665073    1.109560   -0.081713
     11          1           0        0.540843    2.141055   -0.055422
     12          8           0       -1.546040   -1.257178    0.113695
     13          1           0       -2.278101    1.157709    0.683226
 ---------------------------------------------------------------------
                    Distance matrix (angstroms):
                    1          2          3          4          5
     1  N    0.000000
     2  H    1.003510   0.000000
     3  C    1.393212   2.089484   0.000000
     4  H    2.714323   3.368911   1.327368   0.000000
     5  C    2.463862   2.620145   1.503321   1.599237   0.000000
     6  C    2.382105   3.284674   1.345280   1.222752   2.499974
     7  H    2.758131   2.694695   2.152210   2.366528   1.098367
     8  H    3.381762   3.678284   2.145646   1.420932   1.090367
     9  H    2.771747   2.650224   2.157496   2.464021   1.099194
    10  O    2.778474   3.776081   2.392669   2.631885   3.793644
    11  H    1.005394   1.731409   2.078178   3.296954   3.384032
    12  O    3.692001   4.508210   2.425579   1.359926   2.943812
    13  H    3.445200   4.444073   3.045579   3.093302   4.379821
                    6          7          8          9         10
     6  C    0.000000
     7  H    3.219335   0.000000
     8  H    2.614986   1.773604   0.000000
     9  H    3.223681   1.771240   1.779493   0.000000
    10  O    1.410159   4.440695   4.020281   4.406487   0.000000
    11  H    2.592104   3.727074   4.205987   3.690282   2.435311
    12  O    1.401712   3.671418   2.491952   3.730108   2.377772
    13  H    1.978688   4.893164   4.509377   5.134301   0.981455
                   11         12         13
    11  H    0.000000
    12  O    3.991449   0.000000
    13  H    3.075551   2.586882   0.000000
 Stoichiometry    C3H7NO2
 Framework group  C1[X(C3H7NO2)]
 Deg. of freedom    33
 Full point group                 C1      NOp   1
 Largest Abelian subgroup         C1      NOp   1
 Largest concise Abelian subgroup C1      NOp   1
                         Standard orientation:                         
 ---------------------------------------------------------------------
 Center     Atomic      Atomic             Coordinates (Angstroms)
 Number     Number       Type             X           Y           Z
 ---------------------------------------------------------------------
      1          7           0        1.111284    1.413735    0.059010
      2          1           0        2.097497    1.588000   -0.004624
      3          6           0        0.618423    0.112100   -0.003228
      4          1           0        0.045266   -1.082425    0.077439
      5          6           0        1.638915   -0.991653   -0.020540
      6          6           0       -0.705602   -0.123957   -0.035077
      7          1           0        2.268142   -0.952024    0.878857
      8          1           0        1.150446   -1.965945   -0.053018
      9          1           0        2.303592   -0.900982   -0.891293
     10          8           0       -1.621766    0.944988   -0.115997
     11          1           0        0.472455    2.184974   -0.029898
     12          8           0       -1.275578   -1.402824    0.031426
     13          1           0       -2.248055    0.916006    0.639103
 ---------------------------------------------------------------------
 Rotational constants (GHZ):      4.9159297      3.3236701      2.0190591
 Leave Link  202 at Thu Apr 14 11:32:22 2016, MaxMem=    33554432 cpu:         0.0
 (Enter /usr/local/gau/g09/l301.exe)
 Standard basis: 6-31G (6D, 7F)
 Ernie: Thresh=  0.10000D-02 Tol=  0.10000D-05 Strict=F.
 There are    68 symmetry adapted cartesian basis functions of A   symmetry.
 There are    68 symmetry adapted basis functions of A   symmetry.
    68 basis functions,   160 primitive gaussians,    68 cartesian basis functions
    24 alpha electrons       24 beta electrons
       nuclear repulsion energy       248.4209197718 Hartrees.
 IExCor=  402 DFT=T Ex+Corr=B3LYP ExCW=0 ScaHFX=  0.200000
 ScaDFX=  0.800000  0.720000  1.000000  0.810000 ScalE2=  1.000000  1.000000
 IRadAn=      0 IRanWt=     -1 IRanGd=            0 ICorTp=0 IEmpDi=  4
 NAtoms=   13 NActive=   13 NUniq=   13 SFac= 1.00D+00 NAtFMM=   60 NAOKFM=F Big=F
 Integral buffers will be    131072 words long.
 Raffenetti 2 integral format.
 Two-electron integral symmetry is turned on.
 Leave Link  301 at Thu Apr 14 11:32:22 2016, MaxMem=    33554432 cpu:         0.0
 (Enter /usr/local/gau/g09/l302.exe)
 NPDir=0 NMtPBC=     1 NCelOv=     1 NCel=       1 NClECP=     1 NCelD=      1
         NCelK=      1 NCelE2=     1 NClLst=     1 CellRange=     0.0.
 One-electron integrals computed using PRISM.
 NBasis=    68 RedAO= T EigKep=  2.69D-03  NBF=    68
 NBsUse=    68 1.00D-06 EigRej= -1.00D+00 NBFU=    68
 Precomputing XC quadrature grid using
 IXCGrd= 4 IRadAn=           0 IRanWt=          -1 IRanGd=           0 AccXCQ= 0.00D+00.
 Generated NRdTot=       0 NPtTot=           0 NUsed=           0 NTot=          32
 NSgBfM=    68    68    68    68    68 MxSgAt=    13 MxSgA2=    13.
 Leave Link  302 at Thu Apr 14 11:32:23 2016, MaxMem=    33554432 cpu:         0.2
 (Enter /usr/local/gau/g09/l303.exe)
 DipDrv:  MaxL=1.
 Leave Link  303 at Thu Apr 14 11:32:23 2016, MaxMem=    33554432 cpu:         0.0
 (Enter /usr/local/gau/g09/l401.exe)
 ExpMin= 1.61D-01 ExpMax= 5.48D+03 ExpMxC= 8.25D+02 IAcc=1 IRadAn=         1 AccDes= 0.00D+00
 Harris functional with IExCor=  402 and IRadAn=       1 diagonalized for initial guess.
 HarFok:  IExCor=  402 AccDes= 0.00D+00 IRadAn=         1 IDoV= 1 UseB2=F ITyADJ=14
 ICtDFT=  3500011 ScaDFX=  1.000000  1.000000  1.000000  1.000000
 FoFCou: FMM=F IPFlag=           0 FMFlag=      100000 FMFlg1=           0
         NFxFlg=           0 DoJE=T BraDBF=F KetDBF=T FulRan=T
         wScrn=  0.000000 ICntrl=     500 IOpCl=  0 I1Cent=   200000004 NGrid=           0
         NMat0=    1 NMatS0=      1 NMatT0=    0 NMatD0=    1 NMtDS0=    0 NMtDT0=    0
 Petite list used in FoFCou.
 Harris En= -323.468206061920    
 JPrj=0 DoOrth=F DoCkMO=F.
 Leave Link  401 at Thu Apr 14 11:32:26 2016, MaxMem=    33554432 cpu:         0.5
 (Enter /usr/local/gau/g09/l502.exe)
 Closed shell SCF:
 Using DIIS extrapolation, IDIIS=  1040.
 Integral symmetry usage will be decided dynamically.
 Keep R1 ints in memory in canonical form, NReq=3676491.
 IVT=       33364 IEndB=       33364 NGot=    33554432 MDV=    30768038
 LenX=    30768038 LenY=    30762973
 Requested convergence on RMS density matrix=1.00D-08 within 128 cycles.
 Requested convergence on MAX density matrix=1.00D-06.
 Requested convergence on             energy=1.00D-06.
 No special actions if energy rises.
 FoFCou: FMM=F IPFlag=           0 FMFlag=           0 FMFlg1=           0
         NFxFlg=           0 DoJE=F BraDBF=F KetDBF=F FulRan=T
         wScrn=  0.000000 ICntrl=     600 IOpCl=  0 I1Cent=           0 NGrid=           0
         NMat0=    1 NMatS0=   2346 NMatT0=    0 NMatD0=    1 NMtDS0=    0 NMtDT0=    0
 Symmetry not used in FoFCou.
 Integral accuracy reduced to 1.0D-05 until final iterations.

 Cycle   1  Pass 0  IDiag  1:
 E= -323.242567694113    
 DIIS: error= 3.55D-02 at cycle   1 NSaved=   1.
 NSaved= 1 IEnMin= 1 EnMin= -323.242567694113     IErMin= 1 ErrMin= 3.55D-02
 ErrMax= 3.55D-02  0.00D+00 EMaxC= 1.00D-01 BMatC= 1.98D-01 BMatP= 1.98D-01
 IDIUse=3 WtCom= 6.45D-01 WtEn= 3.55D-01
 Coeff-Com:  0.100D+01
 Coeff-En:   0.100D+01
 Coeff:      0.100D+01
 Gap=     0.190 Goal=   None    Shift=    0.000
 GapD=    0.190 DampG=1.000 DampE=0.500 DampFc=0.5000 IDamp=-1.
 Damping current iteration by 5.00D-01
 RMSDP=1.87D-02 MaxDP=3.17D-01              OVMax= 1.75D-01

 Cycle   2  Pass 0  IDiag  1:
 E= -323.299293859034     Delta-E=       -0.056726164921 Rises=F Damp=T
 DIIS: error= 1.17D-02 at cycle   2 NSaved=   2.
 NSaved= 2 IEnMin= 2 EnMin= -323.299293859034     IErMin= 2 ErrMin= 1.17D-02
 ErrMax= 1.17D-02  0.00D+00 EMaxC= 1.00D-01 BMatC= 2.25D-02 BMatP= 1.98D-01
 IDIUse=3 WtCom= 8.83D-01 WtEn= 1.17D-01
 Coeff-Com:  0.203D+00 0.797D+00
 Coeff-En:   0.308D+00 0.692D+00
 Coeff:      0.216D+00 0.784D+00
 Gap=     0.232 Goal=   None    Shift=    0.000
 RMSDP=4.49D-03 MaxDP=7.31D-02 DE=-5.67D-02 OVMax= 1.22D-01

 Cycle   3  Pass 0  IDiag  1:
 E= -323.400639419127     Delta-E=       -0.101345560093 Rises=F Damp=F
 DIIS: error= 1.47D-02 at cycle   3 NSaved=   3.
 NSaved= 3 IEnMin= 3 EnMin= -323.400639419127     IErMin= 2 ErrMin= 1.17D-02
 ErrMax= 1.47D-02  0.00D+00 EMaxC= 1.00D-01 BMatC= 2.22D-02 BMatP= 2.25D-02
 IDIUse=3 WtCom= 8.53D-01 WtEn= 1.47D-01
 Coeff-Com:  0.983D-01 0.501D+00 0.400D+00
 Coeff-En:   0.000D+00 0.000D+00 0.100D+01
 Coeff:      0.839D-01 0.428D+00 0.488D+00
 Gap=     0.204 Goal=   None    Shift=    0.000
 RMSDP=3.78D-03 MaxDP=5.07D-02 DE=-1.01D-01 OVMax= 6.25D-02

 Cycle   4  Pass 0  IDiag  1:
 E= -323.414068549637     Delta-E=       -0.013429130510 Rises=F Damp=F
 DIIS: error= 1.30D-02 at cycle   4 NSaved=   4.
 NSaved= 4 IEnMin= 4 EnMin= -323.414068549637     IErMin= 2 ErrMin= 1.17D-02
 ErrMax= 1.30D-02  0.00D+00 EMaxC= 1.00D-01 BMatC= 7.75D-03 BMatP= 2.22D-02
 IDIUse=3 WtCom= 8.70D-01 WtEn= 1.30D-01
 Coeff-Com:  0.405D-01 0.177D+00 0.356D+00 0.427D+00
 Coeff-En:   0.000D+00 0.000D+00 0.298D+00 0.702D+00
 Coeff:      0.353D-01 0.154D+00 0.349D+00 0.462D+00
 Gap=     0.200 Goal=   None    Shift=    0.000
 RMSDP=1.82D-03 MaxDP=2.28D-02 DE=-1.34D-02 OVMax= 4.16D-02

 Cycle   5  Pass 0  IDiag  1:
 E= -323.420426869682     Delta-E=       -0.006358320046 Rises=F Damp=F
 DIIS: error= 3.66D-03 at cycle   5 NSaved=   5.
 NSaved= 5 IEnMin= 5 EnMin= -323.420426869682     IErMin= 5 ErrMin= 3.66D-03
 ErrMax= 3.66D-03  0.00D+00 EMaxC= 1.00D-01 BMatC= 4.38D-04 BMatP= 7.75D-03
 IDIUse=3 WtCom= 9.63D-01 WtEn= 3.66D-02
 Coeff-Com:  0.649D-02 0.300D-02 0.134D+00 0.296D+00 0.561D+00
 Coeff-En:   0.000D+00 0.000D+00 0.000D+00 0.393D-01 0.961D+00
 Coeff:      0.626D-02 0.289D-02 0.129D+00 0.286D+00 0.575D+00
 Gap=     0.201 Goal=   None    Shift=    0.000
 RMSDP=4.47D-04 MaxDP=7.61D-03 DE=-6.36D-03 OVMax= 1.25D-02

 Cycle   6  Pass 0  IDiag  1:
 E= -323.420868165792     Delta-E=       -0.000441296110 Rises=F Damp=F
 DIIS: error= 6.87D-04 at cycle   6 NSaved=   6.
 NSaved= 6 IEnMin= 6 EnMin= -323.420868165792     IErMin= 6 ErrMin= 6.87D-04
 ErrMax= 6.87D-04  0.00D+00 EMaxC= 1.00D-01 BMatC= 1.33D-05 BMatP= 4.38D-04
 IDIUse=3 WtCom= 9.93D-01 WtEn= 6.87D-03
 Coeff-Com:  0.185D-02-0.373D-02 0.501D-01 0.119D+00 0.288D+00 0.545D+00
 Coeff-En:   0.000D+00 0.000D+00 0.000D+00 0.000D+00 0.000D+00 0.100D+01
 Coeff:      0.184D-02-0.371D-02 0.497D-01 0.118D+00 0.286D+00 0.548D+00
 Gap=     0.200 Goal=   None    Shift=    0.000
 RMSDP=7.89D-05 MaxDP=1.40D-03 DE=-4.41D-04 OVMax= 2.47D-03

 Cycle   7  Pass 0  IDiag  1:
 E= -323.420879878561     Delta-E=       -0.000011712769 Rises=F Damp=F
 DIIS: error= 1.68D-04 at cycle   7 NSaved=   7.
 NSaved= 7 IEnMin= 7 EnMin= -323.420879878561     IErMin= 7 ErrMin= 1.68D-04
 ErrMax= 1.68D-04  0.00D+00 EMaxC= 1.00D-01 BMatC= 2.37D-06 BMatP= 1.33D-05
 IDIUse=3 WtCom= 9.98D-01 WtEn= 1.68D-03
 Coeff-Com:  0.229D-04-0.218D-02 0.416D-02 0.138D-01 0.643D-01 0.346D+00
 Coeff-Com:  0.574D+00
 Coeff-En:   0.000D+00 0.000D+00 0.000D+00 0.000D+00 0.000D+00 0.133D+00
 Coeff-En:   0.867D+00
 Coeff:      0.228D-04-0.217D-02 0.415D-02 0.138D-01 0.642D-01 0.346D+00
 Coeff:      0.574D+00
 Gap=     0.200 Goal=   None    Shift=    0.000
 RMSDP=2.71D-05 MaxDP=3.72D-04 DE=-1.17D-05 OVMax= 4.30D-04

 Cycle   8  Pass 0  IDiag  1:
 E= -323.420881996948     Delta-E=       -0.000002118387 Rises=F Damp=F
 DIIS: error= 2.14D-05 at cycle   8 NSaved=   8.
 NSaved= 8 IEnMin= 8 EnMin= -323.420881996948     IErMin= 8 ErrMin= 2.14D-05
 ErrMax= 2.14D-05  0.00D+00 EMaxC= 1.00D-01 BMatC= 4.70D-08 BMatP= 2.37D-06
 IDIUse=1 WtCom= 1.00D+00 WtEn= 0.00D+00
 Coeff-Com: -0.535D-04-0.856D-03-0.137D-03 0.137D-02 0.181D-01 0.143D+00
 Coeff-Com:  0.262D+00 0.576D+00
 Coeff:     -0.535D-04-0.856D-03-0.137D-03 0.137D-02 0.181D-01 0.143D+00
 Coeff:      0.262D+00 0.576D+00
 Gap=     0.200 Goal=   None    Shift=    0.000
 RMSDP=4.19D-06 MaxDP=5.00D-05 DE=-2.12D-06 OVMax= 4.45D-05

 Initial convergence to 1.0D-05 achieved.  Increase integral accuracy.
 Cycle   9  Pass 1  IDiag  1:
 E= -323.420880936046     Delta-E=        0.000001060901 Rises=F Damp=F
 DIIS: error= 7.48D-06 at cycle   1 NSaved=   1.
 NSaved= 1 IEnMin= 1 EnMin= -323.420880936046     IErMin= 1 ErrMin= 7.48D-06
 ErrMax= 7.48D-06  0.00D+00 EMaxC= 1.00D-01 BMatC= 9.74D-09 BMatP= 9.74D-09
 IDIUse=1 WtCom= 1.00D+00 WtEn= 0.00D+00
 Coeff-Com:  0.100D+01
 Coeff:      0.100D+01
 Gap=     0.200 Goal=   None    Shift=    0.000
 RMSDP=4.19D-06 MaxDP=5.00D-05 DE= 1.06D-06 OVMax= 4.08D-05

 Cycle  10  Pass 1  IDiag  1:
 E= -323.420880946013     Delta-E=       -0.000000009966 Rises=F Damp=F
 DIIS: error= 6.98D-06 at cycle   2 NSaved=   2.
 NSaved= 2 IEnMin= 2 EnMin= -323.420880946013     IErMin= 2 ErrMin= 6.98D-06
 ErrMax= 6.98D-06  0.00D+00 EMaxC= 1.00D-01 BMatC= 6.07D-09 BMatP= 9.74D-09
 IDIUse=1 WtCom= 1.00D+00 WtEn= 0.00D+00
 Coeff-Com:  0.421D+00 0.579D+00
 Coeff:      0.421D+00 0.579D+00
 Gap=     0.200 Goal=   None    Shift=    0.000
 RMSDP=1.81D-06 MaxDP=2.22D-05 DE=-9.97D-09 OVMax= 2.40D-05

 Cycle  11  Pass 1  IDiag  1:
 E= -323.420880949788     Delta-E=       -0.000000003775 Rises=F Damp=F
 DIIS: error= 5.96D-06 at cycle   3 NSaved=   3.
 NSaved= 3 IEnMin= 3 EnMin= -323.420880949788     IErMin= 3 ErrMin= 5.96D-06
 ErrMax= 5.96D-06  0.00D+00 EMaxC= 1.00D-01 BMatC= 2.19D-09 BMatP= 6.07D-09
 IDIUse=1 WtCom= 1.00D+00 WtEn= 0.00D+00
 Coeff-Com:  0.757D-01 0.364D+00 0.560D+00
 Coeff:      0.757D-01 0.364D+00 0.560D+00
 Gap=     0.200 Goal=   None    Shift=    0.000
 RMSDP=1.10D-06 MaxDP=1.37D-05 DE=-3.78D-09 OVMax= 1.73D-05

 Cycle  12  Pass 1  IDiag  1:
 E= -323.420880950977     Delta-E=       -0.000000001189 Rises=F Damp=F
 DIIS: error= 3.35D-06 at cycle   4 NSaved=   4.
 NSaved= 4 IEnMin= 4 EnMin= -323.420880950977     IErMin= 4 ErrMin= 3.35D-06
 ErrMax= 3.35D-06  0.00D+00 EMaxC= 1.00D-01 BMatC= 7.79D-10 BMatP= 2.19D-09
 IDIUse=1 WtCom= 1.00D+00 WtEn= 0.00D+00
 Coeff-Com: -0.153D-01 0.177D+00 0.417D+00 0.421D+00
 Coeff:     -0.153D-01 0.177D+00 0.417D+00 0.421D+00
 Gap=     0.200 Goal=   None    Shift=    0.000
 RMSDP=5.38D-07 MaxDP=7.11D-06 DE=-1.19D-09 OVMax= 9.34D-06

 Cycle  13  Pass 1  IDiag  1:
 E= -323.420880951623     Delta-E=       -0.000000000647 Rises=F Damp=F
 DIIS: error= 7.71D-07 at cycle   5 NSaved=   5.
 NSaved= 5 IEnMin= 5 EnMin= -323.420880951623     IErMin= 5 ErrMin= 7.71D-07
 ErrMax= 7.71D-07  0.00D+00 EMaxC= 1.00D-01 BMatC= 1.61D-11 BMatP= 7.79D-10
 IDIUse=1 WtCom= 1.00D+00 WtEn= 0.00D+00
 Coeff-Com: -0.105D-01 0.840D-01 0.208D+00 0.243D+00 0.476D+00
 Coeff:     -0.105D-01 0.840D-01 0.208D+00 0.243D+00 0.476D+00
 Gap=     0.200 Goal=   None    Shift=    0.000
 RMSDP=8.60D-08 MaxDP=1.19D-06 DE=-6.47D-10 OVMax= 2.55D-06

 Cycle  14  Pass 1  IDiag  1:
 E= -323.420880951639     Delta-E=       -0.000000000015 Rises=F Damp=F
 DIIS: error= 1.57D-07 at cycle   6 NSaved=   6.
 NSaved= 6 IEnMin= 6 EnMin= -323.420880951639     IErMin= 6 ErrMin= 1.57D-07
 ErrMax= 1.57D-07  0.00D+00 EMaxC= 1.00D-01 BMatC= 1.58D-12 BMatP= 1.61D-11
 IDIUse=1 WtCom= 1.00D+00 WtEn= 0.00D+00
 Coeff-Com: -0.362D-02 0.171D-01 0.472D-01 0.698D-01 0.273D+00 0.596D+00
 Coeff:     -0.362D-02 0.171D-01 0.472D-01 0.698D-01 0.273D+00 0.596D+00
 Gap=     0.200 Goal=   None    Shift=    0.000
 RMSDP=2.26D-08 MaxDP=3.45D-07 DE=-1.53D-11 OVMax= 4.24D-07

 Cycle  15  Pass 1  IDiag  1:
 E= -323.420880951640     Delta-E=       -0.000000000002 Rises=F Damp=F
 DIIS: error= 2.53D-08 at cycle   7 NSaved=   7.
 NSaved= 7 IEnMin= 7 EnMin= -323.420880951640     IErMin= 7 ErrMin= 2.53D-08
 ErrMax= 2.53D-08  0.00D+00 EMaxC= 1.00D-01 BMatC= 9.03D-14 BMatP= 1.58D-12
 IDIUse=1 WtCom= 1.00D+00 WtEn= 0.00D+00
 Coeff-Com: -0.765D-03 0.158D-02 0.656D-02 0.135D-01 0.991D-01 0.263D+00
 Coeff-Com:  0.617D+00
 Coeff:     -0.765D-03 0.158D-02 0.656D-02 0.135D-01 0.991D-01 0.263D+00
 Coeff:      0.617D+00
 Gap=     0.200 Goal=   None    Shift=    0.000
 RMSDP=7.50D-09 MaxDP=1.21D-07 DE=-1.59D-12 OVMax= 1.78D-07

 SCF Done:  E(RB3LYP) =  -323.420880952     A.U. after   15 cycles
            NFock= 15  Conv=0.75D-08     -V/T= 2.0044
 KE= 3.219918239731D+02 PE=-1.254305313328D+03 EE= 3.604716886319D+02
 Leave Link  502 at Thu Apr 14 11:33:30 2016, MaxMem=    33554432 cpu:        11.5
 (Enter /usr/local/gau/g09/l801.exe)
 DoSCS=F DFT=T ScalE2(SS,OS)=  1.000000  1.000000
 Range of M.O.s used for correlation:     1    68
 NBasis=    68 NAE=    24 NBE=    24 NFC=     0 NFV=     0
 NROrb=     68 NOA=    24 NOB=    24 NVA=    44 NVB=    44
 Leave Link  801 at Thu Apr 14 11:33:30 2016, MaxMem=    33554432 cpu:         0.0
 (Enter /usr/local/gau/g09/l1101.exe)
 Using compressed storage, NAtomX=    13.
 Will process     14 centers per pass.
 Leave Link 1101 at Thu Apr 14 11:33:30 2016, MaxMem=    33554432 cpu:         0.1
 (Enter /usr/local/gau/g09/l1102.exe)
 Symmetrizing basis deriv contribution to polar:
 IMax=3 JMax=2 DiffMx= 0.00D+00
 Leave Link 1102 at Thu Apr 14 11:33:30 2016, MaxMem=    33554432 cpu:         0.0
 (Enter /usr/local/gau/g09/l1110.exe)
 Forming Gx(P) for the SCF density, NAtomX=    13.
 Integral derivatives from FoFJK, PRISM(SPDF).
 Do as many integral derivatives as possible in FoFJK.
 G2DrvN: MDV=      33554224.
 G2DrvN: will do    14 centers at a time, making    1 passes.
 Calling FoFCou, ICntrl=  3107 FMM=F I1Cent=   0 AccDes= 0.00D+00.
 FoFJK:  IHMeth= 1 ICntrl=    3107 DoSepK=F KAlg= 0 I1Cent=   0 FoldK=F
 IRaf=         0 NMat=   1 IRICut=       1 DoRegI=T DoRafI=F ISym2E= 0.
 FoFCou: FMM=F IPFlag=           0 FMFlag=      100000 FMFlg1=           0
         NFxFlg=           0 DoJE=F BraDBF=F KetDBF=F FulRan=T
         wScrn=  0.000000 ICntrl=    3107 IOpCl=  0 I1Cent=           0 NGrid=           0
         NMat0=    1 NMatS0=      1 NMatT0=    0 NMatD0=    1 NMtDS0=    0 NMtDT0=    0
 Symmetry not used in FoFCou.
 End of G2Drv F.D. properties file   721 does not exist.
 End of G2Drv F.D. properties file   722 does not exist.
 End of G2Drv F.D. properties file   788 does not exist.
 Leave Link 1110 at Thu Apr 14 11:35:16 2016, MaxMem=    33554432 cpu:        24.2
 (Enter /usr/local/gau/g09/l1002.exe)
 Minotr:  Closed shell wavefunction.
          IDoAtm=1111111111111
          Direct CPHF calculation.
          Differentiating once with respect to nuclear coordinates.
          Requested convergence is 1.0D-08 RMS, and 1.0D-07 maximum.
          Secondary convergence is 1.0D-12 RMS, and 1.0D-12 maximum.
          NewPWx=T KeepS1=F KeepF1=F KeepIn=T MapXYZ=F SortEE=F KeepMc=T.
          MDV=      33554230 using IRadAn=       2.
 Generate precomputed XC quadrature information.
 Keep R1 ints in memory in canonical form, NReq=3645297.
 FoFCou: FMM=F IPFlag=           0 FMFlag=           0 FMFlg1=           0
         NFxFlg=           0 DoJE=F BraDBF=F KetDBF=F FulRan=T
         wScrn=  0.000000 ICntrl=     600 IOpCl=  0 I1Cent=           0 NGrid=           0
         NMat0=    1 NMatS0=   2346 NMatT0=    0 NMatD0=    1 NMtDS0=    0 NMtDT0=    0
 Symmetry not used in FoFCou.
          Solving linear equations simultaneously, MaxMat=       0.
          There are    42 degrees of freedom in the 1st order CPHF.  IDoFFX=6 NUNeed=     0.
     36 vectors produced by pass  0 Test12= 2.51D-15 2.38D-09 XBig12= 1.63D-01 1.39D-01.
 AX will form    36 AO Fock derivatives at one time.
     36 vectors produced by pass  1 Test12= 2.51D-15 2.38D-09 XBig12= 2.95D-02 3.61D-02.
     36 vectors produced by pass  2 Test12= 2.51D-15 2.38D-09 XBig12= 1.85D-04 2.34D-03.
     36 vectors produced by pass  3 Test12= 2.51D-15 2.38D-09 XBig12= 2.79D-07 7.78D-05.
     36 vectors produced by pass  4 Test12= 2.51D-15 2.38D-09 XBig12= 2.36D-10 2.47D-06.
     19 vectors produced by pass  5 Test12= 2.51D-15 2.38D-09 XBig12= 1.24D-13 5.52D-08.
 InvSVY:  IOpt=1 It=  1 EMax= 2.00D-15
 Solved reduced A of dimension   199 with    36 vectors.
 End of Minotr F.D. properties file   721 does not exist.
 End of Minotr F.D. properties file   722 does not exist.
 End of Minotr F.D. properties file   788 does not exist.
 Leave Link 1002 at Thu Apr 14 11:36:19 2016, MaxMem=    33554432 cpu:        15.4
 (Enter /usr/local/gau/g09/l601.exe)
 Copying SCF densities to generalized density rwf, IOpCl= 0 IROHF=0.

 **********************************************************************

            Population analysis using the SCF density.

 **********************************************************************

 Orbital symmetries:
       Occupied  (A) (A) (A) (A) (A) (A) (A) (A) (A) (A) (A) (A)
                 (A) (A) (A) (A) (A) (A) (A) (A) (A) (A) (A) (A)
       Virtual   (A) (A) (A) (A) (A) (A) (A) (A) (A) (A) (A) (A)
                 (A) (A) (A) (A) (A) (A) (A) (A) (A) (A) (A) (A)
                 (A) (A) (A) (A) (A) (A) (A) (A) (A) (A) (A) (A)
                 (A) (A) (A) (A) (A) (A) (A) (A)
 The electronic state is 1-A.
 Alpha  occ. eigenvalues --  -19.16247 -19.13316 -14.32996 -10.28413 -10.23835
 Alpha  occ. eigenvalues --  -10.22417  -1.06771  -0.99998  -0.91731  -0.81905
 Alpha  occ. eigenvalues --   -0.72263  -0.58818  -0.56881  -0.52565  -0.46838
 Alpha  occ. eigenvalues --   -0.45748  -0.43556  -0.42866  -0.40003  -0.35420
 Alpha  occ. eigenvalues --   -0.31063  -0.29319  -0.28682  -0.17183
 Alpha virt. eigenvalues --    0.02859   0.04577   0.07054   0.09073   0.12686
 Alpha virt. eigenvalues --    0.13857   0.14802   0.15627   0.20239   0.22362
 Alpha virt. eigenvalues --    0.30723   0.37396   0.44692   0.50622   0.53828
 Alpha virt. eigenvalues --    0.57886   0.61592   0.61955   0.62506   0.67333
 Alpha virt. eigenvalues --    0.72449   0.76226   0.77894   0.80220   0.83314
 Alpha virt. eigenvalues --    0.86102   0.87672   0.89547   0.91628   0.91854
 Alpha virt. eigenvalues --    0.92923   0.95919   1.00101   1.05232   1.08099
 Alpha virt. eigenvalues --    1.11989   1.14941   1.22217   1.28207   1.37416
 Alpha virt. eigenvalues --    1.52256   1.58467   1.87132   1.99399
          Condensed to atoms (all electrons):
               1          2          3          4          5          6
     1  N    6.992192   0.328687   0.194689   0.006463  -0.054158  -0.020933
     2  H    0.328687   0.415650  -0.025854  -0.000564  -0.005094   0.004280
     3  C    0.194689  -0.025854   5.715044  -0.188848   0.373567   0.255280
     4  H    0.006463  -0.000564  -0.188848   0.729360  -0.026400  -0.066090
     5  C   -0.054158  -0.005094   0.373567  -0.026400   5.305988  -0.133182
     6  C   -0.020933   0.004280   0.255280  -0.066090  -0.133182   5.194206
     7  H    0.000423   0.000589  -0.047943  -0.007263   0.356483   0.006840
     8  H    0.003364   0.000029  -0.050258   0.031147   0.355873  -0.010819
     9  H    0.001246   0.001480  -0.039644   0.002008   0.346779   0.000679
    10  O   -0.001772   0.000301  -0.134691   0.025102   0.001235   0.244229
    11  H    0.331423  -0.024202  -0.030046  -0.000524   0.004320  -0.006404
    12  O    0.002646  -0.000052  -0.165105   0.173860  -0.022234   0.244078
    13  H    0.000716  -0.000004   0.003584  -0.003140  -0.000068  -0.038371
               7          8          9         10         11         12
     1  N    0.000423   0.003364   0.001246  -0.001772   0.331423   0.002646
     2  H    0.000589   0.000029   0.001480   0.000301  -0.024202  -0.000052
     3  C   -0.047943  -0.050258  -0.039644  -0.134691  -0.030046  -0.165105
     4  H   -0.007263   0.031147   0.002008   0.025102  -0.000524   0.173860
     5  C    0.356483   0.355873   0.346779   0.001235   0.004320  -0.022234
     6  C    0.006840  -0.010819   0.000679   0.244229  -0.006404   0.244078
     7  H    0.558705  -0.017787  -0.041597   0.000027  -0.000062   0.001049
     8  H   -0.017787   0.475644  -0.018988   0.000039  -0.000178  -0.001288
     9  H   -0.041597  -0.018988   0.559301  -0.000009  -0.000060   0.000452
    10  O    0.000027   0.000039  -0.000009   8.293735   0.013964  -0.078329
    11  H   -0.000062  -0.000178  -0.000060   0.013964   0.382811   0.000193
    12  O    0.001049  -0.001288   0.000452  -0.078329   0.000193   8.363357
    13  H    0.000035   0.000014  -0.000014   0.239041  -0.000688   0.003858
              13
     1  N    0.000716
     2  H   -0.000004
     3  C    0.003584
     4  H   -0.003140
     5  C   -0.000068
     6  C   -0.038371
     7  H    0.000035
     8  H    0.000014
     9  H   -0.000014
    10  O    0.239041
    11  H   -0.000688
    12  O    0.003858
    13  H    0.419189
 Mulliken charges:
               1
     1  N   -0.784986
     2  H    0.304754
     3  C    0.140225
     4  H    0.324890
     5  C   -0.503109
     6  C    0.326208
     7  H    0.190501
     8  H    0.233207
     9  H    0.188369
    10  O   -0.602874
    11  H    0.329453
    12  O   -0.522486
    13  H    0.375848
 Sum of Mulliken charges =   0.00000
 Mulliken charges with hydrogens summed into heavy atoms:
               1
     1  N   -0.150779
     3  C    0.140225
     5  C    0.108968
     6  C    0.651098
    10  O   -0.227026
    12  O   -0.522486
 APT charges:
               1
     1  N   -1.319526
     2  H    0.705786
     3  C    0.188898
     4  H    0.177319
     5  C   -1.244323
     6  C    0.060681
     7  H    0.465415
     8  H    0.391717
     9  H    0.463805
    10  O   -0.761975
    11  H    0.547573
    12  O   -0.333186
    13  H    0.657817
 Sum of APT charges =   0.00000
 APT charges with hydrogens summed into heavy atoms:
               1
     1  N   -0.066168
     3  C    0.188898
     5  C    0.076614
     6  C    0.238000
    10  O   -0.104158
    12  O   -0.333186
 Electronic spatial extent (au):  <R**2>=            598.3998
 Charge=              0.0000 electrons
 Dipole moment (field-independent basis, Debye):
    X=              3.7631    Y=              1.4566    Z=              1.2496  Tot=              4.2242
 Quadrupole moment (field-independent basis, Debye-Ang):
   XX=            -31.6936   YY=            -36.3880   ZZ=            -37.8056
   XY=             -4.2413   XZ=             -4.0285   YZ=              1.0891
 Traceless Quadrupole moment (field-independent basis, Debye-Ang):
   XX=              3.6021   YY=             -1.0923   ZZ=             -2.5098
   XY=             -4.2413   XZ=             -4.0285   YZ=              1.0891
 Octapole moment (field-independent basis, Debye-Ang**2):
  XXX=              0.3503  YYY=             15.5971  ZZZ=              0.6822  XYY=             10.1515
  XXY=             11.1880  XXZ=              7.6596  XZZ=             -4.0136  YZZ=             -0.0945
  YYZ=              0.3839  XYZ=             -4.4849
 Hexadecapole moment (field-independent basis, Debye-Ang**3):
 XXXX=           -345.4210 YYYY=           -258.7567 ZZZZ=            -42.6836 XXXY=             -4.0044
 XXXZ=            -19.8049 YYYX=             -1.4249 YYYZ=              0.0890 ZZZX=             -3.0112
 ZZZY=              0.1988 XXYY=           -111.6087 XXZZ=            -70.3287 YYZZ=            -57.5533
 XXYZ=              6.9727 YYXZ=             -4.8525 ZZXY=             -4.4930
 N-N= 2.484209197718D+02 E-N=-1.254305316783D+03  KE= 3.219918239731D+02
  Exact polarizability:   0.000   0.000   0.000   0.000   0.000   0.000
 Approx polarizability: 113.431  16.886  72.628  -1.323  -0.162  32.217
 No NMR shielding tensors so no spin-rotation constants.
 Leave Link  601 at Thu Apr 14 11:36:19 2016, MaxMem=    33554432 cpu:         0.1
 (Enter /usr/local/gau/g09/l701.exe)
 Compute integral second derivatives.
 ... and contract with generalized density number  0.
 Leave Link  701 at Thu Apr 14 11:36:20 2016, MaxMem=    33554432 cpu:         0.1
 (Enter /usr/local/gau/g09/l702.exe)
 L702 exits ... SP integral derivatives will be done elsewhere.
 Leave Link  702 at Thu Apr 14 11:36:20 2016, MaxMem=    33554432 cpu:         0.0
 (Enter /usr/local/gau/g09/l703.exe)
 Compute integral second derivatives, UseDBF=F ICtDFT=           0.
 Integral derivatives from FoFJK, PRISM(SPDF).
 Calling FoFJK, ICntrl=    100147 FMM=F ISym2X=0 I1Cent= 0 IOpClX= 0 NMat=1 NMatS=1 NMatT=0.
 FoFJK:  IHMeth= 1 ICntrl=  100147 DoSepK=F KAlg= 0 I1Cent=   0 FoldK=F
 IRaf=         0 NMat=   1 IRICut=       1 DoRegI=T DoRafI=F ISym2E= 0.
 FoFCou: FMM=F IPFlag=           0 FMFlag=      100000 FMFlg1=         800
         NFxFlg=           0 DoJE=F BraDBF=F KetDBF=F FulRan=T
         wScrn=  0.000000 ICntrl=  100147 IOpCl=  0 I1Cent=           0 NGrid=           0
         NMat0=    1 NMatS0=      1 NMatT0=    0 NMatD0=    1 NMtDS0=    0 NMtDT0=    0
 Symmetry not used in FoFCou.
 Leave Link  703 at Thu Apr 14 11:38:00 2016, MaxMem=    33554432 cpu:        24.0
 (Enter /usr/local/gau/g09/l716.exe)
 Dipole        = 1.48049876D+00 5.73064723D-01 4.91631257D-01
 Polarizability= 0.00000000D+00 0.00000000D+00 0.00000000D+00
                 0.00000000D+00 0.00000000D+00 0.00000000D+00
 ***** Axes restored to original set *****
 -------------------------------------------------------------------
 Center     Atomic                   Forces (Hartrees/Bohr)
 Number     Number              X              Y              Z
 -------------------------------------------------------------------
      1        7           0.008778960    0.007184819    0.003470044
      2        1          -0.000062371   -0.000004269   -0.000699701
      3        6           0.029393385    0.055699225   -0.010761103
      4        1          -0.050814482   -0.106639825    0.025482152
      5        6           0.022946441   -0.004362453   -0.002699804
      6        6          -0.078744864    0.056675001   -0.011037982
      7        1          -0.003695936   -0.000585001    0.000768679
      8        1           0.008750886   -0.012881684   -0.001733387
      9        1          -0.003793848   -0.001204268   -0.001213215
     10        8           0.013909124    0.003742219    0.003067621
     11        1          -0.001188587   -0.001730262   -0.000430363
     12        8           0.055655235    0.008027068   -0.002130298
     13        1          -0.001133944   -0.003920570   -0.002082643
 -------------------------------------------------------------------
 Cartesian Forces:  Max     0.106639825 RMS     0.028912238
 Force constants in Cartesian coordinates: 
                1             2             3             4             5 
      1  0.868351D+00
      2 -0.374974D-01  0.754588D+00
      3 -0.114447D-01 -0.438235D-01  0.970121D-02
      4 -0.473260D+00 -0.256071D-01  0.320319D-01  0.489864D+00
      5 -0.222130D-01 -0.732510D-01  0.632171D-02  0.303374D-01  0.716923D-01
      6  0.442329D-01  0.668522D-02  0.312624D-02 -0.366045D-01 -0.511686D-02
      7 -0.161907D+00 -0.926543D-01  0.166403D-02 -0.954848D-02 -0.366126D-01
      8 -0.969986D-01 -0.289306D+00  0.898287D-02  0.471891D-02 -0.523589D-02
      9 -0.696654D-02 -0.911134D-02 -0.146205D-01  0.123319D-02  0.277176D-02
     10 -0.173398D-01 -0.906394D-02 -0.611600D-02  0.229013D-03 -0.106441D-02
     11  0.356619D-02 -0.569611D-02 -0.601591D-02 -0.374245D-03  0.301437D-02
     12  0.251359D-02  0.334699D-02 -0.113230D-01  0.675293D-04  0.194831D-03
     13  0.120102D-01 -0.140685D-01 -0.409178D-03  0.133338D-02 -0.630930D-03
     14  0.279174D-01 -0.378053D-01  0.537102D-03  0.113994D-02  0.268385D-02
     15  0.573032D-04  0.284150D-03  0.460293D-02 -0.168838D-03  0.000000D+00
     16 -0.236888D-01 -0.251164D-02  0.326009D-02 -0.535756D-04 -0.621615D-04
     17 -0.531445D-01 -0.734000D-02  0.245039D-02 -0.289209D-03 -0.777922D-02
     18 -0.263539D-02 -0.242957D-02  0.122237D-01  0.411325D-03 -0.141650D-03
     19  0.200518D-02 -0.100901D-02  0.213190D-02  0.342973D-03  0.369345D-03
     20 -0.853444D-03  0.261367D-02 -0.188586D-02 -0.468188D-03 -0.604063D-03
     21  0.704418D-03  0.419192D-03 -0.815109D-04 -0.128129D-03  0.724039D-03
     22 -0.434424D-02  0.230884D-02 -0.235577D-03 -0.146725D-03  0.384579D-03
     23  0.627366D-02 -0.120580D-02  0.226407D-03  0.311244D-03  0.419987D-03
     24  0.883197D-04 -0.348932D-03  0.118793D-02 -0.793426D-04 -0.861215D-04
     25  0.236049D-02 -0.814655D-03 -0.219827D-02  0.442211D-03  0.562667D-03
     26 -0.480629D-03  0.295402D-02  0.155544D-02 -0.774466D-03 -0.636380D-03
     27 -0.700907D-03 -0.612480D-03 -0.388288D-03  0.134087D-03 -0.835978D-03
     28  0.634975D-03 -0.318953D-02 -0.967153D-03  0.185968D-03  0.139587D-02
     29 -0.435820D-03  0.799614D-02  0.281828D-02 -0.990585D-03  0.121063D-02
     30  0.920708D-03 -0.128168D-02 -0.397982D-02  0.253037D-03  0.435881D-03
     31 -0.199499D+00  0.186121D+00 -0.198189D-01 -0.103589D-01  0.292710D-01
     32  0.183380D+00 -0.339862D+00  0.337163D-01 -0.900339D-02  0.838137D-02
     33 -0.270395D-01  0.458118D-01 -0.857162D-02  0.318250D-02 -0.399427D-02
     34 -0.538195D-02 -0.301098D-02  0.210003D-02  0.107330D-02 -0.168557D-02
     35 -0.869604D-02 -0.139475D-01 -0.334211D-02  0.115929D-02  0.548069D-04
     36  0.279502D-03 -0.164839D-03  0.840924D-02 -0.137290D-03 -0.145036D-03
     37  0.589527D-04  0.997529D-03  0.177944D-05 -0.103420D-03 -0.521723D-04
     38 -0.817975D-03  0.261500D-03 -0.154111D-02 -0.159646D-03  0.493042D-04
     39 -0.971874D-05  0.122499D-02 -0.286574D-03 -0.195452D-03 -0.127570D-03
                6             7             8             9            10 
      6  0.141563D-02
      7 -0.247750D-02  0.841208D+00
      8 -0.148281D-02  0.108053D+00  0.680252D+00
      9 -0.409920D-02 -0.476521D-02 -0.112252D-01  0.716334D-01
     10  0.471972D-03  0.189402D-01 -0.455236D-01  0.855845D-02  0.125696D-01
     11 -0.115274D-02 -0.637121D-01 -0.402941D-01  0.206577D-01 -0.965397D-01
     12 -0.262921D-02  0.148232D-03  0.177611D-01  0.403835D-01 -0.304138D-02
     13 -0.452373D-03 -0.132046D+00  0.680038D-01  0.290861D-03 -0.240990D-01
     14 -0.892204D-04  0.337059D-01 -0.170469D+00 -0.755591D-03  0.130201D-01
     15  0.327281D-02  0.163206D-02 -0.877405D-02 -0.667634D-01  0.617447D-02
     16 -0.124606D-02 -0.500100D+00 -0.660780D-01  0.400642D-02  0.211093D-01
     17  0.415847D-03 -0.778721D-03 -0.112511D+00 -0.763439D-02  0.165290D+00
     18 -0.145045D-02  0.787157D-02 -0.315069D-02 -0.379021D-01 -0.903064D-02
     19 -0.328976D-03 -0.208727D-01  0.329594D-02 -0.157726D-01  0.606070D-02
     20  0.871169D-03  0.255718D-01 -0.105179D-02  0.233151D-01 -0.769201D-04
     21 -0.635651D-03 -0.930423D-04  0.829821D-03  0.617186D-02 -0.204440D-02
     22  0.212685D-04  0.178871D-01  0.235055D-01 -0.475595D-03 -0.419772D-02
     23 -0.797889D-04 -0.186716D-01 -0.254868D-01  0.281983D-03  0.160774D-01
     24 -0.746128D-03 -0.527886D-03  0.380468D-04 -0.340253D-02  0.994005D-03
     25  0.245674D-03 -0.226039D-01  0.583255D-02  0.160380D-01  0.388439D-02
     26 -0.563972D-03  0.253830D-01 -0.192776D-02 -0.233006D-01  0.842158D-03
     27 -0.471603D-03  0.576226D-03 -0.436582D-03  0.659932D-02  0.337593D-02
     28 -0.631163D-03 -0.299466D-01  0.466231D-01 -0.235003D-02 -0.695937D-02
     29 -0.493903D-03  0.675261D-02 -0.174897D-01  0.110940D-02 -0.426813D-02
     30 -0.656640D-03 -0.193991D-02 -0.264510D-03  0.753152D-02 -0.313101D-02
     31 -0.484365D-02  0.108636D-01 -0.171817D-01  0.200654D-02  0.182750D-02
     32 -0.142561D-03  0.165119D-01 -0.237872D-01  0.337551D-02  0.258865D-02
     33 -0.427859D-03  0.271440D-03 -0.444646D-02 -0.175758D-02  0.788961D-05
     34  0.119424D-02 -0.123773D-01 -0.358079D-01 -0.322052D-02 -0.131888D-01
     35  0.101491D-02 -0.180327D-02  0.115636D-01  0.502696D-03 -0.436639D-01
     36  0.336471D-02  0.130582D-02  0.193388D-02 -0.285652D-02  0.134783D-02
     37  0.418212D-03  0.503390D-03  0.155762D-02  0.141709D-02  0.116392D-02
     38  0.134716D-03 -0.174508D-02 -0.425669D-02  0.129686D-04  0.238197D-02
     39 -0.626504D-04 -0.366583D-02  0.234654D-03 -0.917718D-03  0.243288D-02
               11            12            13            14            15 
     11  0.100935D+00
     12 -0.427829D-01 -0.806290D-01
     13 -0.952934D-02  0.864346D-03  0.565554D+00
     14  0.244778D-01 -0.282125D-03  0.549556D-01  0.515724D+00
     15  0.636584D-02  0.118106D-01  0.374206D-03  0.124434D-02  0.529979D+00
     16  0.982542D-01 -0.349452D-02 -0.349167D-01  0.608883D-02 -0.540575D-02
     17 -0.402719D-01  0.261502D-01  0.256269D-01  0.944681D-02 -0.934418D-03
     18  0.246693D-01  0.593454D-01  0.900907D-03 -0.289338D-03 -0.100672D-01
     19 -0.705097D-03 -0.122561D-02 -0.132497D+00 -0.484704D-02 -0.118642D+00
     20 -0.410505D-02 -0.594820D-03 -0.470803D-02 -0.472630D-01 -0.143334D-02
     21  0.529696D-03  0.132432D-02 -0.119742D+00 -0.319669D-02 -0.221289D+00
     22  0.509129D-02  0.183755D-02 -0.122652D+00 -0.117451D+00 -0.953152D-03
     23 -0.129415D-01 -0.272274D-02 -0.118609D+00 -0.246341D+00 -0.105417D-02
     24 -0.105953D-02  0.507638D-02 -0.970612D-03 -0.161094D-02 -0.438302D-01
     25 -0.141631D-02 -0.195498D-02 -0.133111D+00 -0.743984D-02  0.119913D+00
     26 -0.342978D-02  0.712088D-03 -0.621970D-02 -0.467239D-01  0.350867D-02
     27 -0.128941D-02  0.744027D-03  0.118089D+00  0.541123D-02 -0.217656D+00
     28 -0.585534D-02 -0.246896D-02  0.534723D-03 -0.431752D-02  0.264258D-02
     29 -0.114660D-01  0.489299D-02 -0.136760D-02  0.285522D-02 -0.365855D-02
     30 -0.210030D-02 -0.125979D-01  0.197851D-02 -0.245925D-03  0.139245D-01
     31  0.692133D-03 -0.183629D-03 -0.161425D-02 -0.375989D-02  0.241382D-03
     32  0.361240D-03 -0.193913D-03 -0.368668D-02 -0.337929D-02  0.900400D-04
     33  0.469729D-03  0.333332D-03 -0.268600D-05 -0.502085D-03  0.562188D-04
     34  0.698491D-01  0.462016D-02  0.239535D-02  0.108812D-02 -0.285514D-02
     35 -0.135978D-01 -0.505896D-02  0.105528D-01 -0.346592D-02  0.218827D-02
     36  0.272943D-02 -0.140385D-01  0.794132D-03 -0.467669D-04 -0.402188D-02
     37  0.679137D-03  0.231768D-02 -0.891556D-03 -0.100171D-03 -0.301060D-02
     38  0.301379D-02 -0.142266D-02 -0.319532D-03  0.259188D-03  0.217394D-02
     39 -0.102081D-02  0.220005D-02 -0.171484D-02 -0.173988D-03 -0.188844D-04
               16            17            18            19            20 
     16  0.790799D+00
     17 -0.696738D-01  0.546959D+00
     18 -0.232929D-01 -0.314623D-01  0.590298D-01
     19  0.200197D-03  0.257869D-02 -0.279472D-02  0.146682D+00
     20 -0.163214D-02 -0.478315D-02  0.224075D-02 -0.207182D-02  0.517122D-01
     21  0.267467D-02 -0.487017D-03 -0.859865D-03  0.132221D+00  0.241953D-02
     22  0.159217D-02 -0.443750D-02  0.226026D-03 -0.965977D-02 -0.170327D-01
     23 -0.554682D-02 -0.296652D-02  0.348664D-03  0.994397D-03  0.108785D-02
     24  0.980664D-04  0.614273D-03  0.181815D-05 -0.136134D-01 -0.248162D-01
     25  0.351343D-02  0.212009D-02  0.373517D-02  0.110279D-01  0.292018D-03
     26 -0.253362D-02 -0.465333D-02 -0.238287D-02  0.195754D-03  0.971212D-03
     27 -0.334429D-02  0.605128D-03 -0.507010D-03  0.165244D-01  0.173218D-02
     28 -0.133205D+00  0.842537D-01 -0.235175D-03 -0.679423D-03  0.813085D-03
     29  0.608545D-01 -0.156944D+00  0.247415D-01  0.589095D-03 -0.136127D-04
     30  0.267347D-01 -0.573681D-02 -0.507449D-01  0.159773D-02 -0.222322D-02
     31  0.317071D-02 -0.491197D-02 -0.422828D-03 -0.146081D-03  0.152170D-03
     32  0.181211D-02 -0.271183D-02  0.258784D-03 -0.142659D-03  0.234331D-03
     33 -0.493546D-03  0.445223D-03  0.348640D-02  0.874893D-04 -0.183732D-03
     34 -0.103386D+00 -0.152170D+00  0.785282D-02 -0.211970D-02 -0.577391D-03
     35 -0.549097D-01 -0.207510D+00  0.142723D-01  0.591649D-03  0.159083D-02
     36  0.748828D-02  0.567178D-02 -0.356441D-01  0.756292D-04  0.614301D-03
     37 -0.250352D-01  0.553583D-02  0.174138D-01 -0.344191D-03  0.591607D-03
     38  0.359383D-01 -0.893563D-02 -0.266749D-01  0.160761D-03 -0.389500D-03
     39 -0.698512D-02  0.990205D-02  0.308831D-02 -0.261368D-03 -0.558666D-04
               21            22            23            24            25 
     21  0.239042D+00
     22  0.185373D-02  0.137046D+00
     23  0.890338D-03  0.122021D+00  0.280542D+00
     24  0.208146D-04 -0.259727D-03  0.309501D-02  0.406736D-01
     25 -0.161545D-01 -0.922802D-02  0.821552D-03  0.140129D-01  0.146033D+00
     26 -0.141780D-02 -0.163834D-01  0.834665D-03  0.244666D-01 -0.547472D-03
     27 -0.235010D-01 -0.207035D-02 -0.911971D-03  0.505434D-03 -0.131975D+00
     28 -0.568349D-04  0.445297D-03  0.536268D-03 -0.890222D-04 -0.153800D-02
     29  0.416350D-03  0.191448D-03  0.108616D-02 -0.148196D-04  0.182338D-02
     30 -0.495737D-03 -0.118667D-04  0.208881D-03  0.602214D-04 -0.171512D-02
     31  0.629232D-04  0.947182D-03 -0.960189D-03 -0.972031D-04 -0.186107D-03
     32  0.815829D-04  0.101333D-02 -0.859070D-03  0.388977D-04 -0.129124D-03
     33  0.185609D-03  0.621843D-05 -0.181425D-03  0.889026D-03 -0.110404D-03
     34  0.499571D-03 -0.777687D-02 -0.312453D-02  0.386630D-03 -0.113179D-02
     35 -0.108702D-02  0.926137D-03  0.617273D-02 -0.312340D-03 -0.772923D-03
     36  0.345074D-04 -0.606052D-04  0.276166D-03 -0.477114D-03  0.220498D-03
     37  0.202622D-03  0.879008D-04 -0.124067D-03  0.572837D-04  0.537160D-03
     38 -0.122018D-03 -0.137577D-03 -0.342877D-03 -0.393453D-05 -0.331944D-03
     39  0.828599D-04  0.122085D-03 -0.377349D-03  0.408214D-04 -0.571918D-04
               26            27            28            29            30 
     26  0.509447D-01
     27 -0.453902D-02  0.234896D+00
     28  0.179507D-02  0.153995D-03  0.331902D+00
     29 -0.748462D-03 -0.370366D-03 -0.121692D+00  0.248765D+00
     30  0.224415D-02 -0.270338D-03 -0.226302D+00 -0.144093D-01  0.319633D+00
     31  0.264530D-03 -0.884464D-04 -0.753839D-03  0.374682D-02  0.341710D-03
     32  0.232479D-03 -0.435081D-04  0.179770D-02  0.156546D-02  0.262581D-03
     33  0.110221D-03  0.197449D-03 -0.133022D-03 -0.182100D-02 -0.247290D-02
     34 -0.996501D-03 -0.597294D-03  0.173635D-01  0.248564D-01  0.112365D-02
     35  0.201307D-02  0.136894D-02 -0.791722D-02 -0.493484D-01  0.738887D-02
     36 -0.574111D-03  0.233835D-04  0.162313D-03  0.467214D-02  0.104870D-01
     37 -0.544709D-03 -0.774597D-04 -0.177984D+00  0.299403D-01  0.200150D+00
     38  0.169491D-03 -0.781655D-04  0.575723D-02 -0.274689D-01  0.157214D-01
     39  0.181175D-03 -0.172185D-03  0.230275D+00 -0.178827D-01 -0.280418D+00
               31            32            33            34            35 
     31  0.197253D+00
     32 -0.193966D+00  0.357810D+00
     33  0.228639D-01 -0.369442D-01  0.967787D-02
     34 -0.155915D-02 -0.817930D-04  0.143650D-03  0.125293D+00
     35 -0.379593D-04  0.133199D-02  0.355103D-03  0.106475D+00  0.264651D+00
     36 -0.991301D-04 -0.351006D-03 -0.171103D-02 -0.100373D-01 -0.166169D-01
     37  0.559145D-04 -0.941672D-04  0.121601D-02  0.795989D-03 -0.190358D-02
     38  0.570566D-03  0.682482D-03  0.881086D-03 -0.481394D-02  0.490690D-03
     39  0.372652D-04 -0.148492D-03  0.115078D-03 -0.121046D-02 -0.673845D-03
               36            37            38            39 
     36  0.378066D-01
     37 -0.133964D-02  0.201155D+00
     38  0.200093D-02 -0.364832D-01  0.364672D-01
     39 -0.137629D-02 -0.218767D+00  0.891777D-02  0.277725D+00
 FormGI is forming the generalized inverse of G from B-inverse, IUseBI=4.
 Leave Link  716 at Thu Apr 14 11:38:00 2016, MaxMem=    33554432 cpu:         0.0
 (Enter /usr/local/gau/g09/l103.exe)

 GradGradGradGradGradGradGradGradGradGradGradGradGradGradGradGradGradGrad
 Berny optimization.
 Red2BG is reusing G-inverse.
 Internal  Forces:  Max     0.093287241 RMS     0.026484797
 Search for a saddle point.
 Step number   1 out of a maximum of   60
 All quantities printed in internal units (Hartrees-Bohrs-Radians)
 Swapping is turned off.
 Second derivative matrix not updated -- analytic derivatives used.
 ITU=  0
     Eigenvalues ---   -0.12071  -0.05510  -0.00407  -0.00051   0.00201
     Eigenvalues ---    0.00643   0.01072   0.02181   0.03164   0.05949
     Eigenvalues ---    0.06353   0.11220   0.11498   0.12975   0.13434
     Eigenvalues ---    0.14549   0.15898   0.18050   0.20395   0.21129
     Eigenvalues ---    0.22879   0.27283   0.32852   0.33659   0.33876
     Eigenvalues ---    0.35617   0.37239   0.41821   0.46621   0.48107
     Eigenvalues ---    0.49081   0.49806   0.71098
 Eigenvectors required to have negative eigenvalues:
                          A16       A19       D14       D11       A13
   1                    0.52158  -0.40272   0.34863   0.34671  -0.33795
                          A20       R6        A15       A17       A14
   1                    0.31112  -0.20711   0.17818  -0.11260  -0.06477
 Eigenvalue     2 is  -5.51D-02 should be greater than     0.000000 Eigenvector:
                          D14       D11       A20       A16       A19
   1                    0.48749   0.46587   0.42243  -0.35699   0.31051
                          A13       R6        A15       A14       D15
   1                    0.22766   0.16597  -0.13684   0.08285   0.06507
 Eigenvalue     3 is  -4.07D-03 should be greater than     0.000000 Eigenvector:
                          D1        D2        D13       D16       D4
   1                   -0.71013  -0.66214  -0.12513  -0.07413   0.06950
                          D9        D11       D17       D12       D10
   1                   -0.06879  -0.06869  -0.05922  -0.05840  -0.05352
 Eigenvalue     4 is  -5.11D-04 should be greater than     0.000000 Eigenvector:
                          D9        D6        D8        D10       D5
   1                    0.46597   0.41975   0.40308   0.40050   0.35685
                          D7        D2        D3        D14       A20
   1                    0.35427  -0.08009   0.07626  -0.05787  -0.05311
 RFO step:  Lambda0=5.407009639D-02 Lambda=-1.33437406D-01.
 Linear search not attempted -- option 19 set.
 Maximum step size (   0.300) exceeded in Quadratic search.
    -- Step size scaled by   0.495
 Iteration  1 RMS(Cart)=  0.07232278 RMS(Int)=  0.02516490
 Iteration  2 RMS(Cart)=  0.02969523 RMS(Int)=  0.00409540
 Iteration  3 RMS(Cart)=  0.00138399 RMS(Int)=  0.00386749
 Iteration  4 RMS(Cart)=  0.00000576 RMS(Int)=  0.00386749
 Iteration  5 RMS(Cart)=  0.00000006 RMS(Int)=  0.00386749
 ITry= 1 IFail=0 DXMaxC= 5.37D-01 DCOld= 1.00D+10 DXMaxT= 3.00D-01 DXLimC= 3.00D+00 Rises=F
 Variable       Old X    -DE/DX   Delta X   Delta X   Delta X     New X
                                 (Linear)    (Quad)   (Total)
    R1        1.89636   0.00000   0.00000   0.00144   0.00144   1.89780
    R2        2.63279   0.00827   0.00000   0.00451   0.00451   2.63730
    R3        1.89992  -0.00072   0.00000   0.00103   0.00103   1.90095
    R4        2.84087   0.02982   0.00000   0.02646   0.02646   2.86732
    R5        2.54221   0.06421   0.00000   0.03682   0.03682   2.57903
    R6        2.31067   0.06465   0.00000   0.06748   0.06748   2.37815
    R7        2.07561  -0.00155   0.00000  -0.00366  -0.00366   2.07195
    R8        2.06050   0.00624   0.00000   0.00568   0.00568   2.06618
    R9        2.07718  -0.00129   0.00000   0.00165   0.00165   2.07883
   R10        2.66481  -0.00754   0.00000  -0.00361  -0.00361   2.66121
   R11        2.64885  -0.03453   0.00000  -0.05274  -0.05274   2.59611
   R12        1.85468  -0.00111   0.00000  -0.00062  -0.00062   1.85406
    A1        2.10258   0.00110   0.00000  -0.01319  -0.01799   2.08459
    A2        2.07788   0.00123   0.00000  -0.00412  -0.00936   2.06852
    A3        2.08053  -0.00258   0.00000  -0.01869  -0.02350   2.05703
    A4        2.03345  -0.01896   0.00000  -0.00958  -0.00958   2.02387
    A5        2.10966  -0.01130   0.00000  -0.00258  -0.00258   2.10708
    A6        2.14004   0.03027   0.00000   0.01216   0.01216   2.15220
    A7        1.93153  -0.00466   0.00000  -0.00946  -0.00946   1.92208
    A8        1.93081   0.02113   0.00000   0.01466   0.01469   1.94550
    A9        1.93804  -0.00480   0.00000  -0.00329  -0.00328   1.93476
   A10        1.88943  -0.00703   0.00000   0.00320   0.00322   1.89265
   A11        1.87473   0.00330   0.00000   0.00806   0.00805   1.88278
   A12        1.89759  -0.00867   0.00000  -0.01336  -0.01334   1.88425
   A13        1.08263   0.09329   0.00000   0.03424   0.04317   1.12579
   A14        2.10339  -0.04061   0.00000  -0.05328  -0.05341   2.04998
   A15        2.16418   0.00539   0.00000   0.01759   0.00868   2.17286
   A16        1.08170  -0.08767   0.00000  -0.01209   0.00641   1.08812
   A17        2.01544   0.03529   0.00000   0.03620   0.04487   2.06031
   A18        1.92628  -0.00402   0.00000   0.00738   0.00738   1.93367
   A19        3.18602   0.05267   0.00000  -0.01904  -0.01025   3.17577
   A20        3.18067   0.00920   0.00000   0.26558   0.26416   3.44483
    D1        0.10954   0.00009   0.00000   0.15884   0.15793   0.26747
    D2       -3.04060   0.00130   0.00000   0.15807   0.15717  -2.88343
    D3        3.02427  -0.00102   0.00000  -0.02297  -0.02206   3.00220
    D4       -0.12587   0.00020   0.00000  -0.02373  -0.02282  -0.14869
    D5        1.03078  -0.00048   0.00000  -0.03196  -0.03195   0.99884
    D6        3.12490   0.00147   0.00000  -0.02455  -0.02455   3.10034
    D7       -1.04963   0.00153   0.00000  -0.03375  -0.03377  -1.08339
    D8       -2.10210  -0.00149   0.00000  -0.03110  -0.03108  -2.13318
    D9       -0.00799   0.00046   0.00000  -0.02369  -0.02369  -0.03168
   D10        2.10067   0.00052   0.00000  -0.03289  -0.03290   2.06777
   D11       -3.01191   0.01008   0.00000   0.30310   0.30142  -2.71049
   D12        0.09061   0.00088   0.00000   0.03751   0.03726   0.12786
   D13       -3.03040  -0.00378   0.00000   0.00579   0.00773  -3.02267
   D14        0.12060   0.01111   0.00000   0.30217   0.30049   0.42109
   D15       -3.06006   0.00191   0.00000   0.03659   0.03632  -3.02374
   D16        0.10211  -0.00275   0.00000   0.00486   0.00680   0.10891
   D17       -2.14441  -0.00539   0.00000  -0.03626  -0.03537  -2.17979
   D18        0.97827  -0.00136   0.00000  -0.00723  -0.00812   0.97015
         Item               Value     Threshold  Converged?
 Maximum Force            0.093287     0.000450     NO 
 RMS     Force            0.026485     0.000300     NO 
 Maximum Displacement     0.537347     0.001800     NO 
 RMS     Displacement     0.094530     0.001200     NO 
 Predicted change in Energy=-3.253940D-02
 Lowest energy point so far.  Saving SCF results.
 GradGradGradGradGradGradGradGradGradGradGradGradGradGradGradGradGradGrad

 Leave Link  103 at Thu Apr 14 11:38:01 2016, MaxMem=    33554432 cpu:         0.0
 (Enter /usr/local/gau/g09/l202.exe)
                          Input orientation:                          
 ---------------------------------------------------------------------
 Center     Atomic      Atomic             Coordinates (Angstroms)
 Number     Number       Type             X           Y           Z
 ---------------------------------------------------------------------
      1          7           0        1.094181    1.305609    0.100308
      2          1           0        2.074158    1.390663   -0.102107
      3          6           0        0.482951    0.053672    0.018152
      4          1           0       -0.259658   -1.067606    0.416818
      5          6           0        1.418021   -1.140602   -0.022115
      6          6           0       -0.876937   -0.057818   -0.010996
      7          1           0        2.067458   -1.141238    0.861283
      8          1           0        0.863332   -2.082567   -0.044278
      9          1           0        2.061075   -1.104572   -0.913929
     10          8           0       -1.623826    1.131533   -0.114780
     11          1           0        0.511702    2.120241    0.005384
     12          8           0       -1.561391   -1.247714    0.043760
     13          1           0       -2.273521    1.199771    0.617236
 ---------------------------------------------------------------------
                    Distance matrix (angstroms):
                    1          2          3          4          5
     1  N    0.000000
     2  H    1.004271   0.000000
     3  C    1.395600   2.081813   0.000000
     4  H    2.750492   3.429150   1.402735   0.000000
     5  C    2.470589   2.616146   1.517323   1.735683   0.000000
     6  C    2.399298   3.288672   1.364762   1.258463   2.537593
     7  H    2.741061   2.709002   2.156233   2.370325   1.096431
     8  H    3.399108   3.678692   2.170738   1.582359   1.093375
     9  H    2.787927   2.624010   2.168128   2.675454   1.100067
    10  O    2.732056   3.707074   2.370225   2.641924   3.797897
    11  H    1.005941   1.727746   2.066808   3.305547   3.384563
    12  O    3.684390   4.494390   2.423551   1.366061   2.982065
    13  H    3.408788   4.410920   3.044764   3.039212   4.417420
                    6          7          8          9         10
     6  C    0.000000
     7  H    3.256398   0.000000
     8  H    2.670066   1.776530   0.000000
     9  H    3.246983   1.775601   1.774079   0.000000
    10  O    1.408251   4.443396   4.064648   4.383754   0.000000
    11  H    2.583124   3.713514   4.217784   3.693929   2.356367
    12  O    1.373801   3.721321   2.565933   3.749656   2.385341
    13  H    1.981578   4.938014   4.588157   5.142294   0.981126
                   11         12         13
    11  H    0.000000
    12  O    3.955036   0.000000
    13  H    2.996515   2.612697   0.000000
 Stoichiometry    C3H7NO2
 Framework group  C1[X(C3H7NO2)]
 Deg. of freedom    33
 Full point group                 C1      NOp   1
 RotChk:  IX=0 Diff= 4.38D-02
 Largest Abelian subgroup         C1      NOp   1
 Largest concise Abelian subgroup C1      NOp   1
                         Standard orientation:                         
 ---------------------------------------------------------------------
 Center     Atomic      Atomic             Coordinates (Angstroms)
 Number     Number       Type             X           Y           Z
 ---------------------------------------------------------------------
      1          7           0        1.074078    1.425992    0.086557
      2          1           0        2.037785    1.624668   -0.114335
      3          6           0        0.612317    0.111802    0.000654
      4          1           0        0.004390   -1.089044    0.395698
      5          6           0        1.679677   -0.965819   -0.041137
      6          6           0       -0.725420   -0.156637   -0.030590
      7          1           0        2.323856   -0.893289    0.843133
      8          1           0        1.238047   -1.965719   -0.066248
      9          1           0        2.315163   -0.853218   -0.931995
     10          8           0       -1.605145    0.938282   -0.132607
     11          1           0        0.401120    2.167775   -0.007252
     12          8           0       -1.267256   -1.418040    0.020464
     13          1           0       -2.259153    0.928870    0.598688
 ---------------------------------------------------------------------
 Rotational constants (GHZ):      4.8886160      3.3217544      2.0177129
 Leave Link  202 at Thu Apr 14 11:38:01 2016, MaxMem=    33554432 cpu:         0.0
 (Enter /usr/local/gau/g09/l301.exe)
 Standard basis: 6-31G (6D, 7F)
 Ernie: Thresh=  0.10000D-02 Tol=  0.10000D-05 Strict=F.
 There are    68 symmetry adapted cartesian basis functions of A   symmetry.
 There are    68 symmetry adapted basis functions of A   symmetry.
    68 basis functions,   160 primitive gaussians,    68 cartesian basis functions
    24 alpha electrons       24 beta electrons
       nuclear repulsion energy       247.8944663684 Hartrees.
 IExCor=  402 DFT=T Ex+Corr=B3LYP ExCW=0 ScaHFX=  0.200000
 ScaDFX=  0.800000  0.720000  1.000000  0.810000 ScalE2=  1.000000  1.000000
 IRadAn=      0 IRanWt=     -1 IRanGd=            0 ICorTp=0 IEmpDi=  4
 NAtoms=   13 NActive=   13 NUniq=   13 SFac= 1.00D+00 NAtFMM=   60 NAOKFM=F Big=F
 Integral buffers will be    131072 words long.
 Raffenetti 2 integral format.
 Two-electron integral symmetry is turned on.
 Leave Link  301 at Thu Apr 14 11:38:01 2016, MaxMem=    33554432 cpu:         0.0
 (Enter /usr/local/gau/g09/l302.exe)
 NPDir=0 NMtPBC=     1 NCelOv=     1 NCel=       1 NClECP=     1 NCelD=      1
         NCelK=      1 NCelE2=     1 NClLst=     1 CellRange=     0.0.
 One-electron integrals computed using PRISM.
 NBasis=    68 RedAO= T EigKep=  2.99D-03  NBF=    68
 NBsUse=    68 1.00D-06 EigRej= -1.00D+00 NBFU=    68
 Precomputing XC quadrature grid using
 IXCGrd= 4 IRadAn=           0 IRanWt=          -1 IRanGd=           0 AccXCQ= 0.00D+00.
 Generated NRdTot=       0 NPtTot=           0 NUsed=           0 NTot=          32
 NSgBfM=    68    68    68    68    68 MxSgAt=    13 MxSgA2=    13.
 Leave Link  302 at Thu Apr 14 11:38:01 2016, MaxMem=    33554432 cpu:         0.2
 (Enter /usr/local/gau/g09/l303.exe)
 DipDrv:  MaxL=1.
 Leave Link  303 at Thu Apr 14 11:38:02 2016, MaxMem=    33554432 cpu:         0.0
 (Enter /usr/local/gau/g09/l401.exe)
 Initial guess from the checkpoint file:  "Ala-S-opt-freq-tsa3-6-31g.chk"
 B after Tr=     0.000000    0.000000    0.000000
         Rot=    0.999975    0.000381    0.000191   -0.007083 Ang=   0.81 deg.
 Guess basis will be translated and rotated to current coordinates.
 JPrj=2 DoOrth=T DoCkMO=T.
 Generating alternative initial guess.
 ExpMin= 1.61D-01 ExpMax= 5.48D+03 ExpMxC= 8.25D+02 IAcc=1 IRadAn=         1 AccDes= 0.00D+00
 Harris functional with IExCor=  402 and IRadAn=       1 diagonalized for initial guess.
 HarFok:  IExCor=  402 AccDes= 0.00D+00 IRadAn=         1 IDoV= 1 UseB2=F ITyADJ=14
 ICtDFT=  3500011 ScaDFX=  1.000000  1.000000  1.000000  1.000000
 FoFCou: FMM=F IPFlag=           0 FMFlag=      100000 FMFlg1=           0
         NFxFlg=           0 DoJE=T BraDBF=F KetDBF=T FulRan=T
         wScrn=  0.000000 ICntrl=     500 IOpCl=  0 I1Cent=   200000004 NGrid=           0
         NMat0=    1 NMatS0=      1 NMatT0=    0 NMatD0=    1 NMtDS0=    0 NMtDT0=    0
 Petite list used in FoFCou.
 Harris En= -323.498853120003    
 Leave Link  401 at Thu Apr 14 11:38:04 2016, MaxMem=    33554432 cpu:         0.5
 (Enter /usr/local/gau/g09/l502.exe)
 Closed shell SCF:
 Using DIIS extrapolation, IDIIS=  1040.
 Integral symmetry usage will be decided dynamically.
 Keep R1 ints in memory in canonical form, NReq=3676491.
 IVT=       33364 IEndB=       33364 NGot=    33554432 MDV=    30768038
 LenX=    30768038 LenY=    30762973
 Requested convergence on RMS density matrix=1.00D-08 within 128 cycles.
 Requested convergence on MAX density matrix=1.00D-06.
 Requested convergence on             energy=1.00D-06.
 No special actions if energy rises.
 FoFCou: FMM=F IPFlag=           0 FMFlag=           0 FMFlg1=           0
         NFxFlg=           0 DoJE=F BraDBF=F KetDBF=F FulRan=T
         wScrn=  0.000000 ICntrl=     600 IOpCl=  0 I1Cent=           0 NGrid=           0
         NMat0=    1 NMatS0=   2346 NMatT0=    0 NMatD0=    1 NMtDS0=    0 NMtDT0=    0
 Symmetry not used in FoFCou.
 Integral accuracy reduced to 1.0D-05 until final iterations.

 Cycle   1  Pass 0  IDiag  1:
 E= -323.424288530233    
 DIIS: error= 1.11D-02 at cycle   1 NSaved=   1.
 NSaved= 1 IEnMin= 1 EnMin= -323.424288530233     IErMin= 1 ErrMin= 1.11D-02
 ErrMax= 1.11D-02  0.00D+00 EMaxC= 1.00D-01 BMatC= 1.11D-02 BMatP= 1.11D-02
 IDIUse=3 WtCom= 8.89D-01 WtEn= 1.11D-01
 Coeff-Com:  0.100D+01
 Coeff-En:   0.100D+01
 Coeff:      0.100D+01
 Recover alternate guess density for next cycle.
 RMSDP=9.52D-03 MaxDP=1.22D-01              OVMax= 0.00D+00

 Cycle   2  Pass 0  IDiag  1:
 E= -323.263405147174     Delta-E=        0.160883383059 Rises=F Damp=F
 Switch densities from cycles 1 and 2 for lowest energy.
 DIIS: error= 3.54D-02 at cycle   2 NSaved=   2.
 NSaved= 2 IEnMin= 1 EnMin= -323.424288530233     IErMin= 1 ErrMin= 1.11D-02
 ErrMax= 3.54D-02  0.00D+00 EMaxC= 1.00D+00 BMatC= 2.07D-01 BMatP= 1.11D-02
 IDIUse=1 WtCom= 1.00D+00 WtEn= 0.00D+00
 Coeff-Com:  0.945D+00 0.547D-01
 Coeff:      0.945D+00 0.547D-01
 Gap=     0.199 Goal=   None    Shift=    0.000
 RMSDP=5.13D-03 MaxDP=5.68D-02 DE= 1.61D-01 OVMax= 6.93D-02

 Cycle   3  Pass 0  IDiag  1:
 E= -323.447388047046     Delta-E=       -0.183982899872 Rises=F Damp=F
 DIIS: error= 7.34D-03 at cycle   3 NSaved=   3.
 NSaved= 3 IEnMin= 3 EnMin= -323.447388047046     IErMin= 3 ErrMin= 7.34D-03
 ErrMax= 7.34D-03  0.00D+00 EMaxC= 1.00D+00 BMatC= 2.88D-03 BMatP= 1.11D-02
 IDIUse=1 WtCom= 1.00D+00 WtEn= 0.00D+00
 Coeff-Com:  0.187D+00 0.423D-01 0.771D+00
 Coeff:      0.187D+00 0.423D-01 0.771D+00
 Gap=     0.200 Goal=   None    Shift=    0.000
 RMSDP=2.20D-03 MaxDP=2.55D-02 DE=-1.84D-01 OVMax= 5.40D-02

 Cycle   4  Pass 0  IDiag  1:
 E= -323.442975517642     Delta-E=        0.004412529403 Rises=F Damp=F
 DIIS: error= 1.40D-02 at cycle   4 NSaved=   4.
 NSaved= 4 IEnMin= 3 EnMin= -323.447388047046     IErMin= 3 ErrMin= 7.34D-03
 ErrMax= 1.40D-02  0.00D+00 EMaxC= 1.00D+00 BMatC= 8.18D-03 BMatP= 2.88D-03
 IDIUse=1 WtCom= 1.00D+00 WtEn= 0.00D+00
 Coeff-Com: -0.434D-01 0.401D-01 0.639D+00 0.364D+00
 Coeff:     -0.434D-01 0.401D-01 0.639D+00 0.364D+00
 Gap=     0.199 Goal=   None    Shift=    0.000
 RMSDP=1.58D-03 MaxDP=1.93D-02 DE= 4.41D-03 OVMax= 3.73D-02

 Cycle   5  Pass 0  IDiag  1:
 E= -323.450268981090     Delta-E=       -0.007293463448 Rises=F Damp=F
 DIIS: error= 6.31D-04 at cycle   5 NSaved=   5.
 NSaved= 5 IEnMin= 5 EnMin= -323.450268981090     IErMin= 5 ErrMin= 6.31D-04
 ErrMax= 6.31D-04  0.00D+00 EMaxC= 1.00D+00 BMatC= 1.81D-05 BMatP= 2.88D-03
 IDIUse=1 WtCom= 1.00D+00 WtEn= 0.00D+00
 Coeff-Com: -0.168D-01 0.123D-01 0.187D+00 0.120D+00 0.697D+00
 Coeff:     -0.168D-01 0.123D-01 0.187D+00 0.120D+00 0.697D+00
 Gap=     0.199 Goal=   None    Shift=    0.000
 RMSDP=1.44D-04 MaxDP=1.59D-03 DE=-7.29D-03 OVMax= 3.20D-03

 Cycle   6  Pass 0  IDiag  1:
 E= -323.450284535015     Delta-E=       -0.000015553925 Rises=F Damp=F
 DIIS: error= 2.43D-04 at cycle   6 NSaved=   6.
 NSaved= 6 IEnMin= 6 EnMin= -323.450284535015     IErMin= 6 ErrMin= 2.43D-04
 ErrMax= 2.43D-04  0.00D+00 EMaxC= 1.00D+00 BMatC= 6.72D-06 BMatP= 1.81D-05
 IDIUse=1 WtCom= 1.00D+00 WtEn= 0.00D+00
 Coeff-Com: -0.185D-02-0.282D-03 0.271D-02 0.964D-02 0.390D+00 0.600D+00
 Coeff:     -0.185D-02-0.282D-03 0.271D-02 0.964D-02 0.390D+00 0.600D+00
 Gap=     0.199 Goal=   None    Shift=    0.000
 RMSDP=4.61D-05 MaxDP=6.06D-04 DE=-1.56D-05 OVMax= 8.66D-04

 Cycle   7  Pass 0  IDiag  1:
 E= -323.450291105091     Delta-E=       -0.000006570076 Rises=F Damp=F
 DIIS: error= 4.61D-05 at cycle   7 NSaved=   7.
 NSaved= 7 IEnMin= 7 EnMin= -323.450291105091     IErMin= 7 ErrMin= 4.61D-05
 ErrMax= 4.61D-05  0.00D+00 EMaxC= 1.00D+00 BMatC= 2.17D-07 BMatP= 6.72D-06
 IDIUse=1 WtCom= 1.00D+00 WtEn= 0.00D+00
 Coeff-Com:  0.992D-04-0.743D-03-0.883D-02-0.210D-02 0.132D+00 0.235D+00
 Coeff-Com:  0.644D+00
 Coeff:      0.992D-04-0.743D-03-0.883D-02-0.210D-02 0.132D+00 0.235D+00
 Coeff:      0.644D+00
 Gap=     0.199 Goal=   None    Shift=    0.000
 RMSDP=1.46D-05 MaxDP=1.32D-04 DE=-6.57D-06 OVMax= 3.11D-04

 Cycle   8  Pass 0  IDiag  1:
 E= -323.450291273407     Delta-E=       -0.000000168316 Rises=F Damp=F
 DIIS: error= 3.80D-05 at cycle   8 NSaved=   8.
 NSaved= 8 IEnMin= 8 EnMin= -323.450291273407     IErMin= 8 ErrMin= 3.80D-05
 ErrMax= 3.80D-05  0.00D+00 EMaxC= 1.00D+00 BMatC= 9.00D-08 BMatP= 2.17D-07
 IDIUse=1 WtCom= 1.00D+00 WtEn= 0.00D+00
 Coeff-Com:  0.291D-03-0.293D-03-0.502D-02-0.259D-02 0.403D-02 0.154D-01
 Coeff-Com:  0.400D+00 0.588D+00
 Coeff:      0.291D-03-0.293D-03-0.502D-02-0.259D-02 0.403D-02 0.154D-01
 Coeff:      0.400D+00 0.588D+00
 Gap=     0.199 Goal=   None    Shift=    0.000
 RMSDP=6.66D-06 MaxDP=6.71D-05 DE=-1.68D-07 OVMax= 1.31D-04

 Initial convergence to 1.0D-05 achieved.  Increase integral accuracy.
 Cycle   9  Pass 1  IDiag  1:
 E= -323.450294566738     Delta-E=       -0.000003293331 Rises=F Damp=F
 DIIS: error= 8.48D-06 at cycle   1 NSaved=   1.
 NSaved= 1 IEnMin= 1 EnMin= -323.450294566738     IErMin= 1 ErrMin= 8.48D-06
 ErrMax= 8.48D-06  0.00D+00 EMaxC= 1.00D+00 BMatC= 1.29D-08 BMatP= 1.29D-08
 IDIUse=1 WtCom= 1.00D+00 WtEn= 0.00D+00
 Coeff-Com:  0.100D+01
 Coeff:      0.100D+01
 Gap=     0.199 Goal=   None    Shift=    0.000
 RMSDP=6.66D-06 MaxDP=6.71D-05 DE=-3.29D-06 OVMax= 5.38D-05

 Cycle  10  Pass 1  IDiag  1:
 E= -323.450294579618     Delta-E=       -0.000000012880 Rises=F Damp=F
 DIIS: error= 1.01D-05 at cycle   2 NSaved=   2.
 NSaved= 2 IEnMin= 2 EnMin= -323.450294579618     IErMin= 1 ErrMin= 8.48D-06
 ErrMax= 1.01D-05  0.00D+00 EMaxC= 1.00D+00 BMatC= 7.96D-09 BMatP= 1.29D-08
 IDIUse=1 WtCom= 1.00D+00 WtEn= 0.00D+00
 Coeff-Com:  0.416D+00 0.584D+00
 Coeff:      0.416D+00 0.584D+00
 Gap=     0.199 Goal=   None    Shift=    0.000
 RMSDP=2.58D-06 MaxDP=2.74D-05 DE=-1.29D-08 OVMax= 5.74D-05

 Cycle  11  Pass 1  IDiag  1:
 E= -323.450294583314     Delta-E=       -0.000000003696 Rises=F Damp=F
 DIIS: error= 1.11D-05 at cycle   3 NSaved=   3.
 NSaved= 3 IEnMin= 3 EnMin= -323.450294583314     IErMin= 1 ErrMin= 8.48D-06
 ErrMax= 1.11D-05  0.00D+00 EMaxC= 1.00D+00 BMatC= 4.50D-09 BMatP= 7.96D-09
 IDIUse=1 WtCom= 1.00D+00 WtEn= 0.00D+00
 Coeff-Com:  0.547D-01 0.418D+00 0.527D+00
 Coeff:      0.547D-01 0.418D+00 0.527D+00
 Gap=     0.199 Goal=   None    Shift=    0.000
 RMSDP=1.57D-06 MaxDP=2.16D-05 DE=-3.70D-09 OVMax= 3.91D-05

 Cycle  12  Pass 1  IDiag  1:
 E= -323.450294586577     Delta-E=       -0.000000003263 Rises=F Damp=F
 DIIS: error= 4.46D-06 at cycle   4 NSaved=   4.
 NSaved= 4 IEnMin= 4 EnMin= -323.450294586577     IErMin= 4 ErrMin= 4.46D-06
 ErrMax= 4.46D-06  0.00D+00 EMaxC= 1.00D+00 BMatC= 1.18D-09 BMatP= 4.50D-09
 IDIUse=1 WtCom= 1.00D+00 WtEn= 0.00D+00
 Coeff-Com: -0.222D-01 0.225D+00 0.394D+00 0.402D+00
 Coeff:     -0.222D-01 0.225D+00 0.394D+00 0.402D+00
 Gap=     0.199 Goal=   None    Shift=    0.000
 RMSDP=5.71D-07 MaxDP=6.79D-06 DE=-3.26D-09 OVMax= 1.13D-05

 Cycle  13  Pass 1  IDiag  1:
 E= -323.450294587621     Delta-E=       -0.000000001044 Rises=F Damp=F
 DIIS: error= 5.25D-07 at cycle   5 NSaved=   5.
 NSaved= 5 IEnMin= 5 EnMin= -323.450294587621     IErMin= 5 ErrMin= 5.25D-07
 ErrMax= 5.25D-07  0.00D+00 EMaxC= 1.00D+00 BMatC= 1.71D-11 BMatP= 1.18D-09
 IDIUse=1 WtCom= 1.00D+00 WtEn= 0.00D+00
 Coeff-Com: -0.137D-01 0.117D+00 0.211D+00 0.227D+00 0.459D+00
 Coeff:     -0.137D-01 0.117D+00 0.211D+00 0.227D+00 0.459D+00
 Gap=     0.199 Goal=   None    Shift=    0.000
 RMSDP=7.15D-08 MaxDP=8.47D-07 DE=-1.04D-09 OVMax= 1.06D-06

 Cycle  14  Pass 1  IDiag  1:
[...]
    A5        2.07940   0.00001   0.00000   0.00005   0.00005   2.07945
    A6        2.11754   0.00000   0.00000   0.00003   0.00003   2.11756
    A7        1.96062  -0.00001   0.00000  -0.00007  -0.00007   1.96055
    A8        1.91322   0.00002   0.00000   0.00011   0.00011   1.91333
    A9        1.92093   0.00000   0.00000   0.00001   0.00001   1.92093
   A10        1.90337   0.00000   0.00000  -0.00005  -0.00005   1.90332
   A11        1.87470   0.00000   0.00000   0.00004   0.00004   1.87473
   A12        1.88935  -0.00001   0.00000  -0.00004  -0.00004   1.88931
   A13        1.90818  -0.00001   0.00000   0.00004   0.00004   1.90821
   A14        1.99373   0.00001   0.00000   0.00001   0.00001   1.99375
   A15        2.19821   0.00002   0.00000   0.00013   0.00013   2.19834
   A16        1.05527   0.00002   0.00000  -0.00009  -0.00009   1.05517
   A17        2.02192  -0.00003   0.00000  -0.00011  -0.00011   2.02182
   A18        1.87354   0.00001   0.00000   0.00003   0.00003   1.87357
   A19        3.90191  -0.00001   0.00000   0.00005   0.00005   3.90196
   A20        3.90033   0.00000   0.00000   0.00000   0.00000   3.90033
    D1       -0.16907   0.00000   0.00000   0.00025   0.00025  -0.16882
    D2        2.89713   0.00001   0.00000   0.00051   0.00051   2.89764
    D3        3.03965   0.00000   0.00000  -0.00014  -0.00014   3.03951
    D4       -0.17735   0.00000   0.00000   0.00012   0.00012  -0.17722
    D5        1.03169   0.00000   0.00000   0.00023   0.00023   1.03192
    D6       -3.13248   0.00000   0.00000   0.00020   0.00020  -3.13228
    D7       -1.05629   0.00000   0.00000   0.00022   0.00022  -1.05607
    D8       -2.03280   0.00000   0.00000  -0.00004  -0.00004  -2.03284
    D9        0.08621   0.00000   0.00000  -0.00007  -0.00007   0.08614
   D10        2.16240   0.00000   0.00000  -0.00005  -0.00005   2.16235
   D11       -2.20934   0.00000   0.00000  -0.00018  -0.00018  -2.20951
   D12        0.17351   0.00000   0.00000  -0.00018  -0.00018   0.17334
   D13        2.90474  -0.00001   0.00000  -0.00009  -0.00009   2.90465
   D14        0.85534   0.00001   0.00000   0.00009   0.00009   0.85543
   D15       -3.04499   0.00000   0.00000   0.00009   0.00009  -3.04490
   D16       -0.31376  -0.00001   0.00000   0.00017   0.00017  -0.31359
   D17        2.86760   0.00000   0.00000   0.00019   0.00019   2.86778
   D18        0.09305   0.00000   0.00000   0.00006   0.00006   0.09311
         Item               Value     Threshold  Converged?
 Maximum Force            0.000028     0.000450     YES
 RMS     Force            0.000010     0.000300     YES
 Maximum Displacement     0.000549     0.001800     YES
 RMS     Displacement     0.000131     0.001200     YES
 Predicted change in Energy=-1.079201D-08
 Optimization completed.
    -- Stationary point found.
                           ----------------------------
                           !   Optimized Parameters   !
                           ! (Angstroms and Degrees)  !
 --------------------------                            --------------------------
 ! Name  Definition              Value          Derivative Info.                !
 --------------------------------------------------------------------------------
 ! R1    R(1,2)                  1.0062         -DE/DX =    0.0                 !
 ! R2    R(1,3)                  1.3624         -DE/DX =    0.0                 !
 ! R3    R(1,11)                 1.0091         -DE/DX =    0.0                 !
 ! R4    R(3,5)                  1.497          -DE/DX =    0.0                 !
 ! R5    R(3,6)                  1.3981         -DE/DX =    0.0                 !
 ! R6    R(4,6)                  1.2133         -DE/DX =    0.0                 !
 ! R7    R(5,7)                  1.0993         -DE/DX =    0.0                 !
 ! R8    R(5,8)                  1.0912         -DE/DX =    0.0                 !
 ! R9    R(5,9)                  1.0979         -DE/DX =    0.0                 !
 ! R10   R(6,10)                 1.4203         -DE/DX =    0.0                 !
 ! R11   R(6,12)                 1.4541         -DE/DX =    0.0                 !
 ! R12   R(10,13)                0.9773         -DE/DX =    0.0                 !
 ! A1    A(2,1,3)              121.8841         -DE/DX =    0.0                 !
 ! A2    A(2,1,11)             119.4272         -DE/DX =    0.0                 !
 ! A3    A(3,1,11)             118.5782         -DE/DX =    0.0                 !
 ! A4    A(1,3,5)              119.3881         -DE/DX =    0.0                 !
 ! A5    A(1,3,6)              119.1408         -DE/DX =    0.0                 !
 ! A6    A(5,3,6)              121.326          -DE/DX =    0.0                 !
 ! A7    A(3,5,7)              112.335          -DE/DX =    0.0                 !
 ! A8    A(3,5,8)              109.6195         -DE/DX =    0.0                 !
 ! A9    A(3,5,9)              110.061          -DE/DX =    0.0                 !
 ! A10   A(7,5,8)              109.0552         -DE/DX =    0.0                 !
 ! A11   A(7,5,9)              107.4121         -DE/DX =    0.0                 !
 ! A12   A(8,5,9)              108.2519         -DE/DX =    0.0                 !
 ! A13   A(3,6,4)              109.3305         -DE/DX =    0.0                 !
 ! A14   A(3,6,10)             114.2324         -DE/DX =    0.0                 !
 ! A15   A(3,6,12)             125.9481         -DE/DX =    0.0                 !
 ! A16   A(4,6,12)              60.4623         -DE/DX =    0.0                 !
 ! A17   A(10,6,12)            115.8478         -DE/DX =    0.0                 !
 ! A18   A(6,10,13)            107.3459         -DE/DX =    0.0                 !
 ! A19   L(4,6,10,3,-1)        223.5629         -DE/DX =    0.0                 !
 ! A20   L(4,6,10,3,-2)        223.4727         -DE/DX =    0.0                 !
 ! D1    D(2,1,3,5)             -9.6867         -DE/DX =    0.0                 !
 ! D2    D(2,1,3,6)            165.9932         -DE/DX =    0.0                 !
 ! D3    D(11,1,3,5)           174.1589         -DE/DX =    0.0                 !
 ! D4    D(11,1,3,6)           -10.1612         -DE/DX =    0.0                 !
 ! D5    D(1,3,5,7)             59.1116         -DE/DX =    0.0                 !
 ! D6    D(1,3,5,8)           -179.4779         -DE/DX =    0.0                 !
 ! D7    D(1,3,5,9)            -60.5212         -DE/DX =    0.0                 !
 ! D8    D(6,3,5,7)           -116.471          -DE/DX =    0.0                 !
 ! D9    D(6,3,5,8)              4.9394         -DE/DX =    0.0                 !
 ! D10   D(6,3,5,9)            123.8962         -DE/DX =    0.0                 !
 ! D11   D(1,3,6,4)           -126.5858         -DE/DX =    0.0                 !
 ! D12   D(1,3,6,10)             9.9415         -DE/DX =    0.0                 !
 ! D13   D(1,3,6,12)           166.4296         -DE/DX =    0.0                 !
 ! D14   D(5,3,6,4)             49.0076         -DE/DX =    0.0                 !
 ! D15   D(5,3,6,10)          -174.4651         -DE/DX =    0.0                 !
 ! D16   D(5,3,6,12)           -17.9771         -DE/DX =    0.0                 !
 ! D17   D(3,6,10,13)          164.3012         -DE/DX =    0.0                 !
 ! D18   D(12,6,10,13)           5.3316         -DE/DX =    0.0                 !
 --------------------------------------------------------------------------------
 GradGradGradGradGradGradGradGradGradGradGradGradGradGradGradGradGradGrad

 Leave Link  103 at Thu Apr 14 12:01:50 2016, MaxMem=    33554432 cpu:         0.0
 (Enter /usr/local/gau/g09/l9999.exe)

 Test job not archived.
 1\1\GINC-KALI\Freq\RB3LYP\6-31G\C3H7N1O2\ROOT\14-Apr-2016\0\\#P Geom=A
 llCheck Guess=TCheck SCRF=Check Test GenChk RB3LYP/6-31G Freq\\Ala-S-o
 pt-freq-tsa3-6-31g\\0,1\N,1.1664398324,1.3055220963,-0.0192922913\H,2.
 1620178944,1.4425038601,0.0305505336\C,0.6099676524,0.0619969895,-0.01
 349208\H,-0.9489704734,-0.8482443461,1.1228062495\C,1.4932970311,-1.13
 8736966,-0.151010985\C,-0.7636834091,-0.0681463928,0.2121603677\H,2.24
 53756081,-1.1978573148,0.6485580885\H,0.8851442327,-2.04468516,-0.1357
 812726\H,2.0321711604,-1.1023538869,-1.1068820003\O,-1.4762553356,1.16
 03977033,0.1949711102\H,0.5547618637,2.1081134672,-0.0159470741\O,-1.5
 571705406,-1.2645604107,-0.0190334966\H,-2.4255497367,0.945421931,0.10
 71283505\\Version=ES64L-G09RevD.01\State=1-A\HF=-323.5132191\RMSD=4.34
 1e-09\RMSF=1.567e-05\ZeroPoint=0.1013462\Thermal=0.1084995\Dipole=1.36
 70411,0.838722,0.2868594\DipoleDeriv=-0.6002032,-0.3107743,0.0993027,-
 0.8257752,-1.0508924,0.1150137,0.0579948,0.011164,-0.7631447,0.1827389
 ,0.0368438,-0.016078,0.0157759,0.2024267,0.0097357,-0.075665,-0.019612
 2,0.4036001,0.8341376,0.53704,-0.2199327,0.8212081,0.8793095,-0.105147
 5,-0.2654866,-0.0707174,0.1846494,0.5505217,0.315515,-0.078356,0.69989
 86,0.4733716,-0.0993818,0.0829801,0.1748804,0.1400004,0.0495725,0.0652
 222,0.0423283,-0.1008531,-0.097726,-0.0060832,0.0533398,-0.01451,0.096
 2634,0.2279809,-0.6613386,0.0415456,-0.9263833,0.4888427,-0.0111838,1.
 0862796,0.447648,-0.1171333,-0.0941411,0.0384798,-0.0985574,0.0369713,
 0.0590165,-0.0311499,-0.1378871,0.0037777,-0.0299932,0.0679769,-0.1143
 629,-0.0007058,-0.0033134,0.0267925,-0.0037332,0.0054054,0.0211473,0.0
 980807,-0.012233,0.0278274,0.0960062,0.0354429,0.0689071,0.0300876,0.1
 132425,0.0034678,-0.0615598,-0.6522421,0.3954931,0.0111037,0.7364697,-
 0.7832834,-0.0136088,-0.1150828,-0.0688882,-0.4829667,0.1492734,-0.033
 9744,0.0115278,0.0434733,0.2357822,-0.0173109,0.0394792,0.0048635,0.39
 75026,-0.9597434,-0.244763,0.1293895,-0.3410719,-0.7709173,0.135803,-0
 .8137675,-0.509499,-0.2656093,0.2563608,-0.0512081,-0.0175739,-0.19184
 28,0.2683702,-0.0030411,-0.0308323,0.0162782,0.4003104\Polar=72.302213
 2,9.1985734,52.7990132,-3.9801147,-1.7786158,27.7172943\PG=C01 [X(C3H7
 N1O2)]\NImag=1\\0.88171671,-0.01366460,0.78976029,0.01243178,0.0029812
 5,0.04690647,-0.45976025,-0.04524432,-0.01864369,0.47728618,-0.0453160
 9,-0.08135763,-0.00130365,0.05547263,0.07635806,-0.02304907,-0.0019408
 5,-0.00730509,0.02094116,0.00153877,0.00804163,-0.18129840,-0.08920954
 ,-0.00348984,-0.01160120,-0.04048683,-0.00295203,0.74540716,-0.0972905
 7,-0.34209997,-0.00409291,-0.00027983,-0.00193272,0.00011705,0.0354337
 4,0.69406850,0.00543052,-0.00613082,-0.04173356,0.00108220,-0.00079211
 ,-0.00216376,-0.04800501,0.02144973,0.16590652,0.00394261,0.01070085,-
 0.00099311,-0.00107019,-0.00035559,-0.00002532,-0.03448477,-0.02094986
 ,0.01777216,0.00044895,0.00855025,0.01740319,-0.00001519,-0.00193959,-
 0.00020046,0.00150882,-0.04152669,-0.02305352,0.01118476,-0.03697811,0
 .00563603,0.00019904,-0.00019095,0.00140801,-0.00036940,-0.00006596,0.
 00074681,-0.01476032,-0.00060498,-0.00807335,-0.02029106,-0.08550698,0
 .16550870,0.01373990,-0.01352187,-0.00123802,0.00151602,0.00008806,0.0
 0062560,-0.14014309,0.06265181,0.01050507,-0.00072646,0.00160014,0.000
 89817,0.55204235,0.02409076,-0.03713370,-0.00289546,0.00106579,0.00257
 705,0.00027855,0.05683380,-0.17456889,-0.00740218,0.00044215,0.0007149
 4,-0.00036615,0.05148186,0.54301383,-0.00045077,-0.00169835,0.00285728
 ,0.00067395,-0.00002755,-0.00070482,0.00283657,-0.00901722,-0.07326320
 ,-0.00201657,-0.00399644,0.00008328,0.00077361,-0.00816015,0.53587044,
 -0.02817926,-0.02412977,0.01292138,0.00344177,0.00212197,0.00478964,-0
 .34338768,-0.02746423,0.02575009,0.04564564,0.04761623,0.06127269,-0.0
 1951314,0.00873533,0.00955198,0.64331390,-0.05754383,-0.03499220,0.010
 23775,0.00243245,-0.00550049,0.00123285,0.03438570,-0.06740880,-0.0199
 5175,0.04953623,0.01901319,0.11368569,0.02467116,0.00460406,-0.0015744
 0,-0.04291715,0.41078776,0.01563468,0.03911682,0.00842320,-0.00537704,
 -0.00200667,0.00584281,-0.01031053,-0.03645374,-0.05215817,-0.01708595
 ,0.00345203,-0.12674798,0.00272597,-0.00124571,-0.00021372,0.00539133,
 0.01265503,0.16854024,0.00137256,-0.00156944,0.00101922,0.00034810,0.0
 0055627,-0.00079982,-0.02054726,0.00367266,-0.01210540,-0.00030588,-0.
 00020838,-0.00040556,-0.16060188,0.00489714,-0.12604122,0.00294579,0.0
 0225023,-0.00123889,0.17990005,-0.00010692,0.00227338,-0.00115854,-0.0
 0076478,-0.00071111,0.00063179,0.02464669,-0.00351256,0.02048121,-0.00
 030379,-0.00034902,0.00001128,0.00665990,-0.05041344,0.00881793,-0.002
 54784,-0.00308603,0.00012121,-0.01194079,0.05188115,0.00028310,0.00089
 106,0.00037277,-0.00043483,0.00079621,-0.00028261,0.00488861,-0.001315
 74,0.00604572,0.00036576,0.00023139,-0.00001619,-0.12600960,0.00730840
 ,-0.18281602,0.00060014,-0.00074461,-0.00000881,0.13988721,-0.00822520
 ,0.19994503,-0.00420612,0.00282865,0.00027107,-0.00024686,0.00011056,-
 0.00008392,0.01525895,0.02046962,-0.00114498,0.00096680,0.00170362,0.0
 0121083,-0.13615564,-0.13184343,0.00252619,-0.00140171,0.00136930,0.00
 298996,-0.01181098,-0.01799967,0.00185199,0.14615701,0.00530326,-0.002
 17910,-0.00071485,0.00027745,0.00035839,0.00029752,-0.01874667,-0.0261
 0049,0.00195798,-0.00046585,-0.00146706,-0.00102775,-0.12421017,-0.237
 57301,0.00297718,-0.00022867,-0.00113230,-0.00249168,0.00240675,0.0027
 7474,0.00052899,0.13713169,0.26292253,0.00060604,-0.00026983,0.0014495
 7,0.00003922,0.00007602,-0.00065994,-0.00256663,-0.00391838,-0.0012408
 4,0.00048786,-0.00058123,-0.00033495,0.00259110,0.00360139,-0.05068854
 ,0.00015027,0.00005123,0.00013184,-0.01449497,-0.02216396,0.00059673,-
 0.00380652,-0.00306860,0.05106256,0.00114647,-0.00135556,-0.00147125,0
 .00036093,0.00000631,0.00052881,-0.01503609,0.00159631,0.01924050,0.00
 101801,0.00063117,-0.00053036,-0.10553263,-0.00699263,0.10926422,0.000
 42052,0.00187140,0.00123585,0.01079389,0.00109469,-0.02150664,-0.00828
 369,0.00050489,0.01718192,0.11773111,-0.00041343,0.00120424,0.00166162
 ,-0.00027538,-0.00061178,-0.00102267,0.01670131,-0.00138069,-0.0264602
 4,-0.00053167,-0.00108220,-0.00016592,-0.00631335,-0.04905742,0.009500
 45,0.00070113,-0.00185348,-0.00151043,-0.00098534,0.00022945,0.0003784
 2,-0.01237669,0.00016932,0.02590481,0.00233756,0.05146509,-0.00065151,
 0.00014058,0.00116290,0.00005532,-0.00063841,-0.00075476,0.00296894,0.
 00050313,0.00012464,-0.00016164,-0.00000857,0.00027269,0.10888021,0.00
 980712,-0.24278153,-0.00115784,-0.00021199,-0.00108739,0.01279198,0.00
 209278,-0.02325210,-0.00101624,-0.00077854,-0.00002132,-0.12214536,-0.
 01056251,0.26624280,-0.00217183,0.00017267,-0.00000053,-0.00030586,0.0
 0160577,0.00079911,-0.03436284,0.04795180,-0.00214314,-0.01079774,-0.0
 0238093,-0.00656035,-0.00331264,-0.00388078,0.00081629,-0.14086049,0.0
 8963662,-0.00643102,-0.00127020,0.00125404,0.00006331,0.00033908,-0.00
 031935,-0.00031217,-0.00139046,0.00096068,0.00028337,0.61562593,0.0023
 2332,0.01352649,-0.00042250,-0.00121543,0.00070203,0.00101786,-0.00241
 996,-0.02142838,0.00473676,0.00667883,-0.02105888,-0.00013098,-0.00227
 482,0.00282911,0.00163270,0.04997384,-0.16293196,-0.01280884,0.0013371
 0,-0.00087208,0.00027688,-0.00063386,0.00008797,0.00018085,0.00055193,
 -0.00011550,-0.00042440,0.00448891,0.29269922,-0.00288797,-0.00455838,
 -0.00089582,0.00064469,-0.00018134,-0.00029613,0.01294195,0.00085987,0
 .00500382,-0.00711253,0.00790731,0.00721936,0.00104357,0.00006019,0.00
 475603,-0.01849165,0.00746749,-0.04093261,0.00062289,-0.00077672,-0.00
 032508,-0.00054806,0.00033740,-0.00004783,-0.00064663,0.00087064,-0.00
 004686,0.04501816,0.00578839,0.02891697,-0.21806937,0.18403573,-0.0004
 4000,-0.01087346,0.02737234,0.00035519,0.01839781,-0.01071239,-0.00183
 835,0.00128718,0.00286069,0.00016919,-0.00122782,-0.00325359,-0.000138
 24,0.00085060,-0.00871565,0.00663903,-0.00027209,0.00008214,0.00008750
 ,0.00050551,-0.00069548,-0.00007579,-0.00019744,0.00008664,-0.00004044
 ,-0.00098025,0.00332245,-0.00053833,0.21245568,0.18340378,-0.31492783,
 -0.00124092,-0.01014156,0.01029405,-0.00017964,0.02095089,-0.02814562,
 -0.00065698,-0.00059819,-0.00102068,-0.00050645,-0.00460381,-0.0020960
 3,0.00085047,0.00243170,-0.00192496,-0.00138929,0.00005818,0.00018276,
 0.00015806,0.00117295,-0.00089475,-0.00015833,-0.00005300,0.00030387,-
 0.00011966,0.00181104,-0.00001677,-0.00003642,-0.19523107,0.33604196,0
 .00048561,-0.00468747,-0.01541972,-0.00138648,0.00170026,-0.00088029,0
 .00345167,0.00142438,0.00258516,0.00028588,-0.00045697,-0.00024232,-0.
 00022402,-0.00070122,0.00363168,-0.00331919,-0.00009957,-0.00237862,0.
 00035591,-0.00064550,0.00000089,0.00009384,-0.00042324,0.00062123,-0.0
 0031373,0.00061028,0.00013719,-0.00026460,-0.00047476,-0.00246649,0.00
 017043,0.00202415,0.01363427,-0.00996461,-0.01149851,-0.00054132,0.000
 95583,-0.00126531,-0.00117566,0.00333796,-0.01559269,-0.01337313,-0.00
 533533,0.02173117,-0.02117862,0.00015016,-0.00121885,0.00194878,-0.132
 38906,-0.09207812,0.00988771,-0.00069554,-0.00002136,-0.00019553,-0.00
 113845,-0.00101452,0.00020626,-0.00104232,-0.00000054,0.00035205,0.020
 72780,0.00652409,0.00773459,-0.00233067,0.00067781,0.00086951,0.124212
 79,-0.00688445,-0.00957652,-0.00363180,0.00064541,-0.00036129,-0.00345
 609,0.00040105,0.00240203,0.00175130,-0.01082302,0.00279225,-0.0270303
 0,0.00260445,-0.00344068,0.00139558,-0.06441659,-0.15325939,-0.0044943
 6,-0.00047401,0.00167787,-0.00021862,-0.00207049,0.00298320,0.00031638
 ,-0.00041733,0.00091399,0.00017481,-0.01594512,-0.04232729,-0.00652925
 ,-0.00034478,0.00098991,0.00207824,0.10017116,0.19330365,-0.00870776,-
 0.02299820,0.00334464,0.00284250,0.00101078,-0.00146344,0.05311820,0.0
 3180317,-0.00024886,0.03053974,0.06503267,-0.03986310,-0.00113865,-0.0
 0018798,0.00132500,-0.09790057,-0.12145905,0.04180723,0.00014657,0.001
 23455,-0.00015789,-0.00230560,0.00241535,-0.00090705,-0.00058910,0.000
 41124,-0.00005940,0.01114442,0.00640394,0.00404481,-0.00372158,0.00138
 251,0.00076211,0.01466679,0.03906279,-0.00696286,0.00173160,0.00245569
 ,0.00017433,-0.00005099,0.00008991,0.00004631,-0.00154054,0.00051363,-
 0.00117053,-0.00058882,-0.00165956,0.00034576,-0.00023512,-0.00035754,
 0.00025519,-0.03088689,-0.00489833,-0.00406108,0.00014346,-0.00005231,
 0.00011900,0.00001611,0.00005665,-0.00000659,0.00001170,0.00010908,-0.
 00015884,-0.44124050,-0.06865639,-0.03778068,0.00045430,0.00012128,-0.
 00020483,0.00351144,-0.00244627,0.00190503,0.46867424,-0.00245149,-0.0
 0190066,0.00059520,-0.00003285,0.00038589,-0.00002395,0.00303652,-0.00
 683889,-0.00016766,0.00364802,0.00267223,0.00189944,0.00116663,0.00054
 419,-0.00070017,0.05012407,-0.00231541,0.00705563,-0.00000037,-0.00007
 511,-0.00006525,0.00013775,0.00005056,0.00002966,0.00022427,-0.0001848
 8,0.00002567,-0.12535535,-0.06109396,-0.01120918,0.00119296,0.00121412
 ,-0.00034859,-0.00641432,0.00390227,-0.00411177,0.07472417,0.06363965,
 0.00067630,-0.00065486,-0.00057066,-0.00006761,-0.00010635,-0.00012042
 ,0.00187841,-0.00075436,-0.00078412,-0.00176522,0.00124839,0.00003903,
 0.00056700,-0.00009680,0.00194412,0.00044173,-0.00128866,-0.00121802,0
 .00026210,-0.00042083,-0.00010245,-0.00003855,-0.00000976,0.00003854,-
 0.00024822,0.00038432,0.00006315,-0.04241285,-0.00577590,-0.00493019,-
 0.00062861,-0.00012748,0.00001492,0.00079857,0.00058133,-0.00162118,0.
 04053694,0.00702096,0.00724726\\-0.00001482,-0.00001066,0.00000314,-0.
 00000084,-0.00000227,0.00000476,0.00002808,-0.00001406,-0.00003679,-0.
 00001349,-0.00001828,0.00000435,-0.00001111,0.00000093,0.00000786,-0.0
 0003608,0.00005602,0.00000017,0.00000514,-0.00000261,-0.00000399,-0.00
 000448,0.00001432,0.00000057,-0.00000054,0.00000277,0.00000041,0.00002
 613,-0.00001067,0.00000432,0.00000342,-0.00000127,0.00000071,0.0000175
 3,-0.00000993,0.00001306,0.00000104,-0.00000430,0.00000143\\\@


 THE DIFFICULTY IN SCIENCE IS OFTEN NOT SO MUCH HOW
 TO MAKE A DISCOVERY BUT RATHER TO KNOW ONE HAS MADE IT.

                                                   -- J. D. BERNAL
 Job cpu time:       0 days  0 hours  1 minutes 12.1 seconds.
 File lengths (MBytes):  RWF=     12 Int=      0 D2E=      0 Chk=      2 Scr=      1
 Normal termination of Gaussian 09 at Thu Apr 14 12:01:50 2016.
