 Entering Link 1 = c:\G03W05\l1.exe PID=      4668.
  
 Copyright (c) 1988,1990,1992,1993,1995,1998,2003,2004,2007, Gaussian, Inc.
                  All Rights Reserved.
  
 This is the Gaussian(R) 03 program.  It is based on the
 the Gaussian(R) 98 system (copyright 1998, Gaussian, Inc.),
 the Gaussian(R) 94 system (copyright 1995, Gaussian, Inc.),
 the Gaussian 92(TM) system (copyright 1992, Gaussian, Inc.),
 the Gaussian 90(TM) system (copyright 1990, Gaussian, Inc.),
 the Gaussian 88(TM) system (copyright 1988, Gaussian, Inc.),
 the Gaussian 86(TM) system (copyright 1986, Carnegie Mellon
 University), and the Gaussian 82(TM) system (copyright 1983,
 Carnegie Mellon University). Gaussian is a federally registered
 trademark of Gaussian, Inc.
  
 This software contains proprietary and confidential information,
 including trade secrets, belonging to Gaussian, Inc.
  
 This software is provided under written license and may be
 used, copied, transmitted, or stored only in accord with that
 written license.
  
 The following legend is applicable only to US Government
 contracts under FAR:
  
                    RESTRICTED RIGHTS LEGEND
  
 Use, reproduction and disclosure by the US Government is
 subject to restrictions as set forth in subparagraphs (a)
 and (c) of the Commercial Computer Software - Restricted
 Rights clause in FAR 52.227-19.
  
 Gaussian, Inc.
 340 Quinnipiac St., Bldg. 40, Wallingford CT 06492
  
  
 ---------------------------------------------------------------
 Warning -- This program may not be used in any manner that
 competes with the business of Gaussian, Inc. or will provide
 assistance to any competitor of Gaussian, Inc.  The licensee
 of this program is prohibited from giving any competitor of
 Gaussian, Inc. access to this program.  By using this program,
 the user acknowledges that Gaussian, Inc. is engaged in the
 business of creating and licensing software in the field of
 computational chemistry and represents and warrants to the
 licensee that it is not a competitor of Gaussian, Inc. and that
 it will not use this program in any manner prohibited above.
 ---------------------------------------------------------------
  

 Cite this work as:
 Gaussian 03, Revision E.01,
 M. J. Frisch, G. W. Trucks, H. B. Schlegel, G. E. Scuseria, 
 M. A. Robb, J. R. Cheeseman, J. A. Montgomery, Jr., T. Vreven, 
 K. N. Kudin, J. C. Burant, J. M. Millam, S. S. Iyengar, J. Tomasi, 
 V. Barone, B. Mennucci, M. Cossi, G. Scalmani, N. Rega, 
 G. A. Petersson, H. Nakatsuji, M. Hada, M. Ehara, K. Toyota, 
 R. Fukuda, J. Hasegawa, M. Ishida, T. Nakajima, Y. Honda, O. Kitao, 
 H. Nakai, M. Klene, X. Li, J. E. Knox, H. P. Hratchian, J. B. Cross, 
 V. Bakken, C. Adamo, J. Jaramillo, R. Gomperts, R. E. Stratmann, 
 O. Yazyev, A. J. Austin, R. Cammi, C. Pomelli, J. W. Ochterski, 
 P. Y. Ayala, K. Morokuma, G. A. Voth, P. Salvador, J. J. Dannenberg, 
 V. G. Zakrzewski, S. Dapprich, A. D. Daniels, M. C. Strain, 
 O. Farkas, D. K. Malick, A. D. Rabuck, K. Raghavachari, 
 J. B. Foresman, J. V. Ortiz, Q. Cui, A. G. Baboul, S. Clifford, 
 J. Cioslowski, B. B. Stefanov, G. Liu, A. Liashenko, P. Piskorz, 
 I. Komaromi, R. L. Martin, D. J. Fox, T. Keith, M. A. Al-Laham, 
 C. Y. Peng, A. Nanayakkara, M. Challacombe, P. M. W. Gill, 
 B. Johnson, W. Chen, M. W. Wong, C. Gonzalez, and J. A. Pople, 
 Gaussian, Inc., Wallingford CT, 2004.
 
 ******************************************
 Gaussian 03:  IA32W-G03RevE.01 11-Sep-2007
                01-Apr-2016 
 ******************************************
 %chk=E:\YangJ\Amiano\val\ts1\s\Val-S-opt-freq-ts1-6-31g.chk
 -----------------------------------------------------------------
 # opt=(calcfc,ts) freq rb3lyp/6-31g geom=connectivity iop(1/11=1)
 -----------------------------------------------------------------
 1/5=1,10=4,11=1,14=-1,18=20,26=3,38=1,57=2/1,3;
 2/9=110,17=6,18=5,40=1/2;
 3/5=1,6=6,11=2,16=1,25=1,30=1,74=-5/1,2,3;
 4/7=1/1;
 5/5=2,38=5/2;
 8/6=4,10=90,11=11/1;
 11/6=1,8=1,9=11,15=111,16=1/1,2,10;
 10/6=1,7=6/2;
 6/7=2,8=2,9=2,10=2,28=1/1;
 7/10=1,18=20,25=1/1,2,3,16;
 1/5=1,10=4,11=1,14=-1,18=20/3(3);
 2/9=110/2;
 6/7=2,8=2,9=2,10=2,19=2,28=1/1;
 99//99;
 2/9=110/2;
 3/5=1,6=6,11=2,16=1,25=1,30=1,74=-5/1,2,3;
 4/5=5,7=1,16=3/1;
 5/5=2,38=5/2;
 7//1,2,3,16;
 1/5=1,11=1,14=-1,18=20/3(-5);
 2/9=110/2;
 6/7=2,8=2,9=2,10=2,19=2,28=1/1;
 99/9=1/99;
 ------------------------
 Val-S-opt-freq-ts1-6-31g
 ------------------------
 Symbolic Z-matrix:
 Charge =  0 Multiplicity = 1
 N                    -0.14397   0.14923   0.17438 
 H                    -0.14397   0.14923   1.1909 
 C                     1.2335    0.14923  -0.32066 
 H                     1.21314  -0.05736  -1.39428 
 C                     1.88511   1.54055  -0.09745 
 C                     2.06654  -0.9403    0.3552 
 C                     3.37585   1.55757  -0.46342 
 O                     2.08557  -1.15501   1.54308 
 H                     3.52826   1.28597  -1.513 
 H                     3.78594   2.56013  -0.31712 
 H                     3.96486   0.8712    0.15035 
 H                    -0.63871  -0.68447  -0.12542 
 O                     2.79027  -1.67229  -0.52645 
 H                     3.06149  -2.26701   0.93394 
 H                     1.7942    1.75428   0.97542 
 C                     1.11976   2.61719  -0.87672 
 H                     0.05561   2.59279  -0.64189 
 H                     1.50925   3.61027  -0.6356 
 H                     1.23489   2.46855  -1.95623 
 

 GradGradGradGradGradGradGradGradGradGradGradGradGradGradGradGradGradGrad
 Berny optimization.
 Initialization pass.
                           ----------------------------
                           !    Initial Parameters    !
                           ! (Angstroms and Degrees)  !
 --------------------------                            --------------------------
 ! Name  Definition              Value          Derivative Info.                !
 --------------------------------------------------------------------------------
 ! R1    R(1,2)                  1.0165         calculate D2E/DX2 analytically  !
 ! R2    R(1,3)                  1.4637         calculate D2E/DX2 analytically  !
 ! R3    R(1,12)                 1.0147         calculate D2E/DX2 analytically  !
 ! R4    R(3,4)                  1.0935         calculate D2E/DX2 analytically  !
 ! R5    R(3,5)                  1.5525         calculate D2E/DX2 analytically  !
 ! R6    R(3,6)                  1.529          calculate D2E/DX2 analytically  !
 ! R7    R(5,7)                  1.5351         calculate D2E/DX2 analytically  !
 ! R8    R(5,15)                 1.0977         calculate D2E/DX2 analytically  !
 ! R9    R(5,16)                 1.5337         calculate D2E/DX2 analytically  !
 ! R10   R(6,8)                  1.2073         calculate D2E/DX2 analytically  !
 ! R11   R(6,13)                 1.3553         calculate D2E/DX2 analytically  !
 ! R12   R(6,14)                 1.7564         calculate D2E/DX2 analytically  !
 ! R13   R(7,9)                  1.0948         calculate D2E/DX2 analytically  !
 ! R14   R(7,10)                 1.093          calculate D2E/DX2 analytically  !
 ! R15   R(7,11)                 1.093          calculate D2E/DX2 analytically  !
 ! R16   R(8,14)                 1.6            calculate D2E/DX2 analytically  !
 ! R17   R(13,14)                1.6            calculate D2E/DX2 analytically  !
 ! R18   R(16,17)                1.09           calculate D2E/DX2 analytically  !
 ! R19   R(16,18)                1.0936         calculate D2E/DX2 analytically  !
 ! R20   R(16,19)                1.0958         calculate D2E/DX2 analytically  !
 ! A1    A(2,1,3)              109.7677         calculate D2E/DX2 analytically  !
 ! A2    A(2,1,12)             107.1845         calculate D2E/DX2 analytically  !
 ! A3    A(3,1,12)             111.0324         calculate D2E/DX2 analytically  !
 ! A4    A(1,3,4)              108.3324         calculate D2E/DX2 analytically  !
 ! A5    A(1,3,5)              110.2647         calculate D2E/DX2 analytically  !
 ! A6    A(1,3,6)              111.2982         calculate D2E/DX2 analytically  !
 ! A7    A(4,3,5)              108.5595         calculate D2E/DX2 analytically  !
 ! A8    A(4,3,6)              108.0305         calculate D2E/DX2 analytically  !
 ! A9    A(5,3,6)              110.2662         calculate D2E/DX2 analytically  !
 ! A10   A(3,5,7)              112.5351         calculate D2E/DX2 analytically  !
 ! A11   A(3,5,15)             106.2754         calculate D2E/DX2 analytically  !
 ! A12   A(3,5,16)             110.2809         calculate D2E/DX2 analytically  !
 ! A13   A(7,5,15)             108.1355         calculate D2E/DX2 analytically  !
 ! A14   A(7,5,16)             110.8358         calculate D2E/DX2 analytically  !
 ! A15   A(15,5,16)            108.578          calculate D2E/DX2 analytically  !
 ! A16   A(3,6,8)              124.7679         calculate D2E/DX2 analytically  !
 ! A17   A(3,6,13)             112.845          calculate D2E/DX2 analytically  !
 ! A18   A(3,6,14)             172.9875         calculate D2E/DX2 analytically  !
 ! A19   A(8,6,13)             122.3834         calculate D2E/DX2 analytically  !
 ! A20   A(5,7,9)              111.1612         calculate D2E/DX2 analytically  !
 ! A21   A(5,7,10)             110.036          calculate D2E/DX2 analytically  !
 ! A22   A(5,7,11)             112.4869         calculate D2E/DX2 analytically  !
 ! A23   A(9,7,10)             107.6759         calculate D2E/DX2 analytically  !
 ! A24   A(9,7,11)             107.91           calculate D2E/DX2 analytically  !
 ! A25   A(10,7,11)            107.3752         calculate D2E/DX2 analytically  !
 ! A26   A(8,14,13)             89.1845         calculate D2E/DX2 analytically  !
 ! A27   A(5,16,17)            111.2229         calculate D2E/DX2 analytically  !
 ! A28   A(5,16,18)            110.3469         calculate D2E/DX2 analytically  !
 ! A29   A(5,16,19)            110.6655         calculate D2E/DX2 analytically  !
 ! A30   A(17,16,18)           108.6944         calculate D2E/DX2 analytically  !
 ! A31   A(17,16,19)           108.1665         calculate D2E/DX2 analytically  !
 ! A32   A(18,16,19)           107.6356         calculate D2E/DX2 analytically  !
 ! D1    D(2,1,3,4)            168.5204         calculate D2E/DX2 analytically  !
 ! D2    D(2,1,3,5)            -72.8094         calculate D2E/DX2 analytically  !
 ! D3    D(2,1,3,6)             49.8905         calculate D2E/DX2 analytically  !
 ! D4    D(12,1,3,4)            50.1905         calculate D2E/DX2 analytically  !
 ! D5    D(12,1,3,5)           168.8607         calculate D2E/DX2 analytically  !
 ! D6    D(12,1,3,6)           -68.4394         calculate D2E/DX2 analytically  !
 ! D7    D(1,3,5,7)            174.0244         calculate D2E/DX2 analytically  !
 ! D8    D(1,3,5,15)            55.8468         calculate D2E/DX2 analytically  !
 ! D9    D(1,3,5,16)           -61.6513         calculate D2E/DX2 analytically  !
 ! D10   D(4,3,5,7)            -67.4443         calculate D2E/DX2 analytically  !
 ! D11   D(4,3,5,15)           174.3781         calculate D2E/DX2 analytically  !
 ! D12   D(4,3,5,16)            56.88           calculate D2E/DX2 analytically  !
 ! D13   D(6,3,5,7)             50.7214         calculate D2E/DX2 analytically  !
 ! D14   D(6,3,5,15)           -67.4563         calculate D2E/DX2 analytically  !
 ! D15   D(6,3,5,16)           175.0457         calculate D2E/DX2 analytically  !
 ! D16   D(1,3,6,8)            -46.6833         calculate D2E/DX2 analytically  !
 ! D17   D(1,3,6,13)           132.6306         calculate D2E/DX2 analytically  !
 ! D18   D(1,3,6,14)           122.5132         calculate D2E/DX2 analytically  !
 ! D19   D(4,3,6,8)           -165.4941         calculate D2E/DX2 analytically  !
 ! D20   D(4,3,6,13)            13.8198         calculate D2E/DX2 analytically  !
 ! D21   D(4,3,6,14)             3.7024         calculate D2E/DX2 analytically  !
 ! D22   D(5,3,6,8)             76.0158         calculate D2E/DX2 analytically  !
 ! D23   D(5,3,6,13)          -104.6703         calculate D2E/DX2 analytically  !
 ! D24   D(5,3,6,14)          -114.7877         calculate D2E/DX2 analytically  !
 ! D25   D(3,5,7,9)             59.2751         calculate D2E/DX2 analytically  !
 ! D26   D(3,5,7,10)           178.4666         calculate D2E/DX2 analytically  !
 ! D27   D(3,5,7,11)           -61.8649         calculate D2E/DX2 analytically  !
 ! D28   D(15,5,7,9)           176.3522         calculate D2E/DX2 analytically  !
 ! D29   D(15,5,7,10)          -64.4564         calculate D2E/DX2 analytically  !
 ! D30   D(15,5,7,11)           55.2122         calculate D2E/DX2 analytically  !
 ! D31   D(16,5,7,9)           -64.7427         calculate D2E/DX2 analytically  !
 ! D32   D(16,5,7,10)           54.4488         calculate D2E/DX2 analytically  !
 ! D33   D(16,5,7,11)          174.1173         calculate D2E/DX2 analytically  !
 ! D34   D(3,5,16,17)           53.1556         calculate D2E/DX2 analytically  !
 ! D35   D(3,5,16,18)          173.8681         calculate D2E/DX2 analytically  !
 ! D36   D(3,5,16,19)          -67.1051         calculate D2E/DX2 analytically  !
 ! D37   D(7,5,16,17)          178.4518         calculate D2E/DX2 analytically  !
 ! D38   D(7,5,16,18)          -60.8356         calculate D2E/DX2 analytically  !
 ! D39   D(7,5,16,19)           58.1912         calculate D2E/DX2 analytically  !
 ! D40   D(15,5,16,17)         -62.9104         calculate D2E/DX2 analytically  !
 ! D41   D(15,5,16,18)          57.8022         calculate D2E/DX2 analytically  !
 ! D42   D(15,5,16,19)         176.8289         calculate D2E/DX2 analytically  !
 --------------------------------------------------------------------------------
 Trust Radius=3.00D-01 FncErr=1.00D-07 GrdErr=1.00D-06
 Number of steps in this run= 104 maximum allowed number of steps= 114.
 Search for a saddle point of order  1.
 GradGradGradGradGradGradGradGradGradGradGradGradGradGradGradGradGradGrad

                          Input orientation:                          
 ---------------------------------------------------------------------
 Center     Atomic     Atomic              Coordinates (Angstroms)
 Number     Number      Type              X           Y           Z
 ---------------------------------------------------------------------
    1          7             0       -0.143968    0.149226    0.174382
    2          1             0       -0.143968    0.149226    1.190902
    3          6             0        1.233504    0.149226   -0.320662
    4          1             0        1.213136   -0.057357   -1.394279
    5          6             0        1.885109    1.540555   -0.097449
    6          6             0        2.066537   -0.940298    0.355201
    7          6             0        3.375848    1.557574   -0.463417
    8          8             0        2.085573   -1.155013    1.543082
    9          1             0        3.528265    1.285972   -1.513003
   10          1             0        3.785942    2.560129   -0.317117
   11          1             0        3.964862    0.871204    0.150353
   12          1             0       -0.638706   -0.684473   -0.125423
   13          8             0        2.790271   -1.672286   -0.526450
   14          1             0        3.061490   -2.267009    0.933942
   15          1             0        1.794203    1.754282    0.975416
   16          6             0        1.119763    2.617195   -0.876719
   17          1             0        0.055613    2.592788   -0.641887
   18          1             0        1.509250    3.610272   -0.635602
   19          1             0        1.234892    2.468554   -1.956228
 ---------------------------------------------------------------------
                    Distance matrix (angstroms):
                    1          2          3          4          5
     1  N    0.000000
     2  H    1.016520   0.000000
     3  C    1.463727   2.045056   0.000000
     4  H    2.084492   2.927041   1.093501   0.000000
     5  C    2.475246   2.777193   1.552485   2.164865   0.000000
     6  C    2.471050   2.602266   1.528985   2.137418   2.528327
     7  C    3.844391   4.136342   2.567774   2.855141   1.535098
     8  O    2.923223   2.606899   2.429115   3.254855   3.161900
     9  H    4.198185   4.699850   2.824854   2.679263   2.183705
    10  H    4.636617   4.850852   3.511041   3.825028   2.168168
    11  H    4.171848   4.299591   2.864162   3.289393   2.198819
    12  H    1.014743   1.634788   2.058723   2.330792   3.364695
    13  O    3.524036   3.857067   2.404949   2.418363   3.365369
    14  H    4.085350   4.022335   3.279292   3.703996   4.116452
    15  H    2.640903   2.525697   2.137851   3.038936   1.097717
    16  C    2.965249   3.458749   2.532392   2.725769   1.533679
    17  H    2.584012   3.061036   2.731594   2.988181   2.179602
    18  H    3.920210   4.248305   3.486268   3.756965   2.171315
    19  H    3.438028   4.145476   2.838021   2.587758   2.176930
                    6          7          8          9         10
     6  C    0.000000
     7  C    2.936630   0.000000
     8  O    1.207280   3.612337   0.000000
     9  H    3.253170   1.094819   4.168863   0.000000
    10  H    3.957443   1.093022   4.489307   1.766357   0.000000
    11  H    2.631946   1.093048   3.094669   1.769012   1.761536
    12  H    2.759490   4.610603   3.229088   4.813697   5.490146
    13  O    1.355325   3.283119   2.246582   3.204561   4.352990
    14  H    1.756427   4.083977   1.600000   4.339250   5.038972
    15  H    2.778415   2.147216   2.978445   3.068960   2.507400
    16  C    3.881979   2.526566   4.584515   2.824517   2.724871
    17  H    4.185773   3.482453   4.789659   3.811289   3.744582
    18  H    4.690410   2.779821   5.271315   3.201347   2.527362
    19  H    4.201739   2.764428   5.108724   2.618111   3.033632
                   11         12         13         14         15
    11  H    0.000000
    12  H    4.867137   0.000000
    13  O    2.882198   3.590889   0.000000
    14  H    3.358344   4.161505   1.600000   0.000000
    15  H    2.484415   3.616410   3.871579   4.216458   0.000000
    16  C    3.492556   3.815451   4.616594   5.559159   2.151719
    17  H    4.344390   3.389580   5.067794   5.927576   2.518225
    18  H    3.761682   4.828958   5.436760   6.278165   2.474122
    19  H    3.800256   4.099244   4.648659   5.840813   3.068802
                   16         17         18         19
    16  C    0.000000
    17  H    1.090026   0.000000
    18  H    1.093637   1.774367   0.000000
    19  H    1.095759   1.770205   1.767157   0.000000
 Stoichiometry    C5H11NO2
 Framework group  C1[X(C5H11NO2)]
 Deg. of freedom    51
 Full point group                 C1
 Largest Abelian subgroup         C1      NOp   1
 Largest concise Abelian subgroup C1      NOp   1
                         Standard orientation:                         
 ---------------------------------------------------------------------
 Center     Atomic     Atomic              Coordinates (Angstroms)
 Number     Number      Type              X           Y           Z
 ---------------------------------------------------------------------
    1          7             0       -0.092265    1.961016    0.113505
    2          1             0        0.215406    2.140411   -0.838582
    3          6             0       -0.020392    0.526403    0.394964
    4          1             0       -0.154557    0.379724    1.470245
    5          6             0       -1.154979   -0.225552   -0.351687
    6          6             0        1.341756   -0.048450    0.005229
    7          6             0       -1.041797   -1.750051   -0.211626
    8          8             0        1.906060    0.166340   -1.040214
    9          1             0       -1.079799   -2.054284    0.839386
   10          1             0       -1.873318   -2.236325   -0.728161
   11          1             0       -0.116443   -2.141832   -0.641723
   12          1             0        0.520547    2.484291    0.730229
   13          8             0        1.879028   -0.830856    0.972744
   14          1             0        2.923385   -0.772550   -0.238007
   15          1             0       -1.045663    0.029036   -1.413862
   16          6             0       -2.525428    0.266277    0.130128
   17          1             0       -2.602700    1.351223    0.058860
   18          1             0       -3.322664   -0.182060   -0.469414
   19          1             0       -2.693999   -0.020381    1.174205
 ---------------------------------------------------------------------
 Rotational constants (GHZ):      2.8125835      1.5467806      1.2162110
 Standard basis: 6-31G (6D, 7F)
 There are    94 symmetry adapted basis functions of A   symmetry.
 Integral buffers will be    262144 words long.
 Raffenetti 2 integral format.
 Two-electron integral symmetry is turned on.
    94 basis functions,   220 primitive gaussians,    94 cartesian basis functions
    32 alpha electrons       32 beta electrons
       nuclear repulsion energy       404.5118358514 Hartrees.
 NAtoms=   19 NActive=   19 NUniq=   19 SFac= 7.50D-01 NAtFMM=   80 NAOKFM=F Big=F
 One-electron integrals computed using PRISM.
 NBasis=    94 RedAO= T  NBF=    94
 NBsUse=    94 1.00D-06 NBFU=    94
 Harris functional with IExCor=  402 diagonalized for initial guess.
 ExpMin= 1.61D-01 ExpMax= 5.48D+03 ExpMxC= 8.25D+02 IAcc=1 IRadAn=         1 AccDes= 1.00D-06
 HarFok:  IExCor= 402 AccDes= 1.00D-06 IRadAn=         1 IDoV=1
 ScaDFX=  1.000000  1.000000  1.000000  1.000000
 Initial guess orbital symmetries:
       Occupied  (A) (A) (A) (A) (A) (A) (A) (A) (A) (A) (A) (A)
                 (A) (A) (A) (A) (A) (A) (A) (A) (A) (A) (A) (A)
                 (A) (A) (A) (A) (A) (A) (A) (A)
       Virtual   (A) (A) (A) (A) (A) (A) (A) (A) (A) (A) (A) (A)
                 (A) (A) (A) (A) (A) (A) (A) (A) (A) (A) (A) (A)
                 (A) (A) (A) (A) (A) (A) (A) (A) (A) (A) (A) (A)
                 (A) (A) (A) (A) (A) (A) (A) (A) (A) (A) (A) (A)
                 (A) (A) (A) (A) (A) (A) (A) (A) (A) (A) (A) (A)
                 (A) (A)
 The electronic state of the initial guess is 1-A.
 Requested convergence on RMS density matrix=1.00D-08 within 128 cycles.
 Requested convergence on MAX density matrix=1.00D-06.
 Requested convergence on             energy=1.00D-06.
 No special actions if energy rises.
 Integral accuracy reduced to 1.0D-05 until final iterations.
 Initial convergence to 1.0D-05 achieved.  Increase integral accuracy.
 SCF Done:  E(RB+HF-LYP) =  -402.147378644     A.U. after   17 cycles
             Convg  =    0.4663D-08             -V/T =  2.0056
             S**2   =   0.0000
 Range of M.O.s used for correlation:     1    94
 NBasis=    94 NAE=    32 NBE=    32 NFC=     0 NFV=     0
 NROrb=     94 NOA=    32 NOB=    32 NVA=    62 NVB=    62
 Symmetrizing basis deriv contribution to polar:
 IMax=3 JMax=2 DiffMx= 0.00D+00
 G2DrvN: will do   20 centers at a time, making    1 passes doing MaxLOS=1.
 FoFDir/FoFCou used for L=0 through L=1.
 DoAtom=TTTTTTTTTTTTTTTTTTT
          Differentiating once with respect to electric field.
                with respect to dipole field.
          Differentiating once with respect to nuclear coordinates.
 Integrals replicated using symmetry in FoFDir.
 MinBra= 0 MaxBra= 1 Meth= 1.
 IRaf=       0 NMat=  60 IRICut=      60 DoRegI=T DoRafI=T ISym2E= 2 JSym2E=2.
          There are  60 degrees of freedom in the 1st order CPHF.
    57 vectors were produced by pass  0.
 AX will form  57 AO Fock derivatives at one time.
    57 vectors were produced by pass  1.
    57 vectors were produced by pass  2.
    53 vectors were produced by pass  3.
    16 vectors were produced by pass  4.
     3 vectors were produced by pass  5.
 Inv2:  IOpt= 1 Iter= 1 AM= 2.81D-15 Conv= 1.00D-12.
 Inverted reduced A of dimension  243 with in-core refinement.
 Isotropic polarizability for W=    0.000000       67.83 Bohr**3.
 End of Minotr Frequency-dependent properties file   721 does not exist.

 **********************************************************************

            Population analysis using the SCF density.

 **********************************************************************

 Orbital symmetries:
       Occupied  (A) (A) (A) (A) (A) (A) (A) (A) (A) (A) (A) (A)
                 (A) (A) (A) (A) (A) (A) (A) (A) (A) (A) (A) (A)
                 (A) (A) (A) (A) (A) (A) (A) (A)
       Virtual   (A) (A) (A) (A) (A) (A) (A) (A) (A) (A) (A) (A)
                 (A) (A) (A) (A) (A) (A) (A) (A) (A) (A) (A) (A)
                 (A) (A) (A) (A) (A) (A) (A) (A) (A) (A) (A) (A)
                 (A) (A) (A) (A) (A) (A) (A) (A) (A) (A) (A) (A)
                 (A) (A) (A) (A) (A) (A) (A) (A) (A) (A) (A) (A)
                 (A) (A)
 The electronic state is 1-A.
 Alpha  occ. eigenvalues --  -19.20310 -19.18808 -14.32664 -10.33648 -10.23910
 Alpha  occ. eigenvalues --  -10.19806 -10.17173 -10.16402  -1.15179  -1.01190
 Alpha  occ. eigenvalues --   -0.91578  -0.80295  -0.70698  -0.68648  -0.59319
 Alpha  occ. eigenvalues --   -0.56026  -0.51728  -0.50085  -0.48739  -0.47315
 Alpha  occ. eigenvalues --   -0.46216  -0.42596  -0.40766  -0.40103  -0.38560
 Alpha  occ. eigenvalues --   -0.37345  -0.34031  -0.33865  -0.33422  -0.31652
 Alpha  occ. eigenvalues --   -0.31135  -0.24499
 Alpha virt. eigenvalues --   -0.07380  -0.01663   0.07703   0.10137   0.11128
 Alpha virt. eigenvalues --    0.15085   0.15556   0.16216   0.16787   0.17527
 Alpha virt. eigenvalues --    0.18336   0.18978   0.22091   0.23247   0.24468
 Alpha virt. eigenvalues --    0.25399   0.26644   0.31768   0.37719   0.52057
 Alpha virt. eigenvalues --    0.53749   0.54391   0.55986   0.58007   0.59293
 Alpha virt. eigenvalues --    0.61187   0.63187   0.65411   0.69339   0.72023
 Alpha virt. eigenvalues --    0.73489   0.74837   0.76975   0.79048   0.80885
 Alpha virt. eigenvalues --    0.84167   0.84819   0.86605   0.90184   0.92344
 Alpha virt. eigenvalues --    0.92923   0.94980   0.95742   0.97044   0.98303
 Alpha virt. eigenvalues --    0.98968   0.99801   1.00828   1.02579   1.04347
 Alpha virt. eigenvalues --    1.06660   1.08008   1.12135   1.18634   1.24776
 Alpha virt. eigenvalues --    1.33836   1.43618   1.47669   1.63449   1.63592
 Alpha virt. eigenvalues --    1.84926   2.06478
          Condensed to atoms (all electrons):
              1          2          3          4          5          6
     1  N    6.889532   0.317823   0.283759  -0.045115  -0.059923  -0.070833
     2  H    0.317823   0.470150  -0.046495   0.006364  -0.005377  -0.003315
     3  C    0.283759  -0.046495   5.416729   0.376169   0.263110   0.124218
     4  H   -0.045115   0.006364   0.376169   0.566546  -0.032532  -0.044715
     5  C   -0.059923  -0.005377   0.263110  -0.032532   5.124710  -0.063206
     6  C   -0.070833  -0.003315   0.124218  -0.044715  -0.063206   5.007899
     7  C    0.004150  -0.000051  -0.051037  -0.004350   0.323685   0.005262
     8  O   -0.006001   0.007759  -0.099112   0.002944   0.003117   0.332240
     9  H    0.000007   0.000010  -0.005970   0.004269  -0.037142  -0.001186
    10  H   -0.000103   0.000000   0.005649  -0.000087  -0.031909  -0.000010
    11  H    0.000026   0.000005  -0.008009  -0.000079  -0.030726   0.007494
    12  H    0.323178  -0.038323  -0.048292  -0.007265   0.007223   0.003465
    13  O    0.003145   0.000115  -0.074165   0.000394  -0.000225   0.230326
    14  H   -0.001248  -0.000029   0.019138  -0.000425  -0.000971   0.012802
    15  H   -0.004326   0.005520  -0.051768   0.006146   0.382103  -0.007403
    16  C   -0.008961  -0.000191  -0.047991  -0.005935   0.345287   0.005427
    17  H    0.013668  -0.000084  -0.004848  -0.000433  -0.032251   0.000481
    18  H    0.000116  -0.000015   0.005649  -0.000006  -0.036184  -0.000200
    19  H    0.000278   0.000036  -0.005891   0.005115  -0.042366   0.000007
              7          8          9         10         11         12
     1  N    0.004150  -0.006001   0.000007  -0.000103   0.000026   0.323178
     2  H   -0.000051   0.007759   0.000010   0.000000   0.000005  -0.038323
     3  C   -0.051037  -0.099112  -0.005970   0.005649  -0.008009  -0.048292
     4  H   -0.004350   0.002944   0.004269  -0.000087  -0.000079  -0.007265
     5  C    0.323685   0.003117  -0.037142  -0.031909  -0.030726   0.007223
     6  C    0.005262   0.332240  -0.001186  -0.000010   0.007494   0.003465
     7  C    5.132609  -0.002283   0.373901   0.368877   0.365421  -0.000218
     8  O   -0.002283   8.274192   0.000068  -0.000019   0.000377   0.000062
     9  H    0.373901   0.000068   0.578916  -0.031934  -0.030800   0.000001
    10  H    0.368877  -0.000019  -0.031934   0.588124  -0.031471   0.000003
    11  H    0.365421   0.000377  -0.030800  -0.031471   0.583986  -0.000001
    12  H   -0.000218   0.000062   0.000001   0.000003  -0.000001   0.476492
    13  O    0.002159  -0.144220   0.000634   0.000094  -0.000558   0.000279
    14  H    0.000020   0.045763   0.000003  -0.000004   0.000369  -0.000056
    15  H   -0.047792   0.003153   0.005589  -0.003781  -0.002961  -0.000150
    16  C   -0.057542  -0.000007  -0.004532  -0.004258   0.005219   0.000033
    17  H    0.005059   0.000001  -0.000034   0.000019  -0.000188  -0.000234
    18  H   -0.003140   0.000000  -0.000280   0.003738  -0.000046   0.000004
    19  H   -0.004783   0.000000   0.004852  -0.000403   0.000019  -0.000028
             13         14         15         16         17         18
     1  N    0.003145  -0.001248  -0.004326  -0.008961   0.013668   0.000116
     2  H    0.000115  -0.000029   0.005520  -0.000191  -0.000084  -0.000015
     3  C   -0.074165   0.019138  -0.051768  -0.047991  -0.004848   0.005649
     4  H    0.000394  -0.000425   0.006146  -0.005935  -0.000433  -0.000006
     5  C   -0.000225  -0.000971   0.382103   0.345287  -0.032251  -0.036184
     6  C    0.230326   0.012802  -0.007403   0.005427   0.000481  -0.000200
     7  C    0.002159   0.000020  -0.047792  -0.057542   0.005059  -0.003140
     8  O   -0.144220   0.045763   0.003153  -0.000007   0.000001   0.000000
     9  H    0.000634   0.000003   0.005589  -0.004532  -0.000034  -0.000280
    10  H    0.000094  -0.000004  -0.003781  -0.004258   0.000019   0.003738
    11  H   -0.000558   0.000369  -0.002961   0.005219  -0.000188  -0.000046
    12  H    0.000279  -0.000056  -0.000150   0.000033  -0.000234   0.000004
    13  O    8.379688   0.085940   0.000028  -0.000139  -0.000003   0.000000
    14  H    0.085940   0.544803   0.000000   0.000018   0.000000   0.000000
    15  H    0.000028   0.000000   0.630158  -0.043203  -0.002507  -0.004381
    16  C   -0.000139   0.000018  -0.043203   5.097944   0.370505   0.370745
    17  H   -0.000003   0.000000  -0.002507   0.370505   0.540673  -0.029804
    18  H    0.000000   0.000000  -0.004381   0.370745  -0.029804   0.599119
    19  H   -0.000004   0.000000   0.005594   0.373900  -0.028700  -0.033761
             19
     1  N    0.000278
     2  H    0.000036
     3  C   -0.005891
     4  H    0.005115
     5  C   -0.042366
     6  C    0.000007
     7  C   -0.004783
     8  O    0.000000
     9  H    0.004852
    10  H   -0.000403
    11  H    0.000019
    12  H   -0.000028
    13  O   -0.000004
    14  H    0.000000
    15  H    0.005594
    16  C    0.373900
    17  H   -0.028700
    18  H   -0.033761
    19  H    0.600081
 Mulliken atomic charges:
              1
     1  N   -0.639175
     2  H    0.286099
     3  C   -0.050844
     4  H    0.172997
     5  C   -0.076424
     6  C    0.461246
     7  C   -0.409946
     8  O   -0.418034
     9  H    0.143627
    10  H    0.137475
    11  H    0.141924
    12  H    0.283825
    13  O   -0.483488
    14  H    0.293877
    15  H    0.129980
    16  C   -0.396319
    17  H    0.168680
    18  H    0.128444
    19  H    0.126055
 Sum of Mulliken charges=   0.00000
 Atomic charges with hydrogens summed into heavy atoms:
              1
     1  N   -0.069251
     2  H    0.000000
     3  C    0.122154
     4  H    0.000000
     5  C    0.053556
     6  C    0.461246
     7  C    0.013080
     8  O   -0.418034
     9  H    0.000000
    10  H    0.000000
    11  H    0.000000
    12  H    0.000000
    13  O   -0.189611
    14  H    0.000000
    15  H    0.000000
    16  C    0.026860
    17  H    0.000000
    18  H    0.000000
    19  H    0.000000
 Sum of Mulliken charges=   0.00000
 APT atomic charges:
              1
     1  N   -0.482099
     2  H    0.169409
     3  C    0.331950
     4  H    0.006473
     5  C    0.129394
     6  C    0.536540
     7  C    0.030989
     8  O   -0.538855
     9  H   -0.002018
    10  H   -0.014187
    11  H   -0.016796
    12  H    0.140431
    13  O   -0.491100
    14  H    0.248762
    15  H   -0.059545
    16  C    0.024048
    17  H    0.030952
    18  H   -0.028902
    19  H   -0.015445
 Sum of APT charges=   0.00000
 APT Atomic charges with hydrogens summed into heavy atoms:
              1
     1  N   -0.172260
     2  H    0.000000
     3  C    0.338424
     4  H    0.000000
     5  C    0.069849
     6  C    0.536540
     7  C   -0.002013
     8  O   -0.538855
     9  H    0.000000
    10  H    0.000000
    11  H    0.000000
    12  H    0.000000
    13  O   -0.242338
    14  H    0.000000
    15  H    0.000000
    16  C    0.010653
    17  H    0.000000
    18  H    0.000000
    19  H    0.000000
 Sum of APT charges=   0.00000
 Electronic spatial extent (au):  <R**2>=  1070.9476
 Charge=     0.0000 electrons
 Dipole moment (field-independent basis, Debye):
    X=     0.0657    Y=     0.5037    Z=    -0.4031  Tot=     0.6485
 Quadrupole moment (field-independent basis, Debye-Ang):
   XX=   -49.5588   YY=   -49.5566   ZZ=   -52.2821
   XY=     3.9538   XZ=    -0.3293   YZ=     2.3401
 Traceless Quadrupole moment (field-independent basis, Debye-Ang):
   XX=     0.9070   YY=     0.9092   ZZ=    -1.8162
   XY=     3.9538   XZ=    -0.3293   YZ=     2.3401
 Octapole moment (field-independent basis, Debye-Ang**2):
  XXX=    22.4313  YYY=     7.1246  ZZZ=     1.4584  XYY=    12.9647
  XXY=    -4.1307  XXZ=    -3.7582  XZZ=    -5.2370  YZZ=     5.1243
  YYZ=    -3.1792  XYZ=     6.6047
 Hexadecapole moment (field-independent basis, Debye-Ang**3):
 XXXX=  -743.0555 YYYY=  -409.9780 ZZZZ=  -163.3786 XXXY=   -15.0589
 XXXZ=    -4.5744 YYYX=    22.8732 YYYZ=    -1.1161 ZZZX=    -1.0221
 ZZZY=    -1.1656 XXYY=  -201.3378 XXZZ=  -176.0322 YYZZ=   -90.8125
 XXYZ=    12.2369 YYXZ=    -0.2964 ZZXY=     4.5019
 N-N= 4.045118358514D+02 E-N=-1.747938970241D+03  KE= 3.999053220932D+02
  Exact polarizability:  78.524  -6.016  64.806  -2.646  -2.618  60.166
 Approx polarizability:  99.708 -10.484  88.938  -7.990 -15.414 111.592
 ***** Axes restored to original set *****
 -------------------------------------------------------------------
 Center     Atomic                   Forces (Hartrees/Bohr)
 Number     Number              X              Y              Z
 -------------------------------------------------------------------
    1          7           0.000711295   -0.008092075    0.004977759
    2          1          -0.002908614    0.005993602    0.004894084
    3          6          -0.000056595    0.006801006    0.000521495
    4          1           0.000954417   -0.001067466    0.001245679
    5          6           0.000422502    0.001173451    0.000534244
    6          6          -0.002577969    0.027271026   -0.144074170
    7          6           0.001849897   -0.000237670   -0.000266825
    8          8           0.020444749   -0.039695790    0.082279148
    9          1           0.000021309   -0.000848534   -0.001256830
   10          1           0.000431853    0.001752289    0.000284765
   11          1           0.000982115   -0.001408342    0.000500867
   12          1          -0.005881608   -0.000462474   -0.005035293
   13          8          -0.004690193   -0.009513468    0.083110095
   14          1          -0.007486892    0.016178682   -0.029160620
   15          1          -0.000401243    0.000845256    0.002786130
   16          6          -0.001304094    0.001041713   -0.000693471
   17          1          -0.001652793   -0.000858445    0.000595196
   18          1           0.000893859    0.001545311    0.000396473
   19          1           0.000248006   -0.000418070   -0.001638726
 -------------------------------------------------------------------
 Cartesian Forces:  Max     0.144074170 RMS     0.026078449

 GradGradGradGradGradGradGradGradGradGradGradGradGradGradGradGradGradGrad
 Berny optimization.
 Internal  Forces:  Max     0.086184756 RMS     0.012281895
 Search for a saddle point.
 Step number   1 out of a maximum of 104
 All quantities printed in internal units (Hartrees-Bohrs-Radians)
 Swaping is turned off.
 Second derivative matrix not updated -- analytic derivatives used.
     Eigenvalues ---   -0.08628   0.00004   0.00168   0.00202   0.00275
     Eigenvalues ---    0.00350   0.00385   0.01873   0.03278   0.03632
     Eigenvalues ---    0.04249   0.04486   0.04708   0.04902   0.04913
     Eigenvalues ---    0.05028   0.05059   0.05065   0.05508   0.10652
     Eigenvalues ---    0.12706   0.12914   0.13147   0.13495   0.14056
     Eigenvalues ---    0.15041   0.15322   0.15842   0.16640   0.16686
     Eigenvalues ---    0.17349   0.19287   0.19689   0.20812   0.26337
     Eigenvalues ---    0.28999   0.30247   0.31407   0.33477   0.33560
     Eigenvalues ---    0.34014   0.34239   0.34407   0.34487   0.34729
     Eigenvalues ---    0.35130   0.35706   0.38404   0.45308   0.45854
     Eigenvalues ---    0.813921000.000001000.000001000.000001000.00000
     Eigenvalues --- 1000.000001000.000001000.000001000.000001000.00000
     Eigenvalues --- 1000.000001000.000001000.000001000.000001000.00000
     Eigenvalues --- 1000.000001000.000001000.000001000.000001000.00000
     Eigenvalues --- 1000.000001000.000001000.000001000.000001000.00000
     Eigenvalues --- 1000.000001000.000001000.000001000.000001000.00000
     Eigenvalues --- 1000.000001000.000001000.000001000.000001000.00000
     Eigenvalues --- 1000.000001000.000001000.000001000.000001000.00000
     Eigenvalues --- 1000.000001000.000001000.000001000.00000
 Eigenvectors required to have negative eigenvalues:
                          R1        R2        R3        R4        R5
         1             -0.00071   0.00352  -0.00026  -0.00388   0.00239
                          R6        R7        R8        R9        R10
         1              0.00322  -0.00016   0.00049   0.00024   0.06513
                          R11       R12       R13       R14       R15
         1             -0.11510  -0.01879  -0.00061   0.00017  -0.00052
                          R16       R17       R18       R19       R20
         1             -0.63918   0.68933  -0.00008  -0.00011  -0.00011
                          A1        A2        A3        A4        A5
         1              0.00826   0.00005  -0.00050  -0.00064  -0.00548
                          A6        A7        A8        A9        A10
         1              0.01519   0.00532  -0.01535   0.00056   0.00226
                          A11       A12       A13       A14       A15
         1              0.00104  -0.00224  -0.00023  -0.00062  -0.00016
                          A16       A17       A18       A19       A20
         1             -0.01282   0.00042   0.30710   0.01272  -0.00044
                          A21       A22       A23       A24       A25
         1             -0.00105   0.00096   0.00116  -0.00114   0.00055
                          A26       A27       A28       A29       A30
         1             -0.03109   0.00052  -0.00059  -0.00035   0.00026
                          A31       A32       D1        D2        D3
         1              0.00003   0.00013  -0.00018   0.00271   0.01006
                          D4        D5        D6        D7        D8
         1             -0.00515  -0.00225   0.00509   0.00561   0.00399
                          D9        D10       D11       D12       D13
         1              0.00476   0.00485   0.00322   0.00399  -0.01026
                          D14       D15       D16       D17       D18
         1             -0.01189  -0.01112  -0.01482   0.01425  -0.00985
                          D19       D20       D21       D22       D23
         1             -0.01336   0.01572  -0.00838  -0.01094   0.01813
                          D24       D25       D26       D27       D28
         1             -0.00597  -0.00206  -0.00158  -0.00096   0.00037
                          D29       D30       D31       D32       D33
         1              0.00086   0.00148  -0.00032   0.00016   0.00078
                          D34       D35       D36       D37       D38
         1             -0.00024   0.00004  -0.00039   0.00059   0.00087
                          D39       D40       D41       D42
         1              0.00044  -0.00015   0.00013  -0.00030
 RFO step:  Lambda0=1.246320281D-03 Lambda=-4.63538184D-02.
 Linear search not attempted -- option 19 set.
 Maximum step size (   0.300) exceeded in Quadratic search.
    -- Step size scaled by   0.497
 Iteration  1 RMS(Cart)=  0.02448646 RMS(Int)=  0.00101409
 Iteration  2 RMS(Cart)=  0.00101365 RMS(Int)=  0.00014496
 Iteration  3 RMS(Cart)=  0.00000117 RMS(Int)=  0.00014491
 Iteration  4 RMS(Cart)=  0.00000000 RMS(Int)=  0.00014491
 Variable       Old X    -DE/DX   Delta X   Delta X   Delta X     New X
                                 (Linear)    (Quad)   (Total)
    R1        1.92095   0.00489   0.00000   0.00241   0.00241   1.92336
    R2        2.76604   0.00924   0.00000   0.00746   0.00746   2.77350
    R3        1.91759   0.00474   0.00000   0.00254   0.00254   1.92013
    R4        2.06642  -0.00104   0.00000   0.00004   0.00004   2.06646
    R5        2.93377   0.00312   0.00000   0.00603   0.00603   2.93981
    R6        2.88936   0.00374   0.00000  -0.02124  -0.02124   2.86812
    R7        2.90091   0.00336   0.00000   0.00459   0.00459   2.90551
    R8        2.07438   0.00292   0.00000   0.00299   0.00299   2.07738
    R9        2.89823   0.00251   0.00000   0.00337   0.00337   2.90161
   R10        2.28143   0.08618   0.00000   0.06768   0.06739   2.34882
   R11        2.56119  -0.04308   0.00000  -0.05784  -0.05817   2.50302
   R12        3.31917   0.01663   0.00000  -0.06430  -0.06380   3.25536
   R13        2.06891   0.00142   0.00000   0.00195   0.00195   2.07086
   R14        2.06551   0.00181   0.00000   0.00202   0.00202   2.06754
   R15        2.06556   0.00169   0.00000   0.00194   0.00194   2.06750
   R16        3.02356  -0.00994   0.00000  -0.18482  -0.18495   2.83862
   R17        3.02356  -0.04239   0.00000  -0.12797  -0.12789   2.89567
   R18        2.05985   0.00176   0.00000   0.00199   0.00199   2.06184
   R19        2.06667   0.00181   0.00000   0.00205   0.00205   2.06872
   R20        2.07068   0.00170   0.00000   0.00208   0.00208   2.07276
    A1        1.91581   0.00576   0.00000   0.01525   0.01503   1.93084
    A2        1.87072   0.00033   0.00000   0.01409   0.01368   1.88441
    A3        1.93788   0.00454   0.00000   0.01367   0.01345   1.95133
    A4        1.89076   0.00007   0.00000   0.00102   0.00103   1.89179
    A5        1.92448  -0.00090   0.00000  -0.00079  -0.00080   1.92368
    A6        1.94252   0.00155   0.00000   0.00435   0.00435   1.94687
    A7        1.89472   0.00065   0.00000   0.00092   0.00092   1.89564
    A8        1.88549  -0.00129   0.00000  -0.00779  -0.00778   1.87771
    A9        1.92451  -0.00010   0.00000   0.00204   0.00204   1.92655
   A10        1.96411  -0.00045   0.00000  -0.00262  -0.00262   1.96149
   A11        1.85486   0.00056   0.00000   0.00122   0.00122   1.85608
   A12        1.92476  -0.00098   0.00000  -0.00300  -0.00300   1.92176
   A13        1.88732  -0.00008   0.00000   0.00100   0.00100   1.88832
   A14        1.93445   0.00116   0.00000   0.00327   0.00327   1.93772
   A15        1.89504  -0.00021   0.00000   0.00021   0.00021   1.89525
   A16        2.17761   0.00992   0.00000   0.00795   0.00765   2.18526
   A17        1.96952   0.02617   0.00000   0.08859   0.08873   2.05825
   A18        3.01920   0.00970   0.00000   0.06217   0.06174   3.08094
   A19        2.13599  -0.03610   0.00000  -0.09653  -0.09637   2.03962
   A20        1.94013  -0.00039   0.00000  -0.00129  -0.00129   1.93884
   A21        1.92049  -0.00025   0.00000  -0.00056  -0.00056   1.91993
   A22        1.96327   0.00034   0.00000   0.00003   0.00003   1.96329
   A23        1.87930   0.00038   0.00000   0.00112   0.00112   1.88042
   A24        1.88338  -0.00026   0.00000  -0.00058  -0.00058   1.88281
   A25        1.87405   0.00019   0.00000   0.00142   0.00142   1.87547
   A26        1.55656   0.01419   0.00000   0.05299   0.05392   1.61048
   A27        1.94120  -0.00103   0.00000  -0.00327  -0.00327   1.93793
   A28        1.92592   0.00001   0.00000  -0.00030  -0.00030   1.92562
   A29        1.93148  -0.00012   0.00000  -0.00034  -0.00034   1.93114
   A30        1.89707   0.00065   0.00000   0.00245   0.00244   1.89952
   A31        1.88786   0.00040   0.00000   0.00095   0.00094   1.88881
   A32        1.87860   0.00015   0.00000   0.00072   0.00072   1.87931
    D1        2.94124   0.00321   0.00000   0.01625   0.01636   2.95760
    D2       -1.27076   0.00352   0.00000   0.01753   0.01764  -1.25312
    D3        0.87075   0.00383   0.00000   0.02259   0.02269   0.89345
    D4        0.87599  -0.00362   0.00000  -0.01918  -0.01929   0.85670
    D5        2.94717  -0.00331   0.00000  -0.01790  -0.01801   2.92917
    D6       -1.19449  -0.00300   0.00000  -0.01285  -0.01296  -1.20745
    D7        3.03730   0.00036   0.00000   0.00199   0.00198   3.03928
    D8        0.97471   0.00036   0.00000   0.00145   0.00145   0.97616
    D9       -1.07602   0.00080   0.00000   0.00208   0.00208  -1.07394
   D10       -1.17713   0.00031   0.00000   0.00332   0.00332  -1.17380
   D11        3.04347   0.00031   0.00000   0.00279   0.00279   3.04626
   D12        0.99274   0.00076   0.00000   0.00341   0.00342   0.99616
   D13        0.88525  -0.00092   0.00000  -0.00438  -0.00439   0.88087
   D14       -1.17733  -0.00092   0.00000  -0.00492  -0.00492  -1.18225
   D15        3.05512  -0.00048   0.00000  -0.00429  -0.00429   3.05083
   D16       -0.81478   0.00072   0.00000  -0.00063  -0.00064  -0.81542
   D17        2.31484  -0.00040   0.00000   0.00033   0.00032   2.31516
   D18        2.13826   0.00017   0.00000  -0.00288  -0.00288   2.13538
   D19       -2.88842   0.00052   0.00000   0.00043   0.00043  -2.88798
   D20        0.24120  -0.00059   0.00000   0.00139   0.00139   0.24259
   D21        0.06462  -0.00002   0.00000  -0.00181  -0.00181   0.06281
   D22        1.32673   0.00057   0.00000   0.00279   0.00279   1.32952
   D23       -1.82684  -0.00055   0.00000   0.00375   0.00375  -1.82309
   D24       -2.00342   0.00003   0.00000   0.00055   0.00055  -2.00287
   D25        1.03455  -0.00052   0.00000  -0.00194  -0.00195   1.03260
   D26        3.11483  -0.00045   0.00000  -0.00173  -0.00173   3.11310
   D27       -1.07975  -0.00015   0.00000  -0.00029  -0.00030  -1.08004
   D28        3.07793  -0.00015   0.00000  -0.00133  -0.00133   3.07659
   D29       -1.12498  -0.00008   0.00000  -0.00112  -0.00112  -1.12609
   D30        0.96363   0.00023   0.00000   0.00032   0.00032   0.96395
   D31       -1.12997   0.00022   0.00000   0.00145   0.00146  -1.12852
   D32        0.95031   0.00029   0.00000   0.00167   0.00167   0.95198
   D33        3.03892   0.00059   0.00000   0.00310   0.00311   3.04203
   D34        0.92774  -0.00001   0.00000   0.00001   0.00001   0.92775
   D35        3.03457   0.00013   0.00000   0.00072   0.00073   3.03530
   D36       -1.17120   0.00025   0.00000   0.00121   0.00121  -1.16999
   D37        3.11457  -0.00047   0.00000  -0.00320  -0.00320   3.11137
   D38       -1.06178  -0.00033   0.00000  -0.00249  -0.00249  -1.06427
   D39        1.01563  -0.00021   0.00000  -0.00200  -0.00200   1.01362
   D40       -1.09799  -0.00001   0.00000   0.00009   0.00009  -1.09791
   D41        1.00884   0.00013   0.00000   0.00080   0.00080   1.00964
   D42        3.08625   0.00025   0.00000   0.00129   0.00129   3.08754
         Item               Value     Threshold  Converged?
 Maximum Force            0.086185     0.000450     NO 
 RMS     Force            0.012282     0.000300     NO 
 Maximum Displacement     0.114302     0.001800     NO 
 RMS     Displacement     0.024230     0.001200     NO 
 Predicted change in Energy=-1.884857D-02
 GradGradGradGradGradGradGradGradGradGradGradGradGradGradGradGradGradGrad

                          Input orientation:                          
 ---------------------------------------------------------------------
 Center     Atomic     Atomic              Coordinates (Angstroms)
 Number     Number      Type              X           Y           Z
 ---------------------------------------------------------------------
    1          7             0       -0.142741    0.143640    0.169536
    2          1             0       -0.154526    0.152412    1.187227
    3          6             0        1.236701    0.147434   -0.331654
    4          1             0        1.213767   -0.051902   -1.406612
    5          6             0        1.889536    1.540163   -0.098750
    6          6             0        2.069200   -0.942086    0.319073
    7          6             0        3.380541    1.558001   -0.473692
    8          8             0        2.103471   -1.186561    1.537250
    9          1             0        3.525419    1.292647   -1.527013
   10          1             0        3.792473    2.560274   -0.322701
   11          1             0        3.972601    0.865194    0.131687
   12          1             0       -0.655509   -0.676073   -0.142827
   13          8             0        2.813123   -1.706749   -0.465964
   14          1             0        3.033575   -2.216425    0.962199
   15          1             0        1.803846    1.745884    0.977725
   16          6             0        1.115436    2.621130   -0.866820
   17          1             0        0.052258    2.588736   -0.623808
   18          1             0        1.504094    3.614518   -0.620780
   19          1             0        1.224350    2.479529   -1.949033
 ---------------------------------------------------------------------
                    Distance matrix (angstroms):
                    1          2          3          4          5
     1  N    0.000000
     2  H    1.017797   0.000000
     3  C    1.467673   2.059741   0.000000
     4  H    2.088682   2.939722   1.093524   0.000000
     5  C    2.480404   2.785279   1.555678   2.168373   0.000000
     6  C    2.468572   2.626133   1.517746   2.121835   2.523573
     7  C    3.850671   4.151027   2.570199   2.856053   1.537528
     8  O    2.947125   2.648380   2.454309   3.278010   3.187050
     9  H    4.201653   4.712667   2.824647   2.676947   2.185706
    10  H    4.644171   4.863793   3.514805   3.827278   2.170702
    11  H    4.178290   4.319189   2.866185   3.289163   2.201782
    12  H    1.016086   1.645118   2.072264   2.341140   3.375041
    13  O    3.544705   3.872527   2.437446   2.486218   3.395630
    14  H    4.035741   3.978192   3.238926   3.688919   4.067726
    15  H    2.647556   2.533429   2.142701   3.043894   1.099300
    16  C    2.965636   3.453473   2.533827   2.728763   1.535465
    17  H    2.577967   3.042742   2.729142   2.989123   2.179629
    18  H    3.922201   4.243358   3.489380   3.760912   2.173483
    19  H    3.437098   4.141605   2.838087   2.588914   2.179089
                    6          7          8          9         10
     6  C    0.000000
     7  C    2.932324   0.000000
     8  O    1.242940   3.634201   0.000000
     9  H    3.243861   1.095850   4.190240   0.000000
    10  H    3.955764   1.094092   4.511199   1.768775   0.000000
    11  H    2.631408   1.094075   3.111101   1.770302   1.764146
    12  H    2.776357   4.624960   3.270357   4.824105   5.503712
    13  O    1.324543   3.313701   2.187937   3.260301   4.380313
    14  H    1.722663   4.053204   1.502131   4.330320   5.004374
    15  H    2.780183   2.151250   3.000345   3.072938   2.511768
    16  C    3.874599   2.532882   4.610236   2.829972   2.732453
    17  H    4.174181   3.487465   4.809419   3.815557   3.752423
    18  H    4.686717   2.787822   5.297802   3.209066   2.537117
    19  H    4.191124   2.770379   5.134904   2.623302   3.040844
                   11         12         13         14         15
    11  H    0.000000
    12  H    4.885721   0.000000
    13  O    2.883828   3.632922   0.000000
    14  H    3.326845   4.147663   1.532324   0.000000
    15  H    2.488954   3.629040   3.876023   4.148779   0.000000
    16  C    3.499102   3.812080   4.666194   5.516023   2.154602
    17  H    4.348615   3.375093   5.108668   5.873095   2.518604
    18  H    3.770745   4.827162   5.482100   6.232579   2.477270
    19  H    3.806357   4.093174   4.716844   5.813824   3.072452
                   16         17         18         19
    16  C    0.000000
    17  H    1.091077   0.000000
    18  H    1.094720   1.777657   0.000000
    19  H    1.096859   1.772553   1.769382   0.000000
 Stoichiometry    C5H11NO2
 Framework group  C1[X(C5H11NO2)]
 Deg. of freedom    51
 Full point group                 C1
 Largest Abelian subgroup         C1      NOp   1
 Largest concise Abelian subgroup C1      NOp   1
                         Standard orientation:                         
 ---------------------------------------------------------------------
 Center     Atomic     Atomic              Coordinates (Angstroms)
 Number     Number      Type              X           Y           Z
 ---------------------------------------------------------------------
    1          7             0        0.111892    1.963777   -0.104334
    2          1             0       -0.185105    2.148840    0.851415
    3          6             0        0.034381    0.528524   -0.401157
    4          1             0        0.175698    0.390517   -1.476694
    5          6             0        1.160971   -0.237458    0.349976
    6          6             0       -1.324637   -0.042742   -0.040219
    7          6             0        1.039737   -1.761829    0.190004
    8          8             0       -1.927546    0.162157    1.027216
    9          1             0        1.084305   -2.052265   -0.865717
   10          1             0        1.865249   -2.259323    0.707756
   11          1             0        0.107164   -2.153513    0.607006
   12          1             0       -0.476617    2.510215   -0.726825
   13          8             0       -1.930490   -0.812810   -0.931483
   14          1             0       -2.877001   -0.722018    0.270138
   15          1             0        1.043485    0.006253    1.415463
   16          6             0        2.537550    0.257603   -0.116497
   17          1             0        2.612885    1.342764   -0.031634
   18          1             0        3.329953   -0.199757    0.484609
   19          1             0        2.713022   -0.017516   -1.163692
 ---------------------------------------------------------------------
 Rotational constants (GHZ):      2.8341795      1.5332360      1.2015762
 Standard basis: 6-31G (6D, 7F)
 There are    94 symmetry adapted basis functions of A   symmetry.
 Integral buffers will be    262144 words long.
 Raffenetti 2 integral format.
 Two-electron integral symmetry is turned on.
    94 basis functions,   220 primitive gaussians,    94 cartesian basis functions
    32 alpha electrons       32 beta electrons
       nuclear repulsion energy       404.0571641262 Hartrees.
 NAtoms=   19 NActive=   19 NUniq=   19 SFac= 7.50D-01 NAtFMM=   80 NAOKFM=F Big=F
 One-electron integrals computed using PRISM.
 NBasis=    94 RedAO= T  NBF=    94
 NBsUse=    94 1.00D-06 NBFU=    94
 Initial guess read from the read-write file:
 Initial guess orbital symmetries:
       Occupied  (A) (A) (A) (A) (A) (A) (A) (A) (A) (A) (A) (A)
                 (A) (A) (A) (A) (A) (A) (A) (A) (A) (A) (A) (A)
                 (A) (A) (A) (A) (A) (A) (A) (A)
       Virtual   (A) (A) (A) (A) (A) (A) (A) (A) (A) (A) (A) (A)
                 (A) (A) (A) (A) (A) (A) (A) (A) (A) (A) (A) (A)
                 (A) (A) (A) (A) (A) (A) (A) (A) (A) (A) (A) (A)
                 (A) (A) (A) (A) (A) (A) (A) (A) (A) (A) (A) (A)
                 (A) (A) (A) (A) (A) (A) (A) (A) (A) (A) (A) (A)
                 (A) (A)
 Harris functional with IExCor=  402 diagonalized for initial guess.
 ExpMin= 1.61D-01 ExpMax= 5.48D+03 ExpMxC= 8.25D+02 IAcc=1 IRadAn=         1 AccDes= 1.00D-06
 HarFok:  IExCor= 402 AccDes= 1.00D-06 IRadAn=         1 IDoV=1
 ScaDFX=  1.000000  1.000000  1.000000  1.000000
 Requested convergence on RMS density matrix=1.00D-08 within 128 cycles.
 Requested convergence on MAX density matrix=1.00D-06.
 Requested convergence on             energy=1.00D-06.
 No special actions if energy rises.
 Integral accuracy reduced to 1.0D-05 until final iterations.
 Initial convergence to 1.0D-05 achieved.  Increase integral accuracy.
 SCF Done:  E(RB+HF-LYP) =  -402.166140849     A.U. after   16 cycles
             Convg  =    0.6618D-08             -V/T =  2.0057
             S**2   =   0.0000
 ***** Axes restored to original set *****
 -------------------------------------------------------------------
 Center     Atomic                   Forces (Hartrees/Bohr)
 Number     Number              X              Y              Z
 -------------------------------------------------------------------
    1          7           0.001254089   -0.007661078    0.004122823
    2          1          -0.001737470    0.004803982    0.002567141
    3          6          -0.001054533    0.004806750    0.002005002
    4          1           0.000647984   -0.000678496    0.000627237
    5          6           0.000501621    0.001028873    0.000489578
    6          6          -0.000304871    0.014534895   -0.084654685
    7          6           0.001104761   -0.000171167   -0.000212204
    8          8           0.015907641   -0.027992928    0.049200834
    9          1          -0.000004540   -0.000510454   -0.000711703
   10          1           0.000211420    0.000985469    0.000145947
   11          1           0.000517943   -0.000848026    0.000233832
   12          1          -0.003745044    0.000653028   -0.003821292
   13          8          -0.000871141   -0.007226823    0.048186772
   14          1          -0.011098618    0.017249247   -0.018878863
   15          1          -0.000256026    0.000370310    0.001556549
   16          6          -0.000805512    0.000637644   -0.000506222
   17          1          -0.000917152   -0.000583110    0.000317941
   18          1           0.000512457    0.000846405    0.000248676
   19          1           0.000136991   -0.000244523   -0.000917364
 -------------------------------------------------------------------
 Cartesian Forces:  Max     0.084654685 RMS     0.015766172

 GradGradGradGradGradGradGradGradGradGradGradGradGradGradGradGradGradGrad
 Berny optimization.
 Internal  Forces:  Max     0.052303031 RMS     0.007407428
 Search for a saddle point.
 Step number   2 out of a maximum of 104
 All quantities printed in internal units (Hartrees-Bohrs-Radians)
 Swaping is turned off.
 Update second derivatives using D2CorX and points  1  2
     Eigenvalues ---   -0.08826   0.00004   0.00169   0.00202   0.00275
     Eigenvalues ---    0.00350   0.00385   0.02357   0.03257   0.03632
     Eigenvalues ---    0.04247   0.04486   0.04708   0.04902   0.04913
     Eigenvalues ---    0.05028   0.05059   0.05066   0.05509   0.10643
     Eigenvalues ---    0.12706   0.12917   0.13146   0.13509   0.14056
     Eigenvalues ---    0.15042   0.15323   0.15844   0.16670   0.16848
     Eigenvalues ---    0.17345   0.19287   0.19689   0.20812   0.26418
     Eigenvalues ---    0.29011   0.30247   0.31410   0.33557   0.33908
     Eigenvalues ---    0.34021   0.34280   0.34410   0.34487   0.34728
     Eigenvalues ---    0.35131   0.35706   0.38393   0.45307   0.45854
     Eigenvalues ---    0.809461000.000001000.000001000.000001000.00000
     Eigenvalues --- 1000.000001000.000001000.000001000.000001000.00000
     Eigenvalues --- 1000.000001000.000001000.000001000.000001000.00000
     Eigenvalues --- 1000.000001000.000001000.000001000.000001000.00000
     Eigenvalues --- 1000.000001000.000001000.000001000.000001000.00000
     Eigenvalues --- 1000.000001000.000001000.000001000.000001000.00000
     Eigenvalues --- 1000.000001000.000001000.000001000.000001000.00000
     Eigenvalues --- 1000.000001000.000001000.000001000.000001000.00000
     Eigenvalues --- 1000.000001000.000001000.000001000.00000
 Eigenvectors required to have negative eigenvalues:
                          R1        R2        R3        R4        R5
         1             -0.00088   0.00338  -0.00044  -0.00371   0.00291
                          R6        R7        R8        R9        R10
         1              0.00138   0.00004   0.00058   0.00039   0.07205
                          R11       R12       R13       R14       R15
         1             -0.11196  -0.02712  -0.00051   0.00024  -0.00045
                          R16       R17       R18       R19       R20
         1             -0.66006   0.66830   0.00000  -0.00004  -0.00003
                          A1        A2        A3        A4        A5
         1              0.00987   0.00227   0.00123  -0.00054  -0.00511
                          A6        A7        A8        A9        A10
         1              0.01501   0.00501  -0.01545   0.00064   0.00192
                          A11       A12       A13       A14       A15
         1              0.00106  -0.00252  -0.00005  -0.00033  -0.00002
                          A16       A17       A18       A19       A20
         1             -0.01673   0.00509   0.30886   0.01191  -0.00052
                          A21       A22       A23       A24       A25
         1             -0.00107   0.00092   0.00122  -0.00119   0.00071
                          A26       A27       A28       A29       A30
         1             -0.01788   0.00027  -0.00060  -0.00039   0.00045
                          A31       A32       D1        D2        D3
         1              0.00008   0.00022   0.00261   0.00540   0.01304
                          D4        D5        D6        D7        D8
         1             -0.00785  -0.00506   0.00258   0.00567   0.00400
                          D9        D10       D11       D12       D13
         1              0.00475   0.00505   0.00339   0.00413  -0.01031
                          D14       D15       D16       D17       D18
         1             -0.01198  -0.01124  -0.01522   0.01458  -0.01007
                          D19       D20       D21       D22       D23
         1             -0.01360   0.01620  -0.00845  -0.01083   0.01897
                          D24       D25       D26       D27       D28
         1             -0.00568  -0.00223  -0.00173  -0.00096   0.00015
                          D29       D30       D31       D32       D33
         1              0.00066   0.00142  -0.00010   0.00040   0.00117
                          D34       D35       D36       D37       D38
         1             -0.00026   0.00008  -0.00028   0.00015   0.00049
                          D39       D40       D41       D42
         1              0.00013  -0.00012   0.00022  -0.00014
 RFO step:  Lambda0=7.662016445D-05 Lambda=-2.52945116D-02.
 Linear search not attempted -- option 19 set.
 Maximum step size (   0.300) exceeded in Quadratic search.
    -- Step size scaled by   0.521
 Iteration  1 RMS(Cart)=  0.02113846 RMS(Int)=  0.00111025
 Iteration  2 RMS(Cart)=  0.00071687 RMS(Int)=  0.00035641
 Iteration  3 RMS(Cart)=  0.00000131 RMS(Int)=  0.00035552
 Iteration  4 RMS(Cart)=  0.00000000 RMS(Int)=  0.00035552
 Variable       Old X    -DE/DX   Delta X   Delta X   Delta X     New X
                                 (Linear)    (Quad)   (Total)
    R1        1.92336   0.00263   0.00000   0.00023   0.00023   1.92359
    R2        2.77350   0.00496   0.00000   0.00316   0.00316   2.77666
    R3        1.92013   0.00254   0.00000   0.00024   0.00024   1.92036
    R4        2.06646  -0.00051   0.00000   0.00078   0.00078   2.06724
    R5        2.93981   0.00187   0.00000   0.00508   0.00508   2.94488
    R6        2.86812   0.00182   0.00000  -0.02081  -0.02081   2.84732
    R7        2.90551   0.00190   0.00000   0.00288   0.00288   2.90839
    R8        2.07738   0.00161   0.00000   0.00173   0.00173   2.07911
    R9        2.90161   0.00143   0.00000   0.00198   0.00198   2.90359
   R10        2.34882   0.05230   0.00000   0.04982   0.04870   2.39752
   R11        2.50302  -0.02164   0.00000  -0.01965  -0.02077   2.48225
   R12        3.25536   0.00575   0.00000  -0.10643  -0.10589   3.14947
   R13        2.07086   0.00081   0.00000   0.00127   0.00127   2.07213
   R14        2.06754   0.00100   0.00000   0.00120   0.00120   2.06874
   R15        2.06750   0.00095   0.00000   0.00120   0.00120   2.06870
   R16        2.83862  -0.01085   0.00000  -0.16107  -0.16038   2.67824
   R17        2.89567  -0.02638   0.00000  -0.16421  -0.16350   2.73217
   R18        2.06184   0.00098   0.00000   0.00124   0.00124   2.06307
   R19        2.06872   0.00101   0.00000   0.00123   0.00123   2.06995
   R20        2.07276   0.00095   0.00000   0.00127   0.00127   2.07404
    A1        1.93084   0.00357   0.00000   0.01388   0.01362   1.94446
    A2        1.88441   0.00064   0.00000   0.01735   0.01691   1.90132
    A3        1.95133   0.00297   0.00000   0.01349   0.01325   1.96458
    A4        1.89179   0.00005   0.00000   0.00084   0.00084   1.89263
    A5        1.92368  -0.00034   0.00000   0.00085   0.00085   1.92453
    A6        1.94687   0.00082   0.00000   0.00147   0.00147   1.94834
    A7        1.89564   0.00030   0.00000  -0.00124  -0.00124   1.89441
    A8        1.87771  -0.00079   0.00000  -0.00408  -0.00408   1.87363
    A9        1.92655  -0.00004   0.00000   0.00194   0.00194   1.92849
   A10        1.96149  -0.00035   0.00000  -0.00268  -0.00268   1.95881
   A11        1.85608   0.00033   0.00000   0.00054   0.00054   1.85662
   A12        1.92176  -0.00062   0.00000  -0.00245  -0.00245   1.91932
   A13        1.88832   0.00000   0.00000   0.00129   0.00128   1.88961
   A14        1.93772   0.00073   0.00000   0.00262   0.00262   1.94033
   A15        1.89525  -0.00009   0.00000   0.00077   0.00077   1.89602
   A16        2.18526   0.00489   0.00000   0.00714   0.00750   2.19276
   A17        2.05825   0.01680   0.00000   0.07120   0.07154   2.12979
   A18        3.08094   0.00684   0.00000   0.03560   0.03561   3.11654
   A19        2.03962  -0.02169   0.00000  -0.07832  -0.07902   1.96060
   A20        1.93884  -0.00024   0.00000  -0.00097  -0.00097   1.93787
   A21        1.91993  -0.00015   0.00000  -0.00023  -0.00023   1.91971
   A22        1.96329   0.00016   0.00000  -0.00008  -0.00009   1.96321
   A23        1.88042   0.00024   0.00000   0.00072   0.00072   1.88114
   A24        1.88281  -0.00015   0.00000  -0.00057  -0.00058   1.88223
   A25        1.87547   0.00016   0.00000   0.00123   0.00123   1.87670
   A26        1.61048   0.01248   0.00000   0.08063   0.08327   1.69375
   A27        1.93793  -0.00066   0.00000  -0.00245  -0.00245   1.93548
   A28        1.92562  -0.00001   0.00000  -0.00009  -0.00009   1.92552
   A29        1.93114  -0.00008   0.00000  -0.00039  -0.00039   1.93075
   A30        1.89952   0.00043   0.00000   0.00185   0.00185   1.90137
   A31        1.88881   0.00024   0.00000   0.00057   0.00057   1.88937
   A32        1.87931   0.00011   0.00000   0.00067   0.00067   1.87998
    D1        2.95760   0.00249   0.00000   0.02017   0.02028   2.97788
    D2       -1.25312   0.00268   0.00000   0.01966   0.01978  -1.23335
    D3        0.89345   0.00295   0.00000   0.02378   0.02389   0.91734
    D4        0.85670  -0.00275   0.00000  -0.02040  -0.02051   0.83619
    D5        2.92917  -0.00257   0.00000  -0.02090  -0.02102   2.90815
    D6       -1.20745  -0.00230   0.00000  -0.01679  -0.01690  -1.22435
    D7        3.03928   0.00021   0.00000   0.00155   0.00155   3.04083
    D8        0.97616   0.00020   0.00000   0.00113   0.00113   0.97730
    D9       -1.07394   0.00044   0.00000   0.00119   0.00120  -1.07274
   D10       -1.17380   0.00024   0.00000   0.00232   0.00232  -1.17149
   D11        3.04626   0.00023   0.00000   0.00190   0.00190   3.04816
   D12        0.99616   0.00048   0.00000   0.00196   0.00196   0.99812
   D13        0.88087  -0.00056   0.00000  -0.00225  -0.00225   0.87862
   D14       -1.18225  -0.00057   0.00000  -0.00267  -0.00267  -1.18492
   D15        3.05083  -0.00033   0.00000  -0.00261  -0.00261   3.04823
   D16       -0.81542   0.00023   0.00000  -0.00002  -0.00002  -0.81544
   D17        2.31516  -0.00012   0.00000   0.00163   0.00163   2.31679
   D18        2.13538  -0.00002   0.00000  -0.00163  -0.00163   2.13375
   D19       -2.88798   0.00019   0.00000   0.00065   0.00065  -2.88733
   D20        0.24259  -0.00016   0.00000   0.00231   0.00230   0.24490
   D21        0.06281  -0.00006   0.00000  -0.00095  -0.00095   0.06186
   D22        1.32952   0.00032   0.00000   0.00348   0.00348   1.33300
   D23       -1.82309  -0.00003   0.00000   0.00513   0.00513  -1.81796
   D24       -2.00287   0.00008   0.00000   0.00187   0.00188  -2.00100
   D25        1.03260  -0.00034   0.00000  -0.00151  -0.00151   1.03109
   D26        3.11310  -0.00029   0.00000  -0.00137  -0.00137   3.11173
   D27       -1.08004  -0.00008   0.00000  -0.00002  -0.00002  -1.08006
   D28        3.07659  -0.00014   0.00000  -0.00159  -0.00159   3.07500
   D29       -1.12609  -0.00009   0.00000  -0.00145  -0.00145  -1.12754
   D30        0.96395   0.00012   0.00000  -0.00010  -0.00010   0.96385
   D31       -1.12852   0.00018   0.00000   0.00170   0.00170  -1.12682
   D32        0.95198   0.00023   0.00000   0.00184   0.00184   0.95383
   D33        3.04203   0.00044   0.00000   0.00319   0.00319   3.04522
   D34        0.92775   0.00000   0.00000  -0.00038  -0.00037   0.92738
   D35        3.03530   0.00010   0.00000   0.00027   0.00027   3.03557
   D36       -1.16999   0.00018   0.00000   0.00079   0.00079  -1.16920
   D37        3.11137  -0.00038   0.00000  -0.00372  -0.00373   3.10764
   D38       -1.06427  -0.00028   0.00000  -0.00308  -0.00308  -1.06735
   D39        1.01362  -0.00019   0.00000  -0.00256  -0.00256   1.01106
   D40       -1.09791   0.00000   0.00000  -0.00010  -0.00010  -1.09801
   D41        1.00964   0.00010   0.00000   0.00054   0.00054   1.01018
   D42        3.08754   0.00018   0.00000   0.00106   0.00106   3.08860
         Item               Value     Threshold  Converged?
 Maximum Force            0.052303     0.000450     NO 
 RMS     Force            0.007407     0.000300     NO 
 Maximum Displacement     0.109217     0.001800     NO 
 RMS     Displacement     0.021097     0.001200     NO 
 Predicted change in Energy=-1.084643D-02
 GradGradGradGradGradGradGradGradGradGradGradGradGradGradGradGradGradGrad

                          Input orientation:                          
 ---------------------------------------------------------------------
 Center     Atomic     Atomic              Coordinates (Angstroms)
 Number     Number      Type              X           Y           Z
 ---------------------------------------------------------------------
    1          7             0       -0.139191    0.135611    0.168062
    2          1             0       -0.162747    0.157651    1.185469
    3          6             0        1.240664    0.144698   -0.336807
    4          1             0        1.216529   -0.048538   -1.413274
    5          6             0        1.893605    1.539419   -0.098225
    6          6             0        2.070898   -0.941685    0.296231
    7          6             0        3.384348    1.557521   -0.480375
    8          8             0        2.116504   -1.209961    1.535413
    9          1             0        3.523196    1.295496   -1.536039
   10          1             0        3.797766    2.559586   -0.327468
   11          1             0        3.978712    0.860650    0.119198
   12          1             0       -0.667912   -0.669167   -0.156708
   13          8             0        2.837464   -1.736529   -0.415114
   14          1             0        2.997273   -2.158630    0.958437
   15          1             0        1.811671    1.739847    0.980474
   16          6             0        1.112393    2.621648   -0.859384
   17          1             0        0.050061    2.582445   -0.610800
   18          1             0        1.499235    3.615843   -0.610868
   19          1             0        1.217146    2.483859   -1.943182
 ---------------------------------------------------------------------
                    Distance matrix (angstroms):
                    1          2          3          4          5
     1  N    0.000000
     2  H    1.017918   0.000000
     3  C    1.469346   2.070521   0.000000
     4  H    2.091055   2.949301   1.093939   0.000000
     5  C    2.484723   2.790293   1.558364   2.170114   0.000000
     6  C    2.462009   2.643568   1.506736   2.109517   2.518512
     7  C    3.854560   4.161317   2.571393   2.854675   1.539052
     8  O    2.961144   2.681009   2.471317   3.294482   3.205861
     9  H    4.202663   4.720961   2.823552   2.672492   2.186865
    10  H    4.649821   4.872775   3.517178   3.826757   2.172354
    11  H    4.181530   4.333915   2.866606   3.287057   2.203559
    12  H    1.016212   1.655372   2.082660   2.348458   3.382697
    13  O    3.564475   3.892436   2.468789   2.544223   3.423905
    14  H    3.965557   3.924594   3.173115   3.639856   4.001273
    15  H    2.653196   2.538443   2.146108   3.046727   1.100216
    16  C    2.966898   3.446546   2.534722   2.729016   1.536513
    17  H    2.574769   3.025143   2.726759   2.987755   2.179286
    18  H    3.924690   4.236520   3.491535   3.761843   2.174826
    19  H    3.436754   4.135675   2.837722   2.587245   2.180237
                    6          7          8          9         10
     6  C    0.000000
     7  C    2.928191   0.000000
     8  O    1.268710   3.650998   0.000000
     9  H    3.235948   1.096524   4.205938   0.000000
    10  H    3.953476   1.094728   4.528405   1.770299   0.000000
    11  H    2.630495   1.094708   3.124246   1.770987   1.765966
    12  H    2.789354   4.635052   3.302832   4.829890   5.513282
    13  O    1.313550   3.339777   2.145138   3.304524   4.403007
    14  H    1.666627   4.003722   1.417262   4.293017   4.955391
    15  H    2.779569   2.154214   3.016993   3.075648   2.515404
    16  C    3.866719   2.537281   4.628662   2.833464   2.738250
    17  H    4.162448   3.490695   4.822733   3.817718   3.758469
    18  H    4.681953   2.794167   5.317511   3.215023   2.545435
    19  H    4.180695   2.773928   5.153036   2.625993   3.045631
                   11         12         13         14         15
    11  H    0.000000
    12  H    4.899752   0.000000
    13  O    2.886741   3.673377   0.000000
    14  H    3.283838   4.110429   1.445805   0.000000
    15  H    2.492158   3.639349   3.883956   4.074833   0.000000
    16  C    3.503501   3.806927   4.708179   5.450532   2.156766
    17  H    4.351065   3.360753   5.144069   5.798823   2.519006
    18  H    3.777816   4.823287   5.520604   6.168580   2.479788
    19  H    3.809786   4.084912   4.772012   5.756818   3.074863
                   16         17         18         19
    16  C    0.000000
    17  H    1.091732   0.000000
    18  H    1.095368   1.779892   0.000000
    19  H    1.097533   1.773993   1.770882   0.000000
 Stoichiometry    C5H11NO2
 Framework group  C1[X(C5H11NO2)]
 Deg. of freedom    51
 Full point group                 C1
 Largest Abelian subgroup         C1      NOp   1
 Largest concise Abelian subgroup C1      NOp   1
                         Standard orientation:                         
 ---------------------------------------------------------------------
 Center     Atomic     Atomic              Coordinates (Angstroms)
 Number     Number      Type              X           Y           Z
 ---------------------------------------------------------------------
    1          7             0        0.123792    1.964590   -0.100129
    2          1             0       -0.158347    2.156728    0.858849
    3          6             0        0.044285    0.529486   -0.405303
    4          1             0        0.192071    0.395760   -1.480933
    5          6             0        1.165975   -0.245800    0.349178
    6          6             0       -1.309618   -0.036787   -0.063930
    7          6             0        1.038587   -1.769693    0.175386
    8          8             0       -1.942837    0.162161    1.017309
    9          1             0        1.087231   -2.050449   -0.883470
   10          1             0        1.859772   -2.275400    0.693406
   11          1             0        0.100978   -2.160641    0.583350
   12          1             0       -0.440536    2.528851   -0.729279
   13          8             0       -1.973615   -0.805094   -0.897132
   14          1             0       -2.811449   -0.675489    0.274016
   15          1             0        1.042731   -0.008942    1.416504
   16          6             0        2.546093    0.251440   -0.107879
   17          1             0        2.619379    1.336729   -0.014839
   18          1             0        3.335689   -0.211136    0.494113
   19          1             0        2.725619   -0.016552   -1.156940
 ---------------------------------------------------------------------
 Rotational constants (GHZ):      2.8503113      1.5231390      1.1906022
 Standard basis: 6-31G (6D, 7F)
 There are    94 symmetry adapted basis functions of A   symmetry.
 Integral buffers will be    262144 words long.
 Raffenetti 2 integral format.
 Two-electron integral symmetry is turned on.
    94 basis functions,   220 primitive gaussians,    94 cartesian basis functions
    32 alpha electrons       32 beta electrons
       nuclear repulsion energy       403.8289637353 Hartrees.
[...]
 53,-0.30521427,0.00638074,0.04414401,0.33323058,-0.02872920,-0.0316199
 9,-0.00818293,0.00145155,-0.00001238,0.00046043,-0.07690852,-0.0076560
 8,-0.00680754,-0.00066484,-0.00306179,-0.00061129,0.47221052,-0.005902
 43,-0.00300958,-0.00042664,0.00134740,0.00138947,0.00017483,-0.0257491
 2,-0.12058556,-0.01765414,-0.00442771,-0.00941361,-0.00249883,-0.01936
 446,0.45086523,0.01072206,0.00916999,0.00285226,0.00107892,0.00246439,
 0.00043302,-0.00894098,-0.01715749,-0.08379032,-0.01403063,-0.03060879
 ,-0.00665384,-0.00960851,0.01326825,0.59005646,-0.04938742,0.02190660,
 -0.00107599,0.00057392,-0.00007365,-0.00037039,-0.09492964,0.02885161,
 -0.03329049,-0.00109806,0.00464110,-0.00106053,0.01684537,0.00090907,0
 .00765198,0.41077967,0.00713684,0.00311804,-0.00366909,0.00025881,-0.0
 0002241,-0.00076268,0.04005939,-0.14027457,0.04179962,-0.00292318,0.00
 080704,-0.00325739,0.01333605,-0.03884148,0.01676284,-0.25779597,0.552
 21828,0.00834093,-0.00467541,0.00525554,0.00426139,-0.00378443,0.00081
 852,-0.03122430,0.03058621,-0.11050384,-0.02082566,0.02932017,-0.01893
 670,0.00673146,0.00297973,0.00490692,0.01382055,-0.06634941,0.63524019
 ,0.00012248,-0.00139091,-0.00074086,-0.00008062,-0.00033934,0.00000138
 ,-0.01859786,-0.00409414,0.00435447,0.00093439,0.00130441,0.00009984,-
 0.16557673,-0.00024133,0.02524558,0.00288264,-0.00118519,0.00077160,0.
 47466983,-0.00473866,-0.00504323,-0.00260144,-0.00000174,-0.00034231,0
 .00013719,-0.03014232,-0.00051431,0.00944215,0.00035923,0.00098360,0.0
 0030410,-0.00088364,-0.08174634,-0.00048442,-0.00229161,-0.00065612,-0
 .00057039,-0.00434792,0.58434230,-0.00121526,-0.00108579,0.00016498,-0
 .00032776,-0.00047535,0.00025540,-0.00416792,0.00087446,0.00122880,-0.
 00115054,-0.00019654,0.00041817,0.02749984,0.00010403,-0.09134983,0.00
 125371,0.00076189,-0.00006099,0.03295555,-0.00196084,0.56664850,0.0024
 5153,0.00302656,-0.00358396,0.00192482,-0.00179886,-0.00027472,0.00185
 099,0.00378540,-0.01832547,-0.00176988,0.00352069,-0.00237200,-0.00199
 359,0.00001965,-0.00168736,-0.09415154,0.02850571,0.01295825,-0.000914
 09,0.00063394,-0.00001626,0.06432454,0.00111768,-0.00017689,0.00034502
 ,-0.00178111,0.00034894,-0.00003057,0.00096319,0.00468819,0.02904041,0
 .00433120,-0.00431229,0.00245263,0.00013568,0.00210247,-0.00068970,0.0
 3304352,-0.11311802,0.01690979,0.00019768,0.00010514,0.00017633,-0.013
 56810,0.06725445,0.00035660,0.00026080,0.00104489,-0.00116245,0.000475
 30,-0.00006037,-0.00154478,0.00330483,-0.01488393,-0.00119063,0.001431
 84,0.00179677,-0.00189403,-0.00313657,-0.00175288,-0.01642289,0.053233
 85,-0.39344043,-0.00013349,0.00056936,-0.00020014,-0.03113980,-0.00885
 913,0.55974301,0.00006567,0.00016519,-0.00047673,0.00022724,0.00024649
 ,-0.00016942,0.00157996,0.00079390,0.00116258,-0.00021075,-0.00049201,
 -0.00072673,-0.00643658,0.00812230,0.03495954,-0.00017711,-0.00016566,
 -0.00000241,-0.05152419,0.00574258,0.02263599,0.00013697,0.00005064,-0
 .00005474,0.05778427,0.00008372,-0.00016862,-0.00001127,0.00000675,-0.
 00000215,-0.00004735,-0.00010386,0.00063939,0.00112475,-0.00013097,0.0
 0019282,-0.00018086,-0.00081620,-0.00028301,0.00140079,0.00009613,0.00
 041901,0.00102663,0.00589871,-0.06354100,-0.05673397,-0.00017169,-0.00
 034997,-0.00039820,-0.00600653,0.06410142,0.00018103,0.00013872,0.0004
 9850,-0.00021048,-0.00019760,0.00001754,-0.00056914,-0.00022083,0.0000
 0702,0.00056387,0.00067935,0.00033568,0.00053233,-0.00194276,-0.010393
 58,0.00045990,-0.00060301,-0.00116759,0.02314435,-0.05639741,-0.290880
 57,0.00003867,0.00050290,0.00068735,-0.02823645,0.06324817,0.31995362,
 -0.00163629,-0.00143441,-0.00060679,-0.00002390,-0.00006890,0.00002426
 ,-0.00460993,0.00245736,0.00243623,0.00010083,0.00030155,-0.00007204,-
 0.01547600,-0.03191475,-0.00572587,-0.00099410,0.00100466,-0.00014682,
 -0.08331329,-0.08857883,-0.01514331,0.00034623,-0.00024810,0.00010387,
 0.00108403,0.00314403,0.00059014,0.09438330,-0.00005357,0.00012029,-0.
 00020604,0.00000984,-0.00008216,-0.00001197,0.00053923,0.00110878,0.00
 063256,0.00013766,0.00006020,0.00002396,0.00194461,-0.00094889,-0.0004
 7617,0.00057196,0.00033443,-0.00059791,-0.09008382,-0.27004121,-0.0364
 9917,-0.00008764,0.00001318,0.00022360,-0.00249876,-0.00678954,0.00033
 136,0.09848323,0.29470025,0.00042272,0.00045062,0.00057626,-0.00008561
 ,-0.00002424,0.00003490,0.00153451,-0.00039412,-0.00045749,0.00025189,
 0.00028791,0.00028765,0.00481766,0.00940471,0.00101781,-0.00007091,-0.
 00035590,-0.00026914,-0.01541389,-0.03658240,-0.05560339,-0.00000730,0
 .00007902,0.00019151,-0.01263760,-0.03164551,-0.00482811,0.01507713,0.
 04040041,0.05611511,0.00048174,-0.00052487,0.00051710,-0.00013251,0.00
 022783,-0.00001212,0.00047985,0.00114671,-0.00078322,-0.00000230,0.000
 01889,0.00008050,-0.01680022,0.02248454,-0.01927372,-0.00247701,-0.001
 43035,-0.00065972,-0.12517617,0.08994931,-0.07478178,0.00074138,0.0003
 3366,0.00043431,0.00169836,-0.00224477,0.00226085,0.00692956,-0.008816
 30,0.00713682,0.13860633,0.00014360,0.00018248,-0.00000771,0.00003549,
 -0.00005900,0.00002413,-0.00018895,0.00041352,-0.00036094,-0.00010636,
 -0.00005169,-0.00004937,-0.00227990,0.00038254,-0.00124925,-0.00096425
 ,-0.00059180,0.00091896,0.09096697,-0.15948810,0.09185119,-0.00039983,
 -0.00026622,-0.00035615,-0.00478045,0.00495753,-0.00559586,0.01739400,
 -0.02017374,0.01816348,-0.10009778,0.17429181,0.00000049,-0.00034418,0
 .00000019,-0.00001115,0.00006780,0.00000447,-0.00062193,0.00012715,-0.
 00006086,-0.00002013,0.00008516,0.00000880,0.00702477,-0.00760236,0.00
 497793,-0.00127091,0.00089685,0.00163719,-0.07565524,0.09159962,-0.126
 14751,-0.00001939,-0.00052465,-0.00070950,-0.01780979,0.02274771,-0.01
 737680,0.00288544,-0.00448200,0.00268981,0.08233772,-0.10268806,0.1336
 2985,-0.17107088,-0.16294402,-0.07334489,0.00343672,0.00280141,0.00345
 929,-0.02027829,-0.02452855,-0.01383375,0.00143034,0.00016619,0.000067
 31,-0.00438745,0.00249563,0.00257193,-0.00134284,-0.00210100,0.0006787
 6,0.00010366,-0.00157623,-0.00040847,0.00065708,0.00043588,-0.00041072
 ,0.00004438,-0.00000172,0.00002518,-0.00041526,-0.00001666,0.00016286,
 0.00004110,0.00004107,-0.00005750,0.19136400,-0.19728299,-0.22587944,-
 0.14193616,0.00130494,-0.00399785,0.00880300,0.01331579,-0.00471188,0.
 00050734,-0.00036331,0.00036239,0.00057538,-0.00259573,0.00025728,0.00
 120211,0.00239374,0.00257423,-0.00106387,0.00010247,-0.00086514,-0.000
 19571,-0.00048135,-0.00051126,0.00072004,-0.00011118,0.00000174,0.0001
 0963,-0.00038015,0.00006442,0.00007009,-0.00004606,0.00005237,-0.00002
 120,0.18465901,0.23275968,-0.07099129,-0.11457836,-0.11708693,-0.02468
 976,-0.03160125,-0.01184778,0.01055121,0.01320983,0.00686112,0.0000548
 9,0.00050631,0.00027806,0.00364630,-0.00056072,-0.00134575,-0.00094967
 ,0.00035358,0.00008110,0.00040844,0.00128314,0.00049907,0.00028260,0.0
 0049716,-0.00042517,-0.00008224,-0.00005047,-0.00006224,0.00047016,0.0
 0007318,-0.00012500,-0.00006284,-0.00003868,0.00000172,0.08111832,0.13
 140841,0.12286301,-0.00126510,0.00079978,-0.00074299,0.00015610,-0.000
 18123,-0.00011336,0.00055885,0.01831300,0.01134970,0.00062937,-0.00179
 942,0.00078726,-0.00604016,-0.00163866,-0.00173529,-0.17684132,0.13202
 937,0.07041971,-0.00167413,-0.00036504,-0.00084417,0.04148513,0.005858
 33,0.04506029,-0.00002516,0.00036291,-0.00053508,0.00065846,-0.0004255
 2,0.00009052,0.00065733,-0.00019406,0.00152888,0.00018442,-0.00019880,
 0.00009129,0.18434042,0.00496046,-0.00437814,0.00194852,-0.00022819,0.
 00058507,0.00051144,0.01326744,-0.00521174,-0.01801525,-0.00096423,0.0
 0138143,-0.00041202,0.00084291,0.00057947,0.00043179,0.13086856,-0.225
 30320,-0.07500359,-0.00043685,-0.00042521,-0.00066277,0.00092738,0.049
 70294,-0.03966472,0.00004749,0.00015343,-0.00005004,-0.00000694,-0.000
 17079,-0.00001236,0.00007075,-0.00066614,0.00035120,0.00015568,-0.0006
 8130,-0.00043161,-0.15679188,0.22904467,-0.00304409,0.00051259,0.00228
 425,-0.00236413,0.00137985,0.00000965,-0.00356585,0.00860263,0.0117502
 0,0.00184955,-0.00202155,0.00334954,-0.00072328,0.00097546,-0.00140593
 ,0.09648052,-0.11104532,-0.21340379,0.00030379,0.00089686,-0.00013984,
 0.09233521,-0.10143237,-0.11497213,-0.00008831,-0.00065255,0.00081611,
 -0.00014372,0.00038392,0.00017360,0.00001322,-0.00026650,-0.00070666,0
 .00006407,-0.00004770,-0.00013802,-0.16287071,0.18404743,0.28453310,0.
 00071474,-0.00189414,0.00098800,-0.00074051,0.00058767,0.00003292,0.00
 692404,0.00529031,0.00352151,0.00072733,-0.00081492,0.00066554,-0.0010
 6110,0.00090801,-0.00097898,-0.00584567,0.04420483,-0.06483522,-0.0000
 0751,-0.00020084,0.00014592,-0.01575197,-0.03023138,0.00746082,-0.0000
 1820,-0.00005316,0.00009201,-0.00006403,0.00005226,0.00000985,0.000035
 71,-0.00011989,-0.00013205,-0.00033026,0.00006320,-0.00013832,-0.04452
 001,0.00755474,-0.01807934,0.05997225,0.00155821,-0.00068044,-0.001196
 01,0.00087132,-0.00047402,-0.00002859,0.00159823,0.00604921,-0.0033298
 1,-0.00055517,0.00051778,-0.00015510,-0.00027849,0.00032753,-0.0001910
 5,0.04539925,-0.03917058,0.07620951,0.00023378,-0.00034770,0.00022285,
 -0.02436235,-0.00640756,-0.00992620,-0.00002718,0.00014044,-0.00022826
 ,-0.00006262,0.00010271,-0.00011892,-0.00042120,-0.00005451,0.00009077
 ,-0.00008180,-0.00003104,-0.00005481,0.00235113,-0.04388176,0.01717097
 ,-0.02628683,0.08407736,0.00136411,0.00015586,-0.00093534,0.00147999,-
 0.00077766,0.00021468,0.00271440,-0.00369537,-0.00721838,-0.00171927,0
 .00199442,-0.00211488,-0.00007562,-0.00014539,0.00028044,-0.06322554,0
 .07439266,0.09186430,-0.00031837,-0.00026003,-0.00014983,-0.04858725,0
 .06057221,-0.03884254,0.00005115,0.00030070,-0.00040981,0.00016309,-0.
 00023316,-0.00006005,0.00010249,0.00013967,0.00053547,0.00002155,-0.00
 016426,0.00004006,0.03711863,-0.05322072,0.02636933,0.07070231,-0.0781
 9414,-0.06903016,0.00124769,0.00080633,-0.00039381,-0.00024588,-0.0007
 1180,0.00047369,-0.00045382,-0.00640400,-0.01424635,-0.00089407,-0.002
 44192,-0.00045094,-0.04892491,0.00255807,0.01444812,-0.00040231,0.0007
 8401,0.00066499,-0.00710461,0.00665568,0.03513479,-0.00025546,-0.00026
 675,-0.00020344,-0.00623195,-0.00033059,0.00179663,0.00137677,-0.00035
 715,-0.00048478,0.00135059,0.00045631,-0.00051648,0.00003994,0.0004475
 2,-0.00001740,0.00035634,0.00005190,-0.00017698,-0.00002506,0.00005230
 ,0.00009044,0.06009109,0.00202669,0.00188724,0.00089221,-0.00077280,-0
 .00023948,0.00053301,-0.00107498,-0.01354379,-0.03263560,-0.00229574,-
 0.00472896,-0.00042883,0.00177273,-0.05585175,-0.04101687,-0.00099872,
 0.00175364,-0.00347672,0.00017420,0.00080988,0.00068155,-0.00036930,0.
 00099488,0.00134918,-0.00015743,0.00062370,0.00025421,0.00026557,0.000
 21666,0.00042834,-0.00000961,-0.00001553,-0.00042668,0.00032609,0.0002
 4338,0.00008336,0.00028391,-0.00031452,0.00114313,0.00049274,-0.000378
 71,-0.00083787,-0.00195413,0.06797593,0.00009476,0.00061594,0.00174506
 ,-0.00092174,-0.00084435,0.00013513,0.00092410,-0.00208551,-0.00878714
 ,-0.00013644,-0.00065017,0.00121240,0.01490149,-0.04237792,-0.28792304
 ,-0.00060855,-0.00020162,-0.00128711,0.00088436,-0.00177689,-0.0090436
 3,0.00005252,0.00048588,0.00095425,0.00152007,0.00033563,0.00113350,0.
 00012687,0.00055700,0.00022885,0.00029180,-0.00036444,0.00071373,-0.00
 012755,0.00020603,0.00033460,0.00007147,0.00008615,0.00087851,0.000199
 48,-0.00016872,-0.00033844,-0.01611286,0.04540061,0.31597903,-0.001131
 81,0.00156956,0.00002875,0.00019724,-0.00048209,0.00026703,0.00817986,
 -0.00858994,0.00541381,0.00032796,0.00019189,0.00019861,-0.10456400,0.
 03300362,-0.02390123,-0.00415801,-0.00243565,-0.00141560,-0.02642269,0
 .02721196,-0.01790366,0.00083724,-0.00036670,0.00069461,0.00189733,-0.
 00013461,-0.00060109,0.00166005,0.00095775,-0.00054093,-0.00590588,0.0
 0051733,0.00161985,0.00036752,-0.00072407,0.00040622,0.00176501,-0.000
 31725,0.00012109,0.00014207,0.00006670,0.00008602,0.00026958,0.0003414
 9,0.00046938,0.56271829,0.00172991,-0.00122790,0.00137179,-0.00003500,
 -0.00075002,0.00014730,0.01348110,-0.03713446,0.01645175,0.00108263,0.
 00173138,0.00096708,0.03549292,-0.12362987,0.03345281,-0.00538799,-0.0
 0287451,-0.00211492,0.00409861,-0.00081049,0.00074823,0.00085280,0.000
 17183,0.00091980,-0.00070999,-0.00017086,0.00027639,-0.00143415,0.0007
 2306,-0.00011834,-0.00196186,0.00062268,0.00017842,0.00038169,0.000475
 53,-0.00023186,0.00137221,-0.00057807,0.00034090,0.00034133,0.00007935
 ,-0.00009558,-0.00091625,0.00177902,-0.00192550,0.04658224,0.52492857,
 0.00011860,0.00119010,0.00093515,-0.00004001,-0.00013630,-0.00009267,0
 .00248671,-0.00384820,0.00280372,0.00061654,-0.00137552,0.00100614,-0.
 02632480,0.03539615,-0.10767117,-0.00264338,-0.00211594,-0.00177956,0.
 00347192,-0.00495317,0.00465216,0.00040957,0.00048229,0.00095692,0.001
 16381,-0.00091059,0.00081452,-0.00033621,-0.00011605,0.00014056,0.0030
 7526,-0.00050920,-0.00009231,-0.00009261,-0.00009478,0.00015395,0.0008
 5764,-0.00014675,0.00052944,0.00040641,0.00002127,-0.00022732,-0.01902
 600,0.02623912,-0.01707517,-0.03148092,0.03849136,0.54297911,0.0007043
 0,-0.00294133,0.00062383,-0.00002251,0.00021364,-0.00005399,-0.0013823
 4,-0.00049801,0.00028135,-0.00002576,0.00008231,-0.00001319,-0.0168920
 9,-0.00037997,0.00483382,-0.00032007,0.00020798,0.00019832,-0.00071241
 ,0.00271836,-0.00295142,0.00019181,-0.00007901,0.00006748,0.00023085,-
 0.00003152,0.00006814,0.00043227,-0.00005597,0.00000076,-0.00098535,-0
 .00000150,0.00041656,0.00013400,-0.00004302,-0.00009356,0.00004769,-0.
 00003544,-0.00014770,-0.00008886,-0.00002544,0.00008252,0.00052770,-0.
 00015955,-0.00035085,-0.30287399,-0.01444500,0.06160445,0.33233257,-0.
 00080250,0.00070714,0.00002206,0.00007919,-0.00035256,0.00030736,0.001
 76729,-0.00033222,-0.00054930,-0.00010547,-0.00009968,-0.00009200,0.02
 491691,0.00054121,-0.00623784,0.00037830,-0.00010379,0.00014732,0.0016
 8149,-0.00379061,0.00289921,-0.00035243,0.00017586,-0.00025313,-0.0003
 2957,-0.00001778,0.00003564,0.00000239,0.00021609,0.00015405,0.0016080
 7,0.00008207,-0.00014780,-0.00022989,0.00004972,0.00000262,-0.00030729
 ,0.00037354,0.00001829,0.00009419,0.00005115,-0.00004193,-0.00066320,0
 .00074870,-0.00012928,-0.01825601,-0.04933009,0.00301196,0.01558880,0.
 05225332,-0.00026303,0.00027014,-0.00119743,-0.00016824,0.00069013,-0.
 00031470,0.00038987,-0.00017845,0.00061606,0.00016979,-0.00003944,-0.0
 0007569,-0.01774596,-0.00089397,0.00390505,-0.00008460,-0.00003853,-0.
 00003632,-0.00108333,0.00247427,-0.00130853,0.00007655,-0.00007226,0.0
 0000244,-0.00030049,0.00028309,0.00033140,0.00030824,0.00013051,-0.000
 24792,-0.00091812,0.00030014,0.00054258,0.00024155,-0.00046640,0.00017
 034,0.00007828,-0.00007621,-0.00003838,-0.00002790,-0.00000894,0.00003
 351,0.00003781,-0.00074497,0.00045245,0.06243842,0.00202178,-0.0663236
 9,-0.06685262,-0.00541098,0.06956324,0.00085315,-0.00217252,0.00058802
 ,0.00002720,0.00004898,-0.00000775,-0.00295291,0.00311068,-0.00154570,
 -0.00025022,-0.00011748,-0.00006973,0.00395275,0.01866570,0.00384980,0
 .00098189,0.00085780,0.00032044,0.00112426,0.00064747,0.00039590,-0.00
 008955,-0.00004914,-0.00010188,-0.00009066,0.00008545,-0.00001574,-0.0
 0027702,-0.00020607,-0.00013362,0.00023951,-0.00028036,-0.00000123,-0.
 00006851,0.00015599,-0.00012968,-0.00037696,0.00001165,-0.00006779,-0.
 00011741,-0.00000904,0.00000888,0.00063297,-0.00077330,0.00052442,-0.0
 8056315,-0.08320957,-0.02238237,-0.00955336,-0.03031764,-0.00991792,0.
 08559957,0.00005978,0.00021082,-0.00000327,-0.00000483,-0.00009767,-0.
 00003418,0.00321648,-0.00201429,0.00278303,0.00019425,0.00045881,0.000
 10661,-0.00899793,-0.02255593,-0.00671543,-0.00184597,-0.00052671,-0.0
 0063621,-0.00121970,0.00048208,-0.00054216,0.00041683,-0.00023772,0.00
 034268,0.00001534,-0.00000273,0.00011796,0.00101267,0.00057932,0.00001
 888,0.00007060,0.00046949,0.00018029,0.00003447,-0.00005331,0.00007189
 ,0.00056499,-0.00024237,0.00019720,0.00009182,0.00003476,0.00001699,-0
 .00037602,0.00096072,0.00038658,-0.08158563,-0.26100989,-0.05943421,0.
 00047804,-0.00133097,-0.00068900,0.08963506,0.28833657,-0.00019979,-0.
 00023419,0.00019513,-0.00001272,0.00004114,0.00002147,-0.00184752,0.00
 304684,-0.00165913,-0.00004750,0.00028023,0.00026423,0.00483339,0.0171
 6301,0.00295222,0.00115265,0.00036482,0.00085924,0.00062902,-0.0004339
 9,0.00011248,-0.00012383,-0.00002574,-0.00027138,-0.00006685,-0.000106
 42,-0.00000493,0.00007564,-0.00017015,0.00026622,0.00024027,0.00001130
 ,-0.00014213,-0.00004154,0.00009314,-0.00007601,-0.00041353,0.00017781
 ,-0.00008462,-0.00007843,-0.00003677,0.00006077,0.00075302,-0.00021485
 ,0.00066932,-0.02238205,-0.06037019,-0.06539669,0.00308675,0.00795420,
 0.00180087,0.02689971,0.06388657,0.06884884,-0.00020694,-0.00064079,-0
 .00049112,-0.00015249,0.00028778,-0.00013481,0.00028388,-0.00062187,0.
 00049646,0.00026083,-0.00010007,0.00026912,-0.00000479,-0.00089559,-0.
 01947920,0.00006162,-0.00034845,-0.00005665,0.00126701,-0.00079169,-0.
 00111115,-0.00002163,0.00012283,0.00008087,-0.00003446,0.00034790,0.00
 041487,-0.00016166,-0.00009509,-0.00013008,0.00021796,-0.00014146,0.00
 030212,0.00009034,-0.00021598,0.00012533,-0.00009630,0.00002182,0.0001
 0446,0.00005445,-0.00002081,-0.00005952,-0.00135459,0.00288213,-0.0018
 0272,-0.05274263,0.00268436,0.02811538,-0.00174446,0.00524736,0.033621
 69,0.00092844,-0.00176024,-0.01245669,0.05335542,-0.00025774,-0.000102
 04,-0.00049245,0.00012129,0.00013274,-0.00007855,0.00015632,0.00191620
 ,0.00159496,-0.00011604,-0.00030698,-0.00059300,-0.00087523,0.00042081
 ,0.02667407,0.00029830,0.00025852,0.00017453,-0.00131910,0.00088876,0.
 00003255,-0.00009740,-0.00017796,-0.00023715,0.00009483,0.00009617,-0.
 00045855,0.00006339,-0.00003306,-0.00020572,-0.00035757,-0.00008777,-0
 .00008804,-0.00001727,-0.00010951,0.00005827,-0.00003373,0.00003267,-0
 .00020324,-0.00007994,0.00004602,0.00009358,0.00260969,-0.00292101,0.0
 0245060,0.00244940,-0.05299525,-0.03119154,-0.00059337,0.00015888,0.00
 244908,0.00391632,-0.00346097,-0.03142676,-0.00596214,0.05624378,0.000
 19856,0.00052624,0.00038285,-0.00008809,-0.00039508,0.00015585,0.00013
 627,-0.00090547,-0.00001594,0.00019843,0.00105246,0.00045779,0.0015263
 0,-0.00222686,-0.01909579,0.00025455,-0.00016722,0.00022244,0.00107488
 ,-0.00068570,0.00090469,-0.00001602,0.00009079,0.00018131,-0.00084138,
 0.00026970,0.00052840,-0.00008630,0.00003612,-0.00013117,0.00000118,0.
 00007729,0.00049403,-0.00009380,0.00029491,-0.00017614,-0.00019853,0.0
 0014169,0.00019562,0.00004549,-0.00007804,-0.00007183,-0.00177046,0.00
 277768,0.00001771,0.02648170,-0.03051122,-0.29631306,-0.00080065,-0.00
 169044,-0.00787526,0.00178623,-0.00005422,-0.00841590,-0.02780836,0.03
 144736,0.32855439||-0.00001095,0.00001395,-0.00000669,0.00000601,-0.00
 000455,-0.00000170,0.00000493,-0.00002755,-0.00006329,0.00000150,0.000
 00326,0.00000055,0.00000130,-0.00000025,0.00000059,-0.00003270,0.00000
 320,0.00010691,-0.00000294,-0.00000464,-0.00000195,0.00004301,-0.00001
 702,-0.00000364,0.00000102,-0.00000163,-0.00000024,0.00000294,-0.00000
 371,0.00000098,0.00000131,-0.00000573,0.00000289,0.00000509,0.00000230
 ,0.,-0.00000610,0.00005224,-0.00005025,-0.00002465,-0.00001059,0.00001
 739,0.00000148,-0.00000125,-0.00000046,0.00000195,-0.00000045,-0.00000
 079,0.00000217,0.00000115,-0.00000047,0.00000275,0.00000035,0.00000024
 ,0.00000187,0.00000094,-0.00000008|||@


 Age does not diminish the extreme disappointment of
 having a scoop of ice cream fall from the cone.
 -- Jim Fiebig
 Job cpu time:  0 days  0 hours  6 minutes  1.0 seconds.
 File lengths (MBytes):  RWF=     28 Int=      0 D2E=      0 Chk=      8 Scr=      1
 Normal termination of Gaussian 03 at Fri Apr 01 16:22:59 2016.
