 Entering Link 1 = c:\G09w01\l1.exe PID=      8136.
  
 Copyright (c) 1988,1990,1992,1993,1995,1998,2003,2009,2010,
            Gaussian, Inc.  All Rights Reserved.
  
 This is part of the Gaussian(R) 09 program.  It is based on
 the Gaussian(R) 03 system (copyright 2003, Gaussian, Inc.),
 the Gaussian(R) 98 system (copyright 1998, Gaussian, Inc.),
 the Gaussian(R) 94 system (copyright 1995, Gaussian, Inc.),
 the Gaussian 92(TM) system (copyright 1992, Gaussian, Inc.),
 the Gaussian 90(TM) system (copyright 1990, Gaussian, Inc.),
 the Gaussian 88(TM) system (copyright 1988, Gaussian, Inc.),
 the Gaussian 86(TM) system (copyright 1986, Carnegie Mellon
 University), and the Gaussian 82(TM) system (copyright 1983,
 Carnegie Mellon University). Gaussian is a federally registered
 trademark of Gaussian, Inc.
  
 This software contains proprietary and confidential information,
 including trade secrets, belonging to Gaussian, Inc.
  
 This software is provided under written license and may be
 used, copied, transmitted, or stored only in accord with that
 written license.
  
 The following legend is applicable only to US Government
 contracts under FAR:
  
                    RESTRICTED RIGHTS LEGEND
  
 Use, reproduction and disclosure by the US Government is
 subject to restrictions as set forth in subparagraphs (a)
 and (c) of the Commercial Computer Software - Restricted
 Rights clause in FAR 52.227-19.
  
 Gaussian, Inc.
 340 Quinnipiac St., Bldg. 40, Wallingford CT 06492
  
  
 ---------------------------------------------------------------
 Warning -- This program may not be used in any manner that
 competes with the business of Gaussian, Inc. or will provide
 assistance to any competitor of Gaussian, Inc.  The licensee
 of this program is prohibited from giving any competitor of
 Gaussian, Inc. access to this program.  By using this program,
 the user acknowledges that Gaussian, Inc. is engaged in the
 business of creating and licensing software in the field of
 computational chemistry and represents and warrants to the
 licensee that it is not a competitor of Gaussian, Inc. and that
 it will not use this program in any manner prohibited above.
 ---------------------------------------------------------------
  

 Cite this work as:
 Gaussian 09, Revision B.01,
 M. J. Frisch, G. W. Trucks, H. B. Schlegel, G. E. Scuseria, 
 M. A. Robb, J. R. Cheeseman, G. Scalmani, V. Barone, B. Mennucci, 
 G. A. Petersson, H. Nakatsuji, M. Caricato, X. Li, H. P. Hratchian, 
 A. F. Izmaylov, J. Bloino, G. Zheng, J. L. Sonnenberg, M. Hada, 
 M. Ehara, K. Toyota, R. Fukuda, J. Hasegawa, M. Ishida, T. Nakajima, 
 Y. Honda, O. Kitao, H. Nakai, T. Vreven, J. A. Montgomery, Jr., 
 J. E. Peralta, F. Ogliaro, M. Bearpark, J. J. Heyd, E. Brothers, 
 K. N. Kudin, V. N. Staroverov, T. Keith, R. Kobayashi, J. Normand, 
 K. Raghavachari, A. Rendell, J. C. Burant, S. S. Iyengar, J. Tomasi, 
 M. Cossi, N. Rega, J. M. Millam, M. Klene, J. E. Knox, J. B. Cross, 
 V. Bakken, C. Adamo, J. Jaramillo, R. Gomperts, R. E. Stratmann, 
 O. Yazyev, A. J. Austin, R. Cammi, C. Pomelli, J. W. Ochterski, 
 R. L. Martin, K. Morokuma, V. G. Zakrzewski, G. A. Voth, 
 P. Salvador, J. J. Dannenberg, S. Dapprich, A. D. Daniels, 
 O. Farkas, J. B. Foresman, J. V. Ortiz, J. Cioslowski, 
 and D. J. Fox, Gaussian, Inc., Wallingford CT, 2010.
 
 ******************************************
 Gaussian 09:  IA32W-G09RevB.01 12-Aug-2010
                18-Apr-2016 
 ******************************************
 %chk=tsb1.chk
 -------------------------------------
 #p freq rb3lyp/6-311++g(d,p) opt=QST2
 -------------------------------------
 1/5=1,14=-1,18=20,26=3,27=202,38=1/1,3;
 2/9=110,12=2,17=6,18=5,40=1/2;
 3/5=4,6=6,7=1111,11=2,16=1,25=1,30=1,71=1,74=-5,116=1/1,2,3;
 4//1;
 5/5=2,38=5/2;
 6/7=2,8=2,9=2,10=2,28=1/1;
 7//1,2,3,16;
 1/5=1,14=-1,18=20,27=202/3(2);
 2/9=110/2;
 99//99;
 2/9=110/2;
 3/5=4,6=6,7=1111,11=2,16=1,25=1,30=1,71=1,74=-5,116=1/1,2,3;
 4/5=5,16=3/1;
 5/5=2,38=5/2;
 7//1,2,3,16;
 1/5=1,14=-1,18=20,27=202/3(-5);
 2/9=110/2;
 6/7=2,8=2,9=2,10=2,19=2,28=1/1;
 99/9=1/99;
 Leave Link    1 at Mon Apr 18 09:28:42 2016, MaxMem=          0 cpu:       1.0
 (Enter c:\G09w01\l101.exe)
 ----------------------------
 Ala-S-opt-freq-6-311++g(d,p)
 ----------------------------
 Symbolic Z-matrix:
 Charge =  0 Multiplicity = 1
 N                    -1.41515  -1.08616  -0.44237 
 H                    -1.19241  -1.6585    0.3664 
 C                    -0.65403   0.15792  -0.40998 
 H                    -0.62201   0.57997  -1.41901 
 C                    -1.19795   1.24002   0.55106 
 C                     0.77509  -0.16871  -0.01055 
 H                    -1.20783   0.87043   1.58011 
 H                    -0.59729   2.15221   0.50792 
 H                    -2.22253   1.49551   0.26808 
 O                     1.10761  -1.09841   0.68073 
 H                    -2.41213  -0.90308  -0.44562 
 O                     1.65384   0.74679  -0.48074 
 H                     2.52999   0.5041   -0.1444 
 
 NAtoms=     13 NQM=     13 NQMF=      0 NMic=      0 NMicF=      0 NTot=     13.
 ------------------------------------
 Ala-S-opt-freq-cpcm-w-pb1-6-311++gdp
 ------------------------------------
 Symbolic Z-matrix:
 Charge =  0 Multiplicity = 1
 N                     1.21818  -1.19358  -0.54018 
 H                     2.18038  -1.11796  -0.8575 
 C                     0.64245   0.15187  -0.4273 
 H                     0.6971    0.62007  -1.41189 
 C                     1.3355    1.07517   0.59708 
 C                    -0.84033   0.07303  -0.09765 
 H                     2.38531   1.19473   0.31954 
 H                     0.87227   2.06519   0.61876 
 H                     1.2896    0.64447   1.60077 
 O                    -1.68648   0.81071  -0.55226 
 H                     1.24611  -1.64336   0.37097 
 O                    -1.11983  -0.88217   0.8091 
 H                    -2.07037  -0.85604   1.00361 
 
 NAtoms=     13 NQM=     13 NQMF=      0 NMic=      0 NMicF=      0 NTot=     13.
 Iteration  1 RMS(Cart)=  0.10136839 RMS(Int)=  0.45312976
 Iteration  2 RMS(Cart)=  0.08340468 RMS(Int)=  0.40889262
 Iteration  3 RMS(Cart)=  0.09019568 RMS(Int)=  0.36814877
 Iteration  4 RMS(Cart)=  0.09684865 RMS(Int)=  0.32746303
 Iteration  5 RMS(Cart)=  0.10026850 RMS(Int)=  0.28669170
 Iteration  6 RMS(Cart)=  0.10244452 RMS(Int)=  0.24856746
 Iteration  7 RMS(Cart)=  0.09635535 RMS(Int)=  0.22174687
 Iteration  8 RMS(Cart)=  0.06048918 RMS(Int)=  0.21296984
 Iteration  9 RMS(Cart)=  0.02146166 RMS(Int)=  0.21258768
 Iteration 10 RMS(Cart)=  0.00578114 RMS(Int)=  0.21407790
 Iteration 11 RMS(Cart)=  0.00458813 RMS(Int)=  0.21522422
 Iteration 12 RMS(Cart)=  0.00407540 RMS(Int)=  0.21619476
 Iteration 13 RMS(Cart)=  0.00356687 RMS(Int)=  0.21703245
 Iteration 14 RMS(Cart)=  0.00309028 RMS(Int)=  0.21775626
 Iteration 15 RMS(Cart)=  0.00266142 RMS(Int)=  0.21838066
 Iteration 16 RMS(Cart)=  0.00228396 RMS(Int)=  0.21891839
 Iteration 17 RMS(Cart)=  0.00195588 RMS(Int)=  0.21938081
 Iteration 18 RMS(Cart)=  0.00167281 RMS(Int)=  0.21977798
 Iteration 19 RMS(Cart)=  0.00142962 RMS(Int)=  0.22011877
 Iteration 20 RMS(Cart)=  0.00122123 RMS(Int)=  0.22041095
 Iteration 21 RMS(Cart)=  0.00104291 RMS(Int)=  0.22066127
 Iteration 22 RMS(Cart)=  0.00089048 RMS(Int)=  0.22087560
 Iteration 23 RMS(Cart)=  0.00076024 RMS(Int)=  0.22105903
 Iteration 24 RMS(Cart)=  0.00064900 RMS(Int)=  0.22121595
 Iteration 25 RMS(Cart)=  0.00055401 RMS(Int)=  0.22135015
 Iteration 26 RMS(Cart)=  0.00047290 RMS(Int)=  0.22146487
 Iteration 27 RMS(Cart)=  0.00040366 RMS(Int)=  0.22156293
 Iteration 28 RMS(Cart)=  0.00034455 RMS(Int)=  0.22164672
 Iteration 29 RMS(Cart)=  0.00029409 RMS(Int)=  0.22171831
 Iteration 30 RMS(Cart)=  0.00025102 RMS(Int)=  0.22177946
 Iteration 31 RMS(Cart)=  0.00021426 RMS(Int)=  0.22183170
 Iteration 32 RMS(Cart)=  0.00018287 RMS(Int)=  0.22187631
 Iteration 33 RMS(Cart)=  0.00015609 RMS(Int)=  0.22191440
 Iteration 34 RMS(Cart)=  0.00013322 RMS(Int)=  0.22194693
 Iteration 35 RMS(Cart)=  0.00011371 RMS(Int)=  0.22197471
 Iteration 36 RMS(Cart)=  0.00009705 RMS(Int)=  0.22199842
 Iteration 37 RMS(Cart)=  0.00008283 RMS(Int)=  0.22201867
 Iteration 38 RMS(Cart)=  0.00007070 RMS(Int)=  0.22203595
 Iteration 39 RMS(Cart)=  0.00006034 RMS(Int)=  0.22205070
 Iteration 40 RMS(Cart)=  0.00005150 RMS(Int)=  0.22206330
 Iteration 41 RMS(Cart)=  0.00004396 RMS(Int)=  0.22207405
 Iteration 42 RMS(Cart)=  0.00003752 RMS(Int)=  0.22208323
 Iteration 43 RMS(Cart)=  0.00003202 RMS(Int)=  0.22209106
 Iteration 44 RMS(Cart)=  0.00002733 RMS(Int)=  0.22209775
 Iteration 45 RMS(Cart)=  0.00002333 RMS(Int)=  0.22210345
 Iteration 46 RMS(Cart)=  0.00001991 RMS(Int)=  0.22210832
 Iteration 47 RMS(Cart)=  0.00001699 RMS(Int)=  0.22211248
 Iteration 48 RMS(Cart)=  0.00001450 RMS(Int)=  0.22211603
 Iteration 49 RMS(Cart)=  0.00001238 RMS(Int)=  0.22211906
 Iteration 50 RMS(Cart)=  0.00001056 RMS(Int)=  0.22212165
 Iteration 51 RMS(Cart)=  0.00000902 RMS(Int)=  0.22212385
 Iteration 52 RMS(Cart)=  0.00000770 RMS(Int)=  0.22212574
 Iteration 53 RMS(Cart)=  0.00000657 RMS(Int)=  0.22212734
 Iteration 54 RMS(Cart)=  0.00000561 RMS(Int)=  0.22212872
 Iteration 55 RMS(Cart)=  0.00000478 RMS(Int)=  0.22212989
 Iteration 56 RMS(Cart)=  0.00000408 RMS(Int)=  0.22213089
 Iteration 57 RMS(Cart)=  0.00000349 RMS(Int)=  0.22213174
 Iteration 58 RMS(Cart)=  0.00000297 RMS(Int)=  0.22213247
 Iteration 59 RMS(Cart)=  0.00000254 RMS(Int)=  0.22213309
 Iteration 60 RMS(Cart)=  0.00000217 RMS(Int)=  0.22213362
 Iteration 61 RMS(Cart)=  0.00000185 RMS(Int)=  0.22213407
 Iteration 62 RMS(Cart)=  0.00000158 RMS(Int)=  0.22213446
 Iteration 63 RMS(Cart)=  0.00000135 RMS(Int)=  0.22213479
 Iteration 64 RMS(Cart)=  0.00000115 RMS(Int)=  0.22213507
 Iteration 65 RMS(Cart)=  0.00000098 RMS(Int)=  0.22213531
                    Isotopes and Nuclear Properties:
 (Nuclear quadrupole moments (NQMom) in fm**2, nuclear magnetic moments (NMagM)
  in nuclear magnetons)

  Atom         1           2           3           4           5           6           7           8           9          10
 IAtWgt=          14           1          12           1          12          12           1           1           1          16
 AtmWgt=  14.0030740   1.0078250  12.0000000   1.0078250  12.0000000  12.0000000   1.0078250   1.0078250   1.0078250  15.9949146
 NucSpn=           2           1           0           1           0           0           1           1           1           0
 AtZEff=   0.0000000   0.0000000   0.0000000   0.0000000   0.0000000   0.0000000   0.0000000   0.0000000   0.0000000   0.0000000
 NQMom=    2.0440000   0.0000000   0.0000000   0.0000000   0.0000000   0.0000000   0.0000000   0.0000000   0.0000000   0.0000000
 NMagM=    0.4037610   2.7928460   0.0000000   2.7928460   0.0000000   0.0000000   2.7928460   2.7928460   2.7928460   0.0000000

  Atom        11          12          13
 IAtWgt=           1          16           1
 AtmWgt=   1.0078250  15.9949146   1.0078250
 NucSpn=           1           0           1
 AtZEff=   0.0000000   0.0000000   0.0000000
 NQMom=    0.0000000   0.0000000   0.0000000
 NMagM=    2.7928460   0.0000000   2.7928460
 Leave Link  101 at Mon Apr 18 09:28:42 2016, MaxMem=   33554432 cpu:       0.0
 (Enter c:\G09w01\l103.exe)

 GradGradGradGradGradGradGradGradGradGradGradGradGradGradGradGradGradGrad
 Berny optimization.
 Initialization pass.
                           ----------------------------
                           !    Initial Parameters    !
                           ! (Angstroms and Degrees)  !
 --------------------------                            --------------------------
 ! Name  Definition        TS        Reactant  Product Derivative Info.         !
 --------------------------------------------------------------------------------
 ! R1    R(1,2)             1.0158    1.0155    1.016  estimate D2E/DX2         !
 ! R2    R(1,3)             1.4633    1.4588    1.4678 estimate D2E/DX2         !
 ! R3    R(1,11)            1.0151    1.0137    1.0165 estimate D2E/DX2         !
 ! R4    R(3,4)             1.0929    1.0942    1.0916 estimate D2E/DX2         !
 ! R5    R(3,5)             1.5448    1.5461    1.5434 estimate D2E/DX2         !
 ! R6    R(3,6)             1.5202    1.5194    1.521  estimate D2E/DX2         !
 ! R7    R(5,7)             1.0929    1.0935    1.0924 estimate D2E/DX2         !
 ! R8    R(5,8)             1.0931    1.093     1.0933 estimate D2E/DX2         !
 ! R9    R(5,9)             1.0932    1.0932    1.0932 estimate D2E/DX2         !
 ! R10   R(6,10)            1.2082    1.2053    1.2111 estimate D2E/DX2         !
 ! R11   R(6,12)            1.3498    1.3533    1.3464 estimate D2E/DX2         !
 ! R12   R(12,13)           0.97      0.9694    0.9706 estimate D2E/DX2         !
 ! A1    A(2,1,3)         109.7563  110.397   109.1025 estimate D2E/DX2         !
 ! A2    A(2,1,11)        107.6821  108.6676  106.6705 estimate D2E/DX2         !
 ! A3    A(3,1,11)        110.6977  111.0515  110.331  estimate D2E/DX2         !
 ! A4    A(1,3,4)         108.2823  108.8891  107.7076 estimate D2E/DX2         !
 ! A5    A(1,3,5)         126.613   115.2856  115.0407 estimate D2E/DX2         !
 ! A6    A(1,3,6)         124.6389  108.2548  110.5809 estimate D2E/DX2         !
 ! A7    A(4,3,5)         125.0997  108.2732  108.6378 estimate D2E/DX2         !
 ! A8    A(4,3,6)          16.3592  107.3259  105.4566 estimate D2E/DX2         !
 ! A9    A(5,3,6)         108.7406  108.5388  108.9598 estimate D2E/DX2         !
 ! A10   A(3,5,7)         109.8781  110.5846  109.1695 estimate D2E/DX2         !
 ! A11   A(3,5,8)         111.438   111.4838  111.3845 estimate D2E/DX2         !
 ! A12   A(3,5,9)         110.099   109.4138  110.7835 estimate D2E/DX2         !
 ! A13   A(7,5,8)         108.586   108.9163  108.2469 estimate D2E/DX2         !
 ! A14   A(7,5,9)         108.3844  108.308   108.4659 estimate D2E/DX2         !
 ! A15   A(8,5,9)         108.3812  108.0458  108.7105 estimate D2E/DX2         !
 ! A16   A(3,6,10)        124.8984  125.1745  124.6222 estimate D2E/DX2         !
 ! A17   A(3,6,12)        112.3063  111.962   112.6506 estimate D2E/DX2         !
 ! A18   A(10,6,12)       122.7454  122.815   122.6757 estimate D2E/DX2         !
 ! A19   A(6,12,13)       107.9448  107.2766  108.6131 estimate D2E/DX2         !
 ! D1    D(2,1,3,4)       109.2162  159.8487   59.2258 estimate D2E/DX2         !
 ! D2    D(2,1,3,5)       -70.0002  -78.2711  -62.0692 estimate D2E/DX2         !
 ! D3    D(2,1,3,6)       108.8869   43.4703  173.9801 estimate D2E/DX2         !
 ! D4    D(11,1,3,4)     -132.0527  -79.5522  176.1029 estimate D2E/DX2         !
 ! D5    D(11,1,3,5)       48.7308   42.328    54.8079 estimate D2E/DX2         !
 ! D6    D(11,1,3,6)     -132.3821  164.0694  -69.1429 estimate D2E/DX2         !
 ! D7    D(1,3,5,7)        59.9067   60.0762   59.4386 estimate D2E/DX2         !
 ! D8    D(1,3,5,8)      -179.6899 -178.5935  178.9195 estimate D2E/DX2         !
 ! D9    D(1,3,5,9)       -59.3963  -59.1421  -59.9425 estimate D2E/DX2         !
 ! D10   D(4,3,5,7)      -119.1839 -177.7128  -61.3491 estimate D2E/DX2         !
 ! D11   D(4,3,5,8)         1.2195  -56.3825   58.1318 estimate D2E/DX2         !
 ! D12   D(4,3,5,9)       121.5131   63.0689  179.2699 estimate D2E/DX2         !
 ! D13   D(6,3,5,7)      -119.1263  -61.5121 -175.7589 estimate D2E/DX2         !
 ! D14   D(6,3,5,8)         1.2771   59.8182  -56.278  estimate D2E/DX2         !
 ! D15   D(6,3,5,9)       121.5706  179.2696   64.8601 estimate D2E/DX2         !
 ! D16   D(1,3,6,10)      -84.8793  -28.5941 -141.6008 estimate D2E/DX2         !
 ! D17   D(1,3,6,12)       97.639   153.8859   40.9557 estimate D2E/DX2         !
 ! D18   D(4,3,6,10)      -85.9897 -145.9808  -25.4386 estimate D2E/DX2         !
 ! D19   D(4,3,6,12)       96.5285   36.4992  157.1179 estimate D2E/DX2         !
 ! D20   D(5,3,6,10)       94.1774   97.2085   91.0225 estimate D2E/DX2         !
 ! D21   D(5,3,6,12)      -83.3044  -80.3115  -86.421  estimate D2E/DX2         !
 ! D22   D(3,6,12,13)     177.139   176.6707  177.6073 estimate D2E/DX2         !
 ! D23   D(10,6,12,13)     -0.4054   -0.9173    0.1066 estimate D2E/DX2         !
 --------------------------------------------------------------------------------
 Trust Radius=3.00D-01 FncErr=1.00D-07 GrdErr=1.00D-06
 Number of steps in this run=     64 maximum allowed number of steps=    100.
 Search for a saddle point of order  1.
 GradGradGradGradGradGradGradGradGradGradGradGradGradGradGradGradGradGrad

 Leave Link  103 at Mon Apr 18 09:28:42 2016, MaxMem=   33554432 cpu:       0.0
 (Enter c:\G09w01\l202.exe)
                          Input orientation:                          
 ---------------------------------------------------------------------
 Center     Atomic      Atomic             Coordinates (Angstroms)
 Number     Number       Type             X           Y           Z
 ---------------------------------------------------------------------
      1          7           0       -1.521323   -1.125342   -0.554199
      2          1           0       -1.928970   -1.674437    0.196857
      3          6           0       -0.702469   -0.050379    0.007198
      4          1           0        0.347888   -0.283585   -0.184678
      5          6           0       -1.211757    1.197612    0.761787
      6          6           0        0.816146   -0.003761   -0.044829
      7          1           0       -1.765634    0.892562    1.653244
      8          1           0       -0.385206    1.843579    1.069215
      9          1           0       -1.881839    1.776670    0.120892
     10          8           0        1.551819   -0.542387    0.747926
     11          1           0       -2.283243   -0.744858   -1.106550
     12          8           0        1.270770    0.762023   -1.059200
     13          1           0        2.239029    0.784404   -1.006031
 ---------------------------------------------------------------------
                    Distance matrix (angstroms):
                    1          2          3          4          5
     1  N    0.000000
     2  H    1.015759   0.000000
     3  C    1.463296   2.043976   0.000000
     4  H    2.083038   2.695203   1.092909   0.000000
     5  C    2.687707   3.013670   1.544753   2.349943   0.000000
     6  C    2.642189   3.222612   1.520221   0.563138   2.491248
     7  H    3.000739   2.955880   2.174610   3.037804   1.092946
     8  H    3.569416   3.939626   2.194451   2.575752   1.093148
     9  H    3.001233   3.452265   2.177602   3.051181   1.093190
    10  O    3.388151   3.701501   2.423338   1.544726   3.265753
    11  H    1.015077   1.639663   2.054648   2.825857   2.900336
    12  O    3.407779   4.213354   2.385555   1.646146   3.109449
    13  H    4.241642   4.986487   3.221165   2.321990   3.899211
                    6          7          8          9         10
     6  C    0.000000
     7  H    3.217520   0.000000
     8  H    2.469212   1.775135   0.000000
     9  H    3.236746   1.772922   1.773050   0.000000
    10  O    1.208219   3.726148   3.090004   4.190609   0.000000
    11  H    3.358971   3.250465   3.877693   2.832992   4.264713
    12  O    1.349836   4.073591   2.905541   3.515832   2.246369
    13  H    1.889367   4.808406   3.509288   4.385898   2.304125
                   11         12         13
    11  H    0.000000
    12  O    3.860562   0.000000
    13  H    4.774902   0.969976   0.000000
 Stoichiometry    C3H7NO2
 Framework group  C1[X(C3H7NO2)]
 Deg. of freedom    33
 Full point group                 C1      NOp   1
 Largest Abelian subgroup         C1      NOp   1
 Largest concise Abelian subgroup C1      NOp   1
                         Standard orientation:                         
 ---------------------------------------------------------------------
 Center     Atomic      Atomic             Coordinates (Angstroms)
 Number     Number       Type             X           Y           Z
 ---------------------------------------------------------------------
      1          7           0       -1.583518   -1.192422   -0.266351
      2          1           0       -2.101903   -1.427716    0.574887
      3          6           0       -0.705035   -0.052111   -0.003309
      4          1           0        0.327694   -0.409677    0.004994
      5          6           0       -1.141024    1.409281    0.242674
      6          6           0        0.809860   -0.132959    0.094813
      7          1           0       -1.790367    1.460655    1.120310
      8          1           0       -0.279080    2.060872    0.408371
      9          1           0       -1.696951    1.785737   -0.620049
     10          8           0        1.423233   -0.425148    1.093908
     11          1           0       -2.257643   -0.966355   -0.990804
     12          8           0        1.417304    0.214317   -1.059513
     13          1           0        2.375770    0.184817   -0.913480
 ---------------------------------------------------------------------
 Rotational constants (GHZ):      4.8965656      2.6162488      2.3963406
 Leave Link  202 at Mon Apr 18 09:28:42 2016, MaxMem=   33554432 cpu:       0.0
 (Enter c:\G09w01\l301.exe)
 Standard basis: 6-311++G(d,p) (5D, 7F)
 Ernie: Thresh=  0.10000D-02 Tol=  0.10000D-05 Strict=F.
 There are   181 symmetry adapted basis functions of A   symmetry.
 Integral buffers will be    262144 words long.
 Raffenetti 2 integral format.
 Two-electron integral symmetry is turned on.
   181 basis functions,   279 primitive gaussians,   187 cartesian basis functions
    24 alpha electrons       24 beta electrons
       nuclear repulsion energy       251.0564171111 Hartrees.
 IExCor=  402 DFT=T Ex+Corr=B3LYP ExCW=0 ScaHFX=  0.200000
 ScaDFX=  0.800000  0.720000  1.000000  0.810000 ScalE2=  1.000000  1.000000
 IRadAn=      0 IRanWt=     -1 IRanGd=            0 ICorTp=0
 NAtoms=   13 NActive=   13 NUniq=   13 SFac= 1.00D+00 NAtFMM=   50 NAOKFM=F Big=F
 Leave Link  301 at Mon Apr 18 09:28:42 2016, MaxMem=   33554432 cpu:       0.0
 (Enter c:\G09w01\l302.exe)
 NPDir=0 NMtPBC=     1 NCelOv=     1 NCel=       1 NClECP=     1 NCelD=      1
         NCelK=      1 NCelE2=     1 NClLst=     1 CellRange=     0.0.
 One-electron integrals computed using PRISM.
 NBasis=   181 RedAO= T  NBF=   181
 NBsUse=   181 1.00D-06 NBFU=   181
 Precomputing XC quadrature grid using
 IXCGrd= 2 IRadAn=           0 IRanWt=          -1 IRanGd=           0 AccXCQ= 0.00D+00.
 NRdTot=     842 NPtTot=      107204 NUsed=      111136 NTot=      111152
 NSgBfM=   187   187   187   187   187 NAtAll=    13    13.
 Leave Link  302 at Mon Apr 18 09:28:42 2016, MaxMem=   33554432 cpu:       0.0
 (Enter c:\G09w01\l303.exe)
 DipDrv:  MaxL=1.
 Leave Link  303 at Mon Apr 18 09:28:42 2016, MaxMem=   33554432 cpu:       0.0
 (Enter c:\G09w01\l401.exe)
 Harris functional with IExCor=  402 diagonalized for initial guess.
 ExpMin= 3.60D-02 ExpMax= 8.59D+03 ExpMxC= 1.30D+03 IAcc=3 IRadAn=         0 AccDes= 0.00D+00
 HarFok:  IExCor=  402 AccDes= 0.00D+00 IRadAn=         0 IDoV= 1
 ScaDFX=  1.000000  1.000000  1.000000  1.000000
 FoFCou: FMM=F IPFlag=           0 FMFlag=      100000 FMFlg1=           0
         NFxFlg=           0 DoJE=T BraDBF=F KetDBF=T FulRan=T
         Omega=  0.000000  0.000000  1.000000  0.000000  0.000000 ICntrl=     500 IOpCl=  0
         NMat0=    1 NMatS0=    1 NMatT0=    0 NMatD0=    1 NMtDS0=    0 NMtDT0=    0
         I1Cent=           4 NGrid=           0.
 Petite list used in FoFCou.
 Harris En= -323.006773624102    
 Initial guess orbital symmetries:
       Occupied  (A) (A) (A) (A) (A) (A) (A) (A) (A) (A) (A) (A)
                 (A) (A) (A) (A) (A) (A) (A) (A) (A) (A) (A) (A)
       Virtual   (A) (A) (A) (A) (A) (A) (A) (A) (A) (A) (A) (A)
                 (A) (A) (A) (A) (A) (A) (A) (A) (A) (A) (A) (A)
                 (A) (A) (A) (A) (A) (A) (A) (A) (A) (A) (A) (A)
                 (A) (A) (A) (A) (A) (A) (A) (A) (A) (A) (A) (A)
                 (A) (A) (A) (A) (A) (A) (A) (A) (A) (A) (A) (A)
                 (A) (A) (A) (A) (A) (A) (A) (A) (A) (A) (A) (A)
                 (A) (A) (A) (A) (A) (A) (A) (A) (A) (A) (A) (A)
                 (A) (A) (A) (A) (A) (A) (A) (A) (A) (A) (A) (A)
                 (A) (A) (A) (A) (A) (A) (A) (A) (A) (A) (A) (A)
                 (A) (A) (A) (A) (A) (A) (A) (A) (A) (A) (A) (A)
                 (A) (A) (A) (A) (A) (A) (A) (A) (A) (A) (A) (A)
                 (A) (A) (A) (A) (A) (A) (A) (A) (A) (A) (A) (A)
                 (A) (A) (A) (A) (A) (A) (A) (A) (A) (A) (A) (A)
                 (A)
 The electronic state of the initial guess is 1-A.
 Leave Link  401 at Mon Apr 18 09:28:46 2016, MaxMem=   33554432 cpu:       4.0
 (Enter c:\G09w01\l502.exe)
 Closed shell SCF:
 Requested convergence on RMS density matrix=1.00D-08 within 128 cycles.
 Requested convergence on MAX density matrix=1.00D-06.
 Requested convergence on             energy=1.00D-06.
 No special actions if energy rises.
 Using DIIS extrapolation, IDIIS=  1040.
 Integral symmetry usage will be decided dynamically.
       111019 words used for storage of precomputed grid.
 IEnd=      236352 IEndB=      236352 NGot=    33554432 MDV=    33369877
 LenX=    33369877 LenY=    33334467
 Fock matrices will be formed incrementally for  20 cycles.

 Cycle   1  Pass 1  IDiag  1:
 FoFCou: FMM=F IPFlag=           0 FMFlag=      100000 FMFlg1=           0
         NFxFlg=           0 DoJE=F BraDBF=F KetDBF=F FulRan=T
         Omega=  0.000000  0.000000  1.000000  0.000000  0.000000 ICntrl=       0 IOpCl=  0
         NMat0=    1 NMatS0=    1 NMatT0=    0 NMatD0=    1 NMtDS0=    0 NMtDT0=    0
         I1Cent=           0 NGrid=           0.
 Symmetry not used in FoFCou.
 E= -322.553147162608    
 DIIS: error= 3.25D-02 at cycle   1 NSaved=   1.
 NSaved= 1 IEnMin= 1 EnMin= -322.553147162608     IErMin= 1 ErrMin= 3.25D-02
 ErrMax= 3.25D-02 EMaxC= 1.00D-01 BMatC= 3.86D-01 BMatP= 3.86D-01
 IDIUse=3 WtCom= 6.75D-01 WtEn= 3.25D-01
 Coeff-Com:  0.100D+01
 Coeff-En:   0.100D+01
 Coeff:      0.100D+01
 Gap=    -0.076 Goal=   None    Shift=    0.000
 GapD=   -0.076 DampG=0.250 DampE=0.500 DampFc=0.2500 IDamp=-1.
 Damping current iteration by 2.50D-01
 RMSDP=6.52D-02 MaxDP=3.50D+00              OVMax= 9.92D-01

 Cycle   2  Pass 1  IDiag  1:
 RMSU=  1.15D-02    CP:  1.08D+00
 E= -322.561571352366     Delta-E=       -0.008424189758 Rises=F Damp=T
 DIIS: error= 1.73D-02 at cycle   2 NSaved=   2.
 NSaved= 2 IEnMin= 2 EnMin= -322.561571352366     IErMin= 2 ErrMin= 1.73D-02
 ErrMax= 1.73D-02 EMaxC= 1.00D-01 BMatC= 7.81D-02 BMatP= 3.86D-01
 IDIUse=3 WtCom= 8.27D-01 WtEn= 1.73D-01
 Coeff-Com: -0.573D-01 0.106D+01
 Coeff-En:   0.484D+00 0.516D+00
 Coeff:      0.361D-01 0.964D+00
 Gap=    -0.294 Goal=   None    Shift=    0.000
 RMSDP=1.69D-02 MaxDP=9.11D-01 DE=-8.42D-03 OVMax= 6.60D-01

 Cycle   3  Pass 1  IDiag  1:
 RMSU=  4.98D-03    CP:  9.75D-01  6.16D-02
 E= -322.732059966214     Delta-E=       -0.170488613847 Rises=F Damp=F
 DIIS: error= 3.38D-02 at cycle   3 NSaved=   3.
 NSaved= 3 IEnMin= 3 EnMin= -322.732059966214     IErMin= 2 ErrMin= 1.73D-02
 ErrMax= 3.38D-02 EMaxC= 1.00D-01 BMatC= 2.56D-01 BMatP= 7.81D-02
 IDIUse=2 WtCom= 0.00D+00 WtEn= 1.00D+00
 EnCoef did     3 forward-backward iterations
 Coeff-En:   0.186D+00 0.113D+00 0.701D+00
 Coeff:      0.186D+00 0.113D+00 0.701D+00
 Gap=     0.096 Goal=   None    Shift=    0.000
 RMSDP=1.00D-02 MaxDP=1.85D-01 DE=-1.70D-01 OVMax= 4.30D-01

 Cycle   4  Pass 1  IDiag  1:
 RMSU=  6.59D-03    CP:  9.42D-01  1.26D-01  4.98D-01
 E= -322.170022723667     Delta-E=        0.562037242546 Rises=F Damp=F
 DIIS: error= 8.04D-02 at cycle   4 NSaved=   4.
 NSaved= 4 IEnMin= 3 EnMin= -322.732059966214     IErMin= 2 ErrMin= 1.73D-02
 ErrMax= 8.04D-02 EMaxC= 1.00D-01 BMatC= 8.89D-01 BMatP= 7.81D-02
 IDIUse=2 WtCom= 0.00D+00 WtEn= 1.00D+00
 EnCoef did     1 forward-backward iterations
 Coeff-En:   0.906D-01 0.000D+00 0.657D+00 0.252D+00
 Coeff:      0.906D-01 0.000D+00 0.657D+00 0.252D+00
 Gap=     0.199 Goal=   None    Shift=    0.000
 RMSDP=6.76D-03 MaxDP=1.81D-01 DE= 5.62D-01 OVMax= 2.66D-01

 Cycle   5  Pass 1  IDiag  1:
 RMSU=  2.03D-03    CP:  9.36D-01  5.34D-02  7.19D-01  3.78D-01
 E= -322.907580291545     Delta-E=       -0.737557567878 Rises=F Damp=F
 DIIS: error= 1.32D-02 at cycle   5 NSaved=   5.
 NSaved= 5 IEnMin= 5 EnMin= -322.907580291545     IErMin= 5 ErrMin= 1.32D-02
 ErrMax= 1.32D-02 EMaxC= 1.00D-01 BMatC= 4.53D-02 BMatP= 7.81D-02
 IDIUse=3 WtCom= 8.68D-01 WtEn= 1.32D-01
 Coeff-Com: -0.267D-01 0.142D+00 0.297D+00 0.661D-02 0.580D+00
 Coeff-En:   0.000D+00 0.000D+00 0.169D+00 0.000D+00 0.831D+00
 Coeff:     -0.232D-01 0.124D+00 0.280D+00 0.574D-02 0.613D+00
 Gap=     0.076 Goal=   None    Shift=    0.000
 RMSDP=1.74D-03 MaxDP=4.32D-02 DE=-7.38D-01 OVMax= 7.13D-02

 Cycle   6  Pass 1  IDiag  1:
 RMSU=  8.55D-04    CP:  9.43D-01  5.64D-02  7.66D-01  2.90D-01  6.94D-01
 E= -322.939951298251     Delta-E=       -0.032371006706 Rises=F Damp=F
 DIIS: error= 4.13D-03 at cycle   6 NSaved=   6.
 NSaved= 6 IEnMin= 6 EnMin= -322.939951298251     IErMin= 6 ErrMin= 4.13D-03
 ErrMax= 4.13D-03 EMaxC= 1.00D-01 BMatC= 4.06D-03 BMatP= 4.53D-02
 IDIUse=3 WtCom= 9.59D-01 WtEn= 4.13D-02
 Coeff-Com: -0.196D-01 0.354D-01 0.790D-01-0.278D-01 0.380D+00 0.553D+00
 Coeff-En:   0.000D+00 0.000D+00 0.000D+00 0.000D+00 0.536D-01 0.946D+00
 Coeff:     -0.188D-01 0.339D-01 0.758D-01-0.267D-01 0.366D+00 0.569D+00
 Gap=     0.079 Goal=   None    Shift=    0.000
 RMSDP=6.98D-04 MaxDP=1.29D-02 DE=-3.24D-02 OVMax= 3.66D-02

 Cycle   7  Pass 1  IDiag  1:
 RMSU=  2.90D-04    CP:  9.35D-01  5.82D-02  7.73D-01  3.18D-01  8.41D-01
                    CP:  8.15D-01
 E= -322.943777328999     Delta-E=       -0.003826030748 Rises=F Damp=F
 DIIS: error= 8.55D-04 at cycle   7 NSaved=   7.
 NSaved= 7 IEnMin= 7 EnMin= -322.943777328999     IErMin= 7 ErrMin= 8.55D-04
 ErrMax= 8.55D-04 EMaxC= 1.00D-01 BMatC= 2.45D-04 BMatP= 4.06D-03
 IDIUse=3 WtCom= 9.91D-01 WtEn= 8.55D-03
 Coeff-Com:  0.431D-02-0.787D-02 0.790D-02-0.159D-01 0.118D+00 0.240D+00
 Coeff-Com:  0.654D+00
 Coeff-En:   0.000D+00 0.000D+00 0.000D+00 0.000D+00 0.000D+00 0.000D+00
 Coeff-En:   0.100D+01
 Coeff:      0.428D-02-0.780D-02 0.783D-02-0.158D-01 0.117D+00 0.238D+00
 Coeff:      0.656D+00
 Gap=     0.078 Goal=   None    Shift=    0.000
 RMSDP=2.15D-04 MaxDP=8.20D-03 DE=-3.83D-03 OVMax= 1.53D-02

 Cycle   8  Pass 1  IDiag  1:
 RMSU=  9.98D-05    CP:  9.33D-01  5.86D-02  7.83D-01  3.22D-01  8.61D-01
                    CP:  8.94D-01  1.20D+00
 E= -322.943965008848     Delta-E=       -0.000187679849 Rises=F Damp=F
 DIIS: error= 8.03D-04 at cycle   8 NSaved=   8.
 NSaved= 8 IEnMin= 8 EnMin= -322.943965008848     IErMin= 8 ErrMin= 8.03D-04
 ErrMax= 8.03D-04 EMaxC= 1.00D-01 BMatC= 1.46D-04 BMatP= 2.45D-04
 IDIUse=3 WtCom= 9.92D-01 WtEn= 8.03D-03
 Coeff-Com:  0.123D-01-0.151D-01-0.144D-02-0.764D-02 0.214D-01 0.538D-01
 Coeff-Com:  0.310D+00 0.626D+00
 Coeff-En:   0.000D+00 0.000D+00 0.000D+00 0.000D+00 0.000D+00 0.000D+00
 Coeff-En:   0.000D+00 0.100D+01
 Coeff:      0.122D-01-0.149D-01-0.143D-02-0.758D-02 0.212D-01 0.534D-01
 Coeff:      0.308D+00 0.629D+00
 Gap=     0.078 Goal=   None    Shift=    0.000
 RMSDP=1.57D-04 MaxDP=6.74D-03 DE=-1.88D-04 OVMax= 1.11D-02

 Cycle   9  Pass 1  IDiag  1:
 RMSU=  7.30D-05    CP:  9.31D-01  5.78D-02  7.76D-01  3.23D-01  8.62D-01
                    CP:  9.42D-01  1.41D+00  1.00D+00
 E= -322.944055730219     Delta-E=       -0.000090721370 Rises=F Damp=F
 DIIS: error= 6.74D-04 at cycle   9 NSaved=   9.
 NSaved= 9 IEnMin= 9 EnMin= -322.944055730219     IErMin= 9 ErrMin= 6.74D-04
 ErrMax= 6.74D-04 EMaxC= 1.00D-01 BMatC= 8.11D-05 BMatP= 1.46D-04
 IDIUse=3 WtCom= 9.93D-01 WtEn= 6.74D-03
 Coeff-Com:  0.521D-02-0.478D-02 0.703D-02-0.526D-02 0.749D-02-0.201D-01
 Coeff-Com: -0.304D+00 0.571D-01 0.126D+01
 Coeff-En:   0.000D+00 0.000D+00 0.000D+00 0.000D+00 0.000D+00 0.000D+00
 Coeff-En:   0.000D+00 0.000D+00 0.100D+01
 Coeff:      0.517D-02-0.475D-02 0.698D-02-0.523D-02 0.744D-02-0.200D-01
 Coeff:     -0.302D+00 0.567D-01 0.126D+01
 Gap=     0.075 Goal=   None    Shift=    0.000
 RMSDP=1.78D-04 MaxDP=4.19D-03 DE=-9.07D-05 OVMax= 9.52D-03

 Cycle  10  Pass 1  IDiag  1:
 RMSU=  4.39D-05    CP:  9.30D-01  5.70D-02  7.78D-01  3.18D-01  8.62D-01
                    CP:  9.68D-01  1.67D+00  1.25D+00  2.05D+00
 E= -322.944144911403     Delta-E=       -0.000089181184 Rises=F Damp=F
 DIIS: error= 1.20D-04 at cycle  10 NSaved=  10.
 NSaved=10 IEnMin=10 EnMin= -322.944144911403     IErMin=10 ErrMin= 1.20D-04
 ErrMax= 1.20D-04 EMaxC= 1.00D-01 BMatC= 5.24D-06 BMatP= 8.11D-05
 IDIUse=3 WtCom= 9.99D-01 WtEn= 1.20D-03
 Coeff-Com:  0.484D-03-0.263D-03 0.483D-02-0.174D-02 0.574D-02-0.105D-01
 Coeff-Com: -0.174D+00-0.914D-01 0.444D+00 0.823D+00
 Coeff-En:   0.000D+00 0.000D+00 0.000D+00 0.000D+00 0.000D+00 0.000D+00
 Coeff-En:   0.000D+00 0.000D+00 0.000D+00 0.100D+01
 Coeff:      0.483D-03-0.263D-03 0.483D-02-0.174D-02 0.573D-02-0.105D-01
 Coeff:     -0.174D+00-0.913D-01 0.444D+00 0.823D+00
 Gap=     0.075 Goal=   None    Shift=    0.000
 RMSDP=4.58D-05 MaxDP=1.19D-03 DE=-8.92D-05 OVMax= 3.06D-03

 Cycle  11  Pass 1  IDiag  1:
 RMSU=  1.33D-05    CP:  9.30D-01  5.70D-02  7.80D-01  3.17D-01  8.65D-01
                    CP:  9.78D-01  1.74D+00  1.40D+00  2.13D+00  9.64D-01
 E= -322.944149761172     Delta-E=       -0.000004849769 Rises=F Damp=F
 DIIS: error= 6.30D-05 at cycle  11 NSaved=  11.
 NSaved=11 IEnMin=11 EnMin= -322.944149761172     IErMin=11 ErrMin= 6.30D-05
 ErrMax= 6.30D-05 EMaxC= 1.00D-01 BMatC= 1.05D-06 BMatP= 5.24D-06
 IDIUse=1 WtCom= 1.00D+00 WtEn= 0.00D+00
 Coeff-Com: -0.276D-03 0.600D-03 0.159D-02-0.345D-03 0.192D-02-0.239D-02
 Coeff-Com: -0.326D-01-0.348D-01 0.234D-01 0.477D+00 0.566D+00
 Coeff:     -0.276D-03 0.600D-03 0.159D-02-0.345D-03 0.192D-02-0.239D-02
 Coeff:     -0.326D-01-0.348D-01 0.234D-01 0.477D+00 0.566D+00
 Gap=     0.075 Goal=   None    Shift=    0.000
 RMSDP=1.14D-05 MaxDP=7.36D-04 DE=-4.85D-06 OVMax= 2.94D-04

 Cycle  12  Pass 1  IDiag  1:
 RMSU=  4.29D-06    CP:  9.30D-01  5.69D-02  7.79D-01  3.17D-01  8.64D-01
                    CP:  9.78D-01  1.74D+00  1.38D+00  2.20D+00  9.47D-01
                    CP:  8.43D-01
 E= -322.944150589522     Delta-E=       -0.000000828350 Rises=F Damp=F
 DIIS: error= 1.24D-05 at cycle  12 NSaved=  12.
 NSaved=12 IEnMin=12 EnMin= -322.944150589522     IErMin=12 ErrMin= 1.24D-05
 ErrMax= 1.24D-05 EMaxC= 1.00D-01 BMatC= 3.82D-08 BMatP= 1.05D-06
 IDIUse=1 WtCom= 1.00D+00 WtEn= 0.00D+00
 Coeff-Com: -0.468D-04-0.315D-04 0.618D-04 0.774D-04-0.334D-03-0.153D-02
 Coeff-Com: -0.565D-02-0.370D-02-0.726D-02 0.988D-01 0.187D+00 0.733D+00
 Coeff:     -0.468D-04-0.315D-04 0.618D-04 0.774D-04-0.334D-03-0.153D-02
 Coeff:     -0.565D-02-0.370D-02-0.726D-02 0.988D-01 0.187D+00 0.733D+00
 Gap=     0.075 Goal=   None    Shift=    0.000
 RMSDP=4.50D-06 MaxDP=1.56D-04 DE=-8.28D-07 OVMax= 2.31D-04

 Cycle  13  Pass 1  IDiag  1:
 RMSU=  1.22D-06    CP:  9.30D-01  5.69D-02  7.79D-01  3.17D-01  8.64D-01
                    CP:  9.78D-01  1.74D+00  1.39D+00  2.20D+00  9.77D-01
                    CP:  8.22D-01  8.39D-01
 E= -322.944150628319     Delta-E=       -0.000000038797 Rises=F Damp=F
 DIIS: error= 5.41D-06 at cycle  13 NSaved=  13.
 NSaved=13 IEnMin=13 EnMin= -322.944150628319     IErMin=13 ErrMin= 5.41D-06
 ErrMax= 5.41D-06 EMaxC= 1.00D-01 BMatC= 3.88D-09 BMatP= 3.82D-08
 IDIUse=1 WtCom= 1.00D+00 WtEn= 0.00D+00
 Coeff-Com: -0.283D-04 0.386D-04 0.305D-05 0.375D-04-0.931D-04-0.329D-03
 Coeff-Com: -0.438D-03 0.423D-03-0.442D-02 0.245D-01 0.625D-01 0.332D+00
 Coeff-Com:  0.585D+00
 Coeff:     -0.283D-04 0.386D-04 0.305D-05 0.375D-04-0.931D-04-0.329D-03
 Coeff:     -0.438D-03 0.423D-03-0.442D-02 0.245D-01 0.625D-01 0.332D+00
 Coeff:      0.585D+00
 Gap=     0.075 Goal=   None    Shift=    0.000
 RMSDP=9.72D-07 MaxDP=2.22D-05 DE=-3.88D-08 OVMax= 2.58D-05

 Cycle  14  Pass 1  IDiag  1:
 RMSU=  2.98D-07    CP:  9.30D-01  5.69D-02  7.79D-01  3.17D-01  8.64D-01
                    CP:  9.78D-01  1.74D+00  1.39D+00  2.20D+00  9.70D-01
                    CP:  8.32D-01  8.90D-01  8.79D-01
 E= -322.944150631698     Delta-E=       -0.000000003379 Rises=F Damp=F
 DIIS: error= 1.74D-06 at cycle  14 NSaved=  14.
 NSaved=14 IEnMin=14 EnMin= -322.944150631698     IErMin=14 ErrMin= 1.74D-06
 ErrMax= 1.74D-06 EMaxC= 1.00D-01 BMatC= 7.53D-10 BMatP= 3.88D-09
 IDIUse=1 WtCom= 1.00D+00 WtEn= 0.00D+00
 Coeff-Com: -0.898D-05 0.716D-05-0.291D-04 0.169D-04-0.487D-04-0.957D-04
 Coeff-Com: -0.250D-03 0.977D-04 0.119D-03-0.434D-02-0.156D-02 0.231D-01
 Coeff-Com:  0.268D+00 0.715D+00
 Coeff:     -0.898D-05 0.716D-05-0.291D-04 0.169D-04-0.487D-04-0.957D-04
 Coeff:     -0.250D-03 0.977D-04 0.119D-03-0.434D-02-0.156D-02 0.231D-01
 Coeff:      0.268D+00 0.715D+00
 Gap=     0.075 Goal=   None    Shift=    0.000
 RMSDP=7.49D-07 MaxDP=1.57D-05 DE=-3.38D-09 OVMax= 6.03D-05

 Cycle  15  Pass 1  IDiag  1:
 RMSU=  9.26D-08    CP:  9.30D-01  5.69D-02  7.79D-01  3.17D-01  8.64D-01
                    CP:  9.79D-01  1.74D+00  1.39D+00  2.20D+00  9.71D-01
                    CP:  8.39D-01  9.00D-01  9.58D-01  9.96D-01
 E= -322.944150633054     Delta-E=       -0.000000001356 Rises=F Damp=F
 DIIS: error= 4.73D-07 at cycle  15 NSaved=  15.
 NSaved=15 IEnMin=15 EnMin= -322.944150633054     IErMin=15 ErrMin= 4.73D-07
 ErrMax= 4.73D-07 EMaxC= 1.00D-01 BMatC= 5.69D-11 BMatP= 7.53D-10
 IDIUse=1 WtCom= 1.00D+00 WtEn= 0.00D+00
 Coeff-Com: -0.301D-05 0.327D-05-0.192D-05 0.555D-06 0.226D-04-0.373D-07
 Coeff-Com: -0.198D-03-0.112D-03 0.568D-03-0.195D-02-0.453D-02-0.261D-01
 Coeff-Com:  0.306D-02 0.116D+00 0.913D+00
 Coeff:     -0.301D-05 0.327D-05-0.192D-05 0.555D-06 0.226D-04-0.373D-07
 Coeff:     -0.198D-03-0.112D-03 0.568D-03-0.195D-02-0.453D-02-0.261D-01
 Coeff:      0.306D-02 0.116D+00 0.913D+00
 Gap=     0.075 Goal=   None    Shift=    0.000
 RMSDP=2.70D-07 MaxDP=7.54D-06 DE=-1.36D-09 OVMax= 2.29D-05

 Cycle  16  Pass 1  IDiag  1:
 RMSU=  3.07D-08    CP:  9.30D-01  5.69D-02  7.79D-01  3.17D-01  8.64D-01
                    CP:  9.79D-01  1.74D+00  1.39D+00  2.21D+00  9.71D-01
                    CP:  8.39D-01  9.02D-01  1.00D+00  1.08D+00  9.27D-01
 E= -322.944150633187     Delta-E=       -0.000000000132 Rises=F Damp=F
 DIIS: error= 1.19D-07 at cycle  16 NSaved=  16.
 NSaved=16 IEnMin=16 EnMin= -322.944150633187     IErMin=16 ErrMin= 1.19D-07
 ErrMax= 1.19D-07 EMaxC= 1.00D-01 BMatC= 4.86D-12 BMatP= 5.69D-11
 IDIUse=1 WtCom= 1.00D+00 WtEn= 0.00D+00
 Coeff-Com: -0.107D-05 0.822D-06 0.219D-05-0.839D-06 0.105D-04-0.689D-05
 Coeff-Com: -0.128D-03-0.837D-04 0.162D-03-0.860D-04-0.124D-02-0.108D-01
 Coeff-Com: -0.221D-01-0.403D-01 0.278D+00 0.797D+00
 Coeff:     -0.107D-05 0.822D-06 0.219D-05-0.839D-06 0.105D-04-0.689D-05
 Coeff:     -0.128D-03-0.837D-04 0.162D-03-0.860D-04-0.124D-02-0.108D-01
 Coeff:     -0.221D-01-0.403D-01 0.278D+00 0.797D+00
 Gap=     0.075 Goal=   None    Shift=    0.000
 RMSDP=1.15D-07 MaxDP=2.66D-06 DE=-1.32D-10 OVMax= 9.50D-06

 Cycle  17  Pass 1  IDiag  1:
 RMSU=  1.01D-08    CP:  9.30D-01  5.69D-02  7.79D-01  3.17D-01  8.64D-01
                    CP:  9.79D-01  1.74D+00  1.39D+00  2.21D+00  9.72D-01
                    CP:  8.40D-01  9.04D-01  1.00D+00  1.11D+00  1.04D+00
                    CP:  8.50D-01
 E= -322.944150633206     Delta-E=       -0.000000000020 Rises=F Damp=F
 DIIS: error= 2.46D-08 at cycle  17 NSaved=  17.
 NSaved=17 IEnMin=17 EnMin= -322.944150633206     IErMin=17 ErrMin= 2.46D-08
 ErrMax= 2.46D-08 EMaxC= 1.00D-01 BMatC= 1.82D-13 BMatP= 4.86D-12
 IDIUse=1 WtCom= 1.00D+00 WtEn= 0.00D+00
 Coeff-Com: -0.194D-06 0.234D-06 0.824D-06-0.250D-06 0.104D-05-0.463D-05
 Coeff-Com: -0.341D-04-0.129D-04 0.102D-04 0.654D-04-0.919D-04-0.133D-02
 Coeff-Com: -0.461D-02-0.154D-01 0.260D-01 0.195D+00 0.801D+00
 Coeff:     -0.194D-06 0.234D-06 0.824D-06-0.250D-06 0.104D-05-0.463D-05
 Coeff:     -0.341D-04-0.129D-04 0.102D-04 0.654D-04-0.919D-04-0.133D-02
 Coeff:     -0.461D-02-0.154D-01 0.260D-01 0.195D+00 0.801D+00
 Gap=     0.075 Goal=   None    Shift=    0.000
 RMSDP=1.87D-08 MaxDP=4.24D-07 DE=-1.97D-11 OVMax= 1.63D-06

 Cycle  18  Pass 1  IDiag  1:
 RMSU=  2.27D-09    CP:  9.30D-01  5.69D-02  7.79D-01  3.17D-01  8.64D-01
                    CP:  9.79D-01  1.74D+00  1.39D+00  2.21D+00  9.72D-01
                    CP:  8.40D-01  9.04D-01  1.00D+00  1.11D+00  1.05D+00
                    CP:  9.37D-01  8.96D-01
 E= -322.944150633206     Delta-E=        0.000000000000 Rises=F Damp=F
 DIIS: error= 1.17D-08 at cycle  18 NSaved=  18.
 NSaved=18 IEnMin=17 EnMin= -322.944150633206     IErMin=18 ErrMin= 1.17D-08
 ErrMax= 1.17D-08 EMaxC= 1.00D-01 BMatC= 2.88D-14 BMatP= 1.82D-13
 IDIUse=1 WtCom= 1.00D+00 WtEn= 0.00D+00
 Coeff-Com: -0.365D-07 0.112D-06 0.197D-06-0.382D-07-0.284D-06-0.126D-05
 Coeff-Com: -0.470D-05-0.120D-05-0.846D-05 0.197D-04 0.428D-04 0.217D-03
 Coeff-Com:  0.352D-03-0.122D-02-0.803D-02-0.333D-02 0.164D+00 0.848D+00
 Coeff:     -0.365D-07 0.112D-06 0.197D-06-0.382D-07-0.284D-06-0.126D-05
 Coeff:     -0.470D-05-0.120D-05-0.846D-05 0.197D-04 0.428D-04 0.217D-03
 Coeff:      0.352D-03-0.122D-02-0.803D-02-0.333D-02 0.164D+00 0.848D+00
 Gap=     0.075 Goal=   None    Shift=    0.000
 RMSDP=6.36D-09 MaxDP=1.57D-07 DE= 1.14D-13 OVMax= 4.21D-07

 SCF Done:  E(RB3LYP) =  -322.944150633     A.U. after   18 cycles
             Convg  =    0.6362D-08             -V/T =  1.9963
 KE= 3.241374156570D+02 PE=-1.259340911375D+03 EE= 3.612029279736D+02
 Leave Link  502 at Mon Apr 18 09:31:37 2016, MaxMem=   33554432 cpu:     171.0
 (Enter c:\G09w01\l601.exe)
 Copying SCF densities to generalized density rwf, IOpCl= 0 IROHF=0.

 **********************************************************************

            Population analysis using the SCF density.

 **********************************************************************

 Orbital symmetries:
       Occupied  (A) (A) (A) (A) (A) (A) (A) (A) (A) (A) (A) (A)
                 (A) (A) (A) (A) (A) (A) (A) (A) (A) (A) (A) (A)
       Virtual   (A) (A) (A) (A) (A) (A) (A) (A) (A) (A) (A) (A)
                 (A) (A) (A) (A) (A) (A) (A) (A) (A) (A) (A) (A)
                 (A) (A) (A) (A) (A) (A) (A) (A) (A) (A) (A) (A)
                 (A) (A) (A) (A) (A) (A) (A) (A) (A) (A) (A) (A)
                 (A) (A) (A) (A) (A) (A) (A) (A) (A) (A) (A) (A)
                 (A) (A) (A) (A) (A) (A) (A) (A) (A) (A) (A) (A)
                 (A) (A) (A) (A) (A) (A) (A) (A) (A) (A) (A) (A)
                 (A) (A) (A) (A) (A) (A) (A) (A) (A) (A) (A) (A)
                 (A) (A) (A) (A) (A) (A) (A) (A) (A) (A) (A) (A)
                 (A) (A) (A) (A) (A) (A) (A) (A) (A) (A) (A) (A)
                 (A) (A) (A) (A) (A) (A) (A) (A) (A) (A) (A) (A)
                 (A) (A) (A) (A) (A) (A) (A) (A) (A) (A) (A) (A)
                 (A) (A) (A) (A) (A) (A) (A) (A) (A) (A) (A) (A)
                 (A)
 The electronic state is 1-A.
 Alpha  occ. eigenvalues --  -19.19636 -19.14981 -14.32890 -10.37280 -10.21626
 Alpha  occ. eigenvalues --  -10.19670  -1.17268  -1.06019  -0.98814  -0.87312
 Alpha  occ. eigenvalues --   -0.73313  -0.62787  -0.53711  -0.51683  -0.51246
 Alpha  occ. eigenvalues --   -0.49347  -0.44774  -0.42950  -0.41930  -0.40939
 Alpha  occ. eigenvalues --   -0.35555  -0.32774  -0.28464  -0.17536
 Alpha virt. eigenvalues --   -0.10041  -0.01966  -0.00914   0.01263   0.02453
 Alpha virt. eigenvalues --    0.04140   0.04749   0.05495   0.06478   0.06910
 Alpha virt. eigenvalues --    0.07508   0.09078   0.10043   0.11361   0.11697
 Alpha virt. eigenvalues --    0.12823   0.13137   0.13344   0.13965   0.14866
 Alpha virt. eigenvalues --    0.14957   0.16423   0.17251   0.17435   0.19703
 Alpha virt. eigenvalues --    0.20267   0.21676   0.21798   0.24126   0.24689
 Alpha virt. eigenvalues --    0.26236   0.26718   0.27552   0.27911   0.30128
 Alpha virt. eigenvalues --    0.30757   0.31246   0.32697   0.33670   0.34833
 Alpha virt. eigenvalues --    0.35968   0.38176   0.39270   0.43923   0.45115
 Alpha virt. eigenvalues --    0.46602   0.53365   0.54299   0.55626   0.56568
 Alpha virt. eigenvalues --    0.58583   0.60337   0.64083   0.65367   0.65983
 Alpha virt. eigenvalues --    0.67740   0.70931   0.72206   0.74275   0.77608
 Alpha virt. eigenvalues --    0.81111   0.82622   0.88119   0.89655   0.94552
 Alpha virt. eigenvalues --    1.00602   1.03491   1.06255   1.12305   1.14249
 Alpha virt. eigenvalues --    1.15105   1.17173   1.20118   1.22692   1.23460
 Alpha virt. eigenvalues --    1.28758   1.29813   1.38282   1.42331   1.43221
 Alpha virt. eigenvalues --    1.46370   1.48327   1.50528   1.52476   1.55744
 Alpha virt. eigenvalues --    1.56903   1.58110   1.59445   1.62650   1.65156
 Alpha virt. eigenvalues --    1.68516   1.74504   1.76864   1.84292   1.85694
 Alpha virt. eigenvalues --    1.88270   1.93666   1.94845   1.97498   1.99968
 Alpha virt. eigenvalues --    2.08999   2.10057   2.20331   2.22168   2.29583
 Alpha virt. eigenvalues --    2.41608   2.44703   2.45726   2.46694   2.46955
 Alpha virt. eigenvalues --    2.51521   2.53344   2.56429   2.61513   2.62553
 Alpha virt. eigenvalues --    2.65114   2.67392   2.77036   2.80015   2.85899
 Alpha virt. eigenvalues --    2.86692   2.92699   2.93123   2.98577   3.00559
 Alpha virt. eigenvalues --    3.06513   3.12237   3.17939   3.19094   3.26536
 Alpha virt. eigenvalues --    3.29941   3.49082   3.56022   3.58963   3.70396
 Alpha virt. eigenvalues --    3.77661   3.78861   3.85636   4.00078   4.05205
 Alpha virt. eigenvalues --    4.15050   4.28708   4.71330   4.84686   4.97263
 Alpha virt. eigenvalues --    5.06348   5.18370   5.41205   5.60987   5.80691
 Alpha virt. eigenvalues --    5.91074  23.77005  23.94446  24.20114  35.57894
 Alpha virt. eigenvalues --   49.86268  49.97202
          Condensed to atoms (all electrons):
              1          2          3          4          5          6
     1  N    6.484965   0.379284   0.123640   0.109609  -0.159361  -0.080228
     2  H    0.379284   0.574182  -0.129425   0.005106   0.043653   0.002837
     3  C    0.123640  -0.129425   7.183923  -0.454538   0.205133  -0.074791
     4  H    0.109609   0.005106  -0.454538   2.236815  -0.079831  -0.667241
     5  C   -0.159361   0.043653   0.205133  -0.079831   5.319210  -0.017615
     6  C   -0.080228   0.002837  -0.074791  -0.667241  -0.017615   6.139503
     7  H   -0.014212   0.022443  -0.138158   0.024973   0.469091  -0.008171
     8  H    0.006329  -0.000778  -0.004277  -0.031126   0.365404  -0.032530
     9  H    0.019510  -0.015663  -0.073859   0.018368   0.386449  -0.042455
    10  O   -0.009087   0.013237  -0.202113   0.130672  -0.003293   0.324128
    11  H    0.420897  -0.124572  -0.076856  -0.028373  -0.017182  -0.015256
    12  O    0.027156  -0.010744  -0.161947  -0.262818  -0.098908   0.505690
    13  H   -0.002776   0.001180  -0.039734   0.033359   0.005699   0.021556
              7          8          9         10         11         12
     1  N   -0.014212   0.006329   0.019510  -0.009087   0.420897   0.027156
     2  H    0.022443  -0.000778  -0.015663   0.013237  -0.124572  -0.010744
     3  C   -0.138158  -0.004277  -0.073859  -0.202113  -0.076856  -0.161947
     4  H    0.024973  -0.031126   0.018368   0.130672  -0.028373  -0.262818
     5  C    0.469091   0.365404   0.386449  -0.003293  -0.017182  -0.098908
     6  C   -0.008171  -0.032530  -0.042455   0.324128  -0.015256   0.505690
     7  H    0.630228  -0.022102  -0.105057   0.016128  -0.020428  -0.007798
     8  H   -0.022102   0.555969  -0.024923  -0.002442   0.000697   0.004822
     9  H   -0.105057  -0.024923   0.666296  -0.011251   0.030360   0.013238
    10  O    0.016128  -0.002442  -0.011251   8.130337  -0.009528  -0.212171
    11  H   -0.020428   0.000697   0.030360  -0.009528   0.582399   0.017635
    12  O   -0.007798   0.004822   0.013238  -0.212171   0.017635   8.069348
    13  H    0.001685  -0.003291  -0.002399  -0.001992  -0.002146   0.220963
             13
     1  N   -0.002776
     2  H    0.001180
     3  C   -0.039734
     4  H    0.033359
     5  C    0.005699
     6  C    0.021556
     7  H    0.001685
     8  H   -0.003291
     9  H   -0.002399
    10  O   -0.001992
    11  H   -0.002146
    12  O    0.220963
    13  H    0.491860
 Mulliken atomic charges:
              1
     1  N   -0.305725
     2  H    0.239260
     3  C   -0.156997
     4  H   -0.034974
     5  C   -0.418448
     6  C   -0.055427
     7  H    0.151376
     8  H    0.188249
     9  H    0.141387
    10  O   -0.162624
    11  H    0.242353
    12  O   -0.104465
    13  H    0.276037
 Sum of Mulliken atomic charges =   0.00000
 Mulliken charges with hydrogens summed into heavy atoms:
              1
     1  N    0.175888
     3  C   -0.156997
     5  C    0.062563
     6  C   -0.090401
    10  O   -0.162624
    12  O    0.171571
 Sum of Mulliken charges with hydrogens summed into heavy atoms =   0.00000
 Electronic spatial extent (au):  <R**2>=            600.9993
 Charge=              0.0000 electrons
 Dipole moment (field-independent basis, Debye):
    X=             -0.6674    Y=              1.3715    Z=             -0.8428  Tot=              1.7426
 Quadrupole moment (field-independent basis, Debye-Ang):
   XX=            -28.3372   YY=            -38.2463   ZZ=            -40.7727
   XY=              1.4512   XZ=             -3.8227   YZ=              0.8396
 Traceless Quadrupole moment (field-independent basis, Debye-Ang):
   XX=              7.4482   YY=             -2.4609   ZZ=             -4.9873
   XY=              1.4512   XZ=             -3.8227   YZ=              0.8396
 Octapole moment (field-independent basis, Debye-Ang**2):
  XXX=             11.2873  YYY=              3.6075  ZZZ=             -2.2539  XYY=              3.6232
  XXY=             -2.7032  XXZ=            -11.3944  XZZ=             -3.5323  YZZ=             -0.4783
  YYZ=              3.0072  XYZ=              2.5438
 Hexadecapole moment (field-independent basis, Debye-Ang**3):
 XXXX=           -338.6857 YYYY=           -228.3734 ZZZZ=           -143.9076 XXXY=             24.5307
 XXXZ=            -23.7073 YYYX=              0.4593 YYYZ=             -5.5650 ZZZX=             -3.0028
 ZZZY=              0.2797 XXYY=           -100.9637 XXZZ=            -84.2657 YYZZ=            -59.4852
 XXYZ=              0.9490 YYXZ=             -4.7131 ZZXY=              4.5156
 N-N= 2.510564171111D+02 E-N=-1.259340911050D+03  KE= 3.241374156570D+02
 No NMR shielding tensors so no spin-rotation constants.
 Leave Link  601 at Mon Apr 18 09:31:37 2016, MaxMem=   33554432 cpu:       0.0
 (Enter c:\G09w01\l701.exe)
 Compute integral first derivatives.
 ... and contract with generalized density number  0.
 Leave Link  701 at Mon Apr 18 09:31:38 2016, MaxMem=   33554432 cpu:       1.0
 (Enter c:\G09w01\l702.exe)
 L702 exits ... SP integral derivatives will be done elsewhere.
 Leave Link  702 at Mon Apr 18 09:31:38 2016, MaxMem=   33554432 cpu:       0.0
 (Enter c:\G09w01\l703.exe)
 Compute integral first derivatives, UseDBF=F ICtDFT=           0.
 Integral derivatives from FoFDir, PRISM(SPDF).
 Calling FoFJK, ICntrl=      2127 FMM=F ISym2X=0 I1Cent= 0 IOpClX= 0 NMat=1 NMatS=1 NMatT=0.
 FoFCou: FMM=F IPFlag=           0 FMFlag=      100000 FMFlg1=         800
         NFxFlg=           0 DoJE=F BraDBF=F KetDBF=F FulRan=T
         Omega=  0.000000  0.000000  1.000000  0.000000  0.000000 ICntrl=    2127 IOpCl=  0
         NMat0=    1 NMatS0=    1 NMatT0=    0 NMatD0=    1 NMtDS0=    0 NMtDT0=    0
         I1Cent=           0 NGrid=           0.
 Symmetry not used in FoFCou.
 Leave Link  703 at Mon Apr 18 09:32:08 2016, MaxMem=   33554432 cpu:      30.0
 (Enter c:\G09w01\l716.exe)
 Dipole        =-2.62556919D-01 5.39582691D-01-3.31590725D-01
 ***** Axes restored to original set *****
 -------------------------------------------------------------------
 Center     Atomic                   Forces (Hartrees/Bohr)
 Number     Number              X              Y              Z
 -------------------------------------------------------------------
      1        7           0.034000985    0.029952758    0.030821221
      2        1           0.000089459   -0.006236448   -0.001845982
      3        6          -0.142873632    0.000522279    0.020823204
      4        1          -1.741261855   -1.069533057   -0.554835437
      5        6           0.014145159   -0.002699728   -0.028562220
      6        6           1.800750255    1.030331234    0.524350512
      7        1           0.002604389   -0.004697236    0.002506302
      8        1          -0.002964560    0.000949924    0.001529796
      9        1          -0.002183787    0.005907573    0.000629064
     10        8           0.025558821   -0.008709047    0.010178319
     11        1           0.004706543    0.001017733   -0.005667615
     12        8           0.006659325    0.017629475   -0.004580086
     13        1           0.000768897    0.005564541    0.004652921
 -------------------------------------------------------------------
 Cartesian Forces:  Max     1.800750255 RMS     0.482761382
 Leave Link  716 at Mon Apr 18 09:32:08 2016, MaxMem=   33554432 cpu:       0.0
 (Enter c:\G09w01\l103.exe)

 GradGradGradGradGradGradGradGradGradGradGradGradGradGradGradGradGradGrad
 Berny optimization.
 Internal  Forces:  Max     1.845544346 RMS     0.448725584
 Search for a saddle point.
 Step number   1 out of a maximum of   64
 All quantities printed in internal units (Hartrees-Bohrs-Radians)
 Second derivative matrix not updated -- first step.
 ITU=  0
 LST/QST climbing along tangent vector
     Eigenvalues ---    0.00230   0.00479   0.00498   0.00504   0.00851
     Eigenvalues ---    0.00952   0.02355   0.04260   0.05443   0.05614
     Eigenvalues ---    0.15998   0.16000   0.16000   0.16000   0.16000
     Eigenvalues ---    0.16000   0.16000   0.22746   0.22748   0.24986
     Eigenvalues ---    0.25000   0.28102   0.30345   0.34447   0.34451
     Eigenvalues ---    0.34474   0.34479   0.36555   0.45022   0.45133
     Eigenvalues ---    0.53382   0.55056   1.007991000.000001000.00000
     Eigenvalues --- 1000.000001000.000001000.000001000.000001000.00000
     Eigenvalues --- 1000.000001000.000001000.000001000.000001000.00000
     Eigenvalues --- 1000.000001000.000001000.000001000.000001000.00000
     Eigenvalues --- 1000.000001000.000001000.000001000.00000
 Eigenvectors required to have negative eigenvalues:
                          D10       D12       D11       D7        D9
   1                    0.33353   0.33353   0.33353   0.33332   0.33332
                          D8        D13       D15       D14       D19
   1                    0.33332   0.33315   0.33315   0.33315   0.00081
 Eigenvalue     1 is   2.30D-03 should be less than     0.000000 Eigenvector:
                          D10       D12       D11       D7        D9
   1                    0.33353   0.33353   0.33353   0.33332   0.33332
                          D8        D13       D15       D14       D19
   1                    0.33332   0.33315   0.33315   0.33315   0.00081
 QST in optimization variable space.
 Eigenvectors 1 and   4 swapped, overlap=  1.0000
                        Tangent   TS vect  // Eig F  Eigenval
   1         R1         0.00014   0.00014  -0.03358   0.00504
   2         R2         0.00279   0.00279   0.00367   0.00479
   3         R3         0.00088   0.00088   0.00936   0.00498
   4         R4        -0.00081  -0.00081   0.00050   0.00230
   5         R5        -0.00082  -0.00082   0.00223   0.00851
   6         R6         0.00050   0.00050  -0.00911   0.00952
   7         R7        -0.00032  -0.00032  -0.00439   0.02355
   8         R8         0.00007   0.00007   0.00417   0.04260
   9         R9        -0.00002  -0.00002  -0.00248   0.05443
  10         R10        0.00180   0.00180   0.00091   0.05614
  11         R11       -0.00215  -0.00215   0.94737   0.15998
  12         R12        0.00038   0.00038   0.22451   0.16000
  13         A1        -0.00371  -0.00371  -0.00249   0.16000
  14         A2        -0.00572  -0.00572  -0.00164   0.16000
  15         A3        -0.00207  -0.00207  -0.00529   0.16000
  16         A4         0.00123   0.00123   0.00031   0.16000
  17         A5        -0.00009  -0.00009   0.00426   0.16000
  18         A6        -0.00035  -0.00035   0.53060   0.22746
  19         A7        -0.00226  -0.00226  -0.42606   0.22748
  20         A8        -0.00560  -0.00560   0.00984   0.24986
  21         A9         0.00267   0.00267  -0.00253   0.25000
  22         A10       -0.00406  -0.00406  -0.00800   0.28102
  23         A11       -0.00028  -0.00028   0.92279   0.30345
  24         A12        0.00393   0.00393   0.00204   0.34447
  25         A13       -0.00192  -0.00192  -0.00058   0.34451
  26         A14        0.00045   0.00045  -0.00038   0.34474
  27         A15        0.00191   0.00191  -0.67394   0.34479
  28         A16       -0.00158  -0.00158  -0.02438   0.36555
  29         A17        0.00197   0.00197   0.00099   0.45022
  30         A18       -0.00040  -0.00040  -0.00002   0.45133
  31         A19        0.00383   0.00383   0.00058   0.53382
  32         D1        -0.06937  -0.06937   0.00776   0.55056
  33         D2         0.01820   0.01820   0.01309   1.00799
  34         D3         0.18326   0.18326   0.000001000.00000
  35         D4        -0.08003  -0.08003   0.000001000.00000
  36         D5         0.00753   0.00753   0.000001000.00000
  37         D6         0.17259   0.17259   0.000001000.00000
  38         D7         0.01534   0.01534   0.000001000.00000
  39         D8         0.01004   0.01004   0.000001000.00000
  40         D9         0.01487   0.01487   0.000001000.00000
  41         D10        0.11694   0.11694   0.000001000.00000
  42         D11        0.11164   0.11164   0.000001000.00000
  43         D12        0.11647   0.11647   0.000001000.00000
  44         D13       -0.12804  -0.12804   0.000001000.00000
  45         D14       -0.13334  -0.13334   0.000001000.00000
  46         D15       -0.12851  -0.12851   0.000001000.00000
  47         D16       -0.32915  -0.32915   0.000001000.00000
  48         D17       -0.32893  -0.32893   0.000001000.00000
  49         D18        0.52228   0.52228   0.000001000.00000
  50         D19        0.52250   0.52250   0.000001000.00000
  51         D20       -0.18927  -0.18927   0.000001000.00000
  52         D21       -0.18905  -0.18905   0.000001000.00000
  53         D22        0.00268   0.00268   0.000001000.00000
  54         D23        0.00293   0.00293   0.000001000.00000
 RFO step:  Lambda0=3.619908506D-02 Lambda=-1.53096105D+00.
 Linear search not attempted -- option 19 set.
 Maximum step size (   0.300) exceeded in Quadratic search.
    -- Step size scaled by   0.322
 Iteration  1 RMS(Cart)=  0.08199130 RMS(Int)=  0.01755873
 Iteration  2 RMS(Cart)=  0.01075309 RMS(Int)=  0.00858384
 Iteration  3 RMS(Cart)=  0.00116618 RMS(Int)=  0.00856320
 Iteration  4 RMS(Cart)=  0.00004341 RMS(Int)=  0.00856315
 Iteration  5 RMS(Cart)=  0.00000269 RMS(Int)=  0.00856315
 Iteration  6 RMS(Cart)=  0.00000012 RMS(Int)=  0.00856315
 Variable       Old X    -DE/DX   Delta X   Delta X   Delta X     New X
                                 (Linear)    (Quad)   (Total)
    R1        1.91951   0.00197   0.00000   0.00021   0.00021   1.91972
    R2        2.76523  -0.04882   0.00000  -0.00317  -0.00317   2.76206
    R3        1.91822  -0.00007   0.00000   0.00030   0.00030   1.91852
    R4        2.06530  -1.34784   0.00000  -0.11602  -0.11602   1.94928
    R5        2.91916  -0.01593   0.00000  -0.00171  -0.00171   2.91745
    R6        2.87280   1.84554   0.00000   0.16223   0.16223   3.03503
    R7        2.06537   0.00203   0.00000   0.00006   0.00006   2.06543
    R8        2.06575  -0.00125   0.00000  -0.00008  -0.00008   2.06567
    R9        2.06583   0.00410   0.00000   0.00035   0.00035   2.06618
   R10        2.28320   0.02612   0.00000   0.00229   0.00229   2.28549
   R11        2.55082   0.01560   0.00000   0.00046   0.00046   2.55128
   R12        1.83299   0.00115   0.00000   0.00022   0.00022   1.83321
    A1        1.91561   0.00982   0.00000  -0.00035  -0.00035   1.91526
    A2        1.87941   0.00097   0.00000  -0.00189  -0.00189   1.87752
    A3        1.93204  -0.00193   0.00000  -0.00090  -0.00090   1.93114
    A4        1.88988  -0.85410   0.00000  -0.08191  -0.07369   1.81619
    A5        2.20981   0.01613   0.00000   0.00145   0.00228   2.21209
    A6        2.17536   0.82545   0.00000   0.07549   0.06682   2.24218
    A7        2.18340   0.83816   0.00000   0.08010   0.06994   2.25335
    A8        0.28552   1.67982   0.00000   0.15602   0.15143   0.43696
    A9        1.89788  -0.84164   0.00000  -0.07616  -0.06992   1.82796
   A10        1.91774  -0.00856   0.00000  -0.00224  -0.00224   1.91549
   A11        1.94496   0.00409   0.00000   0.00029   0.00029   1.94525
   A12        1.92159   0.00788   0.00000   0.00213   0.00213   1.92372
   A13        1.89518  -0.00025   0.00000  -0.00071  -0.00071   1.89447
   A14        1.89167   0.00122   0.00000   0.00028   0.00028   1.89195
   A15        1.89161  -0.00449   0.00000   0.00025   0.00025   1.89186
   A16        2.17989   0.01609   0.00000   0.00090   0.00090   2.18079
   A17        1.96012  -0.00494   0.00000   0.00024   0.00024   1.96036
   A18        2.14231  -0.01166   0.00000  -0.00120  -0.00120   2.14111
   A19        1.88399  -0.00084   0.00000   0.00126   0.00126   1.88525
    D1        1.90618   0.01663   0.00000  -0.02273  -0.03737   1.86881
    D2       -1.22173  -0.00475   0.00000   0.00589   0.00472  -1.21702
    D3        1.90043  -0.01805   0.00000   0.06254   0.07835   1.97878
    D4       -2.30476   0.02281   0.00000  -0.02584  -0.04048  -2.34524
    D5        0.85051   0.00143   0.00000   0.00278   0.00161   0.85212
    D6       -2.31050  -0.01188   0.00000   0.05943   0.07524  -2.23526
    D7        1.04557   0.00645   0.00000   0.00601   0.00298   1.04855
    D8       -3.13618   0.00308   0.00000   0.00381   0.00078  -3.13540
    D9       -1.03666   0.00538   0.00000   0.00574   0.00271  -1.03395
   D10       -2.08015  -0.00454   0.00000   0.04055   0.05684  -2.02331
   D11        0.02128  -0.00790   0.00000   0.03835   0.05464   0.07593
   D12        2.12080  -0.00561   0.00000   0.04028   0.05657   2.17737
   D13       -2.07915   0.00356   0.00000  -0.04452  -0.05777  -2.13692
   D14        0.02229   0.00020   0.00000  -0.04672  -0.05997  -0.03769
   D15        2.12181   0.00249   0.00000  -0.04479  -0.05805   2.06376
   D16       -1.48142   0.00701   0.00000  -0.11468  -0.11112  -1.59254
   D17        1.70412   0.02015   0.00000  -0.11323  -0.10967   1.59445
   D18       -1.50080  -0.00449   0.00000   0.18260   0.16257  -1.33824
   D19        1.68474   0.00866   0.00000   0.18405   0.16402   1.84876
   D20        1.64371   0.00063   0.00000  -0.06622  -0.04975   1.59395
   D21       -1.45394   0.01377   0.00000  -0.06478  -0.04830  -1.50224
   D22        3.09166  -0.01227   0.00000  -0.00034  -0.00034   3.09132
   D23       -0.00707  -0.00026   0.00000   0.00101   0.00101  -0.00606
         Item               Value     Threshold  Converged?
 Maximum Force            1.845544     0.000450     NO 
 RMS     Force            0.448726     0.000300     NO 
 Maximum Displacement     0.274886     0.001800     NO 
 RMS     Displacement     0.079810     0.001200     NO 
 Predicted change in Energy=-9.274316D-01
 GradGradGradGradGradGradGradGradGradGradGradGradGradGradGradGradGradGrad

 Leave Link  103 at Mon Apr 18 09:32:08 2016, MaxMem=   33554432 cpu:       0.0
 (Enter c:\G09w01\l202.exe)
                          Input orientation:                          
 ---------------------------------------------------------------------
 Center     Atomic      Atomic             Coordinates (Angstroms)
 Number     Number       Type             X           Y           Z
 ---------------------------------------------------------------------
      1          7           0       -1.567076   -1.134455   -0.561241
      2          1           0       -2.011991   -1.666046    0.181359
      3          6           0       -0.722506   -0.090857    0.016630
      4          1           0        0.238722   -0.429049   -0.143634
      5          6           0       -1.197995    1.174365    0.762684
      6          6           0        0.877280    0.041731   -0.033934
      7          1           0       -1.776362    0.887608    1.644652
      8          1           0       -0.353778    1.789225    1.085361
      9          1           0       -1.836543    1.778776    0.112753
     10          8           0        1.636020   -0.404351    0.795548
     11          1           0       -2.302919   -0.725924   -1.128995
     12          8           0        1.298538    0.766082   -1.092502
     13          1           0        2.263825    0.844993   -1.037049
 ---------------------------------------------------------------------
                    Distance matrix (angstroms):
                    1          2          3          4          5
     1  N    0.000000
     2  H    1.015871   0.000000
     3  C    1.461619   2.042334   0.000000
     4  H    1.983154   2.588724   1.031512   0.000000
     5  C    2.686940   3.011390   1.543850   2.335916   0.000000
     6  C    2.763393   3.363145   1.606067   0.800890   2.494840
     7  H    2.999750   2.952609   2.172202   2.998686   1.092980
     8  H    3.568094   3.937740   2.193822   2.604271   1.093104
     9  H    3.002297   3.449969   2.178495   3.040879   1.093373
    10  O    3.554399   3.908592   2.503525   1.683780   3.244236
    11  H    1.015237   1.638748   2.052674   2.742081   2.900070
    12  O    3.479371   4.300881   2.459499   1.857928   3.137051
    13  H    4.338250   5.106118   3.302155   2.553902   3.915575
                    6          7          8          9         10
     6  C    0.000000
     7  H    3.251919   0.000000
     8  H    2.412895   1.774673   0.000000
     9  H    3.225473   1.773278   1.773321   0.000000
    10  O    1.209428   3.746263   2.975746   4.158238   0.000000
    11  H    3.449945   3.251748   3.876661   2.834248   4.395738
    12  O    1.350077   4.118470   2.918914   3.508122   2.246896
    13  H    1.890496   4.849376   3.499721   4.359703   2.305084
                   11         12         13
    11  H    0.000000
    12  O    3.898449   0.000000
    13  H    4.830257   0.970094   0.000000
 Stoichiometry    C3H7NO2
 Framework group  C1[X(C3H7NO2)]
 Deg. of freedom    33
 Full point group                 C1      NOp   1
 Largest Abelian subgroup         C1      NOp   1
 Largest concise Abelian subgroup C1      NOp   1
                         Standard orientation:                         
 ---------------------------------------------------------------------
 Center     Atomic      Atomic             Coordinates (Angstroms)
 Number     Number       Type             X           Y           Z
 ---------------------------------------------------------------------
      1          7           0        1.706190   -1.158506    0.122214
      2          1           0        2.263839   -1.247605   -0.722228
      3          6           0        0.751469   -0.062321   -0.030150
      4          1           0       -0.157522   -0.535966   -0.145966
      5          6           0        1.077618    1.445724   -0.084007
      6          6           0       -0.850900   -0.136802   -0.109637
      7          1           0        1.739040    1.650576   -0.929679
      8          1           0        0.171756    2.046889   -0.197544
      9          1           0        1.584680    1.755728    0.833735
     10          8           0       -1.489930   -0.238217   -1.131436
     11          1           0        2.342413   -0.974737    0.891731
     12          8           0       -1.430583   -0.016897    1.103746
     13          1           0       -2.392561   -0.024031    0.978729
 ---------------------------------------------------------------------
 Rotational constants (GHZ):      4.9475155      2.4713127      2.3173334
 Leave Link  202 at Mon Apr 18 09:32:08 2016, MaxMem=   33554432 cpu:       0.0
 (Enter c:\G09w01\l301.exe)
 Standard basis: 6-311++G(d,p) (5D, 7F)
 Ernie: Thresh=  0.10000D-02 Tol=  0.10000D-05 Strict=F.
 There are   181 symmetry adapted basis functions of A   symmetry.
 Integral buffers will be    262144 words long.
 Raffenetti 2 integral format.
 Two-electron integral symmetry is turned on.
   181 basis functions,   279 primitive gaussians,   187 cartesian basis functions
    24 alpha electrons       24 beta electrons
       nuclear repulsion energy       246.6388252957 Hartrees.
 IExCor=  402 DFT=T Ex+Corr=B3LYP ExCW=0 ScaHFX=  0.200000
 ScaDFX=  0.800000  0.720000  1.000000  0.810000 ScalE2=  1.000000  1.000000
 IRadAn=      0 IRanWt=     -1 IRanGd=            0 ICorTp=0
 NAtoms=   13 NActive=   13 NUniq=   13 SFac= 1.00D+00 NAtFMM=   50 NAOKFM=F Big=F
 Leave Link  301 at Mon Apr 18 09:32:08 2016, MaxMem=   33554432 cpu:       0.0
 (Enter c:\G09w01\l302.exe)
 NPDir=0 NMtPBC=     1 NCelOv=     1 NCel=       1 NClECP=     1 NCelD=      1
         NCelK=      1 NCelE2=     1 NClLst=     1 CellRange=     0.0.
 One-electron integrals computed using PRISM.
 NBasis=   181 RedAO= T  NBF=   181
 NBsUse=   181 1.00D-06 NBFU=   181
 Precomputing XC quadrature grid using
 IXCGrd= 2 IRadAn=           0 IRanWt=          -1 IRanGd=           0 AccXCQ= 0.00D+00.
 NRdTot=     842 NPtTot=      107350 NUsed=      111282 NTot=      111298
 NSgBfM=   187   187   187   187   187 NAtAll=    13    13.
 Leave Link  302 at Mon Apr 18 09:32:08 2016, MaxMem=   33554432 cpu:       0.0
 (Enter c:\G09w01\l303.exe)
 DipDrv:  MaxL=1.
 Leave Link  303 at Mon Apr 18 09:32:08 2016, MaxMem=   33554432 cpu:       0.0
 (Enter c:\G09w01\l401.exe)
 Initial guess read from the read-write file.
 B after Tr=     0.000000    0.000000    0.000000
         Rot=    1.000000    0.000000    0.000000    0.000000 Ang=   0.00 deg.
 Guess basis will be translated and rotated to current coordinates.
 Initial guess orbital symmetries:
       Occupied  (A) (A) (A) (A) (A) (A) (A) (A) (A) (A) (A) (A)
                 (A) (A) (A) (A) (A) (A) (A) (A) (A) (A) (A) (A)
       Virtual   (A) (A) (A) (A) (A) (A) (A) (A) (A) (A) (A) (A)
                 (A) (A) (A) (A) (A) (A) (A) (A) (A) (A) (A) (A)
                 (A) (A) (A) (A) (A) (A) (A) (A) (A) (A) (A) (A)
                 (A) (A) (A) (A) (A) (A) (A) (A) (A) (A) (A) (A)
                 (A) (A) (A) (A) (A) (A) (A) (A) (A) (A) (A) (A)
                 (A) (A) (A) (A) (A) (A) (A) (A) (A) (A) (A) (A)
                 (A) (A) (A) (A) (A) (A) (A) (A) (A) (A) (A) (A)
                 (A) (A) (A) (A) (A) (A) (A) (A) (A) (A) (A) (A)
                 (A) (A) (A) (A) (A) (A) (A) (A) (A) (A) (A) (A)
                 (A) (A) (A) (A) (A) (A) (A) (A) (A) (A) (A) (A)
                 (A) (A) (A) (A) (A) (A) (A) (A) (A) (A) (A) (A)
                 (A) (A) (A) (A) (A) (A) (A) (A) (A) (A) (A) (A)
                 (A) (A) (A) (A) (A) (A) (A) (A) (A) (A) (A) (A)
                 (A)
 The electronic state of the initial guess is 1-A.
 Generating alternative initial guess.
 Harris functional with IExCor=  402 diagonalized for initial guess.
 ExpMin= 3.60D-02 ExpMax= 8.59D+03 ExpMxC= 1.30D+03 IAcc=3 IRadAn=         0 AccDes= 0.00D+00
 HarFok:  IExCor=  402 AccDes= 0.00D+00 IRadAn=         0 IDoV= 1
 ScaDFX=  1.000000  1.000000  1.000000  1.000000
 FoFCou: FMM=F IPFlag=           0 FMFlag=      100000 FMFlg1=           0
         NFxFlg=           0 DoJE=T BraDBF=F KetDBF=T FulRan=T
         Omega=  0.000000  0.000000  1.000000  0.000000  0.000000 ICntrl=     500 IOpCl=  0
         NMat0=    1 NMatS0=    1 NMatT0=    0 NMatD0=    1 NMtDS0=    0 NMtDT0=    0
         I1Cent=           4 NGrid=           0.
 Petite list used in FoFCou.
 Harris En= -323.474424737422    
 Leave Link  401 at Mon Apr 18 09:32:12 2016, MaxMem=   33554432 cpu:       4.0
 (Enter c:\G09w01\l502.exe)
 Closed shell SCF:
 Requested convergence on RMS density matrix=1.00D-08 within 128 cycles.
 Requested convergence on MAX density matrix=1.00D-06.
 Requested convergence on             energy=1.00D-06.
 No special actions if energy rises.
 Using DIIS extrapolation, IDIIS=  1040.
 Integral symmetry usage will be decided dynamically.
       111165 words used for storage of precomputed grid.
 IEnd=      236498 IEndB=      236498 NGot=    33554432 MDV=    33369731
 LenX=    33369731 LenY=    33334321
 Fock matrices will be formed incrementally for  20 cycles.

 Cycle   1  Pass 1  IDiag  1:
 FoFCou: FMM=F IPFlag=           0 FMFlag=      100000 FMFlg1=           0
         NFxFlg=           0 DoJE=F BraDBF=F KetDBF=F FulRan=T
         Omega=  0.000000  0.000000  1.000000  0.000000  0.000000 ICntrl=       0 IOpCl=  0
         NMat0=    1 NMatS0=    1 NMatT0=    0 NMatD0=    1 NMtDS0=    0 NMtDT0=    0
         I1Cent=           0 NGrid=           0.
 Symmetry not used in FoFCou.
 E= -313.776122435473    
 DIIS: error= 8.08D-02 at cycle   1 NSaved=   1.
 NSaved= 1 IEnMin= 1 EnMin= -313.776122435473     IErMin= 1 ErrMin= 8.08D-02
 ErrMax= 8.08D-02 EMaxC= 1.00D-01 BMatC= 4.17D+00 BMatP= 4.17D+00
 IDIUse=3 WtCom= 1.92D-01 WtEn= 8.08D-01
 Coeff-Com:  0.100D+01
 Coeff-En:   0.100D+01
 Coeff:      0.100D+01
 Recover alternate guess density for next cycle.
 RMSDP=2.31D-02 MaxDP=4.94D-01              OVMax= 0.00D+00

 Cycle   2  Pass 1  IDiag  1:
 RMSU=  9.55D-03    CP:  2.74D-01
 E= -323.281105501906     Delta-E=       -9.504983066433 Rises=F Damp=F
 DIIS: error= 3.37D-02 at cycle   2 NSaved=   2.
 NSaved= 2 IEnMin= 2 EnMin= -323.281105501906     IErMin= 2 ErrMin= 3.37D-02
 ErrMax= 3.37D-02 EMaxC= 1.00D-01 BMatC= 2.14D-01 BMatP= 4.17D+00
 IDIUse=3 WtCom= 6.63D-01 WtEn= 3.37D-01
 Coeff-Com:  0.868D-02 0.991D+00
 Coeff-En:   0.000D+00 0.100D+01
 Coeff:      0.575D-02 0.994D+00
 Gap=     0.038 Goal=   None    Shift=    0.000
 RMSDP=1.55D-02 MaxDP=8.44D-01 DE=-9.50D+00 OVMax= 2.39D-01

 Cycle   3  Pass 1  IDiag  1:
 RMSU=  1.09D-02    CP:  3.47D-01  1.01D+00
 E= -323.117236610524     Delta-E=        0.163868891382 Rises=F Damp=F
 DIIS: error= 4.51D-02 at cycle   3 NSaved=   3.
 NSaved= 3 IEnMin= 2 EnMin= -323.281105501906     IErMin= 2 ErrMin= 3.37D-02
 ErrMax= 4.51D-02 EMaxC= 1.00D-01 BMatC= 3.87D-01 BMatP= 2.14D-01
 IDIUse=2 WtCom= 0.00D+00 WtEn= 1.00D+00
 Coeff-En:   0.000D+00 0.648D+00 0.352D+00
 Coeff:      0.000D+00 0.648D+00 0.352D+00
 Gap=     0.078 Goal=   None    Shift=    0.000
 RMSDP=1.12D-02 MaxDP=6.34D-01 DE= 1.64D-01 OVMax= 1.44D-01

 Cycle   4  Pass 1  IDiag  1:
 RMSU=  2.03D-03    CP:  2.97D-01  9.91D-01  3.02D-01
 E= -323.446332182143     Delta-E=       -0.329095571619 Rises=F Damp=F
 DIIS: error= 6.28D-03 at cycle   4 NSaved=   4.
 NSaved= 4 IEnMin= 4 EnMin= -323.446332182143     IErMin= 4 ErrMin= 6.28D-03
 ErrMax= 6.28D-03 EMaxC= 1.00D-01 BMatC= 8.20D-03 BMatP= 2.14D-01
 IDIUse=3 WtCom= 9.37D-01 WtEn= 6.28D-02
 Coeff-Com:  0.179D-02 0.224D+00 0.992D-01 0.675D+00
 Coeff-En:   0.000D+00 0.000D+00 0.000D+00 0.100D+01
 Coeff:      0.167D-02 0.210D+00 0.930D-01 0.696D+00
 Gap=     0.080 Goal=   None    Shift=    0.000
 RMSDP=1.17D-03 MaxDP=5.37D-02 DE=-3.29D-01 OVMax= 4.03D-02

 Cycle   5  Pass 1  IDiag  1:
 RMSU=  4.75D-04    CP:  2.92D-01  9.91D-01  2.41D-01  9.37D-01
 E= -323.449699834387     Delta-E=       -0.003367652243 Rises=F Damp=F
 DIIS: error= 6.46D-03 at cycle   5 NSaved=   5.
 NSaved= 5 IEnMin= 5 EnMin= -323.449699834387     IErMin= 4 ErrMin= 6.28D-03
 ErrMax= 6.46D-03 EMaxC= 1.00D-01 BMatC= 4.69D-03 BMatP= 8.20D-03
 IDIUse=3 WtCom= 9.35D-01 WtEn= 6.46D-02
 Coeff-Com: -0.397D-03 0.601D-01-0.324D-02 0.491D+00 0.453D+00
 Coeff-En:   0.000D+00 0.000D+00 0.000D+00 0.344D+00 0.656D+00
 Coeff:     -0.371D-03 0.562D-01-0.303D-02 0.481D+00 0.466D+00
 Gap=     0.076 Goal=   None    Shift=    0.000
 RMSDP=5.42D-04 MaxDP=1.46D-02 DE=-3.37D-03 OVMax= 2.99D-02

 Cycle   6  Pass 1  IDiag  1:
 RMSU=  2.47D-04    CP:  2.92D-01  9.87D-01  2.58D-01  9.50D-01  5.31D-01
 E= -323.452957397089     Delta-E=       -0.003257562703 Rises=F Damp=F
 DIIS: error= 1.92D-03 at cycle   6 NSaved=   6.
 NSaved= 6 IEnMin= 6 EnMin= -323.452957397089     IErMin= 6 ErrMin= 1.92D-03
 ErrMax= 1.92D-03 EMaxC= 1.00D-01 BMatC= 4.54D-04 BMatP= 4.69D-03
 IDIUse=3 WtCom= 9.81D-01 WtEn= 1.92D-02
 Coeff-Com:  0.953D-04 0.145D-01-0.106D-01 0.237D+00 0.301D+00 0.458D+00
 Coeff-En:   0.000D+00 0.000D+00 0.000D+00 0.000D+00 0.623D-01 0.938D+00
 Coeff:      0.934D-04 0.143D-01-0.104D-01 0.232D+00 0.296D+00 0.467D+00
 Gap=     0.081 Goal=   None    Shift=    0.000
 RMSDP=1.75D-04 MaxDP=3.88D-03 DE=-3.26D-03 OVMax= 8.15D-03

 Cycle   7  Pass 1  IDiag  1:
 RMSU=  5.78D-05    CP:  2.92D-01  9.87D-01  2.54D-01  9.59D-01  5.80D-01
                    CP:  6.20D-01
 E= -323.453311693596     Delta-E=       -0.000354296507 Rises=F Damp=F
 DIIS: error= 2.16D-04 at cycle   7 NSaved=   7.
 NSaved= 7 IEnMin= 7 EnMin= -323.453311693596     IErMin= 7 ErrMin= 2.16D-04
 ErrMax= 2.16D-04 EMaxC= 1.00D-01 BMatC= 1.47D-05 BMatP= 4.54D-04
 IDIUse=3 WtCom= 9.98D-01 WtEn= 2.16D-03
 Coeff-Com:  0.207D-04 0.132D-02-0.532D-02 0.615D-01 0.876D-01 0.214D+00
 Coeff-Com:  0.641D+00
 Coeff-En:   0.000D+00 0.000D+00 0.000D+00 0.000D+00 0.000D+00 0.000D+00
 Coeff-En:   0.100D+01
 Coeff:      0.206D-04 0.132D-02-0.531D-02 0.614D-01 0.874D-01 0.213D+00
 Coeff:      0.642D+00
 Gap=     0.081 Goal=   None    Shift=    0.000
 RMSDP=4.12D-05 MaxDP=2.28D-03 DE=-3.54D-04 OVMax= 2.54D-03

 Cycle   8  Pass 1  IDiag  1:
 RMSU=  2.72D-05    CP:  2.93D-01  9.87D-01  2.54D-01  9.63D-01  5.78D-01
                    CP:  6.11D-01  9.70D-01
 E= -323.453323944663     Delta-E=       -0.000012251067 Rises=F Damp=F
 DIIS: error= 7.82D-05 at cycle   8 NSaved=   8.
 NSaved= 8 IEnMin= 8 EnMin= -323.453323944663     IErMin= 8 ErrMin= 7.82D-05
 ErrMax= 7.82D-05 EMaxC= 1.00D-01 BMatC= 1.61D-06 BMatP= 1.47D-05
 IDIUse=1 WtCom= 1.00D+00 WtEn= 0.00D+00
 Coeff-Com: -0.378D-05-0.116D-04-0.220D-02 0.181D-01 0.275D-01 0.873D-01
 Coeff-Com:  0.361D+00 0.508D+00
 Coeff:     -0.378D-05-0.116D-04-0.220D-02 0.181D-01 0.275D-01 0.873D-01
 Coeff:      0.361D+00 0.508D+00
 Gap=     0.081 Goal=   None    Shift=    0.000
 RMSDP=2.11D-05 MaxDP=1.04D-03 DE=-1.23D-05 OVMax= 1.40D-03

 Cycle   9  Pass 1  IDiag  1:
 RMSU=  1.25D-05    CP:  2.92D-01  9.87D-01  2.54D-01  9.61D-01  5.86D-01
                    CP:  6.26D-01  9.95D-01  9.74D-01
 E= -323.453326182470     Delta-E=       -0.000002237807 Rises=F Damp=F
 DIIS: error= 1.97D-05 at cycle   9 NSaved=   9.
 NSaved= 9 IEnMin= 9 EnMin= -323.453326182470     IErMin= 9 ErrMin= 1.97D-05
 ErrMax= 1.97D-05 EMaxC= 1.00D-01 BMatC= 1.16D-07 BMatP= 1.61D-06
 IDIUse=1 WtCom= 1.00D+00 WtEn= 0.00D+00
 Coeff-Com:  0.706D-06-0.148D-03-0.198D-04-0.314D-02-0.474D-02-0.326D-02
 Coeff-Com:  0.288D-01 0.169D+00 0.814D+00
 Coeff:      0.706D-06-0.148D-03-0.198D-04-0.314D-02-0.474D-02-0.326D-02
 Coeff:      0.288D-01 0.169D+00 0.814D+00
 Gap=     0.081 Goal=   None    Shift=    0.000
 RMSDP=1.59D-05 MaxDP=3.55D-04 DE=-2.24D-06 OVMax= 1.72D-03

 Cycle  10  Pass 1  IDiag  1:
 RMSU=  3.81D-06    CP:  2.92D-01  9.87D-01  2.54D-01  9.61D-01  5.92D-01
                    CP:  6.38D-01  1.07D+00  1.16D+00  1.57D+00
 E= -323.453327129562     Delta-E=       -0.000000947092 Rises=F Damp=F
 DIIS: error= 1.26D-05 at cycle  10 NSaved=  10.
 NSaved=10 IEnMin=10 EnMin= -323.453327129562     IErMin=10 ErrMin= 1.26D-05
 ErrMax= 1.26D-05 EMaxC= 1.00D-01 BMatC= 3.52D-08 BMatP= 1.16D-07
 IDIUse=1 WtCom= 1.00D+00 WtEn= 0.00D+00
 Coeff-Com: -0.741D-05-0.488D-04 0.344D-03-0.421D-02-0.701D-02-0.165D-01
 Coeff-Com: -0.431D-01-0.674D-02 0.261D+00 0.816D+00
 Coeff:     -0.741D-05-0.488D-04 0.344D-03-0.421D-02-0.701D-02-0.165D-01
[...]
   D21        0.04456  -0.00329   0.00000  -0.01397  -0.01408   0.03048
   D22        0.38964  -0.00075   0.00000  -0.04511  -0.04514   0.34450
   D23       -0.91768   0.00510   0.00000   0.01150   0.01153  -0.90616
         Item               Value     Threshold  Converged?
 Maximum Force            0.028947     0.000450     NO 
 RMS     Force            0.006668     0.000300     NO 
 Maximum Displacement     0.198199     0.001800     NO 
 RMS     Displacement     0.064204     0.001200     NO 
 Predicted change in Energy=-3.558444D-03
 Optimization stopped.
    -- Number of steps exceeded,  NStep=  64
    -- Flag reset to prevent archiving.
                           ----------------------------
                           ! Non-Optimized Parameters !
                           ! (Angstroms and Degrees)  !
 --------------------------                            --------------------------
 ! Name  Definition        TS        Reactant  Product Derivative Info.         !
 --------------------------------------------------------------------------------
 ! R1    R(1,2)             1.0139    1.0155    1.016  -DE/DX =   -0.0003       !
 ! R2    R(1,3)             1.4309    1.4588    1.4678 -DE/DX =    0.0018       !
 ! R3    R(1,11)            1.0159    1.0137    1.0165 -DE/DX =    0.0002       !
 ! R4    R(3,4)             2.087     1.0942    1.0916 -DE/DX =    0.022        !
 ! R5    R(3,5)             1.5209    1.5461    1.5434 -DE/DX =   -0.0003       !
 ! R6    R(3,6)             1.4761    1.5194    1.521  -DE/DX =   -0.0289       !
 ! R7    R(5,7)             1.0924    1.0935    1.0924 -DE/DX =    0.0003       !
 ! R8    R(5,8)             1.0951    1.093     1.0933 -DE/DX =   -0.0004       !
 ! R9    R(5,9)             1.0892    1.0932    1.0932 -DE/DX =   -0.0002       !
 ! R10   R(6,10)            1.4217    1.2053    1.2111 -DE/DX =   -0.0019       !
 ! R11   R(6,12)            1.3636    1.3533    1.3464 -DE/DX =   -0.0007       !
 ! R12   R(12,13)           0.965     0.9694    0.9706 -DE/DX =    0.0          !
 ! A1    A(2,1,3)         112.3489  110.397   109.1025 -DE/DX =    0.0007       !
 ! A2    A(2,1,11)        107.8682  108.6676  106.6705 -DE/DX =    0.0001       !
 ! A3    A(3,1,11)        111.1599  111.0515  110.331  -DE/DX =    0.0009       !
 ! A4    A(1,3,4)          88.244   108.8891  107.7076 -DE/DX =    0.004        !
 ! A5    A(1,3,5)         113.6887  115.2856  115.0407 -DE/DX =   -0.0004       !
 ! A6    A(1,3,6)         117.9135  108.2548  110.5809 -DE/DX =   -0.0087       !
 ! A7    A(4,3,5)         143.8682  108.2732  108.6378 -DE/DX =    0.0008       !
 ! A8    A(4,3,6)          29.6787  107.3259  105.4566 -DE/DX =   -0.0136       !
 ! A9    A(5,3,6)         121.3569  108.5388  108.9598 -DE/DX =    0.0075       !
 ! A10   A(3,5,7)         111.1713  110.5846  109.1695 -DE/DX =    0.0003       !
 ! A11   A(3,5,8)         110.8578  111.4838  111.3845 -DE/DX =    0.0001       !
 ! A12   A(3,5,9)         110.3318  109.4138  110.7835 -DE/DX =   -0.0003       !
 ! A13   A(7,5,8)         108.2265  108.9163  108.2469 -DE/DX =   -0.0009       !
 ! A14   A(7,5,9)         108.6221  108.308   108.4659 -DE/DX =    0.0029       !
 ! A15   A(8,5,9)         107.5169  108.0458  108.7105 -DE/DX =   -0.0021       !
 ! A16   A(3,6,10)         58.9195  125.1745  124.6222 -DE/DX =   -0.0092       !
 ! A17   A(3,6,12)        129.142   111.962   112.6506 -DE/DX =    0.0049       !
 ! A18   A(10,6,12)       118.5704  122.815   122.6757 -DE/DX =    0.007        !
 ! A19   A(6,12,13)       109.5766  107.2766  108.6131 -DE/DX =    0.0          !
 ! D1    D(2,1,3,4)         6.4     159.8487   59.2258 -DE/DX =   -0.0027       !
 ! D2    D(2,1,3,5)       156.7357  -78.2711  -62.0692 -DE/DX =    0.0016       !
 ! D3    D(2,1,3,6)         5.6322   43.4703  173.9801 -DE/DX =    0.0033       !
 ! D4    D(11,1,3,4)      127.3885  -79.5522  176.1029 -DE/DX =   -0.0016       !
 ! D5    D(11,1,3,5)      -82.2757   42.328    54.8079 -DE/DX =    0.0028       !
 ! D6    D(11,1,3,6)      126.6207  164.0694  -69.1429 -DE/DX =    0.0045       !
 ! D7    D(1,3,5,7)       124.3682   60.0762   59.4386 -DE/DX =    0.0006       !
 ! D8    D(1,3,5,8)      -115.2006 -178.5935  178.9195 -DE/DX =   -0.0002       !
 ! D9    D(1,3,5,9)         3.791   -59.1421  -59.9425 -DE/DX =   -0.0029       !
 ! D10   D(4,3,5,7)      -112.6615 -177.7128  -61.3491 -DE/DX =    0.0098       !
 ! D11   D(4,3,5,8)         7.7697  -56.3825   58.1318 -DE/DX =    0.009        !
 ! D12   D(4,3,5,9)       126.7612   63.0689  179.2699 -DE/DX =    0.0062       !
 ! D13   D(6,3,5,7)       -85.6346  -61.5121 -175.7589 -DE/DX =   -0.0055       !
 ! D14   D(6,3,5,8)        34.7967   59.8182  -56.278  -DE/DX =   -0.0063       !
 ! D15   D(6,3,5,9)       153.7882  179.2696   64.8601 -DE/DX =   -0.0091       !
 ! D16   D(1,3,6,10)     -106.2046  -28.5941 -141.6008 -DE/DX =   -0.0062       !
 ! D17   D(1,3,6,12)      150.5349  153.8859   40.9557 -DE/DX =   -0.0075       !
 ! D18   D(4,3,6,10)     -107.7547 -145.9808  -25.4386 -DE/DX =    0.0006       !
 ! D19   D(4,3,6,12)      148.9848   36.4992  157.1179 -DE/DX =   -0.0007       !
 ! D20   D(5,3,6,10)      105.0069   97.2085   91.0225 -DE/DX =   -0.002        !
 ! D21   D(5,3,6,12)        1.7464  -80.3115  -86.421  -DE/DX =   -0.0033       !
 ! D22   D(3,6,12,13)      19.7381  176.6707  177.6073 -DE/DX =   -0.0007       !
 ! D23   D(10,6,12,13)    -51.919    -0.9173    0.1066 -DE/DX =    0.0051       !
 --------------------------------------------------------------------------------
 GradGradGradGradGradGradGradGradGradGradGradGradGradGradGradGradGradGrad

 Largest change from initial coordinates is atom    2       1.347 Angstoms.
 Leave Link  103 at Mon Apr 18 12:09:11 2016, MaxMem=   33554432 cpu:       0.0
 (Enter c:\G09w01\l202.exe)
                          Input orientation:                          
 ---------------------------------------------------------------------
 Center     Atomic      Atomic             Coordinates (Angstroms)
 Number     Number       Type             X           Y           Z
 ---------------------------------------------------------------------
      1          7           0       -1.761613   -0.775047   -0.346261
      2          1           0       -1.464329   -1.549499   -0.932566
      3          6           0       -0.654377    0.007988    0.083573
      4          1           0        0.561350   -0.998939   -1.252147
      5          6           0       -1.024839    1.406712    0.541006
      6          6           0        0.699222   -0.318709   -0.424169
      7          1           0       -0.717330    1.575847    1.577144
      8          1           0       -0.567657    2.168632   -0.096265
      9          1           0       -2.108633    1.520106    0.538291
     10          8           0        0.363921   -0.781735    0.863814
     11          1           0       -2.239734   -1.178177    0.454657
     12          8           0        1.784169    0.512490   -0.513314
     13          1           0        1.675063    1.242430    0.107869
 ---------------------------------------------------------------------
                    Distance matrix (angstroms):
                    1          2          3          4          5
     1  N    0.000000
     2  H    1.015828   0.000000
     3  C    1.422629   2.028380   0.000000
     4  H    2.503380   2.123352   2.067859   0.000000
     5  C    2.467823   3.332229   1.517537   3.393899   0.000000
     6  C    2.504002   2.540525   1.482148   1.080402   2.623172
     7  H    3.211965   4.077308   2.166310   4.033538   1.093961
     8  H    3.186421   3.915089   2.169850   3.555872   1.093459
     9  H    2.484066   3.464250   2.146656   4.084123   1.089713
    10  O    2.445858   2.675619   1.506442   2.136222   2.611927
    11  H    1.016161   1.632030   2.014459   3.285023   2.857459
    12  O    3.776007   3.870441   2.560723   2.079802   3.130775
    13  H    4.010884   4.328182   2.636423   2.848462   2.739356
                    6          7          8          9         10
     6  C    0.000000
     7  H    3.098583   0.000000
     8  H    2.810582   1.781599   0.000000
     9  H    3.491651   1.737253   1.788255   0.000000
    10  O    1.409156   2.690007   3.239484   3.393812   0.000000
    11  H    3.185668   3.341008   3.781598   2.702760   2.665256
    12  O    1.369653   3.429029   2.906514   4.156329   2.364023
    13  H    1.916373   2.827274   2.435019   3.818210   2.527408
                   11         12         13
    11  H    0.000000
    12  O    4.470695   0.000000
    13  H    4.615759   0.964668   0.000000
 Stoichiometry    C3H7NO2
 Framework group  C1[X(C3H7NO2)]
 Deg. of freedom    33
 Full point group                 C1      NOp   1
 Largest Abelian subgroup         C1      NOp   1
 Largest concise Abelian subgroup C1      NOp   1
                         Standard orientation:                         
 ---------------------------------------------------------------------
 Center     Atomic      Atomic             Coordinates (Angstroms)
 Number     Number       Type             X           Y           Z
 ---------------------------------------------------------------------
      1          7           0       -1.672073   -0.716066   -0.432658
      2          1           0       -1.410423   -1.637023   -0.772195
      3          6           0       -0.532000    0.035204   -0.033034
      4          1           0        0.694183   -1.386267   -0.900175
      5          6           0       -0.766942    1.533230    0.027295
      6          6           0        0.818312   -0.539484   -0.240767
      7          1           0       -0.569378    1.922079    1.030548
      8          1           0       -0.137880    2.064618   -0.692121
      9          1           0       -1.817481    1.749303   -0.165460
     10          8           0        0.268828   -0.633900    1.053401
     11          1           0       -2.294223   -0.859082    0.357949
     12          8           0        2.006627    0.132034   -0.354436
     13          1           0        1.919858    1.000060    0.057374
 ---------------------------------------------------------------------
 Rotational constants (GHZ):      5.6647289      3.0759999      2.5091573
 Leave Link  202 at Mon Apr 18 12:09:11 2016, MaxMem=   33554432 cpu:       0.0
 (Enter c:\G09w01\l601.exe)
 Copying SCF densities to generalized density rwf, IOpCl= 0 IROHF=0.

 **********************************************************************

            Population analysis using the SCF density.

 **********************************************************************

 Orbital symmetries:
       Occupied  (A) (A) (A) (A) (A) (A) (A) (A) (A) (A) (A) (A)
                 (A) (A) (A) (A) (A) (A) (A) (A) (A) (A) (A) (A)
       Virtual   (A) (A) (A) (A) (A) (A) (A) (A) (A) (A) (A) (A)
                 (A) (A) (A) (A) (A) (A) (A) (A) (A) (A) (A) (A)
                 (A) (A) (A) (A) (A) (A) (A) (A) (A) (A) (A) (A)
                 (A) (A) (A) (A) (A) (A) (A) (A) (A) (A) (A) (A)
                 (A) (A) (A) (A) (A) (A) (A) (A) (A) (A) (A) (A)
                 (A) (A) (A) (A) (A) (A) (A) (A) (A) (A) (A) (A)
                 (A) (A) (A) (A) (A) (A) (A) (A) (A) (A) (A) (A)
                 (A) (A) (A) (A) (A) (A) (A) (A) (A) (A) (A) (A)
                 (A) (A) (A) (A) (A) (A) (A) (A) (A) (A) (A) (A)
                 (A) (A) (A) (A) (A) (A) (A) (A) (A) (A) (A) (A)
                 (A) (A) (A) (A) (A) (A) (A) (A) (A) (A) (A) (A)
                 (A) (A) (A) (A) (A) (A) (A) (A) (A) (A) (A) (A)
                 (A) (A) (A) (A) (A) (A) (A) (A) (A) (A) (A) (A)
                 (A)
 The electronic state is 1-A.
 Alpha  occ. eigenvalues --  -19.15827 -19.13615 -14.31953 -10.28444 -10.26612
 Alpha  occ. eigenvalues --  -10.18325  -1.10659  -1.03804  -0.90429  -0.75342
 Alpha  occ. eigenvalues --   -0.68086  -0.61094  -0.55128  -0.52414  -0.48550
 Alpha  occ. eigenvalues --   -0.47051  -0.44019  -0.41894  -0.40875  -0.40332
 Alpha  occ. eigenvalues --   -0.34981  -0.31457  -0.27623  -0.26854
 Alpha virt. eigenvalues --   -0.01564  -0.00498   0.01304   0.02386   0.03501
 Alpha virt. eigenvalues --    0.04156   0.04713   0.05583   0.06916   0.07719
 Alpha virt. eigenvalues --    0.08392   0.09278   0.10333   0.10772   0.11161
 Alpha virt. eigenvalues --    0.11890   0.13225   0.13824   0.14936   0.15518
 Alpha virt. eigenvalues --    0.15832   0.16606   0.16835   0.18190   0.19141
 Alpha virt. eigenvalues --    0.19730   0.20654   0.21558   0.21998   0.23565
 Alpha virt. eigenvalues --    0.25316   0.26314   0.27836   0.29065   0.29513
 Alpha virt. eigenvalues --    0.30008   0.31208   0.32130   0.32780   0.34397
 Alpha virt. eigenvalues --    0.36131   0.36968   0.37382   0.40729   0.45487
 Alpha virt. eigenvalues --    0.46132   0.53392   0.53541   0.55103   0.57361
 Alpha virt. eigenvalues --    0.59156   0.60581   0.61893   0.63609   0.64127
 Alpha virt. eigenvalues --    0.67519   0.68133   0.69020   0.71884   0.73710
 Alpha virt. eigenvalues --    0.78342   0.82047   0.84549   0.87299   0.91629
 Alpha virt. eigenvalues --    0.97157   1.01426   1.06349   1.08920   1.12209
 Alpha virt. eigenvalues --    1.18164   1.19465   1.20446   1.21968   1.29899
 Alpha virt. eigenvalues --    1.33092   1.35779   1.41475   1.42340   1.43813
 Alpha virt. eigenvalues --    1.44762   1.47819   1.50951   1.53319   1.54904
 Alpha virt. eigenvalues --    1.57733   1.59672   1.62915   1.65074   1.65580
 Alpha virt. eigenvalues --    1.68443   1.72024   1.75525   1.77937   1.79836
 Alpha virt. eigenvalues --    1.87596   1.91657   1.93817   1.96670   2.01060
 Alpha virt. eigenvalues --    2.03866   2.06449   2.13287   2.14791   2.24190
 Alpha virt. eigenvalues --    2.25746   2.39342   2.42193   2.44948   2.50486
 Alpha virt. eigenvalues --    2.52913   2.56294   2.56457   2.58114   2.61581
 Alpha virt. eigenvalues --    2.64051   2.66408   2.70106   2.73078   2.76119
 Alpha virt. eigenvalues --    2.79986   2.85408   2.94945   2.96764   2.98281
 Alpha virt. eigenvalues --    3.03741   3.07391   3.12251   3.13260   3.19354
 Alpha virt. eigenvalues --    3.21814   3.25295   3.31277   3.44769   3.62488
 Alpha virt. eigenvalues --    3.71813   3.80507   3.83958   3.85197   3.95330
 Alpha virt. eigenvalues --    3.99922   4.15588   4.39135   4.71978   4.86378
 Alpha virt. eigenvalues --    5.00535   5.10068   5.29475   5.47676   5.52233
 Alpha virt. eigenvalues --    5.84836  23.69374  23.81290  23.95612  35.59313
 Alpha virt. eigenvalues --   49.89365  49.91790
          Condensed to atoms (all electrons):
              1          2          3          4          5          6
     1  N    6.613139   0.398022   0.099771  -0.000623  -0.135474   0.096779
     2  H    0.398022   0.479175  -0.045160   0.010791   0.016002  -0.040732
     3  C    0.099771  -0.045160   7.460024  -0.009616  -0.168709  -1.537925
     4  H   -0.000623   0.010791  -0.009616   0.721193  -0.022638   0.285334
     5  C   -0.135474   0.016002  -0.168709  -0.022638   5.916443  -0.140202
     6  C    0.096779  -0.040732  -1.537925   0.285334  -0.140202   7.319443
     7  H    0.001011  -0.000536  -0.074759  -0.003227   0.416911   0.035834
     8  H    0.010013   0.000386  -0.001520  -0.000226   0.357013  -0.027607
     9  H   -0.011302   0.002186   0.016397   0.000221   0.386798  -0.035127
    10  O   -0.151754   0.000617   0.361893  -0.034544  -0.141305   0.033310
    11  H    0.403097  -0.049601  -0.087792   0.005346  -0.041527   0.064902
    12  O    0.005336   0.002857   0.001088  -0.135803   0.093854   0.122388
    13  H   -0.004950  -0.001193   0.019161   0.025844  -0.010712  -0.038035
              7          8          9         10         11         12
     1  N    0.001011   0.010013  -0.011302  -0.151754   0.403097   0.005336
     2  H   -0.000536   0.000386   0.002186   0.000617  -0.049601   0.002857
     3  C   -0.074759  -0.001520   0.016397   0.361893  -0.087792   0.001088
     4  H   -0.003227  -0.000226   0.000221  -0.034544   0.005346  -0.135803
     5  C    0.416911   0.357013   0.386798  -0.141305  -0.041527   0.093854
     6  C    0.035834  -0.027607  -0.035127   0.033310   0.064902   0.122388
     7  H    0.542208  -0.048738  -0.036591  -0.008785   0.004123  -0.006577
     8  H   -0.048738   0.559220  -0.011621   0.003574  -0.002439   0.007298
     9  H   -0.036591  -0.011621   0.515390   0.007835   0.000847   0.003282
    10  O   -0.008785   0.003574   0.007835   8.179590  -0.007990  -0.074886
    11  H    0.004123  -0.002439   0.000847  -0.007990   0.450107  -0.003396
    12  O   -0.006577   0.007298   0.003282  -0.074886  -0.003396   7.974026
    13  H   -0.007805   0.004066   0.001466  -0.000500  -0.000079   0.239179
             13
     1  N   -0.004950
     2  H   -0.001193
     3  C    0.019161
     4  H    0.025844
     5  C   -0.010712
     6  C   -0.038035
     7  H   -0.007805
     8  H    0.004066
     9  H    0.001466
    10  O   -0.000500
    11  H   -0.000079
    12  O    0.239179
    13  H    0.504388
 Mulliken atomic charges:
              1
     1  N   -0.323067
     2  H    0.227186
     3  C   -0.032852
     4  H    0.157949
     5  C   -0.526455
     6  C   -0.138364
     7  H    0.186933
     8  H    0.150581
     9  H    0.160220
    10  O   -0.167054
    11  H    0.264401
    12  O   -0.228645
    13  H    0.269169
 Sum of Mulliken atomic charges =   0.00000
 Mulliken charges with hydrogens summed into heavy atoms:
              1
     1  N    0.168520
     3  C   -0.032852
     5  C   -0.028722
     6  C    0.019585
    10  O   -0.167054
    12  O    0.040523
 Sum of Mulliken charges with hydrogens summed into heavy atoms =   0.00000
 Electronic spatial extent (au):  <R**2>=            552.5497
 Charge=              0.0000 electrons
 Dipole moment (field-independent basis, Debye):
    X=             -1.4197    Y=              0.9467    Z=             -0.4216  Tot=              1.7577
 Quadrupole moment (field-independent basis, Debye-Ang):
   XX=            -39.3284   YY=            -31.6461   ZZ=            -40.6506
   XY=              3.4020   XZ=             -2.0028   YZ=              3.0438
 Traceless Quadrupole moment (field-independent basis, Debye-Ang):
   XX=             -2.1200   YY=              5.5622   ZZ=             -3.4422
   XY=              3.4020   XZ=             -2.0028   YZ=              3.0438
 Octapole moment (field-independent basis, Debye-Ang**2):
  XXX=             -5.5954  YYY=             -4.6001  ZZZ=              0.1852  XYY=              1.5491
  XXY=              1.2151  XXZ=             12.6698  XZZ=              1.6810  YZZ=              0.1998
  YYZ=             -3.4713  XYZ=              1.6298
 Hexadecapole moment (field-independent basis, Debye-Ang**3):
 XXXX=           -396.6860 YYYY=           -216.2461 ZZZZ=           -108.5890 XXXY=             20.7492
 XXXZ=            -10.3250 YYYX=             14.6746 YYYZ=              6.0013 ZZZX=             -6.1050
 ZZZY=              3.2619 XXYY=            -83.1587 XXZZ=            -88.2682 YYZZ=            -52.1453
 XXYZ=             -1.2438 YYXZ=              1.2117 ZZXY=              1.6502
 N-N= 2.552771708370D+02 E-N=-1.268983560673D+03  KE= 3.225873338536D+02
 No NMR shielding tensors so no spin-rotation constants.
 Leave Link  601 at Mon Apr 18 12:09:11 2016, MaxMem=   33554432 cpu:       0.0
 (Enter c:\G09w01\l9999.exe)


 SLITHERY-DITHERY
 FRIEDRICH A. KEKULE
 DREAMT ON A BUS OF THINGS
 FREUD WOULD THINK KEEN.
 MOST OF THE TIME THEY WERE
 HERPETOLOGICAL
 BITING THEIR TAILS IN THE
 SHAPE OF BENZENE.
 Error termination request processed by link 9999.
 Error termination via Lnk1e in c:\G09w01\l9999.exe at Mon Apr 18 12:09:11 2016.
 Job cpu time:  0 days  2 hours 40 minutes 30.0 seconds.
 File lengths (MBytes):  RWF=     26 Int=      0 D2E=      0 Chk=      3 Scr=      1
