 Entering Link 1 = c:\G03W03\l1.exe PID=      5148.
  
 Copyright (c) 1988,1990,1992,1993,1995,1998,2003,2004,2007, Gaussian, Inc.
                  All Rights Reserved.
  
 This is the Gaussian(R) 03 program.  It is based on the
 the Gaussian(R) 98 system (copyright 1998, Gaussian, Inc.),
 the Gaussian(R) 94 system (copyright 1995, Gaussian, Inc.),
 the Gaussian 92(TM) system (copyright 1992, Gaussian, Inc.),
 the Gaussian 90(TM) system (copyright 1990, Gaussian, Inc.),
 the Gaussian 88(TM) system (copyright 1988, Gaussian, Inc.),
 the Gaussian 86(TM) system (copyright 1986, Carnegie Mellon
 University), and the Gaussian 82(TM) system (copyright 1983,
 Carnegie Mellon University). Gaussian is a federally registered
 trademark of Gaussian, Inc.
  
 This software contains proprietary and confidential information,
 including trade secrets, belonging to Gaussian, Inc.
  
 This software is provided under written license and may be
 used, copied, transmitted, or stored only in accord with that
 written license.
  
 The following legend is applicable only to US Government
 contracts under FAR:
  
                    RESTRICTED RIGHTS LEGEND
  
 Use, reproduction and disclosure by the US Government is
 subject to restrictions as set forth in subparagraphs (a)
 and (c) of the Commercial Computer Software - Restricted
 Rights clause in FAR 52.227-19.
  
 Gaussian, Inc.
 340 Quinnipiac St., Bldg. 40, Wallingford CT 06492
  
  
 ---------------------------------------------------------------
 Warning -- This program may not be used in any manner that
 competes with the business of Gaussian, Inc. or will provide
 assistance to any competitor of Gaussian, Inc.  The licensee
 of this program is prohibited from giving any competitor of
 Gaussian, Inc. access to this program.  By using this program,
 the user acknowledges that Gaussian, Inc. is engaged in the
 business of creating and licensing software in the field of
 computational chemistry and represents and warrants to the
 licensee that it is not a competitor of Gaussian, Inc. and that
 it will not use this program in any manner prohibited above.
 ---------------------------------------------------------------
  

 Cite this work as:
 Gaussian 03, Revision E.01,
 M. J. Frisch, G. W. Trucks, H. B. Schlegel, G. E. Scuseria, 
 M. A. Robb, J. R. Cheeseman, J. A. Montgomery, Jr., T. Vreven, 
 K. N. Kudin, J. C. Burant, J. M. Millam, S. S. Iyengar, J. Tomasi, 
 V. Barone, B. Mennucci, M. Cossi, G. Scalmani, N. Rega, 
 G. A. Petersson, H. Nakatsuji, M. Hada, M. Ehara, K. Toyota, 
 R. Fukuda, J. Hasegawa, M. Ishida, T. Nakajima, Y. Honda, O. Kitao, 
 H. Nakai, M. Klene, X. Li, J. E. Knox, H. P. Hratchian, J. B. Cross, 
 V. Bakken, C. Adamo, J. Jaramillo, R. Gomperts, R. E. Stratmann, 
 O. Yazyev, A. J. Austin, R. Cammi, C. Pomelli, J. W. Ochterski, 
 P. Y. Ayala, K. Morokuma, G. A. Voth, P. Salvador, J. J. Dannenberg, 
 V. G. Zakrzewski, S. Dapprich, A. D. Daniels, M. C. Strain, 
 O. Farkas, D. K. Malick, A. D. Rabuck, K. Raghavachari, 
 J. B. Foresman, J. V. Ortiz, Q. Cui, A. G. Baboul, S. Clifford, 
 J. Cioslowski, B. B. Stefanov, G. Liu, A. Liashenko, P. Piskorz, 
 I. Komaromi, R. L. Martin, D. J. Fox, T. Keith, M. A. Al-Laham, 
 C. Y. Peng, A. Nanayakkara, M. Challacombe, P. M. W. Gill, 
 B. Johnson, W. Chen, M. W. Wong, C. Gonzalez, and J. A. Pople, 
 Gaussian, Inc., Wallingford CT, 2004.
 
 ******************************************
 Gaussian 03:  IA32W-G03RevE.01 11-Sep-2007
                01-Apr-2016 
 ******************************************
 %chk=E:\YangJ\Amiano\Asp\ts1\s\Asp-S-opt-freq-ts1-6-31g.chk
 -----------------------------------------------
 # opt=(calcfc,ts) freq rb3lyp/6-31g iop(1/11=1)
 -----------------------------------------------
 1/5=1,10=4,11=1,14=-1,18=20,26=3,38=1/1,3;
 2/9=110,17=6,18=5,40=1/2;
 3/5=1,6=6,11=2,16=1,25=1,30=1,74=-5/1,2,3;
 4/7=1/1;
 5/5=2,38=5/2;
 8/6=4,10=90,11=11/1;
 11/6=1,8=1,9=11,15=111,16=1/1,2,10;
 10/6=1,7=6/2;
 6/7=2,8=2,9=2,10=2,28=1/1;
 7/10=1,18=20,25=1/1,2,3,16;
 1/5=1,10=4,11=1,14=-1,18=20/3(3);
 2/9=110/2;
 6/7=2,8=2,9=2,10=2,19=2,28=1/1;
 99//99;
 2/9=110/2;
 3/5=1,6=6,11=2,16=1,25=1,30=1,74=-5/1,2,3;
 4/5=5,7=1,16=3/1;
 5/5=2,38=5/2;
 7//1,2,3,16;
 1/5=1,11=1,14=-1,18=20/3(-5);
 2/9=110/2;
 6/7=2,8=2,9=2,10=2,19=2,28=1/1;
 99/9=1/99;
 ------------------------
 Asp-S-opt-freq-ts1-6-31g
 ------------------------
 Symbolic Z-matrix:
 Charge =  0 Multiplicity = 1
 N                     0.10074  -0.02446  -0.01666 
 H                     0.10074  -0.02446   0.99961 
 C                     1.46279  -0.02446  -0.52762 
 H                     1.4277   -0.19179  -1.60873 
 C                     2.11805   1.3544   -0.30762 
 C                     2.33245  -1.14006   0.06661 
 H                     1.32699   2.10155  -0.42688 
 H                     2.52028   1.46808   0.70106 
 C                     3.18229   1.69078  -1.32895 
 O                     1.95953  -1.95622   0.87083 
 O                     3.17292   1.35452  -2.48536 
 H                    -0.37956  -0.87373  -0.29526 
 O                     3.59695  -1.10975  -0.4141 
 H                     3.29316  -2.28004   0.65026 
 O                     4.14554   2.48459  -0.80414 
 H                     4.76122   2.69916  -1.5217 
 

 GradGradGradGradGradGradGradGradGradGradGradGradGradGradGradGradGradGrad
 Berny optimization.
 Initialization pass.
                           ----------------------------
                           !    Initial Parameters    !
                           ! (Angstroms and Degrees)  !
 --------------------------                            --------------------------
 ! Name  Definition              Value          Derivative Info.                !
 --------------------------------------------------------------------------------
 ! R1    R(1,2)                  1.0163         calculate D2E/DX2 analytically  !
 ! R2    R(1,3)                  1.4547         calculate D2E/DX2 analytically  !
 ! R3    R(1,12)                 1.0147         calculate D2E/DX2 analytically  !
 ! R4    R(3,4)                  1.0945         calculate D2E/DX2 analytically  !
 ! R5    R(3,5)                  1.5424         calculate D2E/DX2 analytically  !
 ! R6    R(3,6)                  1.5343         calculate D2E/DX2 analytically  !
 ! R7    R(5,7)                  1.0946         calculate D2E/DX2 analytically  !
 ! R8    R(5,8)                  1.0919         calculate D2E/DX2 analytically  !
 ! R9    R(5,9)                  1.5129         calculate D2E/DX2 analytically  !
 ! R10   R(6,10)                 1.205          calculate D2E/DX2 analytically  !
 ! R11   R(6,13)                 1.3531         calculate D2E/DX2 analytically  !
 ! R12   R(6,14)                 1.601          calculate D2E/DX2 analytically  !
 ! R13   R(9,11)                 1.2043         calculate D2E/DX2 analytically  !
 ! R14   R(9,15)                 1.354          calculate D2E/DX2 analytically  !
 ! R15   R(10,14)                1.39           calculate D2E/DX2 analytically  !
 ! R16   R(13,14)                1.6108         calculate D2E/DX2 analytically  !
 ! R17   R(15,16)                0.9695         calculate D2E/DX2 analytically  !
 ! A1    A(2,1,3)              110.5629         calculate D2E/DX2 analytically  !
 ! A2    A(2,1,12)             105.9361         calculate D2E/DX2 analytically  !
 ! A3    A(3,1,12)             110.2894         calculate D2E/DX2 analytically  !
 ! A4    A(1,3,4)              108.4764         calculate D2E/DX2 analytically  !
 ! A5    A(1,3,5)              110.3447         calculate D2E/DX2 analytically  !
 ! A6    A(1,3,6)              113.2458         calculate D2E/DX2 analytically  !
 ! A7    A(4,3,5)              106.9273         calculate D2E/DX2 analytically  !
 ! A8    A(4,3,6)              106.8317         calculate D2E/DX2 analytically  !
 ! A9    A(5,3,6)              110.7307         calculate D2E/DX2 analytically  !
 ! A10   A(3,5,7)              106.7161         calculate D2E/DX2 analytically  !
 ! A11   A(3,5,8)              112.4171         calculate D2E/DX2 analytically  !
 ! A12   A(3,5,9)              113.6611         calculate D2E/DX2 analytically  !
 ! A13   A(7,5,8)              107.2056         calculate D2E/DX2 analytically  !
 ! A14   A(7,5,9)              106.4424         calculate D2E/DX2 analytically  !
 ! A15   A(8,5,9)              109.9598         calculate D2E/DX2 analytically  !
 ! A16   A(3,6,10)             125.1394         calculate D2E/DX2 analytically  !
 ! A17   A(3,6,13)             112.0751         calculate D2E/DX2 analytically  !
 ! A18   A(10,6,13)            122.785          calculate D2E/DX2 analytically  !
 ! A19   A(5,9,11)             125.4967         calculate D2E/DX2 analytically  !
 ! A20   A(5,9,15)             111.661          calculate D2E/DX2 analytically  !
 ! A21   A(11,9,15)            122.7784         calculate D2E/DX2 analytically  !
 ! A22   A(10,14,13)            96.6925         calculate D2E/DX2 analytically  !
 ! A23   A(9,15,16)            107.136          calculate D2E/DX2 analytically  !
 ! A24   L(3,6,14,5,-1)        178.4805         calculate D2E/DX2 analytically  !
 ! A25   L(3,6,14,5,-2)        183.3425         calculate D2E/DX2 analytically  !
 ! D1    D(2,1,3,4)            170.7246         calculate D2E/DX2 analytically  !
 ! D2    D(2,1,3,5)            -72.4481         calculate D2E/DX2 analytically  !
 ! D3    D(2,1,3,6)             52.3132         calculate D2E/DX2 analytically  !
 ! D4    D(12,1,3,4)            53.8951         calculate D2E/DX2 analytically  !
 ! D5    D(12,1,3,5)           170.7225         calculate D2E/DX2 analytically  !
 ! D6    D(12,1,3,6)           -64.5163         calculate D2E/DX2 analytically  !
 ! D7    D(1,3,5,7)            -34.6912         calculate D2E/DX2 analytically  !
 ! D8    D(1,3,5,8)             82.5662         calculate D2E/DX2 analytically  !
 ! D9    D(1,3,5,9)           -151.708          calculate D2E/DX2 analytically  !
 ! D10   D(4,3,5,7)             83.0939         calculate D2E/DX2 analytically  !
 ! D11   D(4,3,5,8)           -159.6487         calculate D2E/DX2 analytically  !
 ! D12   D(4,3,5,9)            -33.923          calculate D2E/DX2 analytically  !
 ! D13   D(6,3,5,7)           -160.8778         calculate D2E/DX2 analytically  !
 ! D14   D(6,3,5,8)            -43.6204         calculate D2E/DX2 analytically  !
 ! D15   D(6,3,5,9)             82.1054         calculate D2E/DX2 analytically  !
 ! D16   D(1,3,6,10)             0.3912         calculate D2E/DX2 analytically  !
 ! D17   D(1,3,6,13)          -179.368          calculate D2E/DX2 analytically  !
 ! D18   D(4,3,6,10)          -118.969          calculate D2E/DX2 analytically  !
 ! D19   D(4,3,6,13)            61.2718         calculate D2E/DX2 analytically  !
 ! D20   D(5,3,6,10)           124.9433         calculate D2E/DX2 analytically  !
 ! D21   D(5,3,6,13)           -54.8159         calculate D2E/DX2 analytically  !
 ! D22   D(3,5,9,11)            33.3526         calculate D2E/DX2 analytically  !
 ! D23   D(3,5,9,15)          -149.4989         calculate D2E/DX2 analytically  !
 ! D24   D(7,5,9,11)           -83.8235         calculate D2E/DX2 analytically  !
 ! D25   D(7,5,9,15)            93.325          calculate D2E/DX2 analytically  !
 ! D26   D(8,5,9,11)           160.3718         calculate D2E/DX2 analytically  !
 ! D27   D(8,5,9,15)           -22.4797         calculate D2E/DX2 analytically  !
 ! D28   D(5,9,15,16)         -176.8544         calculate D2E/DX2 analytically  !
 ! D29   D(11,9,15,16)           0.3845         calculate D2E/DX2 analytically  !
 --------------------------------------------------------------------------------
 Trust Radius=3.00D-01 FncErr=1.00D-07 GrdErr=1.00D-06
 Number of steps in this run=  81 maximum allowed number of steps= 100.
 Search for a saddle point of order  1.
 GradGradGradGradGradGradGradGradGradGradGradGradGradGradGradGradGradGrad

                          Input orientation:                          
 ---------------------------------------------------------------------
 Center     Atomic     Atomic              Coordinates (Angstroms)
 Number     Number      Type              X           Y           Z
 ---------------------------------------------------------------------
    1          7             0        0.100741   -0.024461   -0.016662
    2          1             0        0.100741   -0.024461    0.999614
    3          6             0        1.462787   -0.024461   -0.527616
    4          1             0        1.427703   -0.191788   -1.608728
    5          6             0        2.118051    1.354400   -0.307625
    6          6             0        2.332447   -1.140056    0.066607
    7          1             0        1.326989    2.101550   -0.426878
    8          1             0        2.520281    1.468083    0.701057
    9          6             0        3.182291    1.690783   -1.328952
   10          8             0        1.959527   -1.956218    0.870831
   11          8             0        3.172918    1.354522   -2.485362
   12          1             0       -0.379562   -0.873728   -0.295255
   13          8             0        3.596955   -1.109746   -0.414098
   14          1             0        3.293163   -2.280044    0.650260
   15          8             0        4.145536    2.484586   -0.804136
   16          1             0        4.761219    2.699165   -1.521697
 ---------------------------------------------------------------------
                    Distance matrix (angstroms):
                    1          2          3          4          5
     1  N    0.000000
     2  H    1.016275   0.000000
     3  C    1.454732   2.046363   0.000000
     4  H    2.079303   2.931258   1.094547   0.000000
     5  C    2.460784   2.771222   1.542409   2.135451   0.000000
     6  C    2.496397   2.663750   1.534262   2.127093   2.531467
     7  H    2.488350   2.838747   2.132725   2.581920   1.094638
     8  H    2.932062   2.858496   2.203547   3.046967   1.091857
     9  C    3.762994   4.226137   2.557518   2.588616   1.512902
    10  O    2.823900   2.683906   2.435998   3.089379   3.517681
    11  O    4.175446   4.846125   2.942603   2.491052   2.419770
    12  H    1.014672   1.621305   2.041934   2.335906   3.347055
    13  O    3.682297   3.924275   2.396956   2.641106   2.875849
    14  H    3.965349   3.924444   3.134537   3.597747   3.937971
    15  O    4.824500   5.090108   3.683602   3.898328   2.373718
    16  H    5.603867   5.957785   4.391582   4.413334   3.204481
                    6          7          8          9         10
     6  C    0.000000
     7  H    3.429647   0.000000
     8  H    2.690762   1.759961   0.000000
     9  C    3.268558   2.103477   2.146809   0.000000
    10  O    1.204976   4.306929   3.474062   4.431119   0.000000
    11  O    3.666314   2.864064   3.254550   1.204343   4.867993
    12  H    2.748976   3.432480   3.858213   4.509107   2.828936
    13  O    1.353136   3.932598   3.007989   2.975209   2.246937
    14  H    1.600999   4.921832   3.827321   4.438135   1.390000
    15  O    4.145300   2.869363   2.437281   1.354029   5.225408
    16  H    4.812614   3.653725   3.387919   1.883347   5.936856
                   11         12         13         14         15
    11  O    0.000000
    12  H    4.730939   0.000000
    13  O    3.246931   3.985287   0.000000
    14  H    4.801735   4.044828   1.610821   0.000000
    15  O    2.247120   5.658069   3.656815   5.054059   0.000000
    16  H    2.293341   6.379448   4.134016   5.627176   0.969538
                   16
    16  H    0.000000
 Stoichiometry    C4H7NO4
 Framework group  C1[X(C4H7NO4)]
 Deg. of freedom    42
 Full point group                 C1
 Largest Abelian subgroup         C1      NOp   1
 Largest concise Abelian subgroup C1      NOp   1
                         Standard orientation:                         
 ---------------------------------------------------------------------
 Center     Atomic     Atomic              Coordinates (Angstroms)
 Number     Number      Type              X           Y           Z
 ---------------------------------------------------------------------
    1          7             0        1.591988    1.824171    0.059582
    2          1             0        2.019100    1.765608   -0.860723
    3          6             0        0.717025    0.685100    0.290235
    4          1             0        0.408023    0.692070    1.340235
    5          6             0       -0.565839    0.814250   -0.556292
    6          6             0        1.400960   -0.664806    0.037359
    7          1             0       -0.805629    1.881245   -0.603787
    8          1             0       -0.424095    0.469088   -1.582412
    9          6             0       -1.768975    0.131823    0.056594
   10          8             0        2.545778   -0.807914   -0.310315
   11          8             0       -1.992500    0.034823    1.236030
   12          1             0        2.359174    1.818685    0.723627
   13          8             0        0.562739   -1.706466    0.245462
   14          1             0        2.055026   -2.104676   -0.211980
   15          8             0       -2.624230   -0.319518   -0.891153
   16          1             0       -3.388839   -0.696816   -0.429609
 ---------------------------------------------------------------------
 Rotational constants (GHZ):      2.6525109      1.0839709      0.9098048
 Standard basis: 6-31G (6D, 7F)
 There are    95 symmetry adapted basis functions of A   symmetry.
 Integral buffers will be    262144 words long.
 Raffenetti 2 integral format.
 Two-electron integral symmetry is turned on.
    95 basis functions,   226 primitive gaussians,    95 cartesian basis functions
    35 alpha electrons       35 beta electrons
       nuclear repulsion energy       468.8719519649 Hartrees.
 NAtoms=   16 NActive=   16 NUniq=   16 SFac= 7.50D-01 NAtFMM=   80 NAOKFM=F Big=F
 One-electron integrals computed using PRISM.
 NBasis=    95 RedAO= T  NBF=    95
 NBsUse=    95 1.00D-06 NBFU=    95
 Harris functional with IExCor=  402 diagonalized for initial guess.
 ExpMin= 1.61D-01 ExpMax= 5.48D+03 ExpMxC= 8.25D+02 IAcc=1 IRadAn=         1 AccDes= 1.00D-06
 HarFok:  IExCor= 402 AccDes= 1.00D-06 IRadAn=         1 IDoV=1
 ScaDFX=  1.000000  1.000000  1.000000  1.000000
 Initial guess orbital symmetries:
       Occupied  (A) (A) (A) (A) (A) (A) (A) (A) (A) (A) (A) (A)
                 (A) (A) (A) (A) (A) (A) (A) (A) (A) (A) (A) (A)
                 (A) (A) (A) (A) (A) (A) (A) (A) (A) (A) (A)
       Virtual   (A) (A) (A) (A) (A) (A) (A) (A) (A) (A) (A) (A)
                 (A) (A) (A) (A) (A) (A) (A) (A) (A) (A) (A) (A)
                 (A) (A) (A) (A) (A) (A) (A) (A) (A) (A) (A) (A)
                 (A) (A) (A) (A) (A) (A) (A) (A) (A) (A) (A) (A)
                 (A) (A) (A) (A) (A) (A) (A) (A) (A) (A) (A) (A)
 The electronic state of the initial guess is 1-A.
 Requested convergence on RMS density matrix=1.00D-08 within 128 cycles.
 Requested convergence on MAX density matrix=1.00D-06.
 Requested convergence on             energy=1.00D-06.
 No special actions if energy rises.
 Integral accuracy reduced to 1.0D-05 until final iterations.
 EnCoef did     1 forward-backward iterations
 Initial convergence to 1.0D-05 achieved.  Increase integral accuracy.
 SCF Done:  E(RB+HF-LYP) =  -512.032907286     A.U. after   17 cycles
             Convg  =    0.4258D-08             -V/T =  2.0050
             S**2   =   0.0000
 Range of M.O.s used for correlation:     1    95
 NBasis=    95 NAE=    35 NBE=    35 NFC=     0 NFV=     0
 NROrb=     95 NOA=    35 NOB=    35 NVA=    60 NVB=    60
 Symmetrizing basis deriv contribution to polar:
 IMax=3 JMax=2 DiffMx= 0.00D+00
 G2DrvN: will do   17 centers at a time, making    1 passes doing MaxLOS=1.
 FoFDir/FoFCou used for L=0 through L=1.
 DoAtom=TTTTTTTTTTTTTTTT
          Differentiating once with respect to electric field.
                with respect to dipole field.
          Differentiating once with respect to nuclear coordinates.
 Integrals replicated using symmetry in FoFDir.
 MinBra= 0 MaxBra= 1 Meth= 1.
 IRaf=       0 NMat=  51 IRICut=      51 DoRegI=T DoRafI=T ISym2E= 2 JSym2E=2.
          There are  51 degrees of freedom in the 1st order CPHF.
    48 vectors were produced by pass  0.
 AX will form  48 AO Fock derivatives at one time.
    48 vectors were produced by pass  1.
    48 vectors were produced by pass  2.
    48 vectors were produced by pass  3.
    18 vectors were produced by pass  4.
     3 vectors were produced by pass  5.
 Inv2:  IOpt= 1 Iter= 1 AM= 2.57D-15 Conv= 1.00D-12.
 Inverted reduced A of dimension  213 with in-core refinement.
 Isotropic polarizability for W=    0.000000       58.12 Bohr**3.
 End of Minotr Frequency-dependent properties file   721 does not exist.

 **********************************************************************

            Population analysis using the SCF density.

 **********************************************************************

 Orbital symmetries:
       Occupied  (A) (A) (A) (A) (A) (A) (A) (A) (A) (A) (A) (A)
                 (A) (A) (A) (A) (A) (A) (A) (A) (A) (A) (A) (A)
                 (A) (A) (A) (A) (A) (A) (A) (A) (A) (A) (A)
       Virtual   (A) (A) (A) (A) (A) (A) (A) (A) (A) (A) (A) (A)
                 (A) (A) (A) (A) (A) (A) (A) (A) (A) (A) (A) (A)
                 (A) (A) (A) (A) (A) (A) (A) (A) (A) (A) (A) (A)
                 (A) (A) (A) (A) (A) (A) (A) (A) (A) (A) (A) (A)
                 (A) (A) (A) (A) (A) (A) (A) (A) (A) (A) (A) (A)
 The electronic state is 1-A.
 Alpha  occ. eigenvalues --  -19.23411 -19.19917 -19.17993 -19.15056 -14.33005
 Alpha  occ. eigenvalues --  -10.35079 -10.33566 -10.25342 -10.21291  -1.18801
 Alpha  occ. eigenvalues --   -1.13723  -1.04590  -1.01771  -0.92436  -0.79422
 Alpha  occ. eigenvalues --   -0.70559  -0.62723  -0.57507  -0.54109  -0.53589
 Alpha  occ. eigenvalues --   -0.50913  -0.49221  -0.48419  -0.47490  -0.46973
 Alpha  occ. eigenvalues --   -0.43415  -0.41012  -0.39097  -0.38380  -0.36858
 Alpha  occ. eigenvalues --   -0.32805  -0.32213  -0.31944  -0.28626  -0.25151
 Alpha virt. eigenvalues --   -0.04915  -0.03126   0.00498   0.06521   0.07476
 Alpha virt. eigenvalues --    0.11391   0.13064   0.14818   0.16316   0.20668
 Alpha virt. eigenvalues --    0.21314   0.22504   0.23387   0.28933   0.30312
 Alpha virt. eigenvalues --    0.35296   0.36732   0.51544   0.52445   0.55893
 Alpha virt. eigenvalues --    0.56618   0.59725   0.60701   0.62158   0.63926
 Alpha virt. eigenvalues --    0.68490   0.69986   0.73043   0.73949   0.75219
 Alpha virt. eigenvalues --    0.77999   0.79278   0.81324   0.82580   0.88662
 Alpha virt. eigenvalues --    0.89098   0.91497   0.92126   0.93499   0.94529
 Alpha virt. eigenvalues --    0.95474   0.96746   0.97586   0.98783   1.02353
 Alpha virt. eigenvalues --    1.05773   1.07737   1.08708   1.09273   1.12942
 Alpha virt. eigenvalues --    1.21854   1.25900   1.31173   1.43187   1.54137
 Alpha virt. eigenvalues --    1.73476   1.75304   1.79710   1.90468   2.00958
          Condensed to atoms (all electrons):
              1          2          3          4          5          6
     1  N    6.885002   0.324929   0.264108  -0.037662  -0.063404  -0.070102
     2  H    0.324929   0.480656  -0.050752   0.005780  -0.003757  -0.003028
     3  C    0.264108  -0.050752   5.425743   0.381174   0.259731   0.100795
     4  H   -0.037662   0.005780   0.381174   0.500818  -0.040313  -0.044876
     5  C   -0.063404  -0.003757   0.259731  -0.040313   5.551775  -0.065309
     6  C   -0.070102  -0.003028   0.100795  -0.044876  -0.065309   5.092405
     7  H    0.004188  -0.000669  -0.031353  -0.001770   0.356168   0.006812
     8  H    0.000572   0.002052  -0.037499   0.004382   0.345062  -0.007237
     9  C    0.003406  -0.000083  -0.022152  -0.000482   0.156504   0.007063
    10  O   -0.005159   0.003758  -0.097072   0.000632  -0.000248   0.244994
    11  O    0.000050  -0.000004   0.001676   0.013970  -0.115374  -0.001383
    12  H    0.327777  -0.039898  -0.048859  -0.006368   0.007052   0.002407
    13  O    0.004181   0.000087  -0.084281   0.001039   0.004913   0.280802
    14  H   -0.001543  -0.000063   0.024991  -0.000517  -0.001026   0.004132
    15  O   -0.000027   0.000000   0.001748   0.000501  -0.119618   0.000341
    16  H    0.000002   0.000000  -0.000272  -0.000019   0.012136   0.000006
              7          8          9         10         11         12
     1  N    0.004188   0.000572   0.003406  -0.005159   0.000050   0.327777
     2  H   -0.000669   0.002052  -0.000083   0.003758  -0.000004  -0.039898
     3  C   -0.031353  -0.037499  -0.022152  -0.097072   0.001676  -0.048859
     4  H   -0.001770   0.004382  -0.000482   0.000632   0.013970  -0.006368
     5  C    0.356168   0.345062   0.156504  -0.000248  -0.115374   0.007052
     6  C    0.006812  -0.007237   0.007063   0.244994  -0.001383   0.002407
     7  H    0.505735  -0.025626  -0.025265  -0.000066  -0.000306   0.000240
     8  H   -0.025626   0.552117  -0.013835   0.000255   0.003095  -0.000192
     9  C   -0.025265  -0.013835   4.724184   0.000065   0.521550  -0.000218
    10  O   -0.000066   0.000255   0.000065   8.343585  -0.000004   0.001884
    11  O   -0.000306   0.003095   0.521550  -0.000004   8.083831   0.000007
    12  H    0.000240  -0.000192  -0.000218   0.001884   0.000007   0.468791
    13  O    0.000073   0.000183   0.006727  -0.148874  -0.000900   0.000034
    14  H    0.000023  -0.000141   0.000054   0.073887   0.000010   0.000002
    15  O    0.001473   0.004951   0.161402   0.000000  -0.119156   0.000001
    16  H   -0.000321  -0.000282  -0.015339   0.000000   0.006932   0.000000
             13         14         15         16
     1  N    0.004181  -0.001543  -0.000027   0.000002
     2  H    0.000087  -0.000063   0.000000   0.000000
     3  C   -0.084281   0.024991   0.001748  -0.000272
     4  H    0.001039  -0.000517   0.000501  -0.000019
     5  C    0.004913  -0.001026  -0.119618   0.012136
     6  C    0.280802   0.004132   0.000341   0.000006
     7  H    0.000073   0.000023   0.001473  -0.000321
     8  H    0.000183  -0.000141   0.004951  -0.000282
     9  C    0.006727   0.000054   0.161402  -0.015339
    10  O   -0.148874   0.073887   0.000000   0.000000
    11  O   -0.000900   0.000010  -0.119156   0.006932
    12  H    0.000034   0.000002   0.000001   0.000000
    13  O    8.361329   0.065733  -0.000457  -0.000025
    14  H    0.065733   0.488489   0.000001   0.000000
    15  O   -0.000457   0.000001   8.381743   0.227690
    16  H   -0.000025   0.000000   0.227690   0.387781
 Mulliken atomic charges:
              1
     1  N   -0.636320
     2  H    0.280992
     3  C   -0.087726
     4  H    0.223711
     5  C   -0.284292
     6  C    0.452177
     7  H    0.210665
     8  H    0.172143
     9  C    0.496419
    10  O   -0.417636
    11  O   -0.393995
    12  H    0.287339
    13  O   -0.490563
    14  H    0.345968
    15  O   -0.540594
    16  H    0.381712
 Sum of Mulliken charges=   0.00000
 Atomic charges with hydrogens summed into heavy atoms:
              1
     1  N   -0.067988
     2  H    0.000000
     3  C    0.135985
     4  H    0.000000
     5  C    0.098516
     6  C    0.452177
     7  H    0.000000
     8  H    0.000000
     9  C    0.496419
    10  O   -0.071668
    11  O   -0.393995
    12  H    0.000000
    13  O   -0.490563
    14  H    0.000000
    15  O   -0.158882
    16  H    0.000000
 Sum of Mulliken charges=   0.00000
 APT atomic charges:
              1
     1  N   -0.468453
     2  H    0.158218
     3  C    0.330053
     4  H    0.051861
     5  C   -0.052371
     6  C    0.648103
     7  H    0.039216
     8  H    0.018315
     9  C    1.087793
    10  O   -0.558909
    11  O   -0.697375
    12  H    0.150790
    13  O   -0.621500
    14  H    0.320700
    15  O   -0.693299
    16  H    0.286858
 Sum of APT charges=   0.00000
 APT Atomic charges with hydrogens summed into heavy atoms:
              1
     1  N   -0.159445
     2  H    0.000000
     3  C    0.381914
     4  H    0.000000
     5  C    0.005160
     6  C    0.648103
     7  H    0.000000
     8  H    0.000000
     9  C    1.087793
    10  O   -0.238210
    11  O   -0.697375
    12  H    0.000000
    13  O   -0.621500
    14  H    0.000000
    15  O   -0.406440
    16  H    0.000000
 Sum of APT charges=   0.00000
 Electronic spatial extent (au):  <R**2>=  1283.3700
 Charge=     0.0000 electrons
 Dipole moment (field-independent basis, Debye):
    X=     1.2203    Y=     0.2958    Z=    -1.4687  Tot=     1.9323
 Quadrupole moment (field-independent basis, Debye-Ang):
   XX=   -45.0061   YY=   -55.1849   ZZ=   -55.1189
   XY=     0.3375   XZ=     3.0333   YZ=     0.2015
 Traceless Quadrupole moment (field-independent basis, Debye-Ang):
   XX=     6.7639   YY=    -3.4149   ZZ=    -3.3490
   XY=     0.3375   XZ=     3.0333   YZ=     0.2015
 Octapole moment (field-independent basis, Debye-Ang**2):
  XXX=   -34.7404  YYY=   -21.0011  ZZZ=    -2.1487  XYY=     1.3670
  XXY=    -7.9994  XXZ=     0.5159  XZZ=    15.6713  YZZ=     2.0765
  YYZ=    -4.3974  XYZ=     0.6342
 Hexadecapole moment (field-independent basis, Debye-Ang**3):
 XXXX=  -850.2583 YYYY=  -424.5769 ZZZZ=  -166.7144 XXXY=    62.9018
 XXXZ=    23.5762 YYYX=   -32.0038 YYYZ=     2.3918 ZZZX=     2.4142
 ZZZY=     0.3451 XXYY=  -182.2845 XXZZ=  -212.4941 YYZZ=   -88.3937
 XXYZ=     2.5878 YYXZ=    -3.3367 ZZXY=     4.8879
 N-N= 4.688719519649D+02 E-N=-2.138689271097D+03  KE= 5.094940801094D+02
  Exact polarizability:  69.351   4.313  56.321  -2.367   0.343  48.679
 Approx polarizability: 104.234  14.820  78.419 -10.587  -1.287  82.098
 ***** Axes restored to original set *****
 -------------------------------------------------------------------
 Center     Atomic                   Forces (Hartrees/Bohr)
 Number     Number              X              Y              Z
 -------------------------------------------------------------------
    1          7          -0.002564176   -0.007911795    0.005468251
    2          1          -0.002695084    0.006481507    0.004944482
    3          6          -0.001916645   -0.001578500    0.003454466
    4          1           0.000728626   -0.000980773   -0.001003577
    5          6           0.001764508    0.001768751    0.000095735
    6          6           0.052026703    0.141943981   -0.134146931
    7          1          -0.002946034    0.000111765    0.000659224
    8          1           0.001152620   -0.000216528    0.000390371
    9          6          -0.017419585   -0.004166466    0.042668653
   10          8           0.012788636   -0.093505151    0.071165217
   11          8          -0.000931243   -0.013177567   -0.046604916
   12          1          -0.006725756   -0.000591653   -0.005344217
   13          8          -0.045445421   -0.042701717    0.051606004
   14          1          -0.006425996    0.000258408    0.002284070
   15          8           0.005386538    0.007749312    0.010029397
   16          1           0.013222309    0.006516424   -0.005666231
 -------------------------------------------------------------------
 Cartesian Forces:  Max     0.141943981 RMS     0.037257955

 GradGradGradGradGradGradGradGradGradGradGradGradGradGradGradGradGradGrad
 Berny optimization.
 Internal  Forces:  Max     0.107029754 RMS     0.018516491
 Search for a saddle point.
 Step number   1 out of a maximum of  81
 All quantities printed in internal units (Hartrees-Bohrs-Radians)
 Swaping is turned off.
 Second derivative matrix not updated -- analytic derivatives used.
     Eigenvalues ---   -0.08717  -0.00172   0.00104   0.00263   0.00661
     Eigenvalues ---    0.02147   0.02290   0.03375   0.03859   0.03930
     Eigenvalues ---    0.04483   0.04913   0.05047   0.05429   0.05950
     Eigenvalues ---    0.08244   0.11138   0.12286   0.15675   0.16346
     Eigenvalues ---    0.16694   0.16738   0.18146   0.20012   0.20656
     Eigenvalues ---    0.22348   0.23337   0.25770   0.26419   0.30402
     Eigenvalues ---    0.33822   0.34139   0.34476   0.35032   0.36091
     Eigenvalues ---    0.40425   0.44970   0.45332   0.45938   0.52232
     Eigenvalues ---    0.81661   0.951581000.000001000.000001000.00000
     Eigenvalues --- 1000.000001000.000001000.000001000.000001000.00000
     Eigenvalues --- 1000.000001000.000001000.000001000.000001000.00000
     Eigenvalues --- 1000.000001000.000001000.000001000.000001000.00000
     Eigenvalues --- 1000.000001000.000001000.000001000.000001000.00000
     Eigenvalues --- 1000.000001000.000001000.000001000.000001000.00000
     Eigenvalues --- 1000.00000
 Eigenvectors required to have negative eigenvalues:
                          R1        R2        R3        R4        R5
         1              0.00016  -0.00990  -0.00018   0.00179   0.00244
                          R6        R7        R8        R9        R10
         1              0.00582  -0.00029   0.00063   0.00031  -0.06434
                          R11       R12       R13       R14       R15
         1              0.10833   0.01088   0.00086  -0.00083   0.66708
                          R16       R17       A1        A2        A3
         1             -0.63168   0.00020  -0.00435  -0.00298  -0.00250
                          A4        A5        A6        A7        A8
         1              0.00265   0.00147  -0.01733  -0.00268   0.00705
                          A9        A10       A11       A12       A13
         1              0.00963  -0.00234   0.00150   0.00228  -0.00073
                          A14       A15       A16       A17       A18
         1              0.00103  -0.00194  -0.03669   0.02682   0.00976
                          A19       A20       A21       A22       A23
         1             -0.00127   0.00107   0.00038   0.04409   0.00144
                          A24       A25       D1        D2        D3
         1             -0.21539   0.29434  -0.00460  -0.00546  -0.00457
                          D4        D5        D6        D7        D8
         1              0.00320   0.00234   0.00323  -0.00742  -0.00893
                          D9        D10       D11       D12       D13
         1             -0.00846  -0.00501  -0.00652  -0.00605   0.00689
                          D14       D15       D16       D17       D18
         1              0.00538   0.00586  -0.02049   0.00840  -0.01825
                          D19       D20       D21       D22       D23
         1              0.01065  -0.02410   0.00480  -0.00701  -0.00291
                          D24       D25       D26       D27       D28
         1             -0.00608  -0.00198  -0.00480  -0.00070  -0.00017
                          D29
         1              0.00374
 RFO step:  Lambda0=4.183606418D-03 Lambda=-5.59868660D-02.
 Linear search not attempted -- option 19 set.
 Maximum step size (   0.300) exceeded in Quadratic search.
    -- Step size scaled by   0.586
 Iteration  1 RMS(Cart)=  0.02661268 RMS(Int)=  0.00238699
 Iteration  2 RMS(Cart)=  0.00171148 RMS(Int)=  0.00042166
 Iteration  3 RMS(Cart)=  0.00000372 RMS(Int)=  0.00042164
 Iteration  4 RMS(Cart)=  0.00000001 RMS(Int)=  0.00042164
 Variable       Old X    -DE/DX   Delta X   Delta X   Delta X     New X
                                 (Linear)    (Quad)   (Total)
    R1        1.92048   0.00495   0.00000   0.00328   0.00328   1.92376
    R2        2.74904   0.01300   0.00000   0.00860   0.00860   2.75765
    R3        1.91745   0.00515   0.00000   0.00342   0.00342   1.92087
    R4        2.06839   0.00112   0.00000   0.00251   0.00251   2.07090
    R5        2.91473  -0.00107   0.00000   0.00218   0.00218   2.91691
    R6        2.89934  -0.00042   0.00000  -0.02556  -0.02556   2.87377
    R7        2.06857   0.00213   0.00000   0.00250   0.00250   2.07106
    R8        2.06331   0.00076   0.00000   0.00082   0.00082   2.06413
    R9        2.85897  -0.00079   0.00000  -0.00417  -0.00417   2.85480
   R10        2.27707   0.10703   0.00000   0.07392   0.07507   2.35215
   R11        2.55706  -0.05550   0.00000  -0.06347  -0.06241   2.49464
   R12        3.02545   0.03627   0.00000   0.04198   0.04091   3.06636
   R13        2.27588   0.04844   0.00000   0.02758   0.02758   2.30346
   R14        2.55874   0.02329   0.00000   0.01960   0.01960   2.57834
   R15        2.62672  -0.02285   0.00000  -0.00251  -0.00295   2.62377
   R16        3.04401  -0.02489   0.00000  -0.21919  -0.21952   2.82449
   R17        1.83216   0.01403   0.00000   0.01262   0.01262   1.84478
    A1        1.92969   0.00544   0.00000   0.01503   0.01479   1.94448
    A2        1.84893   0.00053   0.00000   0.01524   0.01479   1.86373
    A3        1.92491   0.00565   0.00000   0.01570   0.01546   1.94037
    A4        1.89327  -0.00079   0.00000  -0.00052  -0.00052   1.89274
    A5        1.92588  -0.00030   0.00000   0.00430   0.00432   1.93020
    A6        1.97651   0.00418   0.00000   0.00843   0.00845   1.98496
    A7        1.86623   0.00094   0.00000  -0.00145  -0.00147   1.86476
    A8        1.86456  -0.00096   0.00000  -0.00126  -0.00129   1.86327
    A9        1.93261  -0.00320   0.00000  -0.01005  -0.01007   1.92254
   A10        1.86255  -0.00044   0.00000  -0.00312  -0.00308   1.85946
   A11        1.96205   0.00179   0.00000   0.00388   0.00386   1.96590
   A12        1.98376  -0.00464   0.00000  -0.01267  -0.01267   1.97109
   A13        1.87109  -0.00030   0.00000   0.00165   0.00164   1.87273
   A14        1.85777   0.00314   0.00000   0.01169   0.01168   1.86945
   A15        1.91916   0.00073   0.00000  -0.00019  -0.00021   1.91895
   A16        2.18410   0.01728   0.00000   0.02044   0.02017   2.20426
   A17        1.95608   0.02684   0.00000   0.09670   0.09688   2.05296
   A18        2.14300  -0.04412   0.00000  -0.11714  -0.11705   2.02596
   A19        2.19033  -0.00038   0.00000  -0.00008  -0.00009   2.19025
   A20        1.94885   0.00011   0.00000   0.00109   0.00109   1.94994
   A21        2.14289   0.00026   0.00000  -0.00094  -0.00094   2.14195
   A22        1.68760   0.01475   0.00000   0.02499   0.02215   1.70975
   A23        1.86988   0.01322   0.00000   0.02520   0.02520   1.89507
   A24        3.11507   0.01669   0.00000   0.00331   0.00302   3.11809
   A25        3.19993  -0.01291   0.00000  -0.00046  -0.00025   3.19968
    D1        2.97971   0.00385   0.00000   0.01904   0.01916   2.99887
    D2       -1.26446   0.00435   0.00000   0.01940   0.01951  -1.24495
    D3        0.91304   0.00302   0.00000   0.01580   0.01593   0.92896
    D4        0.94065  -0.00353   0.00000  -0.01827  -0.01839   0.92226
    D5        2.97967  -0.00302   0.00000  -0.01791  -0.01803   2.96163
    D6       -1.12602  -0.00435   0.00000  -0.02151  -0.02162  -1.14764
    D7       -0.60548   0.00135   0.00000   0.00089   0.00090  -0.60458
    D8        1.44105   0.00170   0.00000   0.00310   0.00309   1.44415
    D9       -2.64780   0.00038   0.00000  -0.00435  -0.00436  -2.65217
   D10        1.45026   0.00078   0.00000   0.00174   0.00175   1.45201
   D11       -2.78640   0.00113   0.00000   0.00395   0.00394  -2.78245
   D12       -0.59207  -0.00019   0.00000  -0.00350  -0.00351  -0.59558
   D13       -2.80785  -0.00150   0.00000  -0.00584  -0.00582  -2.81367
   D14       -0.76132  -0.00115   0.00000  -0.00363  -0.00362  -0.76494
   D15        1.43301  -0.00248   0.00000  -0.01108  -0.01108   1.42193
   D16        0.00683   0.00056   0.00000   0.00290   0.00292   0.00975
   D17       -3.13056   0.00040   0.00000   0.00390   0.00391  -3.12666
   D18       -2.07640  -0.00028   0.00000  -0.00058  -0.00057  -2.07697
   D19        1.06940  -0.00044   0.00000   0.00042   0.00042   1.06981
   D20        2.18067   0.00082   0.00000   0.00711   0.00709   2.18777
   D21       -0.95672   0.00066   0.00000   0.00810   0.00808  -0.94864
   D22        0.58211  -0.00002   0.00000  -0.00268  -0.00271   0.57940
   D23       -2.60925  -0.00030   0.00000  -0.00126  -0.00129  -2.61053
   D24       -1.46300   0.00108   0.00000   0.00066   0.00069  -1.46230
   D25        1.62883   0.00080   0.00000   0.00209   0.00212   1.63095
   D26        2.79902  -0.00065   0.00000  -0.00757  -0.00757   2.79144
   D27       -0.39234  -0.00094   0.00000  -0.00615  -0.00615  -0.39849
   D28       -3.08669  -0.00042   0.00000  -0.00477  -0.00477  -3.09146
   D29        0.00671  -0.00071   0.00000  -0.00336  -0.00336   0.00335
         Item               Value     Threshold  Converged?
 Maximum Force            0.107030     0.000450     NO 
 RMS     Force            0.018516     0.000300     NO 
 Maximum Displacement     0.115606     0.001800     NO 
 RMS     Displacement     0.027489     0.001200     NO 
 Predicted change in Energy=-2.349472D-02
 GradGradGradGradGradGradGradGradGradGradGradGradGradGradGradGradGradGrad

                          Input orientation:                          
 ---------------------------------------------------------------------
 Center     Atomic     Atomic              Coordinates (Angstroms)
 Number     Number      Type              X           Y           Z
 ---------------------------------------------------------------------
    1          7             0        0.092779   -0.027996   -0.016224
    2          1             0        0.078594   -0.016861    1.001625
    3          6             0        1.458542   -0.016798   -0.530105
    4          1             0        1.422682   -0.177173   -1.613589
    5          6             0        2.112523    1.362911   -0.303605
    6          6             0        2.338489   -1.114768    0.046773
    7          1             0        1.316581    2.107783   -0.416611
    8          1             0        2.521081    1.474326    0.703253
    9          6             0        3.173446    1.686999   -1.329088
   10          8             0        1.991721   -1.979495    0.872171
   11          8             0        3.158586    1.338662   -2.497101
   12          1             0       -0.402260   -0.866638   -0.307512
   13          8             0        3.595629   -1.165081   -0.352922
   14          1             0        3.327624   -2.264566    0.623452
   15          8             0        4.150987    2.484600   -0.809636
   16          1             0        4.784786    2.702223   -1.519521
 ---------------------------------------------------------------------
                    Distance matrix (angstroms):
                    1          2          3          4          5
     1  N    0.000000
     2  H    1.018009   0.000000
     3  C    1.459283   2.061663   0.000000
     4  H    2.083859   2.944761   1.095876   0.000000
     5  C    2.469124   2.782852   1.543564   2.136305   0.000000
     6  C    2.495647   2.687800   1.520734   2.115322   2.512513
     7  H    2.493903   2.838682   2.132341   2.581673   1.095959
     8  H    2.944701   2.877222   2.207625   3.049866   1.092289
     9  C    3.762356   4.232431   2.546015   2.573179   1.510697
    10  O    2.864188   2.743856   2.470392   3.122687   3.545240
    11  O    4.173928   4.854367   2.931978   2.468139   2.430280
    12  H    1.016480   1.633151   2.057756   2.347682   3.360809
    13  O    3.698146   3.939891   2.432507   2.699433   2.931345
    14  H    3.984426   3.968802   3.142709   3.604215   3.936305
    15  O    4.838563   5.111004   3.685700   3.895513   2.381090
    16  H    5.632843   5.991480   4.408618   4.427585   3.226949
                    6          7          8          9         10
     6  C    0.000000
     7  H    3.412309   0.000000
     8  H    2.677258   1.762437   0.000000
     9  C    3.231106   2.111308   2.145045   0.000000
    10  O    1.244702   4.338504   3.498233   4.436800   0.000000
    11  O    3.628109   2.883222   3.266050   1.218939   4.870702
    12  H    2.774670   3.437076   3.879133   4.511136   2.891583
    13  O    1.320109   3.988704   3.039182   3.043928   2.176383
    14  H    1.622646   4.923764   3.825727   4.410334   1.388439
    15  O    4.119955   2.886229   2.442556   1.364399   5.236320
    16  H    4.796568   3.687576   3.401884   1.913991   5.953141
                   11         12         13         14         15
    11  O    0.000000
    12  H    4.726232   0.000000
    13  O    3.325243   4.009270   0.000000
    14  H    4.769662   4.090591   1.494657   0.000000
    15  O    2.268385   5.675824   3.719836   5.028542   0.000000
    16  H    2.336555   6.411799   4.210830   5.602200   0.976216
                   16
    16  H    0.000000
 Stoichiometry    C4H7NO4
 Framework group  C1[X(C4H7NO4)]
 Deg. of freedom    42
 Full point group                 C1
 Largest Abelian subgroup         C1      NOp   1
 Largest concise Abelian subgroup C1      NOp   1
                         Standard orientation:                         
 ---------------------------------------------------------------------
 Center     Atomic     Atomic              Coordinates (Angstroms)
 Number     Number      Type              X           Y           Z
 ---------------------------------------------------------------------
    1          7             0        1.573870    1.849835    0.043759
    2          1             0        2.000648    1.803831   -0.879326
    3          6             0        0.698598    0.707067    0.283527
    4          1             0        0.383222    0.725994    1.332871
    5          6             0       -0.582533    0.815852   -0.570558
    6          6             0        1.370238   -0.637478    0.051727
    7          1             0       -0.826230    1.882548   -0.632999
    8          1             0       -0.439064    0.455142   -1.591538
    9          6             0       -1.769666    0.124758    0.058179
   10          8             0        2.550494   -0.820867   -0.298487
   11          8             0       -1.985526    0.037065    1.254643
   12          1             0        2.334334    1.877643    0.717667
   13          8             0        0.642254   -1.724197    0.229962
   14          1             0        2.029823   -2.102249   -0.177133
   15          8             0       -2.632081   -0.354908   -0.884023
   16          1             0       -3.400772   -0.749693   -0.429868
 ---------------------------------------------------------------------
 Rotational constants (GHZ):      2.5991067      1.0826096      0.9041104
 Standard basis: 6-31G (6D, 7F)
 There are    95 symmetry adapted basis functions of A   symmetry.
 Integral buffers will be    262144 words long.
 Raffenetti 2 integral format.
 Two-electron integral symmetry is turned on.
    95 basis functions,   226 primitive gaussians,    95 cartesian basis functions
    35 alpha electrons       35 beta electrons
       nuclear repulsion energy       467.3383737343 Hartrees.
 NAtoms=   16 NActive=   16 NUniq=   16 SFac= 7.50D-01 NAtFMM=   80 NAOKFM=F Big=F
 One-electron integrals computed using PRISM.
 NBasis=    95 RedAO= T  NBF=    95
 NBsUse=    95 1.00D-06 NBFU=    95
 Initial guess read from the read-write file:
 Initial guess orbital symmetries:
       Occupied  (A) (A) (A) (A) (A) (A) (A) (A) (A) (A) (A) (A)
                 (A) (A) (A) (A) (A) (A) (A) (A) (A) (A) (A) (A)
                 (A) (A) (A) (A) (A) (A) (A) (A) (A) (A) (A)
       Virtual   (A) (A) (A) (A) (A) (A) (A) (A) (A) (A) (A) (A)
                 (A) (A) (A) (A) (A) (A) (A) (A) (A) (A) (A) (A)
                 (A) (A) (A) (A) (A) (A) (A) (A) (A) (A) (A) (A)
                 (A) (A) (A) (A) (A) (A) (A) (A) (A) (A) (A) (A)
                 (A) (A) (A) (A) (A) (A) (A) (A) (A) (A) (A) (A)
 Harris functional with IExCor=  402 diagonalized for initial guess.
 ExpMin= 1.61D-01 ExpMax= 5.48D+03 ExpMxC= 8.25D+02 IAcc=1 IRadAn=         1 AccDes= 1.00D-06
 HarFok:  IExCor= 402 AccDes= 1.00D-06 IRadAn=         1 IDoV=1
 ScaDFX=  1.000000  1.000000  1.000000  1.000000
 Requested convergence on RMS density matrix=1.00D-08 within 128 cycles.
 Requested convergence on MAX density matrix=1.00D-06.
 Requested convergence on             energy=1.00D-06.
 No special actions if energy rises.
 Integral accuracy reduced to 1.0D-05 until final iterations.
 Initial convergence to 1.0D-05 achieved.  Increase integral accuracy.
 SCF Done:  E(RB+HF-LYP) =  -512.056287155     A.U. after   14 cycles
             Convg  =    0.4209D-08             -V/T =  2.0053
             S**2   =   0.0000
 ***** Axes restored to original set *****
 -------------------------------------------------------------------
 Center     Atomic                   Forces (Hartrees/Bohr)
 Number     Number              X              Y              Z
 -------------------------------------------------------------------
    1          7          -0.000035704   -0.007348438    0.004713579
    2          1          -0.001469821    0.004901340    0.002202254
    3          6          -0.003150676   -0.001516818    0.003252987
    4          1           0.000373620   -0.000459678   -0.000524416
    5          6           0.001003310    0.001871488   -0.000355682
    6          6           0.023710658    0.073206478   -0.067589380
    7          1          -0.001590672   -0.000106255    0.000316466
    8          1           0.000778234   -0.000434660    0.000132624
    9          6          -0.008371504   -0.002236587    0.020621473
   10          8           0.008010786   -0.049706778    0.036407156
   11          8          -0.000448470   -0.006460277   -0.021929062
   12          1          -0.003866010    0.000803804   -0.004018340
   13          8          -0.018407092   -0.024451262    0.026419236
   14          1          -0.005564273    0.005007889   -0.001383211
   15          8           0.002328747    0.003800772    0.004019318
   16          1           0.006698868    0.003128982   -0.002285003
 -------------------------------------------------------------------
 Cartesian Forces:  Max     0.073206478 RMS     0.019002366

 GradGradGradGradGradGradGradGradGradGradGradGradGradGradGradGradGradGrad
 Berny optimization.
 Internal  Forces:  Max     0.055715706 RMS     0.009397800
 Search for a saddle point.
 Step number   2 out of a maximum of  81
 All quantities printed in internal units (Hartrees-Bohrs-Radians)
 Swaping is turned off.
 Update second derivatives using D2CorX and points  1  2
     Eigenvalues ---   -0.09026  -0.00171   0.00104   0.00263   0.00661
     Eigenvalues ---    0.02144   0.02290   0.03345   0.03859   0.04081
     Eigenvalues ---    0.04483   0.04912   0.05047   0.05432   0.05952
     Eigenvalues ---    0.08243   0.11081   0.12283   0.15680   0.16450
     Eigenvalues ---    0.16684   0.17288   0.18148   0.20019   0.20655
     Eigenvalues ---    0.22369   0.23399   0.25774   0.26834   0.30401
     Eigenvalues ---    0.34108   0.34457   0.34663   0.35032   0.36091
     Eigenvalues ---    0.40404   0.44963   0.45331   0.45938   0.52218
     Eigenvalues ---    0.80804   0.950861000.000001000.000001000.00000
     Eigenvalues --- 1000.000001000.000001000.000001000.000001000.00000
     Eigenvalues --- 1000.000001000.000001000.000001000.000001000.00000
     Eigenvalues --- 1000.000001000.000001000.000001000.000001000.00000
     Eigenvalues --- 1000.000001000.000001000.000001000.000001000.00000
     Eigenvalues --- 1000.000001000.000001000.000001000.000001000.00000
     Eigenvalues --- 1000.00000
 Eigenvectors required to have negative eigenvalues:
                          R1        R2        R3        R4        R5
         1              0.00003  -0.01006  -0.00029   0.00192   0.00321
                          R6        R7        R8        R9        R10
         1              0.00624  -0.00018   0.00067   0.00003  -0.04990
                          R11       R12       R13       R14       R15
         1              0.12477   0.00206   0.00286   0.00033   0.66871
                          R16       R17       A1        A2        A3
         1             -0.63527   0.00083  -0.00226  -0.00035  -0.00034
                          A4        A5        A6        A7        A8
         1              0.00284   0.00127  -0.01752  -0.00295   0.00706
                          A9        A10       A11       A12       A13
         1              0.01015  -0.00283   0.00137   0.00205  -0.00034
                          A14       A15       A16       A17       A18
         1              0.00184  -0.00218  -0.03608   0.02730   0.00867
                          A19       A20       A21       A22       A23
         1             -0.00116   0.00096   0.00038   0.04399   0.00339
                          A24       A25       D1        D2        D3
         1             -0.20886   0.28422  -0.00177  -0.00295  -0.00173
                          D4        D5        D6        D7        D8
         1              0.00038  -0.00079   0.00042  -0.00736  -0.00879
                          D9        D10       D11       D12       D13
         1             -0.00896  -0.00500  -0.00643  -0.00660   0.00691
                          D14       D15       D16       D17       D18
         1              0.00548   0.00531  -0.01990   0.00846  -0.01778
                          D19       D20       D21       D22       D23
         1              0.01058  -0.02337   0.00499  -0.00725  -0.00302
                          D24       D25       D26       D27       D28
         1             -0.00611  -0.00188  -0.00559  -0.00136  -0.00082
                          D29
         1              0.00323
 RFO step:  Lambda0=5.721077238D-04 Lambda=-1.92304985D-02.
 Linear search not attempted -- option 19 set.
 Maximum step size (   0.300) exceeded in Quadratic search.
    -- Step size scaled by   0.797
 Iteration  1 RMS(Cart)=  0.02609522 RMS(Int)=  0.00113291
 Iteration  2 RMS(Cart)=  0.00106908 RMS(Int)=  0.00022498
 Iteration  3 RMS(Cart)=  0.00000120 RMS(Int)=  0.00022498
 Iteration  4 RMS(Cart)=  0.00000000 RMS(Int)=  0.00022498
 Variable       Old X    -DE/DX   Delta X   Delta X   Delta X     New X
                                 (Linear)    (Quad)   (Total)
    R1        1.92376   0.00228   0.00000  -0.00076  -0.00076   1.92300
    R2        2.75765   0.00606   0.00000  -0.00009  -0.00009   2.75755
    R3        1.92087   0.00237   0.00000  -0.00065  -0.00065   1.92022
    R4        2.07090   0.00057   0.00000   0.00275   0.00275   2.07365
    R5        2.91691  -0.00022   0.00000   0.00576   0.00576   2.92267
    R6        2.87377  -0.00070   0.00000  -0.02905  -0.02905   2.84472
    R7        2.07106   0.00105   0.00000   0.00139   0.00139   2.07246
    R8        2.06413   0.00037   0.00000   0.00052   0.00052   2.06465
    R9        2.85480  -0.00052   0.00000  -0.00318  -0.00318   2.85162
   R10        2.35215   0.05572   0.00000   0.06785   0.06804   2.42018
   R11        2.49464  -0.02257   0.00000  -0.02629  -0.02612   2.46852
   R12        3.06636   0.01623   0.00000  -0.01946  -0.01955   3.04680
   R13        2.30346   0.02286   0.00000   0.01959   0.01959   2.32305
   R14        2.57834   0.01118   0.00000   0.01341   0.01341   2.59175
   R15        2.62377  -0.01206   0.00000  -0.06884  -0.06899   2.55478
   R16        2.82449  -0.01568   0.00000  -0.19724  -0.19731   2.62718
   R17        1.84478   0.00671   0.00000   0.00867   0.00867   1.85345
    A1        1.94448   0.00313   0.00000   0.02254   0.02181   1.96629
    A2        1.86373   0.00091   0.00000   0.03180   0.03054   1.89426
    A3        1.94037   0.00324   0.00000   0.02318   0.02245   1.96283
    A4        1.89274  -0.00034   0.00000   0.00155   0.00156   1.89430
    A5        1.93020  -0.00005   0.00000   0.00661   0.00664   1.93683
    A6        1.98496   0.00221   0.00000   0.00746   0.00748   1.99244
    A7        1.86476   0.00032   0.00000  -0.00593  -0.00596   1.85880
    A8        1.86327  -0.00054   0.00000  -0.00061  -0.00068   1.86260
    A9        1.92254  -0.00170   0.00000  -0.00999  -0.01002   1.91252
   A10        1.85946  -0.00035   0.00000  -0.00314  -0.00309   1.85637
   A11        1.96590   0.00089   0.00000   0.00099   0.00095   1.96685
   A12        1.97109  -0.00250   0.00000  -0.01230  -0.01232   1.95877
   A13        1.87273  -0.00002   0.00000   0.00467   0.00465   1.87738
   A14        1.86945   0.00189   0.00000   0.01366   0.01365   1.88310
   A15        1.91895   0.00027   0.00000  -0.00219  -0.00225   1.91670
   A16        2.20426   0.00750   0.00000   0.00945   0.00931   2.21357
   A17        2.05296   0.01640   0.00000   0.09719   0.09723   2.15018
   A18        2.02596  -0.02389   0.00000  -0.10665  -0.10655   1.91940
   A19        2.19025  -0.00014   0.00000   0.00002   0.00002   2.19026
   A20        1.94994   0.00005   0.00000   0.00021   0.00021   1.95015
   A21        2.14195   0.00009   0.00000  -0.00012  -0.00012   2.14183
   A22        1.70975   0.00993   0.00000   0.05661   0.05622   1.76597
   A23        1.89507   0.00705   0.00000   0.02276   0.02276   1.91783
   A24        3.11809   0.00820   0.00000   0.00819   0.00808   3.12618
   A25        3.19968  -0.00744   0.00000  -0.03742  -0.03734   3.16234
    D1        2.99887   0.00278   0.00000   0.03456   0.03488   3.03375
    D2       -1.24495   0.00294   0.00000   0.03204   0.03234  -1.21260
    D3        0.92896   0.00232   0.00000   0.02965   0.02999   0.95895
    D4        0.92226  -0.00258   0.00000  -0.03577  -0.03609   0.88617
    D5        2.96163  -0.00243   0.00000  -0.03830  -0.03863   2.92301
    D6       -1.14764  -0.00304   0.00000  -0.04068  -0.04098  -1.18862
    D7       -0.60458   0.00068   0.00000  -0.00303  -0.00302  -0.60760
    D8        1.44415   0.00092   0.00000   0.00123   0.00122   1.44537
    D9       -2.65217  -0.00002   0.00000  -0.01090  -0.01090  -2.66307
   D10        1.45201   0.00043   0.00000  -0.00107  -0.00108   1.45093
   D11       -2.78245   0.00068   0.00000   0.00319   0.00316  -2.77929
   D12       -0.59558  -0.00026   0.00000  -0.00894  -0.00896  -0.60454
   D13       -2.81367  -0.00090   0.00000  -0.01018  -0.01014  -2.82381
   D14       -0.76494  -0.00066   0.00000  -0.00592  -0.00590  -0.77084
   D15        1.42193  -0.00159   0.00000  -0.01804  -0.01802   1.40391
   D16        0.00975   0.00060   0.00000   0.01262   0.01263   0.02238
   D17       -3.12666   0.00024   0.00000   0.01640   0.01641  -3.11024
   D18       -2.07697   0.00007   0.00000   0.00667   0.00667  -2.07030
   D19        1.06981  -0.00029   0.00000   0.01045   0.01045   1.08026
   D20        2.18777   0.00086   0.00000   0.01911   0.01910   2.20686
   D21       -0.94864   0.00050   0.00000   0.02289   0.02288  -0.92576
   D22        0.57940  -0.00011   0.00000  -0.00629  -0.00633   0.57307
   D23       -2.61053  -0.00018   0.00000  -0.00367  -0.00371  -2.61424
   D24       -1.46230   0.00053   0.00000  -0.00418  -0.00415  -1.46645
   D25        1.63095   0.00046   0.00000  -0.00156  -0.00153   1.62942
   D26        2.79144  -0.00063   0.00000  -0.01617  -0.01617   2.77528
   D27       -0.39849  -0.00071   0.00000  -0.01355  -0.01354  -0.41203
   D28       -3.09146  -0.00043   0.00000  -0.01121  -0.01121  -3.10267
   D29        0.00335  -0.00051   0.00000  -0.00867  -0.00867  -0.00531
         Item               Value     Threshold  Converged?
 Maximum Force            0.055716     0.000450     NO 
 RMS     Force            0.009398     0.000300     NO 
 Maximum Displacement     0.105746     0.001800     NO 
 RMS     Displacement     0.025878     0.001200     NO 
 Predicted change in Energy=-9.773543D-03
 GradGradGradGradGradGradGradGradGradGradGradGradGradGradGradGradGradGrad

                          Input orientation:                          
 ---------------------------------------------------------------------
 Center     Atomic     Atomic              Coordinates (Angstroms)
 Number     Number      Type              X           Y           Z
 ---------------------------------------------------------------------
    1          7             0        0.092678   -0.041378   -0.008591
    2          1             0        0.061225   -0.009287    1.008023
    3          6             0        1.455251   -0.012885   -0.530075
    4          1             0        1.416123   -0.161720   -1.616559
    5          6             0        2.107452    1.370378   -0.299368
    6          6             0        2.349154   -1.090589    0.022744
    7          1             0        1.305923    2.111383   -0.405234
    8          1             0        2.524920    1.477359    0.704610
    9          6             0        3.165550    1.681562   -1.329276
   10          8             0        2.022895   -2.005171    0.857791
   11          8             0        3.147993    1.317121   -2.503186
   12          1             0       -0.426064   -0.856911   -0.322198
   13          8             0        3.610300   -1.207542   -0.296963
   14          1             0        3.331852   -2.228885    0.604202
   15          8             0        4.151804    2.485423   -0.817306
   16          1             0        4.804736    2.699271   -1.517254
 ---------------------------------------------------------------------
                    Distance matrix (angstroms):
                    1          2          3          4          5
     1  N    0.000000
     2  H    1.017607   0.000000
     3  C    1.459234   2.075829   0.000000
     4  H    2.086037   2.957603   1.097329   0.000000
     5  C    2.477281   2.792811   1.546611   2.135474   0.000000
     6  C    2.488676   2.715623   1.505363   2.102537   2.493699
     7  H    2.502733   2.836162   2.133166   2.578070   1.096697
     8  H    2.954830   2.893436   2.211213   3.050219   1.092564
     9  C    3.762350   4.237779   2.536729   2.557482   1.509012
    10  O    2.886666   2.802547   2.493511   3.144662   3.569383
    11  O    4.171748   4.859639   2.920182   2.443860   2.437699
    12  H    1.016137   1.650880   2.072423   2.356334   3.373431
    13  O    3.717091   3.966704   2.475032   2.765771   2.983996
    14  H    3.956381   3.973246   3.117510   3.588171   3.907722
    15  O    4.849253   5.127206   3.687200   3.889746   2.385574
    16  H    5.656034   6.017825   4.421466   4.435970   3.244156
                    6          7          8          9         10
     6  C    0.000000
     7  H    3.394720   0.000000
     8  H    2.662741   1.766266   0.000000
     9  C    3.190499   2.120568   2.142148   0.000000
    10  O    1.280706   4.365238   3.521861   4.436319   0.000000
    11  O    3.579880   2.902667   3.271674   1.229305   4.857946
    12  H    2.806318   3.437651   3.900187   4.511955   2.950979
    13  O    1.306285   4.041923   3.064293   3.100064   2.118850
    14  H    1.612298   4.895026   3.794399   4.365500   1.351933
    15  O    4.091833   2.899784   2.445234   1.371497   5.244391
    16  H    4.771218   3.718050   3.409884   1.938556   5.959132
                   11         12         13         14         15
    11  O    0.000000
    12  H    4.717733   0.000000
    13  O    3.384534   4.051643   0.000000
    14  H    4.718456   4.106393   1.390242   0.000000
    15  O    2.283585   5.689745   3.768551   4.991764   0.000000
    16  H    2.372171   6.437069   4.263681   5.563873   0.980805
                   16
    16  H    0.000000
 Stoichiometry    C4H7NO4
 Framework group  C1[X(C4H7NO4)]
 Deg. of freedom    42
 Full point group                 C1
 Largest Abelian subgroup         C1      NOp   1
 Largest concise Abelian subgroup C1      NOp   1
                         Standard orientation:                         
 ---------------------------------------------------------------------
 Center     Atomic     Atomic              Coordinates (Angstroms)
 Number     Number      Type              X           Y           Z
 ---------------------------------------------------------------------
    1          7             0        1.566727    1.862815    0.029691
    2          1             0        1.984317    1.840644   -0.898021
    3          6             0        0.686038    0.725917    0.277105
    4          1             0        0.362807    0.756681    1.325297
    5          6             0       -0.596901    0.822433   -0.581241
    6          6             0        1.336164   -0.614926    0.063580
    7          1             0       -0.840853    1.889220   -0.653340
    8          1             0       -0.453355    0.447593   -1.597404
    9          6             0       -1.768202    0.121413    0.061988
   10          8             0        2.550720   -0.833352   -0.278988
   11          8             0       -1.970922    0.033328    1.271259
   12          1             0        2.311349    1.933974    0.717449
   13          8             0        0.700888   -1.747926    0.201849
   14          1             0        2.003736   -2.064496   -0.165770
   15          8             0       -2.639593   -0.374555   -0.873798
   16          1             0       -3.406427   -0.792308   -0.427224
 ---------------------------------------------------------------------
 Rotational constants (GHZ):      2.5579699      1.0838376      0.9004789
 Standard basis: 6-31G (6D, 7F)
 There are    95 symmetry adapted basis functions of A   symmetry.
 Integral buffers will be    262144 words long.
 Raffenetti 2 integral format.
 Two-electron integral symmetry is turned on.
    95 basis functions,   226 primitive gaussians,    95 cartesian basis functions
    35 alpha electrons       35 beta electrons
       nuclear repulsion energy       466.3982775721 Hartrees.
 NAtoms=   16 NActive=   16 NUniq=   16 SFac= 7.50D-01 NAtFMM=   80 NAOKFM=F Big=F
 One-electron integrals computed using PRISM.
 NBasis=    95 RedAO= T  NBF=    95
 NBsUse=    95 1.00D-06 NBFU=    95
 Initial guess read from the read-write file:
 Initial guess orbital symmetries:
       Occupied  (A) (A) (A) (A) (A) (A) (A) (A) (A) (A) (A) (A)
                 (A) (A) (A) (A) (A) (A) (A) (A) (A) (A) (A) (A)
                 (A) (A) (A) (A) (A) (A) (A) (A) (A) (A) (A)
       Virtual   (A) (A) (A) (A) (A) (A) (A) (A) (A) (A) (A) (A)
                 (A) (A) (A) (A) (A) (A) (A) (A) (A) (A) (A) (A)
                 (A) (A) (A) (A) (A) (A) (A) (A) (A) (A) (A) (A)
                 (A) (A) (A) (A) (A) (A) (A) (A) (A) (A) (A) (A)
                 (A) (A) (A) (A) (A) (A) (A) (A) (A) (A) (A) (A)
 Harris functional with IExCor=  402 diagonalized for initial guess.
 ExpMin= 1.61D-01 ExpMax= 5.48D+03 ExpMxC= 8.25D+02 IAcc=1 IRadAn=         1 AccDes= 1.00D-06
 HarFok:  IExCor= 402 AccDes= 1.00D-06 IRadAn=         1 IDoV=1
 ScaDFX=  1.000000  1.000000  1.000000  1.000000
 Requested convergence on RMS density matrix=1.00D-08 within 128 cycles.
 Requested convergence on MAX density matrix=1.00D-06.
 Requested convergence on             energy=1.00D-06.
 No special actions if energy rises.
 Integral accuracy reduced to 1.0D-05 until final iterations.
 Initial convergence to 1.0D-05 achieved.  Increase integral accuracy.
 SCF Done:  E(RB+HF-LYP) =  -512.065769055     A.U. after   14 cycles
             Convg  =    0.4647D-08             -V/T =  2.0054
             S**2   =   0.0000
 ***** Axes restored to original set *****
 -------------------------------------------------------------------
 Center     Atomic                   Forces (Hartrees/Bohr)
 Number     Number              X              Y              Z
 -------------------------------------------------------------------
    1          7           0.001190679   -0.004640841    0.003001628
    2          1          -0.000597949    0.002569986    0.000481356
    3          6          -0.003025332    0.000860355    0.000814837
    4          1          -0.000149738   -0.000108113   -0.000110732
    5          6           0.000079944    0.001066952   -0.000573987
    6          6           0.009034281    0.021972046   -0.021339480
    7          1          -0.000388392   -0.000025528    0.000038622
    8          1           0.000263728   -0.000347109    0.000048127
    9          6          -0.002069997   -0.000406247    0.005763865
   10          8          -0.004549694   -0.019281897    0.016442162
   11          8          -0.000048721   -0.001985362   -0.005864396
   12          1          -0.001571540    0.001098499   -0.002152105
   13          8           0.001107452   -0.004382893    0.003967972
   14          1          -0.001575976    0.001675132   -0.000835851
   15          8           0.000403660    0.001217426    0.000721044
   16          1           0.001897594    0.000717594   -0.000403063
 -------------------------------------------------------------------
 Cartesian Forces:  Max     0.021972046 RMS     0.006236833

 GradGradGradGradGradGradGradGradGradGradGradGradGradGradGradGradGradGrad
 Berny optimization.
 Internal  Forces:  Max     0.022777109 RMS     0.003186452
 Search for a saddle point.
 Step number   3 out of a maximum of  81
 All quantities printed in internal units (Hartrees-Bohrs-Radians)
 Swaping is turned off.
 Update second derivatives using D2CorX and points  1  2  3
     Eigenvalues ---   -0.09185  -0.00182   0.00104   0.00260   0.00653
     Eigenvalues ---    0.02146   0.02288   0.03139   0.03856   0.04483
     Eigenvalues ---    0.04864   0.04911   0.05059   0.05442   0.05951
     Eigenvalues ---    0.08241   0.10899   0.12277   0.15661   0.16468
     Eigenvalues ---    0.16662   0.18074   0.18412   0.20026   0.20653
     Eigenvalues ---    0.22385   0.23335   0.25774   0.27059   0.30398
     Eigenvalues ---    0.34113   0.34467   0.35031   0.35422   0.36092
     Eigenvalues ---    0.40368   0.44956   0.45328   0.45936   0.52203
     Eigenvalues ---    0.80132   0.950481000.000001000.000001000.00000
     Eigenvalues --- 1000.000001000.000001000.000001000.000001000.00000
     Eigenvalues --- 1000.000001000.000001000.000001000.000001000.00000
     Eigenvalues --- 1000.000001000.000001000.000001000.000001000.00000
     Eigenvalues --- 1000.000001000.000001000.000001000.000001000.00000
     Eigenvalues --- 1000.000001000.000001000.000001000.000001000.00000
     Eigenvalues --- 1000.00000
 Eigenvectors required to have negative eigenvalues:
                          R1        R2        R3        R4        R5
         1             -0.00032  -0.01121  -0.00066   0.00205   0.00400
                          R6        R7        R8        R9        R10
         1              0.01032  -0.00015   0.00074  -0.00015  -0.03674
                          R11       R12       R13       R14       R15
         1              0.13286  -0.00349   0.00421   0.00105   0.67535
                          R16       R17       A1        A2        A3
         1             -0.63288   0.00125   0.00106   0.00366   0.00290
                          A4        A5        A6        A7        A8
         1              0.00317   0.00141  -0.01751  -0.00363   0.00675
                          A9        A10       A11       A12       A13
         1              0.01072  -0.00323   0.00121   0.00162   0.00016
                          A14       A15       A16       A17       A18
         1              0.00292  -0.00261  -0.03995   0.02926   0.01050
                          A19       A20       A21       A22       A23
         1             -0.00112   0.00093   0.00038   0.04308   0.00525
                          A24       A25       D1        D2        D3
         1             -0.20065   0.27696   0.00292   0.00122   0.00320
                          D4        D5        D6        D7        D8
         1             -0.00497  -0.00667  -0.00468  -0.00780  -0.00895
                          D9        D10       D11       D12       D13
         1             -0.01022  -0.00538  -0.00653  -0.00780   0.00589
                          D14       D15       D16       D17       D18
         1              0.00473   0.00346  -0.01829   0.01027  -0.01634
                          D19       D20       D21       D22       D23
         1              0.01222  -0.02100   0.00756  -0.00821  -0.00354
                          D24       D25       D26       D27       D28
         1             -0.00700  -0.00233  -0.00743  -0.00276  -0.00218
                          D29
         1              0.00230
 RFO step:  Lambda0=4.679792425D-06 Lambda=-2.95297580D-03.
 Linear search not attempted -- option 19 set.
 Maximum step size (   0.300) exceeded in Quadratic search.
    -- Step size scaled by   0.372
 Iteration  1 RMS(Cart)=  0.04503493 RMS(Int)=  0.00333670
 Iteration  2 RMS(Cart)=  0.00267697 RMS(Int)=  0.00079132
 Iteration  3 RMS(Cart)=  0.00000617 RMS(Int)=  0.00079129
 Iteration  4 RMS(Cart)=  0.00000001 RMS(Int)=  0.00079129
 Variable       Old X    -DE/DX   Delta X   Delta X   Delta X     New X
                                 (Linear)    (Quad)   (Total)
    R1        1.92300   0.00058   0.00000  -0.00210  -0.00210   1.92090
    R2        2.75755   0.00141   0.00000  -0.00370  -0.00370   2.75385
    R3        1.92022   0.00059   0.00000  -0.00190  -0.00190   1.91832
    R4        2.07365   0.00013   0.00000   0.00274   0.00274   2.07639
    R5        2.92267   0.00022   0.00000  -0.00207  -0.00204   2.92063
    R6        2.84472   0.00176   0.00000   0.00175   0.00172   2.84645
    R7        2.07246   0.00026   0.00000   0.00012   0.00012   2.07257
    R8        2.06465   0.00011   0.00000  -0.00014  -0.00014   2.06451
    R9        2.85162  -0.00012   0.00000  -0.00058  -0.00058   2.85104
   R10        2.42018   0.02278   0.00000   0.01566   0.01602   2.43620
   R11        2.46852  -0.00172   0.00000   0.00242   0.00210   2.47062
   R12        3.04680   0.00283   0.00000  -0.00833  -0.00834   3.03846
   R13        2.32305   0.00619   0.00000   0.00330   0.00330   2.32635
   R14        2.59175   0.00291   0.00000   0.00136   0.00136   2.59312
   R15        2.55478   0.00030   0.00000  -0.00985  -0.01112   2.54366
   R16        2.62718  -0.00168   0.00000  -0.01652  -0.01530   2.61188
   R17        1.85345   0.00171   0.00000   0.00107   0.00107   1.85453
    A1        1.96629   0.00132   0.00000   0.01093   0.01074   1.97703
    A2        1.89426   0.00063   0.00000   0.01563   0.01532   1.90958
    A3        1.96283   0.00130   0.00000   0.00953   0.00934   1.97217
    A4        1.89430   0.00001   0.00000  -0.00192  -0.00193   1.89237
    A5        1.93683  -0.00014   0.00000   0.00558   0.00550   1.94234
    A6        1.99244   0.00045   0.00000   0.00120   0.00112   1.99356
    A7        1.85880  -0.00009   0.00000  -0.00641  -0.00632   1.85248
    A8        1.86260  -0.00018   0.00000  -0.01075  -0.01072   1.85188
    A9        1.91252  -0.00010   0.00000   0.01081   0.01073   1.92325
   A10        1.85637  -0.00015   0.00000   0.00180   0.00180   1.85817
   A11        1.96685   0.00016   0.00000  -0.00055  -0.00056   1.96629
   A12        1.95877  -0.00059   0.00000  -0.00245  -0.00246   1.95632
   A13        1.87738   0.00008   0.00000   0.00195   0.00195   1.87933
   A14        1.88310   0.00059   0.00000   0.00229   0.00230   1.88539
   A15        1.91670  -0.00003   0.00000  -0.00252  -0.00253   1.91418
   A16        2.21357  -0.00006   0.00000  -0.00617  -0.00938   2.20419
   A17        2.15018   0.00440   0.00000   0.01517   0.01785   2.16804
   A18        1.91940  -0.00434   0.00000  -0.00871  -0.00893   1.91047
   A19        2.19026  -0.00003   0.00000   0.00025   0.00025   2.19051
   A20        1.95015  -0.00001   0.00000  -0.00009  -0.00009   1.95006
   A21        2.14183   0.00005   0.00000  -0.00017  -0.00017   2.14166
   A22        1.76597   0.00738   0.00000   0.01397   0.01389   1.77986
   A23        1.91783   0.00208   0.00000   0.00415   0.00415   1.92198
   A24        3.12618   0.00325   0.00000   0.04675   0.04248   3.16866
   A25        3.16234  -0.00245   0.00000   0.03837   0.04064   3.20298
    D1        3.03375   0.00144   0.00000   0.01851   0.01858   3.05232
    D2       -1.21260   0.00127   0.00000   0.01276   0.01287  -1.19973
    D3        0.95895   0.00138   0.00000   0.03268   0.03273   0.99168
    D4        0.88617  -0.00141   0.00000  -0.01788  -0.01797   0.86820
    D5        2.92301  -0.00158   0.00000  -0.02364  -0.02367   2.89933
    D6       -1.18862  -0.00147   0.00000  -0.00371  -0.00381  -1.19244
    D7       -0.60760   0.00012   0.00000  -0.00231  -0.00229  -0.60989
    D8        1.44537   0.00021   0.00000   0.00088   0.00090   1.44627
    D9       -2.66307  -0.00017   0.00000  -0.00486  -0.00484  -2.66791
   D10        1.45093   0.00001   0.00000  -0.00540  -0.00541   1.44552
   D11       -2.77929   0.00010   0.00000  -0.00221  -0.00221  -2.78150
   D12       -0.60454  -0.00028   0.00000  -0.00795  -0.00795  -0.61249
   D13       -2.82381  -0.00029   0.00000  -0.01606  -0.01607  -2.83988
   D14       -0.77084  -0.00020   0.00000  -0.01286  -0.01288  -0.78372
   D15        1.40391  -0.00059   0.00000  -0.01860  -0.01862   1.38529
   D16        0.02238   0.00022   0.00000   0.12455   0.12452   0.14690
   D17       -3.11024   0.00048   0.00000   0.07865   0.07862  -3.03162
   D18       -2.07030   0.00005   0.00000   0.13365   0.13360  -1.93671
   D19        1.08026   0.00032   0.00000   0.08775   0.08770   1.16796
   D20        2.20686   0.00030   0.00000   0.14151   0.14146   2.34832
   D21       -0.92576   0.00057   0.00000   0.09561   0.09556  -0.83020
   D22        0.57307  -0.00015   0.00000  -0.02446  -0.02446   0.54861
   D23       -2.61424  -0.00010   0.00000  -0.02494  -0.02494  -2.63918
   D24       -1.46645   0.00001   0.00000  -0.02669  -0.02669  -1.49314
   D25        1.62942   0.00005   0.00000  -0.02717  -0.02717   1.60225
   D26        2.77528  -0.00041   0.00000  -0.02895  -0.02894   2.74633
   D27       -0.41203  -0.00036   0.00000  -0.02943  -0.02942  -0.44146
   D28       -3.10267  -0.00030   0.00000  -0.00658  -0.00658  -3.10924
   D29       -0.00531  -0.00026   0.00000  -0.00703  -0.00703  -0.01234
         Item               Value     Threshold  Converged?
 Maximum Force            0.022777     0.000450     NO 
 RMS     Force            0.003186     0.000300     NO 
 Maximum Displacement     0.179203     0.001800     NO 
 RMS     Displacement     0.044689     0.001200     NO 
 Predicted change in Energy=-1.023374D-03
 GradGradGradGradGradGradGradGradGradGradGradGradGradGradGradGradGradGrad

                          Input orientation:                          
 ---------------------------------------------------------------------
 Center     Atomic     Atomic              Coordinates (Angstroms)
 Number     Number      Type              X           Y           Z
 ---------------------------------------------------------------------
    1          7             0        0.099910   -0.041508    0.006989
    2          1             0        0.054391    0.014524    1.020920
    3          6             0        1.461541   -0.006915   -0.511098
    4          1             0        1.423696   -0.164260   -1.597895
    5          6             0        2.107019    1.381451   -0.300230
    6          6             0        2.358658   -1.085973    0.036330
    7          1             0        1.304005    2.118925   -0.419302
    8          1             0        2.523962    1.503913    0.702114
    9          6             0        3.168242    1.676226   -1.331299
   10          8             0        1.994339   -2.082600    0.768449
   11          8             0        3.168568    1.269869   -2.493348
   12          1             0       -0.424618   -0.850729   -0.310063
   13          8             0        3.641588   -1.166655   -0.202133
   14          1             0        3.310393   -2.271971    0.558735
   15          8             0        4.134573    2.517326   -0.839633
   16          1             0        4.795521    2.716503   -1.537177
 ---------------------------------------------------------------------
                    Distance matrix (angstroms):
[...]
    D2       -1.04335   0.00001   0.00000   0.00011   0.00011  -1.04323
    D3        1.10865  -0.00001   0.00000  -0.00004  -0.00004   1.10861
    D4        0.78329   0.00000   0.00000   0.00014   0.00014   0.78343
    D5        2.87556   0.00001   0.00000   0.00014   0.00014   2.87571
    D6       -1.25562  -0.00001   0.00000  -0.00001  -0.00001  -1.25563
    D7       -0.91349   0.00000   0.00000   0.00026   0.00026  -0.91323
    D8        1.13714   0.00000   0.00000   0.00021   0.00021   1.13734
    D9       -3.03237   0.00000   0.00000   0.00040   0.00040  -3.03197
   D10        1.16454   0.00000   0.00000   0.00028   0.00028   1.16482
   D11       -3.06802   0.00000   0.00000   0.00023   0.00023  -3.06779
   D12       -0.95434   0.00000   0.00000   0.00042   0.00042  -0.95392
   D13       -3.05482   0.00000   0.00000   0.00027   0.00027  -3.05455
   D14       -1.00420   0.00000   0.00000   0.00022   0.00022  -1.00397
   D15        1.10948   0.00000   0.00000   0.00041   0.00041   1.10989
   D16        1.40828   0.00002   0.00000   0.00035   0.00035   1.40863
   D17       -1.59223  -0.00001   0.00000  -0.00024  -0.00024  -1.59247
   D18       -0.64473   0.00001   0.00000   0.00021   0.00021  -0.64452
   D19        2.63795  -0.00001   0.00000  -0.00038  -0.00038   2.63757
   D20       -2.73611   0.00001   0.00000   0.00025   0.00025  -2.73586
   D21        0.54656  -0.00001   0.00000  -0.00034  -0.00034   0.54622
   D22        0.03150   0.00000   0.00000   0.00157   0.00157   0.03307
   D23       -3.12072   0.00000   0.00000   0.00148   0.00148  -3.11925
   D24       -2.08027   0.00000   0.00000   0.00176   0.00176  -2.07850
   D25        1.05070   0.00000   0.00000   0.00167   0.00167   1.05237
   D26        2.16749   0.00001   0.00000   0.00180   0.00180   2.16929
   D27       -0.98473   0.00001   0.00000   0.00170   0.00170  -0.98303
   D28        3.13533   0.00001   0.00000   0.00041   0.00041   3.13574
   D29       -0.01651   0.00000   0.00000   0.00032   0.00032  -0.01619
         Item               Value     Threshold  Converged?
 Maximum Force            0.000026     0.000450     YES
 RMS     Force            0.000009     0.000300     YES
 Maximum Displacement     0.003179     0.001800     NO 
 RMS     Displacement     0.000720     0.001200     YES
 Predicted change in Energy=-4.186446D-08
 GradGradGradGradGradGradGradGradGradGradGradGradGradGradGradGradGradGrad


 Test job not archived.
 1|1|UNPC-UNK|Freq|RB3LYP|6-31G|C4H7N1O4|PCUSER|01-Apr-2016|0||#N Geom=
 AllCheck Guess=Read SCRF=Check Test GenChk RB3LYP/6-31G Freq||Asp-S-op
 t-freq-ts1-6-31g||0,1|N,0.1832031845,-0.0135422293,0.2537125395|H,0.29
 38704831,0.134093569,1.2501639478|C,1.4178910751,0.0325009714,-0.52965
 467|H,1.1648121815,-0.1334798274,-1.5794169875|C,2.0900111437,1.399761
 2145,-0.3716925261|C,2.343323977,-1.0864396234,-0.1162034994|H,1.35780
 97797,2.1825609317,-0.5962555382|H,2.4183454519,1.5515322963,0.6636053
 389|C,3.2825439177,1.5511561027,-1.2746224834|O,2.257724615,-2.3255225
 037,-0.5140166248|O,3.6829740659,0.7102653212,-2.085791012|H,-0.445355
 7217,-0.7733809576,0.0264308271|O,3.2664474703,-1.0093467443,0.8089821
 729|H,3.2374690716,-2.3079344856,0.4270621679|O,3.896034476,2.76964565
 9,-1.1086138239|H,4.6746844286,2.8462569154,-1.7023314489||Version=IA3
 2W-G03RevE.01|State=1-A|HF=-512.0685972|RMSD=2.302e-009|RMSF=1.193e-00
 5|ZeroPoint=0.1176748|Thermal=0.1270531|Dipole=-0.5322629,0.727552,0.3
 580635|DipoleDeriv=-0.7391429,0.2376987,0.0692523,0.2858185,-0.6531381
 ,0.1781328,0.0283581,0.1690133,-0.2867066,0.1823107,-0.0931338,-0.0730
 398,-0.0942485,0.3210572,0.0208944,-0.0151005,-0.0230996,0.0636979,0.4
 293802,-0.0015042,-0.1122992,0.0174857,0.401434,-0.1462194,-0.0915912,
 -0.1345773,0.2745577,0.0499628,0.0231197,-0.0109543,0.0043708,0.036371
 9,-0.034035,-0.0267463,-0.011805,-0.0277158,-0.1493068,-0.0217027,0.16
 6698,-0.0052773,-0.003974,-0.0461126,0.1656807,0.006939,-0.0397097,0.5
 899162,-0.0388006,0.3315064,-0.0827525,0.9626758,0.1627726,0.3709121,0
 .1073682,0.5624444,0.0457175,0.0492512,-0.0036989,0.027504,-0.0060799,
 0.0439536,-0.0150886,0.035521,0.0981663,0.0614552,-0.0378651,-0.020481
 7,-0.0352957,0.1057188,0.0161577,-0.0183619,-0.02433,-0.0146644,0.9617
 649,0.4219092,-0.3992593,0.5221165,1.5099509,0.1630323,-0.3085617,0.30
 22943,0.7141437,-0.4919388,-0.039718,-0.1263817,-0.0227765,-0.8890346,
 -0.2054549,-0.1324982,-0.1336438,-0.5265867,-0.5717696,0.0259713,0.260
 6518,-0.1667853,-0.84302,-0.0835259,0.1452515,-0.2718248,-0.6253209,0.
 2767074,-0.0793226,0.0592297,-0.1798967,0.1332713,-0.0590186,0.1014715
 ,-0.0379868,0.1690034,-0.6434007,-0.0762608,-0.2339396,-0.0221928,-0.6
 762882,-0.0642308,-0.3130525,-0.1038786,-0.6299703,0.3590521,0.1023322
 ,0.059778,0.1082102,0.3873201,0.1113474,0.0506638,0.129812,0.3865468,-
 0.6196824,-0.4763555,-0.0856866,-0.4077194,-1.1363406,0.0174073,-0.086
 7162,0.0268087,-0.3785444,0.2589742,0.0043809,0.118625,0.0514389,0.350
 0754,-0.0751008,0.1453796,-0.0366106,0.2606585|Polar=59.1489241,2.4620
 015,64.8092036,-2.9051195,3.0111506,48.904441|PG=C01 [X(C4H7N1O4)]|NIm
 ag=1||0.48015516,0.26907588,0.34713561,-0.01513545,0.16380050,0.655616
 70,-0.05834246,-0.03912813,-0.05082762,0.06217461,-0.03194411,-0.03143
 276,-0.04299248,0.03015229,0.03719277,-0.03238620,-0.08240699,-0.42548
 386,0.03614505,0.07243811,0.44608320,-0.16790570,-0.03598278,0.0639467
 8,-0.00174546,0.00660574,-0.00950420,0.45975254,-0.01663711,-0.0666097
 2,-0.02060627,0.00731051,-0.00116403,0.00074400,0.03308364,0.49411331,
 0.05467220,-0.00988770,-0.13443781,0.03631966,0.00162666,-0.01683055,0
 .04588189,0.02961779,0.62003696,0.00063321,0.00740228,0.03786165,-0.00
 428690,-0.00152859,0.00383907,-0.06503058,-0.00981045,-0.06988598,0.07
 986415,-0.00140615,0.00148983,0.00096607,-0.00029432,0.00048422,0.0003
 0138,-0.01004258,-0.05831544,-0.03891918,0.00876040,0.06622813,0.00169
 650,-0.00539076,-0.01974272,0.00232549,0.00156615,0.00028644,-0.064518
 20,-0.03516486,-0.29473567,0.06537528,0.03974340,0.32333896,-0.0277152
 2,-0.03233446,-0.00072861,0.00195897,0.00078798,-0.00028451,-0.0918914
 2,-0.03367569,-0.00957872,-0.00384810,-0.01015193,-0.00144132,0.530998
 10,-0.00713110,-0.00186086,0.00046963,0.00138959,0.00075773,-0.0000474
 4,-0.03548933,-0.16513231,-0.01312789,-0.00313894,-0.00729329,-0.00114
 985,-0.03446756,0.54037955,0.01815129,0.01881006,0.00260907,0.00031713
 ,0.00124338,0.00073919,-0.01184436,-0.01956840,-0.08966972,-0.01371905
 ,-0.02974154,-0.00108722,0.02947300,0.00445653,0.55398200,-0.04444197,
 0.01602536,0.01167770,0.00172714,0.00003759,-0.00068558,-0.09722959,0.
 04480542,-0.03176794,-0.00729609,0.01048030,-0.00689105,0.01143031,-0.
 00674963,0.00489172,0.47349128,0.00785152,0.00200940,-0.00505525,-0.00
 058988,0.00028821,-0.00090430,0.04363614,-0.15138941,0.03221018,-0.001
 67492,0.00181245,-0.00215625,0.01862652,-0.03608393,0.01047352,-0.1188
 2500,0.71260824,0.02100225,-0.01208912,0.00071461,0.00399509,-0.002679
 89,0.00120934,-0.03206849,0.03220451,-0.09768293,-0.02469727,0.0284632
 2,-0.01140240,0.00203742,-0.00164859,0.00184853,0.22662328,0.01602022,
 0.42372489,0.00080429,0.00073943,-0.00053985,0.00005230,-0.00009620,0.
 00022272,0.00905000,-0.01387118,0.00359600,0.00053536,0.00069198,0.000
 09924,-0.16851382,0.12863610,-0.03913253,-0.00255507,-0.00260862,0.000
 03065,0.18382285,0.00089177,0.00418059,-0.00072432,0.00006728,-0.00050
 043,0.00022938,0.02042768,-0.02555640,0.00776203,0.00026660,0.00092351
 ,-0.00030512,0.12460648,-0.18118684,0.04134797,-0.00379206,-0.00321396
 ,-0.00123579,-0.13861175,0.20086676,0.00043968,0.00019158,-0.00042845,
 -0.00013111,0.00068146,-0.00029230,0.00196575,-0.00447286,0.00108882,0
 .00054489,-0.00021304,0.00031571,-0.03732669,0.04060218,-0.05641353,-0
 .00074985,-0.00080115,-0.00040804,0.03957275,-0.04343173,0.06315544,0.
 00098884,0.00069352,-0.00028839,-0.00044932,-0.00070994,0.00065050,-0.
 00492101,-0.00316726,-0.01514359,-0.00085948,-0.00230435,0.00073746,-0
 .07018417,-0.01341952,-0.07347856,0.00028007,0.00063654,0.00047645,-0.
 00606617,-0.00274031,-0.02281064,0.07870002,0.00227662,0.00097893,0.00
 013951,-0.00060324,0.00037075,0.00067594,-0.01113540,-0.00754098,-0.03
 188780,-0.00243372,-0.00481719,0.00022069,-0.01274095,-0.05129693,-0.0
 2911042,-0.00161367,0.00101969,-0.00262470,0.00750858,0.00275312,0.023
 17034,0.01535886,0.05745466,-0.00024009,0.00011633,0.00128594,-0.00057
 049,-0.00045507,0.00011962,-0.00024186,0.00018679,-0.00248532,0.000425
 94,0.00019671,0.00099271,-0.07347352,-0.03124278,-0.28243064,-0.001144
 54,-0.00035386,-0.00049652,-0.00164505,-0.00179895,-0.00662998,0.07930
 319,0.03632567,0.30987908,0.00086988,-0.00032069,-0.00066645,-0.000442
 81,-0.00078986,0.00056688,-0.02040797,-0.00893836,0.00845289,0.0003825
 0,0.00052682,0.00093006,-0.15815318,-0.01099701,0.04940257,0.00518906,
 -0.00220866,-0.00010535,-0.01923248,-0.00180312,0.01843837,0.00941983,
 0.00348951,-0.00620983,0.51632597,-0.00192207,-0.00526374,-0.00335801,
 0.00047004,0.00060434,-0.00009459,-0.02706152,-0.00391333,0.02221490,-
 0.00230404,-0.00034435,-0.00085366,-0.01199921,-0.08745970,0.01545492,
 -0.00444107,-0.00565157,0.00363761,0.02253181,0.00277095,-0.01804273,0
 .00372775,0.00033817,-0.00550031,0.00877785,0.65188639,-0.00278072,-0.
 00440103,-0.00037954,0.00014388,0.00069065,-0.00031150,0.00055238,0.00
 736718,0.00253311,-0.00254814,-0.00175992,-0.00040254,0.04892089,0.012
 76462,-0.12668148,-0.00373399,0.00090464,0.00318033,-0.00550952,-0.003
 86935,0.00418699,0.03166942,0.00171366,-0.02372159,-0.24756794,0.23984
 135,0.55814493,0.00112440,0.00192725,-0.00074938,-0.00045278,-0.000128
 85,0.00014559,0.00893504,0.02242356,0.00678577,0.00134887,-0.00146005,
 0.00159087,-0.00400570,0.00205934,-0.00215709,-0.10776615,-0.03971143,
 -0.04529461,0.00099426,0.00126748,0.00049401,-0.00018200,0.00113870,0.
 00058311,-0.00154497,0.00052717,0.00083590,0.08684501,0.00152386,-0.00
 132683,0.00044482,0.00015917,-0.00056290,0.00045718,-0.00442977,-0.019
 22730,-0.01301761,-0.00065126,0.00132577,-0.00023116,0.00377309,-0.001
 29822,0.00171930,-0.00464959,-0.37975878,-0.08449066,-0.00060793,-0.00
 134624,0.00015323,-0.00011647,0.00073307,0.00009169,0.00213183,0.00044
 982,-0.00225823,0.08700673,0.46367050,-0.00172489,0.00060275,0.0021813
 3,-0.00083475,0.00021280,0.00018594,0.00309598,0.00793212,0.00838126,0
 .00226706,-0.00206996,0.00191451,-0.00133802,0.00147775,-0.00005144,-0
 .03851818,-0.11548052,-0.13500674,0.00016139,0.00051135,0.00051636,-0.
 00022746,0.00131517,0.00070489,-0.00008842,-0.00061481,-0.00163124,0.0
 5618930,0.19404743,0.15547529,-0.00003357,-0.00044141,0.00101537,-0.00
 016891,0.00030228,-0.00021196,0.00017436,0.00293263,-0.00056278,0.0004
 6061,0.00004866,0.00074857,-0.00127235,0.01978818,0.03241478,-0.003428
 75,0.00132242,-0.00083917,-0.00092222,0.00015376,0.00118809,-0.0055969
 5,0.00019908,0.00257977,-0.16456645,0.11266883,0.14318772,0.00097759,-
 0.00088945,0.00037934,0.14071574,-0.00054235,0.00173890,0.00123584,-0.
 00041733,-0.00074837,0.00021970,-0.00131757,-0.00250887,-0.00000984,0.
 00121301,0.00064171,0.00125051,0.00238636,0.00396636,-0.01356869,0.002
 86905,0.00133310,-0.00289200,-0.00229318,0.00092671,0.00140957,0.00132
 387,0.00046720,0.00158398,0.11964805,-0.33990253,-0.25354791,-0.000825
 21,0.00036548,0.00128533,-0.12646099,0.40266964,0.00072114,0.00110989,
 0.00041956,-0.00018815,-0.00059331,0.00040526,-0.00255672,-0.00284886,
 -0.00109114,0.00126532,0.00101442,0.00024201,0.02172470,-0.02788702,-0
 .00950327,0.00075297,-0.00065980,-0.00107432,0.00222846,0.00168603,-0.
 00436246,0.00050064,-0.00020031,0.00032708,0.14793125,-0.24801539,-0.3
 3387032,-0.00019269,0.00111805,0.00074961,-0.16589566,0.31730154,0.346
 33504,-0.18565596,-0.18466854,-0.04474623,-0.00074044,-0.00249385,0.00
 136147,-0.02015875,-0.02326837,-0.00598257,0.00131353,0.00015188,-0.00
 027873,-0.00236630,0.00217151,0.00301116,-0.00248292,-0.00287063,-0.00
 050981,0.00018950,0.00005966,0.00010761,-0.00003501,0.00015188,-0.0000
 8722,0.00018444,-0.00129448,-0.00037572,0.00170133,0.00029535,0.000243
 81,0.00007069,0.00032733,-0.00016829,0.20852991,-0.22380918,-0.2502725
 8,-0.09309610,0.00180618,-0.00518797,0.00850687,0.01319747,-0.00406402
 ,-0.00267372,-0.00031079,0.00056536,0.00056734,-0.00246411,0.00014718,
 0.00198986,0.00197191,0.00326514,-0.00119147,-0.00011008,0.00033377,-0
 .00016106,0.00030441,0.00007570,-0.00001221,0.00021770,-0.00057147,-0.
 00117702,-0.00116580,-0.00067049,-0.00002302,-0.00013091,0.00026956,0.
 00045507,0.21057998,0.25701758,-0.04040520,-0.07439272,-0.08310494,-0.
 02592754,-0.03156689,-0.00581811,0.01455753,0.01887426,0.00613165,-0.0
 0017283,0.00042244,0.00030126,0.00433548,-0.00062227,-0.00278446,-0.00
 061404,0.00049407,-0.00020507,-0.00005632,-0.00023222,-0.00017971,0.00
 016129,0.00000035,0.00020456,0.00018762,0.00110225,0.00110399,-0.00010
 082,-0.00002514,-0.00041021,0.00001758,-0.00005902,-0.00028396,0.04740
 404,0.08566538,0.08534128,0.00051805,0.00179379,-0.00107796,0.00042414
 ,-0.00065544,0.00008589,-0.01106792,-0.00378033,-0.01945824,-0.0019173
 9,0.00340208,0.00084297,-0.00024283,-0.00112635,-0.00007486,-0.2322742
 1,0.00208760,-0.15825279,0.00025467,-0.00000865,-0.00003809,-0.0002088
 6,0.00030697,0.00022812,-0.00268958,0.00163349,0.00124239,0.01396533,-
 0.05246932,-0.04743233,0.00209607,-0.00149823,0.00033861,0.00041759,0.
 00018542,-0.00010902,0.27739364,0.00312358,0.00067732,-0.00073437,-0.0
 0090050,0.00016901,0.00008327,0.01426474,0.00929600,0.02023326,0.00418
 987,-0.00440448,0.00242966,0.00039153,0.00082146,0.00023104,-0.0302727
 1,-0.13665323,-0.04968818,0.00049693,0.00034818,0.00102430,-0.00003578
 ,0.00152739,0.00146263,0.00179966,0.00159957,-0.00153954,-0.10684002,-
 0.00792122,-0.11822677,-0.00048497,-0.00055345,0.00106028,0.00113171,-
 0.00084842,-0.00029862,0.07863620,0.11030088,-0.00269538,0.00186067,0.
 00034131,-0.00118628,0.00033604,-0.00022832,-0.00785049,-0.00484285,-0
 .00070797,-0.00006426,0.00043612,0.00075914,-0.00021592,-0.00111561,0.
 00014900,-0.16824124,-0.01551297,-0.23709502,0.00003123,-0.00018232,0.
 00024679,0.00025900,0.00109410,0.00003006,0.00019789,-0.00142020,-0.00
 125034,-0.06186037,-0.06537902,-0.02820042,-0.00012894,0.00169479,0.00
 009642,0.00043299,0.00036643,-0.00005460,0.23932911,0.09281312,0.30622
 332,0.00146950,-0.00259823,0.00062645,0.00016980,0.00029397,0.00021370
 ,0.00385433,-0.00137286,-0.00847777,-0.00137105,0.00140171,-0.00104249
 ,-0.00017107,-0.00071087,0.00004602,0.00693230,0.09293344,0.00854768,-
 0.00003451,-0.00004372,-0.00004310,0.00016861,-0.00050612,-0.00010263,
 0.00014395,-0.00030734,0.00014637,-0.00261942,-0.03022374,0.02747379,-
 0.00036176,-0.00000983,-0.00010488,-0.00076967,0.00027984,-0.00006138,
 -0.04751843,0.03502952,0.00151652,0.04022618,0.00047866,-0.00046371,-0
 .00083782,0.00058970,-0.00011808,-0.00014790,-0.00492987,-0.00161793,-
 0.00503816,-0.00103673,0.00145137,-0.00067887,0.00082850,-0.00036679,0
 .00044314,0.09414961,-0.01152857,0.08042007,-0.00025903,-0.00033323,-0
 .00039610,0.00012714,-0.00109785,-0.00042841,0.00007073,-0.00108822,0.
 00008607,0.03360911,-0.05398859,0.02823617,-0.00029489,0.00060787,-0.0
 0038613,-0.00036366,0.00026250,0.00012164,-0.02889158,0.02606846,-0.01
 093786,-0.09407255,0.04204337,-0.00247096,0.00040130,-0.00000597,0.000
 49866,-0.00028785,-0.00014838,-0.00433314,-0.00678246,0.00095503,-0.00
 091352,0.00092159,-0.00098707,0.00092337,-0.00126677,0.00041354,0.0069
 5270,0.08105884,0.05357727,-0.00024676,-0.00035115,-0.00027694,0.00014
 237,-0.00071316,-0.00032098,-0.00036739,0.00052844,0.00107338,0.044096
 54,-0.03315399,-0.00512033,0.00018360,-0.00072652,-0.00041793,-0.00057
 856,0.00043982,0.00023972,-0.01504319,0.05084060,-0.04058598,-0.028747
 56,-0.09055308,-0.00812165,-0.00214721,-0.00203553,-0.00014695,0.00010
 184,0.00012796,-0.00014058,-0.00155919,0.00333286,0.00407493,0.0002030
 6,0.00027289,-0.00012206,-0.01914419,-0.03535880,0.00389051,-0.0013540
 4,0.00158484,-0.00118851,0.00101969,-0.00109993,-0.00120817,-0.0012258
 9,-0.00175749,0.00024447,-0.14040971,-0.09686327,0.01503229,0.00064820
 ,-0.00081394,0.00046347,0.03001563,-0.00059415,-0.00361872,-0.00020663
 ,-0.00046819,0.00065950,0.00090311,-0.00060022,0.00062572,-0.00015136,
 0.00002723,-0.00014479,0.41993439,-0.00168034,-0.00050630,0.00050686,0
 .00000448,-0.00017929,-0.00006949,0.00026744,0.00278216,0.00005387,0.0
 0115126,0.00022534,0.00020514,-0.01181869,-0.00903207,-0.00023073,0.00
 043389,0.00211364,-0.00225401,-0.00182051,-0.00118984,0.00037240,-0.00
 015134,-0.00089398,-0.00001240,-0.06477844,-0.20565647,-0.02756049,0.0
 0000531,-0.00056823,0.00075648,-0.01608926,-0.07276181,-0.04204799,0.0
 0018882,-0.00027412,0.00040225,0.00006000,-0.00064619,0.00085555,-0.00
 001415,0.00032333,-0.00038265,0.14000909,0.32804917,0.00108299,0.00146
 055,0.00047399,-0.00011083,-0.00016717,0.00006885,0.00286392,-0.001888
 19,-0.00202728,0.00037539,0.00015506,0.00019565,0.01623537,0.01932426,
 0.00521426,0.00095477,-0.00031099,-0.00114306,0.00093084,0.00091832,-0
 .00021556,-0.00141387,0.00010884,0.00193330,0.03170857,-0.00254275,-0.
 08577373,-0.00017672,0.00058548,0.00050363,-0.01219292,-0.05514811,0.0
 0603258,0.00019142,0.00031241,-0.00043381,-0.00019692,0.00040880,0.000
 40006,-0.00008153,-0.00002596,-0.00033541,-0.23488925,0.04551095,0.255
 81086,-0.00032123,-0.00014774,-0.00022107,0.00002027,0.00003904,-0.000
 01784,0.00015132,0.00063299,0.00107426,-0.00013171,-0.00007735,-0.0000
 5259,0.00312098,-0.00545563,-0.00119172,-0.00022137,-0.00018989,0.0002
 4317,0.00060132,0.00035883,-0.00044349,0.00017150,0.00036040,0.0003506
 4,-0.02506849,-0.00414394,0.02078478,0.00003098,-0.00003857,-0.0001100
 7,0.00184026,0.00619117,-0.00273798,0.00000868,-0.00008385,0.00012412,
 -0.00005338,0.00007045,-0.00014958,0.00003261,-0.00003238,0.00004863,-
 0.28662770,-0.04576757,0.19471876,0.30644596,-0.00014950,-0.00047409,-
 0.00015860,-0.00001584,0.00002680,0.00001489,-0.00109404,0.00084827,0.
 00084320,-0.00009399,0.00002705,-0.00005237,-0.00174786,-0.00506135,-0
 .00394995,-0.00042941,-0.00017044,0.00004878,-0.00032635,0.00022336,-0
 .00008641,0.00047287,-0.00007176,-0.00015979,-0.04682603,-0.00779786,0
 .03274531,0.00016670,0.00012416,0.00003774,0.00737605,0.00348850,-0.00
 110647,-0.00009860,-0.00004773,0.00011423,0.00032437,0.00021871,-0.000
 06598,-0.00007907,-0.00015392,0.00002707,-0.00576335,-0.04178535,-0.00
 870150,0.04828405,0.05060566,0.00007286,0.00021470,-0.00005921,0.00003
 182,-0.00005260,0.00001518,0.00005323,-0.00075191,0.00054156,0.0000464
 6,0.00008323,0.00001124,0.00073709,-0.00098673,0.00366618,0.00049327,0
 .00007361,0.00025912,0.00025675,-0.00032412,-0.00030316,-0.00053780,-0
 .00022787,0.00060782,-0.00281072,-0.00233703,0.00379954,-0.00018942,-0
 .00006138,-0.00019244,-0.00188338,-0.00002917,-0.00400417,-0.00002538,
 0.00003143,-0.00004758,-0.00038368,-0.00009948,-0.00012346,0.00009080,
 0.00012320,0.00006170,0.21646813,0.02389426,-0.18070434,-0.21242002,-0
 .01955015,0.17647201||0.00000695,-0.00000871,-0.00000306,-0.00000389,-
 0.00000078,0.00000527,-0.00000181,-0.00000128,0.00000301,0.00000325,-0
 .00000470,0.00000182,-0.00001617,0.00001325,-0.00000819,0.00003670,-0.
 00000464,-0.00002499,0.00000058,0.00000123,-0.00000549,-0.00000373,-0.
 00000597,-0.00000118,0.00000067,-0.00000370,-0.00000516,-0.00003183,0.
 00002440,0.00001081,-0.00000002,0.00000047,0.00000708,-0.00000145,-0.0
 0000594,-0.00000057,-0.00000281,-0.00002532,0.00001450,0.00002404,0.00
 001631,0.00001500,-0.00000932,0.00000637,-0.00001026,-0.00000116,-0.00
 000099,0.00000140|||@


 In the beginning the Universe was created.
 This has made a lot of people very angry
 and been widely regarded as a bad move.
                               -D.Adams
 Job cpu time:  0 days  0 hours  4 minutes 58.0 seconds.
 File lengths (MBytes):  RWF=     26 Int=      0 D2E=      0 Chk=      5 Scr=      1
 Normal termination of Gaussian 03 at Fri Apr 01 16:45:46 2016.
