 Entering Link 1 = c:\G03W03\l1.exe PID=      2168.
  
 Copyright (c) 1988,1990,1992,1993,1995,1998,2003,2004,2007, Gaussian, Inc.
                  All Rights Reserved.
  
 This is the Gaussian(R) 03 program.  It is based on the
 the Gaussian(R) 98 system (copyright 1998, Gaussian, Inc.),
 the Gaussian(R) 94 system (copyright 1995, Gaussian, Inc.),
 the Gaussian 92(TM) system (copyright 1992, Gaussian, Inc.),
 the Gaussian 90(TM) system (copyright 1990, Gaussian, Inc.),
 the Gaussian 88(TM) system (copyright 1988, Gaussian, Inc.),
 the Gaussian 86(TM) system (copyright 1986, Carnegie Mellon
 University), and the Gaussian 82(TM) system (copyright 1983,
 Carnegie Mellon University). Gaussian is a federally registered
 trademark of Gaussian, Inc.
  
 This software contains proprietary and confidential information,
 including trade secrets, belonging to Gaussian, Inc.
  
 This software is provided under written license and may be
 used, copied, transmitted, or stored only in accord with that
 written license.
  
 The following legend is applicable only to US Government
 contracts under FAR:
  
                    RESTRICTED RIGHTS LEGEND
  
 Use, reproduction and disclosure by the US Government is
 subject to restrictions as set forth in subparagraphs (a)
 and (c) of the Commercial Computer Software - Restricted
 Rights clause in FAR 52.227-19.
  
 Gaussian, Inc.
 340 Quinnipiac St., Bldg. 40, Wallingford CT 06492
  
  
 ---------------------------------------------------------------
 Warning -- This program may not be used in any manner that
 competes with the business of Gaussian, Inc. or will provide
 assistance to any competitor of Gaussian, Inc.  The licensee
 of this program is prohibited from giving any competitor of
 Gaussian, Inc. access to this program.  By using this program,
 the user acknowledges that Gaussian, Inc. is engaged in the
 business of creating and licensing software in the field of
 computational chemistry and represents and warrants to the
 licensee that it is not a competitor of Gaussian, Inc. and that
 it will not use this program in any manner prohibited above.
 ---------------------------------------------------------------
  

 Cite this work as:
 Gaussian 03, Revision E.01,
 M. J. Frisch, G. W. Trucks, H. B. Schlegel, G. E. Scuseria, 
 M. A. Robb, J. R. Cheeseman, J. A. Montgomery, Jr., T. Vreven, 
 K. N. Kudin, J. C. Burant, J. M. Millam, S. S. Iyengar, J. Tomasi, 
 V. Barone, B. Mennucci, M. Cossi, G. Scalmani, N. Rega, 
 G. A. Petersson, H. Nakatsuji, M. Hada, M. Ehara, K. Toyota, 
 R. Fukuda, J. Hasegawa, M. Ishida, T. Nakajima, Y. Honda, O. Kitao, 
 H. Nakai, M. Klene, X. Li, J. E. Knox, H. P. Hratchian, J. B. Cross, 
 V. Bakken, C. Adamo, J. Jaramillo, R. Gomperts, R. E. Stratmann, 
 O. Yazyev, A. J. Austin, R. Cammi, C. Pomelli, J. W. Ochterski, 
 P. Y. Ayala, K. Morokuma, G. A. Voth, P. Salvador, J. J. Dannenberg, 
 V. G. Zakrzewski, S. Dapprich, A. D. Daniels, M. C. Strain, 
 O. Farkas, D. K. Malick, A. D. Rabuck, K. Raghavachari, 
 J. B. Foresman, J. V. Ortiz, Q. Cui, A. G. Baboul, S. Clifford, 
 J. Cioslowski, B. B. Stefanov, G. Liu, A. Liashenko, P. Piskorz, 
 I. Komaromi, R. L. Martin, D. J. Fox, T. Keith, M. A. Al-Laham, 
 C. Y. Peng, A. Nanayakkara, M. Challacombe, P. M. W. Gill, 
 B. Johnson, W. Chen, M. W. Wong, C. Gonzalez, and J. A. Pople, 
 Gaussian, Inc., Wallingford CT, 2004.
 
 ******************************************
 Gaussian 03:  IA32W-G03RevE.01 11-Sep-2007
                01-Apr-2016 
 ******************************************
 %chk=E:\YangJ\Amiano\Asp\ts1\s\Asp-S-opt-freq-ts1-6-31++gdp.chk
 -------------------------------------------------------
 # opt=(calcfc,ts) freq rb3lyp/6-311++g(d,p) iop(1/11=1)
 -------------------------------------------------------
 1/5=1,10=4,11=1,14=-1,18=20,26=3,38=1/1,3;
 2/9=110,17=6,18=5,40=1/2;
 3/5=4,6=6,7=1111,11=2,16=1,25=1,30=1,74=-5/1,2,3;
 4/7=1/1;
 5/5=2,38=5/2;
 8/6=4,10=90,11=11/1;
 11/6=1,8=1,9=11,15=111,16=1/1,2,10;
 10/6=1,7=6/2;
 6/7=2,8=2,9=2,10=2,28=1/1;
 7/10=1,18=20,25=1/1,2,3,16;
 1/5=1,10=4,11=1,14=-1,18=20/3(3);
 2/9=110/2;
 6/7=2,8=2,9=2,10=2,19=2,28=1/1;
 99//99;
 2/9=110/2;
 3/5=4,6=6,7=1111,11=2,16=1,25=1,30=1,74=-5/1,2,3;
 4/5=5,7=1,16=3/1;
 5/5=2,38=5/2;
 7//1,2,3,16;
 1/5=1,11=1,14=-1,18=20/3(-5);
 2/9=110/2;
 6/7=2,8=2,9=2,10=2,19=2,28=1/1;
 99/9=1/99;
 ----------------------------
 Asp-S-opt-freq-ts1-6-31++gdp
 ----------------------------
 Symbolic Z-matrix:
 Charge =  0 Multiplicity = 1
 N                    -1.51123   1.90892  -0.10699 
 H                    -1.67725   2.08678   0.87676 
 C                    -0.64383   0.7684   -0.40208 
 H                    -0.53985   0.68774  -1.48664 
 C                     0.73402   0.97756   0.23345 
 C                    -1.28173  -0.51338   0.07699 
 H                     1.11964   1.95636  -0.0708 
 H                     0.65762   0.98594   1.32742 
 C                     1.70937  -0.09465  -0.16581 
 O                    -2.20497  -1.1822   -0.55644 
 O                     1.47577  -1.02893  -0.93911 
 H                    -2.3461    1.97595  -0.67497 
 O                    -1.11059  -1.05536   1.25641 
 H                    -2.0623   -1.7996    0.64536 
 O                     2.93536   0.08462   0.42871 
 H                     3.55532  -0.62817   0.15992 
 

 GradGradGradGradGradGradGradGradGradGradGradGradGradGradGradGradGradGrad
 Berny optimization.
 Initialization pass.
                           ----------------------------
                           !    Initial Parameters    !
                           ! (Angstroms and Degrees)  !
 --------------------------                            --------------------------
 ! Name  Definition              Value          Derivative Info.                !
 --------------------------------------------------------------------------------
 ! R1    R(1,2)                  1.0134         calculate D2E/DX2 analytically  !
 ! R2    R(1,3)                  1.463          calculate D2E/DX2 analytically  !
 ! R3    R(1,12)                 1.012          calculate D2E/DX2 analytically  !
 ! R4    R(3,4)                  1.0925         calculate D2E/DX2 analytically  !
 ! R5    R(3,5)                  1.5317         calculate D2E/DX2 analytically  !
 ! R6    R(3,6)                  1.5098         calculate D2E/DX2 analytically  !
 ! R7    R(5,7)                  1.0951         calculate D2E/DX2 analytically  !
 ! R8    R(5,8)                  1.0967         calculate D2E/DX2 analytically  !
 ! R9    R(5,9)                  1.5034         calculate D2E/DX2 analytically  !
 ! R10   R(6,10)                 1.3042         calculate D2E/DX2 analytically  !
 ! R11   R(6,13)                 1.3092         calculate D2E/DX2 analytically  !
 ! R12   R(6,14)                 1.6083         calculate D2E/DX2 analytically  !
 ! R13   R(9,11)                 1.2351         calculate D2E/DX2 analytically  !
 ! R14   R(9,15)                 1.3743         calculate D2E/DX2 analytically  !
 ! R15   R(10,14)                1.3586         calculate D2E/DX2 analytically  !
 ! R16   R(13,14)                1.3539         calculate D2E/DX2 analytically  !
 ! R17   R(15,16)                0.9822         calculate D2E/DX2 analytically  !
 ! A1    A(2,1,3)              115.4528         calculate D2E/DX2 analytically  !
 ! A2    A(2,1,12)             113.4566         calculate D2E/DX2 analytically  !
 ! A3    A(3,1,12)             115.3138         calculate D2E/DX2 analytically  !
 ! A4    A(1,3,4)              108.3142         calculate D2E/DX2 analytically  !
 ! A5    A(1,3,5)              110.0726         calculate D2E/DX2 analytically  !
 ! A6    A(1,3,6)              110.3258         calculate D2E/DX2 analytically  !
 ! A7    A(4,3,5)              109.655          calculate D2E/DX2 analytically  !
 ! A8    A(4,3,6)              107.0093         calculate D2E/DX2 analytically  !
 ! A9    A(5,3,6)              111.3679         calculate D2E/DX2 analytically  !
 ! A10   A(3,5,7)              108.8764         calculate D2E/DX2 analytically  !
 ! A11   A(3,5,8)              110.6262         calculate D2E/DX2 analytically  !
 ! A12   A(3,5,9)              112.087          calculate D2E/DX2 analytically  !
 ! A13   A(7,5,8)              107.1473         calculate D2E/DX2 analytically  !
 ! A14   A(7,5,9)              109.5847         calculate D2E/DX2 analytically  !
 ! A15   A(8,5,9)              108.3941         calculate D2E/DX2 analytically  !
 ! A16   A(3,6,10)             125.4768         calculate D2E/DX2 analytically  !
 ! A17   A(3,6,13)             125.5967         calculate D2E/DX2 analytically  !
 ! A18   A(10,6,13)            108.5284         calculate D2E/DX2 analytically  !
 ! A19   A(5,9,11)             125.6651         calculate D2E/DX2 analytically  !
 ! A20   A(5,9,15)             111.7667         calculate D2E/DX2 analytically  !
 ! A21   A(11,9,15)            122.5652         calculate D2E/DX2 analytically  !
 ! A22   A(10,14,13)           102.8998         calculate D2E/DX2 analytically  !
 ! A23   A(9,15,16)            110.49           calculate D2E/DX2 analytically  !
 ! A24   L(3,6,14,1,-1)        175.0047         calculate D2E/DX2 analytically  !
 ! A25   L(3,6,14,1,-2)        180.8531         calculate D2E/DX2 analytically  !
 ! D1    D(2,1,3,4)           -179.6579         calculate D2E/DX2 analytically  !
 ! D2    D(2,1,3,5)            -59.7794         calculate D2E/DX2 analytically  !
 ! D3    D(2,1,3,6)             63.5212         calculate D2E/DX2 analytically  !
 ! D4    D(12,1,3,4)            44.8793         calculate D2E/DX2 analytically  !
 ! D5    D(12,1,3,5)           164.7577         calculate D2E/DX2 analytically  !
 ! D6    D(12,1,3,6)           -71.9417         calculate D2E/DX2 analytically  !
 ! D7    D(1,3,5,7)            -52.3389         calculate D2E/DX2 analytically  !
 ! D8    D(1,3,5,8)             65.1531         calculate D2E/DX2 analytically  !
 ! D9    D(1,3,5,9)           -173.742          calculate D2E/DX2 analytically  !
 ! D10   D(4,3,5,7)             66.7233         calculate D2E/DX2 analytically  !
 ! D11   D(4,3,5,8)           -175.7847         calculate D2E/DX2 analytically  !
 ! D12   D(4,3,5,9)            -54.6798         calculate D2E/DX2 analytically  !
 ! D13   D(6,3,5,7)           -175.0283         calculate D2E/DX2 analytically  !
 ! D14   D(6,3,5,8)            -57.5363         calculate D2E/DX2 analytically  !
 ! D15   D(6,3,5,9)             63.5686         calculate D2E/DX2 analytically  !
 ! D16   D(1,3,6,10)            80.6884         calculate D2E/DX2 analytically  !
 ! D17   D(1,3,6,13)           -91.228          calculate D2E/DX2 analytically  !
 ! D18   D(4,3,6,10)           -36.9402         calculate D2E/DX2 analytically  !
 ! D19   D(4,3,6,13)           151.1434         calculate D2E/DX2 analytically  !
 ! D20   D(5,3,6,10)          -156.7678         calculate D2E/DX2 analytically  !
 ! D21   D(5,3,6,13)            31.3158         calculate D2E/DX2 analytically  !
 ! D22   D(3,5,9,11)             1.8046         calculate D2E/DX2 analytically  !
 ! D23   D(3,5,9,15)          -178.8043         calculate D2E/DX2 analytically  !
 ! D24   D(7,5,9,11)          -119.1905         calculate D2E/DX2 analytically  !
 ! D25   D(7,5,9,15)            60.2006         calculate D2E/DX2 analytically  !
 ! D26   D(8,5,9,11)           124.1879         calculate D2E/DX2 analytically  !
 ! D27   D(8,5,9,15)           -56.421          calculate D2E/DX2 analytically  !
 ! D28   D(5,9,15,16)          179.6409         calculate D2E/DX2 analytically  !
 ! D29   D(11,9,15,16)          -0.9461         calculate D2E/DX2 analytically  !
 --------------------------------------------------------------------------------
 Trust Radius=3.00D-01 FncErr=1.00D-07 GrdErr=1.00D-06
 Number of steps in this run=  81 maximum allowed number of steps= 100.
 Search for a saddle point of order  1.
 GradGradGradGradGradGradGradGradGradGradGradGradGradGradGradGradGradGrad

                          Input orientation:                          
 ---------------------------------------------------------------------
 Center     Atomic     Atomic              Coordinates (Angstroms)
 Number     Number      Type              X           Y           Z
 ---------------------------------------------------------------------
    1          7             0       -1.511229    1.908920   -0.106991
    2          1             0       -1.677250    2.086781    0.876758
    3          6             0       -0.643829    0.768402   -0.402075
    4          1             0       -0.539846    0.687737   -1.486640
    5          6             0        0.734019    0.977556    0.233445
    6          6             0       -1.281733   -0.513383    0.076987
    7          1             0        1.119637    1.956360   -0.070797
    8          1             0        0.657621    0.985936    1.327416
    9          6             0        1.709369   -0.094650   -0.165811
   10          8             0       -2.204972   -1.182199   -0.556435
   11          8             0        1.475774   -1.028931   -0.939109
   12          1             0       -2.346100    1.975949   -0.674965
   13          8             0       -1.110589   -1.055363    1.256409
   14          1             0       -2.062302   -1.799600    0.645355
   15          8             0        2.935358    0.084620    0.428712
   16          1             0        3.555321   -0.628165    0.159919
 ---------------------------------------------------------------------
                    Distance matrix (angstroms):
                    1          2          3          4          5
     1  N    0.000000
     2  H    1.013390   0.000000
     3  C    1.462955   2.107486   0.000000
     4  H    2.082860   2.972652   1.092520   0.000000
     5  C    2.454480   2.731016   1.531697   2.159958   0.000000
     6  C    2.440096   2.748985   1.509766   2.106660   2.512098
     7  H    2.631543   2.955917   2.151930   2.523470   1.095135
     8  H    2.759227   2.620415   2.175369   3.072745   1.096667
     9  C    3.793416   4.161103   2.517582   2.723176   1.503442
    10  O    3.199734   3.608152   2.503166   2.671065   3.731772
    11  O    4.271484   4.790260   2.830464   2.703602   2.439482
    12  H    1.011977   1.693366   2.104843   2.362384   3.362905
    13  O    3.287301   3.215324   2.508895   3.299767   2.929470
    14  H    3.823980   3.912259   3.115094   3.612495   3.962534
    15  O    4.836030   5.048321   3.737425   4.013647   2.383560
    16  H    5.672563   5.938400   4.460840   4.605773   3.247074
                    6          7          8          9         10
     6  C    0.000000
     7  H    3.447905   0.000000
     8  H    2.751840   1.763571   0.000000
     9  C    3.030013   2.136224   2.122161   0.000000
    10  O    1.304189   4.597763   4.055138   4.081350   0.000000
    11  O    2.983636   3.129339   3.141051   1.235086   3.703758
    12  H    2.809819   3.518059   3.743260   4.581861   3.163521
    13  O    1.309225   3.975658   2.701576   3.301188   2.121359
    14  H    1.608317   4.974419   3.952518   4.217860   1.358616
    15  O    4.273778   2.655139   2.609238   1.374280   5.385010
    16  H    4.839126   3.558870   3.516395   1.948917   5.831046
                   11         12         13         14         15
    11  O    0.000000
    12  H    4.868860   0.000000
    13  O    3.392679   3.800730   0.000000
    14  H    3.952523   4.009808   1.353896   0.000000
    15  O    2.289392   5.717432   4.284195   5.345449   0.000000
    16  H    2.385999   6.504246   4.812017   5.758958   0.982174
                   16
    16  H    0.000000
 Stoichiometry    C4H7NO4
 Framework group  C1[X(C4H7NO4)]
 Deg. of freedom    42
 Full point group                 C1
 Largest Abelian subgroup         C1      NOp   1
 Largest concise Abelian subgroup C1      NOp   1
                         Standard orientation:                         
 ---------------------------------------------------------------------
 Center     Atomic     Atomic              Coordinates (Angstroms)
 Number     Number      Type              X           Y           Z
 ---------------------------------------------------------------------
    1          7             0       -1.511229    1.908920   -0.106991
    2          1             0       -1.677250    2.086781    0.876758
    3          6             0       -0.643829    0.768402   -0.402075
    4          1             0       -0.539846    0.687737   -1.486640
    5          6             0        0.734019    0.977556    0.233445
    6          6             0       -1.281733   -0.513383    0.076987
    7          1             0        1.119637    1.956360   -0.070797
    8          1             0        0.657621    0.985936    1.327416
    9          6             0        1.709369   -0.094650   -0.165811
   10          8             0       -2.204972   -1.182199   -0.556435
   11          8             0        1.475774   -1.028931   -0.939109
   12          1             0       -2.346100    1.975948   -0.674965
   13          8             0       -1.110589   -1.055363    1.256409
   14          1             0       -2.062302   -1.799600    0.645355
   15          8             0        2.935358    0.084621    0.428712
   16          1             0        3.555321   -0.628164    0.159919
 ---------------------------------------------------------------------
 Rotational constants (GHZ):      2.4873960      1.1183786      0.9308836
 Standard basis: 6-311++G(d,p) (5D, 7F)
 There are   247 symmetry adapted basis functions of A   symmetry.
 Integral buffers will be    262144 words long.
 Raffenetti 2 integral format.
 Two-electron integral symmetry is turned on.
   247 basis functions,   387 primitive gaussians,   256 cartesian basis functions
    35 alpha electrons       35 beta electrons
       nuclear repulsion energy       467.8467740911 Hartrees.
 NAtoms=   16 NActive=   16 NUniq=   16 SFac= 7.50D-01 NAtFMM=   80 NAOKFM=F Big=F
 One-electron integrals computed using PRISM.
 NBasis=   247 RedAO= T  NBF=   247
 NBsUse=   247 1.00D-06 NBFU=   247
 Harris functional with IExCor=  402 diagonalized for initial guess.
 ExpMin= 3.60D-02 ExpMax= 8.59D+03 ExpMxC= 1.30D+03 IAcc=3 IRadAn=         5 AccDes= 0.00D+00
 HarFok:  IExCor= 402 AccDes= 0.00D+00 IRadAn=         5 IDoV=1
 ScaDFX=  1.000000  1.000000  1.000000  1.000000
 Initial guess orbital symmetries:
       Occupied  (A) (A) (A) (A) (A) (A) (A) (A) (A) (A) (A) (A)
                 (A) (A) (A) (A) (A) (A) (A) (A) (A) (A) (A) (A)
                 (A) (A) (A) (A) (A) (A) (A) (A) (A) (A) (A)
       Virtual   (A) (A) (A) (A) (A) (A) (A) (A) (A) (A) (A) (A)
                 (A) (A) (A) (A) (A) (A) (A) (A) (A) (A) (A) (A)
                 (A) (A) (A) (A) (A) (A) (A) (A) (A) (A) (A) (A)
                 (A) (A) (A) (A) (A) (A) (A) (A) (A) (A) (A) (A)
                 (A) (A) (A) (A) (A) (A) (A) (A) (A) (A) (A) (A)
                 (A) (A) (A) (A) (A) (A) (A) (A) (A) (A) (A) (A)
                 (A) (A) (A) (A) (A) (A) (A) (A) (A) (A) (A) (A)
                 (A) (A) (A) (A) (A) (A) (A) (A) (A) (A) (A) (A)
                 (A) (A) (A) (A) (A) (A) (A) (A) (A) (A) (A) (A)
                 (A) (A) (A) (A) (A) (A) (A) (A) (A) (A) (A) (A)
                 (A) (A) (A) (A) (A) (A) (A) (A) (A) (A) (A) (A)
                 (A) (A) (A) (A) (A) (A) (A) (A) (A) (A) (A) (A)
                 (A) (A) (A) (A) (A) (A) (A) (A) (A) (A) (A) (A)
                 (A) (A) (A) (A) (A) (A) (A) (A) (A) (A) (A) (A)
                 (A) (A) (A) (A) (A) (A) (A) (A) (A) (A) (A) (A)
                 (A) (A) (A) (A) (A) (A) (A) (A) (A) (A) (A) (A)
                 (A) (A) (A) (A) (A) (A) (A) (A) (A) (A) (A) (A)
                 (A) (A) (A) (A) (A) (A) (A) (A)
 The electronic state of the initial guess is 1-A.
 Requested convergence on RMS density matrix=1.00D-08 within 128 cycles.
 Requested convergence on MAX density matrix=1.00D-06.
 Requested convergence on             energy=1.00D-06.
 No special actions if energy rises.
 SCF Done:  E(RB+HF-LYP) =  -512.420172921     A.U. after   14 cycles
             Convg  =    0.6317D-08             -V/T =  2.0044
             S**2   =   0.0000
 Range of M.O.s used for correlation:     1   247
 NBasis=   247 NAE=    35 NBE=    35 NFC=     0 NFV=     0
 NROrb=    247 NOA=    35 NOB=    35 NVA=   212 NVB=   212

 **** Warning!!: The largest alpha MO coefficient is  0.70461431D+02

 Symmetrizing basis deriv contribution to polar:
 IMax=3 JMax=2 DiffMx= 0.00D+00
 G2DrvN: will do   17 centers at a time, making    1 passes doing MaxLOS=2.
 FoFDir/FoFCou used for L=0 through L=2.
 DoAtom=TTTTTTTTTTTTTTTT
          Differentiating once with respect to electric field.
                with respect to dipole field.
          Differentiating once with respect to nuclear coordinates.
 Integrals replicated using symmetry in FoFDir.
 MinBra= 0 MaxBra= 2 Meth= 1.
 IRaf=       0 NMat=  51 IRICut=      51 DoRegI=T DoRafI=T ISym2E= 2 JSym2E=2.
          There are  51 degrees of freedom in the 1st order CPHF.
    48 vectors were produced by pass  0.
 AX will form  48 AO Fock derivatives at one time.
    48 vectors were produced by pass  1.
    48 vectors were produced by pass  2.
    48 vectors were produced by pass  3.
    36 vectors were produced by pass  4.
     3 vectors were produced by pass  5.
     2 vectors were produced by pass  6.
 Inv2:  IOpt= 1 Iter= 1 AM= 2.53D-15 Conv= 1.00D-12.
 Inverted reduced A of dimension  233 with in-core refinement.
 Isotropic polarizability for W=    0.000000       72.23 Bohr**3.
 End of Minotr Frequency-dependent properties file   721 does not exist.

 **********************************************************************

            Population analysis using the SCF density.

 **********************************************************************

 Orbital symmetries:
       Occupied  (A) (A) (A) (A) (A) (A) (A) (A) (A) (A) (A) (A)
                 (A) (A) (A) (A) (A) (A) (A) (A) (A) (A) (A) (A)
                 (A) (A) (A) (A) (A) (A) (A) (A) (A) (A) (A)
       Virtual   (A) (A) (A) (A) (A) (A) (A) (A) (A) (A) (A) (A)
                 (A) (A) (A) (A) (A) (A) (A) (A) (A) (A) (A) (A)
                 (A) (A) (A) (A) (A) (A) (A) (A) (A) (A) (A) (A)
                 (A) (A) (A) (A) (A) (A) (A) (A) (A) (A) (A) (A)
                 (A) (A) (A) (A) (A) (A) (A) (A) (A) (A) (A) (A)
                 (A) (A) (A) (A) (A) (A) (A) (A) (A) (A) (A) (A)
                 (A) (A) (A) (A) (A) (A) (A) (A) (A) (A) (A) (A)
                 (A) (A) (A) (A) (A) (A) (A) (A) (A) (A) (A) (A)
                 (A) (A) (A) (A) (A) (A) (A) (A) (A) (A) (A) (A)
                 (A) (A) (A) (A) (A) (A) (A) (A) (A) (A) (A) (A)
                 (A) (A) (A) (A) (A) (A) (A) (A) (A) (A) (A) (A)
                 (A) (A) (A) (A) (A) (A) (A) (A) (A) (A) (A) (A)
                 (A) (A) (A) (A) (A) (A) (A) (A) (A) (A) (A) (A)
                 (A) (A) (A) (A) (A) (A) (A) (A) (A) (A) (A) (A)
                 (A) (A) (A) (A) (A) (A) (A) (A) (A) (A) (A) (A)
                 (A) (A) (A) (A) (A) (A) (A) (A) (A) (A) (A) (A)
                 (A) (A) (A) (A) (A) (A) (A) (A) (A) (A) (A) (A)
                 (A) (A) (A) (A) (A) (A) (A) (A)
 The electronic state is 1-A.
 Alpha  occ. eigenvalues --  -19.19156 -19.15269 -19.15121 -19.13853 -14.33198
 Alpha  occ. eigenvalues --  -10.33525 -10.32778 -10.25617 -10.21589  -1.12187
 Alpha  occ. eigenvalues --   -1.11806  -1.03364  -0.98476  -0.92806  -0.80749
 Alpha  occ. eigenvalues --   -0.71837  -0.63434  -0.57942  -0.54907  -0.52198
 Alpha  occ. eigenvalues --   -0.51418  -0.49670  -0.48711  -0.47454  -0.47033
 Alpha  occ. eigenvalues --   -0.43842  -0.42543  -0.41257  -0.40364  -0.39052
 Alpha  occ. eigenvalues --   -0.34475  -0.31583  -0.30600  -0.30264  -0.27602
 Alpha virt. eigenvalues --   -0.04008  -0.03149  -0.02097  -0.01054   0.00411
 Alpha virt. eigenvalues --    0.01133   0.01468   0.04153   0.04560   0.06446
 Alpha virt. eigenvalues --    0.06945   0.07397   0.07669   0.08562   0.09033
 Alpha virt. eigenvalues --    0.09716   0.10036   0.10717   0.11316   0.11629
 Alpha virt. eigenvalues --    0.12617   0.13020   0.13377   0.14917   0.15311
 Alpha virt. eigenvalues --    0.15846   0.16482   0.17886   0.18594   0.19488
 Alpha virt. eigenvalues --    0.19833   0.21260   0.21805   0.22352   0.22894
 Alpha virt. eigenvalues --    0.23829   0.24203   0.24846   0.25412   0.26139
 Alpha virt. eigenvalues --    0.27411   0.27686   0.29011   0.29502   0.29791
 Alpha virt. eigenvalues --    0.30868   0.31021   0.31609   0.33229   0.33754
 Alpha virt. eigenvalues --    0.34966   0.35604   0.36599   0.37294   0.38255
 Alpha virt. eigenvalues --    0.38453   0.40418   0.40600   0.43653   0.45099
 Alpha virt. eigenvalues --    0.47958   0.49781   0.51545   0.53246   0.54340
 Alpha virt. eigenvalues --    0.56237   0.58401   0.60794   0.62583   0.62954
 Alpha virt. eigenvalues --    0.65267   0.65579   0.67691   0.69695   0.70673
 Alpha virt. eigenvalues --    0.71837   0.73125   0.75180   0.78125   0.83188
 Alpha virt. eigenvalues --    0.83635   0.86723   0.89621   0.92787   0.95621
 Alpha virt. eigenvalues --    1.00326   1.02309   1.05142   1.07157   1.10668
 Alpha virt. eigenvalues --    1.12146   1.13597   1.14377   1.15313   1.16349
 Alpha virt. eigenvalues --    1.17444   1.18224   1.19604   1.20228   1.23761
 Alpha virt. eigenvalues --    1.26088   1.26213   1.31069   1.33635   1.34082
 Alpha virt. eigenvalues --    1.38077   1.40366   1.42348   1.47114   1.48367
 Alpha virt. eigenvalues --    1.48804   1.50477   1.51829   1.54293   1.56710
 Alpha virt. eigenvalues --    1.57253   1.59639   1.63543   1.64263   1.65290
 Alpha virt. eigenvalues --    1.70228   1.73187   1.73905   1.75816   1.79058
 Alpha virt. eigenvalues --    1.82931   1.83876   1.87184   1.89345   1.92280
 Alpha virt. eigenvalues --    1.95127   1.98602   2.00991   2.04953   2.08062
 Alpha virt. eigenvalues --    2.10076   2.17088   2.21796   2.26298   2.28313
 Alpha virt. eigenvalues --    2.36277   2.44273   2.51149   2.53434   2.54324
 Alpha virt. eigenvalues --    2.54490   2.57815   2.58021   2.63158   2.65998
 Alpha virt. eigenvalues --    2.66427   2.72896   2.77167   2.79283   2.81145
 Alpha virt. eigenvalues --    2.82493   2.86429   2.89198   2.90961   2.92333
 Alpha virt. eigenvalues --    2.94218   2.97884   2.99468   3.01782   3.02815
 Alpha virt. eigenvalues --    3.05045   3.09523   3.13446   3.17393   3.19101
 Alpha virt. eigenvalues --    3.20256   3.28630   3.31278   3.32593   3.33536
 Alpha virt. eigenvalues --    3.35555   3.53702   3.56196   3.58836   3.65934
 Alpha virt. eigenvalues --    3.72371   3.79235   3.80106   3.98474   4.02109
 Alpha virt. eigenvalues --    4.04744   4.07785   4.14089   4.31245   4.73455
 Alpha virt. eigenvalues --    4.83780   4.94966   4.99412   5.02192   5.03915
 Alpha virt. eigenvalues --    5.07795   5.17846   5.27481   5.32925   5.47904
 Alpha virt. eigenvalues --    5.55461   5.78228   5.81948  23.70784  23.73225
 Alpha virt. eigenvalues --   23.79214  23.88523  35.58581  49.84333  49.88322
 Alpha virt. eigenvalues --   49.94770  49.96956
          Condensed to atoms (all electrons):
              1          2          3          4          5          6
     1  N    6.623836   0.360507   0.115680  -0.044768  -0.004624  -0.157294
     2  H    0.360507   0.451153   0.002404   0.006972  -0.026523   0.001886
     3  C    0.115680   0.002404   8.076413   0.606670  -0.906538  -1.322187
     4  H   -0.044768   0.006972   0.606670   0.487724  -0.081197  -0.192977
     5  C   -0.004624  -0.026523  -0.906538  -0.081197   7.552088   0.040580
     6  C   -0.157294   0.001886  -1.322187  -0.192977   0.040580   7.024622
     7  H    0.000560   0.000201  -0.084238  -0.005766   0.396415   0.002260
     8  H   -0.003937   0.000667   0.081726   0.011372   0.413924  -0.113282
     9  C    0.028444   0.000084   0.004930  -0.038117  -0.860056   0.158208
    10  O   -0.020959  -0.002469  -0.076656  -0.001660   0.019012   0.271856
    11  O    0.000316  -0.000365   0.064965  -0.006249  -0.127224   0.012642
    12  H    0.394987  -0.036578  -0.062172  -0.013228   0.012993   0.016603
    13  O   -0.011350   0.003700  -0.193734   0.000714   0.085634   0.329692
    14  H   -0.002748   0.001285   0.022331  -0.002288   0.001237   0.000245
    15  O    0.001134   0.000184   0.009620  -0.000323  -0.279103   0.004399
    16  H    0.000390  -0.000134  -0.002908  -0.001481  -0.052086   0.000032
              7          8          9         10         11         12
     1  N    0.000560  -0.003937   0.028444  -0.020959   0.000316   0.394987
     2  H    0.000201   0.000667   0.000084  -0.002469  -0.000365  -0.036578
     3  C   -0.084238   0.081726   0.004930  -0.076656   0.064965  -0.062172
     4  H   -0.005766   0.011372  -0.038117  -0.001660  -0.006249  -0.013228
     5  C    0.396415   0.413924  -0.860056   0.019012  -0.127224   0.012993
     6  C    0.002260  -0.113282   0.158208   0.271856   0.012642   0.016603
     7  H    0.468409  -0.024705   0.007770   0.001744   0.003658   0.001046
     8  H   -0.024705   0.451892  -0.052852  -0.001190  -0.001622  -0.000726
     9  C    0.007770  -0.052852   6.056137  -0.014304   0.434553   0.001995
    10  O    0.001744  -0.001190  -0.014304   8.197567  -0.003560  -0.000791
    11  O    0.003658  -0.001622   0.434553  -0.003560   7.996358   0.000327
    12  H    0.001046  -0.000726   0.001995  -0.000791   0.000327   0.420801
    13  O    0.002849  -0.011773  -0.025327  -0.228350  -0.004709  -0.000064
    14  H   -0.000037  -0.002935  -0.003860   0.122596   0.002102   0.000469
    15  O   -0.000974  -0.006529   0.286345  -0.000295  -0.117220   0.000032
    16  H    0.001621   0.001115   0.058147  -0.000215  -0.004108   0.000057
             13         14         15         16
     1  N   -0.011350  -0.002748   0.001134   0.000390
     2  H    0.003700   0.001285   0.000184  -0.000134
     3  C   -0.193734   0.022331   0.009620  -0.002908
     4  H    0.000714  -0.002288  -0.000323  -0.001481
     5  C    0.085634   0.001237  -0.279103  -0.052086
     6  C    0.329692   0.000245   0.004399   0.000032
     7  H    0.002849  -0.000037  -0.000974   0.001621
     8  H   -0.011773  -0.002935  -0.006529   0.001115
     9  C   -0.025327  -0.003860   0.286345   0.058147
    10  O   -0.228350   0.122596  -0.000295  -0.000215
    11  O   -0.004709   0.002102  -0.117220  -0.004108
    12  H   -0.000064   0.000469   0.000032   0.000057
    13  O    8.182834   0.132583  -0.000861   0.000549
    14  H    0.132583   0.410752   0.000322  -0.000125
    15  O   -0.000861   0.000322   8.035116   0.248452
    16  H    0.000549  -0.000125   0.248452   0.457422
 Mulliken atomic charges:
              1
     1  N   -0.280173
     2  H    0.237027
     3  C   -0.336308
     4  H    0.274604
     5  C   -0.184532
     6  C   -0.077285
     7  H    0.229188
     8  H    0.258857
     9  C   -0.042097
    10  O   -0.262325
    11  O   -0.249863
    12  H    0.264250
    13  O   -0.262386
    14  H    0.318069
    15  O   -0.180298
    16  H    0.293271
 Sum of Mulliken charges=   0.00000
 Atomic charges with hydrogens summed into heavy atoms:
              1
     1  N    0.221103
     2  H    0.000000
     3  C   -0.061704
     4  H    0.000000
     5  C    0.303514
     6  C   -0.077285
     7  H    0.000000
     8  H    0.000000
     9  C   -0.042097
    10  O   -0.262325
    11  O   -0.249863
    12  H    0.000000
    13  O    0.055683
    14  H    0.000000
    15  O    0.112973
    16  H    0.000000
 Sum of Mulliken charges=   0.00000
 APT atomic charges:
              1
     1  N   -0.533212
     2  H    0.174336
     3  C    0.335068
     4  H    0.012762
     5  C   -0.053165
     6  C    0.854082
     7  H    0.036607
     8  H    0.039477
     9  C    1.149014
    10  O   -0.721047
    11  O   -0.729943
    12  H    0.179465
    13  O   -0.725172
    14  H    0.433299
    15  O   -0.745618
    16  H    0.294048
 Sum of APT charges=   0.00000
 APT Atomic charges with hydrogens summed into heavy atoms:
              1
     1  N   -0.179411
     2  H    0.000000
     3  C    0.347830
     4  H    0.000000
     5  C    0.022919
     6  C    0.854082
     7  H    0.000000
     8  H    0.000000
     9  C    1.149014
    10  O   -0.721047
    11  O   -0.729943
    12  H    0.000000
    13  O   -0.291873
    14  H    0.000000
    15  O   -0.451570
    16  H    0.000000
 Sum of APT charges=   0.00000
 Electronic spatial extent (au):  <R**2>=  1275.7863
 Charge=     0.0000 electrons
 Dipole moment (field-independent basis, Debye):
    X=     0.7561    Y=     2.4626    Z=     0.7434  Tot=     2.6812
 Quadrupole moment (field-independent basis, Debye-Ang):
   XX=   -46.4921   YY=   -54.6690   ZZ=   -56.3966
   XY=    -4.9946   XZ=    -1.5149   YZ=    -1.9415
 Traceless Quadrupole moment (field-independent basis, Debye-Ang):
   XX=     6.0272   YY=    -2.1498   ZZ=    -3.8774
   XY=    -4.9946   XZ=    -1.5149   YZ=    -1.9415
 Octapole moment (field-independent basis, Debye-Ang**2):
  XXX=    31.2444  YYY=   -14.9232  ZZZ=    -2.2874  XYY=    -4.6409
  XXY=    -4.6952  XXZ=     4.1177  XZZ=    -1.7250  YZZ=     8.3762
  YYZ=     8.9175  XYZ=    -0.7611
 Hexadecapole moment (field-independent basis, Debye-Ang**3):
 XXXX=  -816.5882 YYYY=  -442.7973 ZZZZ=  -188.2373 XXXY=   -91.7232
 XXXZ=   -25.2406 YYYX=    13.7761 YYYZ=     2.2590 ZZZX=     4.9870
 ZZZY=     2.8965 XXYY=  -200.2495 XXZZ=  -200.7537 YYZZ=  -100.2488
 XXYZ=   -25.8209 YYXZ=    -7.7266 ZZXY=    -7.2722
 N-N= 4.678467740911D+02 E-N=-2.138330933687D+03  KE= 5.101966998964D+02
  Exact polarizability:  78.172   1.287  74.723   5.930   2.147  63.782
 Approx polarizability:  99.561   5.967 105.795  16.094   8.049 106.850
 ***** Axes restored to original set *****
 -------------------------------------------------------------------
 Center     Atomic                   Forces (Hartrees/Bohr)
 Number     Number              X              Y              Z
 -------------------------------------------------------------------
    1          7           0.008653629    0.004632433   -0.003615667
    2          1          -0.002740088   -0.003963017   -0.002493995
    3          6          -0.003029886    0.002188532    0.001245318
    4          1          -0.000555498    0.000300377    0.001141368
    5          6          -0.002326516    0.000457162    0.000485886
    6          6          -0.030171214   -0.042134597    0.020069944
    7          1           0.000327851   -0.001624601    0.000347350
    8          1           0.000601192    0.000174646   -0.001632662
    9          6           0.013477001   -0.034842113   -0.021342667
   10          8           0.024497569    0.013703801    0.020109109
   11          8           0.008179537    0.034763023    0.028258610
   12          1           0.000069841   -0.003790105    0.004052218
   13          8          -0.007339239    0.010056269   -0.031460939
   14          1           0.011116738    0.018891206   -0.008296044
   15          8          -0.008176516   -0.005919160   -0.007061518
   16          1          -0.012584400    0.007106143    0.000193688
 -------------------------------------------------------------------
 Cartesian Forces:  Max     0.042134597 RMS     0.014761392

 GradGradGradGradGradGradGradGradGradGradGradGradGradGradGradGradGradGrad
 Berny optimization.
 Internal  Forces:  Max     0.045536288 RMS     0.008466570
 Search for a saddle point.
 Step number   1 out of a maximum of  81
 All quantities printed in internal units (Hartrees-Bohrs-Radians)
 Swaping is turned off.
 Second derivative matrix not updated -- analytic derivatives used.
     Eigenvalues ---   -0.10503   0.00109   0.00207   0.00330   0.00604
     Eigenvalues ---    0.00849   0.01840   0.03094   0.03647   0.04076
     Eigenvalues ---    0.04284   0.04722   0.05032   0.05494   0.05749
     Eigenvalues ---    0.07457   0.07543   0.11256   0.12507   0.13668
     Eigenvalues ---    0.14609   0.14706   0.17579   0.18556   0.20592
     Eigenvalues ---    0.21795   0.24205   0.27596   0.29579   0.32363
     Eigenvalues ---    0.32850   0.33279   0.33848   0.34887   0.36518
     Eigenvalues ---    0.37006   0.45488   0.46070   0.46181   0.46857
     Eigenvalues ---    0.47136   0.713001000.000001000.000001000.00000
     Eigenvalues --- 1000.000001000.000001000.000001000.000001000.00000
     Eigenvalues --- 1000.000001000.000001000.000001000.000001000.00000
     Eigenvalues --- 1000.000001000.000001000.000001000.000001000.00000
     Eigenvalues --- 1000.000001000.000001000.000001000.000001000.00000
     Eigenvalues --- 1000.000001000.000001000.000001000.000001000.00000
     Eigenvalues --- 1000.00000
 Eigenvectors required to have negative eigenvalues:
                          R1        R2        R3        R4        R5
         1             -0.00028  -0.00062   0.00025  -0.00357   0.00705
                          R6        R7        R8        R9        R10
         1             -0.00157   0.00000   0.00170   0.00106  -0.13038
                          R11       R12       R13       R14       R15
         1              0.13224   0.00116  -0.00070   0.00079   0.64399
                          R16       R17       A1        A2        A3
         1             -0.64338   0.00014   0.00429  -0.00009  -0.00561
                          A4        A5        A6        A7        A8
         1              0.00853  -0.01229   0.00030   0.00338  -0.01793
                          A9        A10       A11       A12       A13
         1              0.01784   0.00134   0.00171   0.00209  -0.00331
                          A14       A15       A16       A17       A18
         1             -0.00061  -0.00148  -0.05834   0.05853   0.00046
                          A19       A20       A21       A22       A23
         1             -0.00026  -0.00006   0.00034   0.00049   0.00028
                          A24       A25       D1        D2        D3
         1              0.02807   0.35697  -0.00397  -0.00191   0.01247
                          D4        D5        D6        D7        D8
         1             -0.00229  -0.00022   0.01415  -0.00061  -0.00284
                          D9        D10       D11       D12       D13
         1             -0.00212   0.00443   0.00220   0.00293  -0.00463
                          D14       D15       D16       D17       D18
         1             -0.00686  -0.00613   0.00914   0.00258   0.00916
                          D19       D20       D21       D22       D23
         1              0.00260   0.00597  -0.00059  -0.00175  -0.00015
                          D24       D25       D26       D27       D28
         1             -0.00440  -0.00280   0.00073   0.00233  -0.00023
                          D29
         1              0.00131
 RFO step:  Lambda0=1.083970737D-08 Lambda=-1.46100843D-02.
 Linear search not attempted -- option 19 set.
 Maximum step size (   0.300) exceeded in Quadratic search.
    -- Step size scaled by   0.792
 Iteration  1 RMS(Cart)=  0.03088683 RMS(Int)=  0.00165051
 Iteration  2 RMS(Cart)=  0.00124407 RMS(Int)=  0.00118424
 Iteration  3 RMS(Cart)=  0.00000602 RMS(Int)=  0.00118423
 Iteration  4 RMS(Cart)=  0.00000005 RMS(Int)=  0.00118423
 Variable       Old X    -DE/DX   Delta X   Delta X   Delta X     New X
                                 (Linear)    (Quad)   (Total)
    R1        1.91503  -0.00267   0.00000   0.00082   0.00082   1.91585
    R2        2.76459  -0.00640   0.00000   0.00074   0.00074   2.76532
    R3        1.91236  -0.00258   0.00000   0.00110   0.00110   1.91346
    R4        2.06456  -0.00121   0.00000  -0.00229  -0.00229   2.06227
    R5        2.89449  -0.00075   0.00000  -0.00577  -0.00577   2.88871
    R6        2.85305   0.00050   0.00000   0.00539   0.00539   2.85843
    R7        2.06951  -0.00143   0.00000  -0.00290  -0.00290   2.06661
    R8        2.07240  -0.00167   0.00000  -0.00385  -0.00385   2.06855
    R9        2.84109  -0.00022   0.00000   0.00843   0.00843   2.84953
   R10        2.46456  -0.02706   0.00000  -0.05008  -0.05035   2.41421
   R11        2.47408  -0.02642   0.00000  -0.05118  -0.05145   2.42262
   R12        3.03928  -0.01719   0.00000  -0.13130  -0.13096   2.90832
   R13        2.33397  -0.04554   0.00000  -0.04785  -0.04785   2.28612
   R14        2.59701  -0.02134   0.00000  -0.03496  -0.03496   2.56206
   R15        2.56741  -0.01061   0.00000  -0.07177  -0.07170   2.49571
   R16        2.55849  -0.01039   0.00000  -0.07264  -0.07257   2.48592
   R17        1.85604  -0.01315   0.00000  -0.01963  -0.01963   1.83641
    A1        2.01503  -0.00189   0.00000  -0.04156  -0.04571   1.96933
    A2        1.98019  -0.00021   0.00000  -0.04254  -0.04942   1.93077
    A3        2.01260  -0.00243   0.00000  -0.04414  -0.04830   1.96431
    A4        1.89044   0.00017   0.00000  -0.00352  -0.00353   1.88691
    A5        1.92113  -0.00047   0.00000  -0.00568  -0.00569   1.91544
    A6        1.92555  -0.00091   0.00000   0.00104   0.00105   1.92660
    A7        1.91384  -0.00008   0.00000   0.00120   0.00117   1.91502
    A8        1.86767  -0.00011   0.00000  -0.00075  -0.00076   1.86690
    A9        1.94374   0.00138   0.00000   0.00760   0.00760   1.95133
   A10        1.90025   0.00010   0.00000   0.00080   0.00083   1.90108
   A11        1.93079  -0.00032   0.00000   0.00301   0.00299   1.93378
   A12        1.95629   0.00204   0.00000   0.00882   0.00881   1.96510
   A13        1.87007   0.00012   0.00000  -0.00328  -0.00330   1.86678
   A14        1.91261  -0.00155   0.00000  -0.00958  -0.00959   1.90303
   A15        1.89183  -0.00051   0.00000  -0.00047  -0.00052   1.89132
   A16        2.18998  -0.00311   0.00000  -0.01077  -0.01082   2.17917
   A17        2.19208  -0.00309   0.00000  -0.00710  -0.00715   2.18492
   A18        1.89418   0.00629   0.00000   0.01968   0.01967   1.91385
   A19        2.19327  -0.00028   0.00000  -0.00240  -0.00240   2.19087
   A20        1.95070  -0.00071   0.00000  -0.00329  -0.00329   1.94741
   A21        2.13917   0.00099   0.00000   0.00569   0.00569   2.14485
   A22        1.79594  -0.01122   0.00000   0.03701   0.03768   1.83362
   A23        1.92841  -0.01112   0.00000  -0.04168  -0.04168   1.88674
   A24        3.05441  -0.00062   0.00000   0.00892   0.00893   3.06334
   A25        3.15648   0.00006   0.00000  -0.00407  -0.00407   3.15241
    D1       -3.13562  -0.00272   0.00000  -0.07803  -0.07635   3.07121
    D2       -1.04335  -0.00299   0.00000  -0.08209  -0.08040  -1.12375
    D3        1.10865  -0.00218   0.00000  -0.07565  -0.07397   1.03468
    D4        0.78329   0.00261   0.00000   0.08944   0.08774   0.87103
    D5        2.87556   0.00235   0.00000   0.08537   0.08370   2.95926
    D6       -1.25562   0.00316   0.00000   0.09181   0.09013  -1.16549
    D7       -0.91349  -0.00017   0.00000   0.00564   0.00564  -0.90784
    D8        1.13714  -0.00014   0.00000   0.00388   0.00387   1.14101
    D9       -3.03237   0.00038   0.00000   0.01144   0.01144  -3.02093
   D10        1.16454  -0.00029   0.00000  -0.00142  -0.00142   1.16312
   D11       -3.06802  -0.00027   0.00000  -0.00318  -0.00320  -3.07122
   D12       -0.95434   0.00026   0.00000   0.00437   0.00437  -0.94997
   D13       -3.05482   0.00037   0.00000   0.00308   0.00310  -3.05172
   D14       -1.00420   0.00039   0.00000   0.00133   0.00132  -1.00287
   D15        1.10948   0.00092   0.00000   0.00888   0.00890   1.11838
   D16        1.40828   0.00084   0.00000   0.01310   0.01309   1.42137
   D17       -1.59223  -0.00057   0.00000  -0.00662  -0.00663  -1.59886
   D18       -0.64473   0.00119   0.00000   0.01718   0.01718  -0.62755
   D19        2.63795  -0.00022   0.00000  -0.00254  -0.00254   2.63541
   D20       -2.73611   0.00056   0.00000   0.01181   0.01181  -2.72430
   D21        0.54656  -0.00085   0.00000  -0.00791  -0.00791   0.53866
   D22        0.03150   0.00010   0.00000   0.00196   0.00195   0.03344
   D23       -3.12072   0.00006   0.00000   0.00184   0.00183  -3.11889
   D24       -2.08027  -0.00031   0.00000   0.00172   0.00174  -2.07853
   D25        1.05070  -0.00036   0.00000   0.00160   0.00162   1.05232
   D26        2.16749   0.00068   0.00000   0.01118   0.01117   2.17866
   D27       -0.98473   0.00063   0.00000   0.01107   0.01106  -0.97367
   D28        3.13533   0.00006   0.00000   0.00247   0.00247   3.13780
   D29       -0.01651   0.00001   0.00000   0.00231   0.00231  -0.01421
         Item               Value     Threshold  Converged?
 Maximum Force            0.045536     0.000450     NO 
 RMS     Force            0.008467     0.000300     NO 
 Maximum Displacement     0.125753     0.001800     NO 
 RMS     Displacement     0.031340     0.001200     NO 
 Predicted change in Energy=-7.640731D-03
 GradGradGradGradGradGradGradGradGradGradGradGradGradGradGradGradGradGrad

                          Input orientation:                          
 ---------------------------------------------------------------------
 Center     Atomic     Atomic              Coordinates (Angstroms)
 Number     Number      Type              X           Y           Z
 ---------------------------------------------------------------------
    1          7             0       -1.493267    1.920084   -0.113019
    2          1             0       -1.688544    2.028487    0.875896
    3          6             0       -0.639902    0.766544   -0.400234
    4          1             0       -0.539074    0.680466   -1.483459
    5          6             0        0.736868    0.972643    0.231248
    6          6             0       -1.295372   -0.507520    0.084668
    7          1             0        1.126840    1.946353   -0.078225
    8          1             0        0.664892    0.989987    1.323372
    9          6             0        1.721364   -0.099317   -0.163019
   10          8             0       -2.196297   -1.152813   -0.550981
   11          8             0        1.496971   -1.015812   -0.920125
   12          1             0       -2.353305    1.909404   -0.647338
   13          8             0       -1.125411   -1.031434    1.242315
   14          1             0       -2.049781   -1.735205    0.625253
   15          8             0        2.926047    0.087456    0.430275
   16          1             0        3.517221   -0.629353    0.145553
 ---------------------------------------------------------------------
                    Distance matrix (angstroms):
                    1          2          3          4          5
     1  N    0.000000
     2  H    1.013824   0.000000
     3  C    1.463345   2.078620   0.000000
     4  H    2.079722   2.950424   1.091308   0.000000
     5  C    2.447380   2.722683   1.528642   2.157225   0.000000
     6  C    2.443666   2.685509   1.512617   2.107682   2.518407
     7  H    2.620470   2.973800   2.148725   2.520401   1.093601
     8  H    2.754260   2.611011   2.173300   3.069794   1.094630
     9  C    3.796621   4.151430   2.526176   2.731520   1.507905
    10  O    3.182571   3.523416   2.475685   2.641366   3.705793
    11  O    4.267602   4.758252   2.830778   2.709277   2.420201
    12  H    1.012559   1.666233   2.074352   2.345382   3.346432
    13  O    3.268594   3.132810   2.483225   3.271733   2.916619
    14  H    3.770397   3.789287   3.049283   3.544626   3.905521
    15  O    4.814979   5.025995   3.723828   4.002637   2.369740
    16  H    5.627742   5.890460   4.419060   4.563205   3.210000
                    6          7          8          9         10
     6  C    0.000000
     7  H    3.451832   0.000000
     8  H    2.760353   1.758552   0.000000
     9  C    3.054288   2.131998   2.124164   0.000000
    10  O    1.277543   4.568541   4.036235   4.075344   0.000000
    11  O    3.010839   3.101648   3.122318   1.209763   3.714197
    12  H    2.737987   3.526565   3.720018   4.568637   3.067752
    13  O    1.281998   3.960262   2.701462   3.308766   2.092233
    14  H    1.539018   4.913214   3.909411   4.185574   1.320672
    15  O    4.277127   2.636516   2.593261   1.355782   5.360926
    16  H    4.814520   3.521117   3.485012   1.897698   5.779572
                   11         12         13         14         15
    11  O    0.000000
    12  H    4.843132   0.000000
    13  O    3.399011   3.705001   0.000000
    14  H    3.935120   3.872311   1.315492   0.000000
    15  O    2.254560   5.687908   4.280845   5.302732   0.000000
    16  H    2.316556   6.444924   4.787336   5.696010   0.971787
                   16
    16  H    0.000000
 Stoichiometry    C4H7NO4
 Framework group  C1[X(C4H7NO4)]
 Deg. of freedom    42
 Full point group                 C1
 Largest Abelian subgroup         C1      NOp   1
 Largest concise Abelian subgroup C1      NOp   1
                         Standard orientation:                         
 ---------------------------------------------------------------------
 Center     Atomic     Atomic              Coordinates (Angstroms)
 Number     Number      Type              X           Y           Z
 ---------------------------------------------------------------------
    1          7             0       -1.502384    1.907412   -0.114034
    2          1             0       -1.699061    2.014125    0.874788
    3          6             0       -0.644650    0.757187   -0.401529
    4          1             0       -0.542403    0.672562   -1.484736
    5          6             0        0.730733    0.967515    0.231582
    6          6             0       -1.296108   -0.519676    0.081413
    7          1             0        1.117577    1.942910   -0.076509
    8          1             0        0.657572    0.983501    1.323647
    9          6             0        1.719419   -0.100558   -0.162748
   10          8             0       -2.194090   -1.167507   -0.555816
   11          8             0        1.499048   -1.017076   -0.921008
   12          1             0       -2.361828    1.894231   -0.649252
   13          8             0       -1.125486   -1.044154    1.238706
   14          1             0       -2.046725   -1.750566    0.619982
   15          8             0        2.922823    0.089874    0.431977
   16          1             0        3.516821   -0.624553    0.147144
 ---------------------------------------------------------------------
 Rotational constants (GHZ):      2.5359456      1.1217409      0.9354548
 Standard basis: 6-311++G(d,p) (5D, 7F)
 There are   247 symmetry adapted basis functions of A   symmetry.
 Integral buffers will be    262144 words long.
 Raffenetti 2 integral format.
 Two-electron integral symmetry is turned on.
   247 basis functions,   387 primitive gaussians,   256 cartesian basis functions
    35 alpha electrons       35 beta electrons
       nuclear repulsion energy       471.0904287861 Hartrees.
 NAtoms=   16 NActive=   16 NUniq=   16 SFac= 7.50D-01 NAtFMM=   80 NAOKFM=F Big=F
 One-electron integrals computed using PRISM.
 NBasis=   247 RedAO= T  NBF=   247
 NBsUse=   247 1.00D-06 NBFU=   247
 Initial guess read from the read-write file:
 Initial guess orbital symmetries:
       Occupied  (A) (A) (A) (A) (A) (A) (A) (A) (A) (A) (A) (A)
                 (A) (A) (A) (A) (A) (A) (A) (A) (A) (A) (A) (A)
                 (A) (A) (A) (A) (A) (A) (A) (A) (A) (A) (A)
       Virtual   (A) (A) (A) (A) (A) (A) (A) (A) (A) (A) (A) (A)
                 (A) (A) (A) (A) (A) (A) (A) (A) (A) (A) (A) (A)
                 (A) (A) (A) (A) (A) (A) (A) (A) (A) (A) (A) (A)
                 (A) (A) (A) (A) (A) (A) (A) (A) (A) (A) (A) (A)
                 (A) (A) (A) (A) (A) (A) (A) (A) (A) (A) (A) (A)
                 (A) (A) (A) (A) (A) (A) (A) (A) (A) (A) (A) (A)
                 (A) (A) (A) (A) (A) (A) (A) (A) (A) (A) (A) (A)
                 (A) (A) (A) (A) (A) (A) (A) (A) (A) (A) (A) (A)
                 (A) (A) (A) (A) (A) (A) (A) (A) (A) (A) (A) (A)
                 (A) (A) (A) (A) (A) (A) (A) (A) (A) (A) (A) (A)
                 (A) (A) (A) (A) (A) (A) (A) (A) (A) (A) (A) (A)
                 (A) (A) (A) (A) (A) (A) (A) (A) (A) (A) (A) (A)
                 (A) (A) (A) (A) (A) (A) (A) (A) (A) (A) (A) (A)
                 (A) (A) (A) (A) (A) (A) (A) (A) (A) (A) (A) (A)
                 (A) (A) (A) (A) (A) (A) (A) (A) (A) (A) (A) (A)
                 (A) (A) (A) (A) (A) (A) (A) (A) (A) (A) (A) (A)
                 (A) (A) (A) (A) (A) (A) (A) (A) (A) (A) (A) (A)
                 (A) (A) (A) (A) (A) (A) (A) (A)
 Harris functional with IExCor=  402 diagonalized for initial guess.
 ExpMin= 3.60D-02 ExpMax= 8.59D+03 ExpMxC= 1.30D+03 IAcc=3 IRadAn=         5 AccDes= 0.00D+00
 HarFok:  IExCor= 402 AccDes= 0.00D+00 IRadAn=         5 IDoV=1
 ScaDFX=  1.000000  1.000000  1.000000  1.000000
 Requested convergence on RMS density matrix=1.00D-08 within 128 cycles.
 Requested convergence on MAX density matrix=1.00D-06.
 Requested convergence on             energy=1.00D-06.
 No special actions if energy rises.
 SCF Done:  E(RB+HF-LYP) =  -512.427479748     A.U. after   12 cycles
             Convg  =    0.3128D-08             -V/T =  2.0036
             S**2   =   0.0000
 ***** Axes restored to original set *****
 -------------------------------------------------------------------
 Center     Atomic                   Forces (Hartrees/Bohr)
 Number     Number              X              Y              Z
 -------------------------------------------------------------------
    1          7           0.004216344    0.002794168   -0.002158695
    2          1          -0.001930217   -0.001345492   -0.000531977
    3          6          -0.000333670   -0.000261892    0.000321748
    4          1          -0.000119419    0.000126594    0.000232385
    5          6          -0.000901176   -0.000028012    0.000182380
    6          6          -0.006675509   -0.008011717    0.004282122
    7          1           0.000089060   -0.000370363    0.000110738
    8          1           0.000268998    0.000157440   -0.000365956
    9          6           0.003251366   -0.005605125   -0.003269164
   10          8           0.003972060    0.001780059    0.003136543
   11          8           0.001117909    0.005397961    0.004179748
   12          1          -0.000973183   -0.001359364    0.002089837
   13          8          -0.001147346    0.001323846   -0.004907872
   14          1           0.003063422    0.005008187   -0.002274060
   15          8          -0.001315525   -0.001012282   -0.000990328
   16          1          -0.002583115    0.001405992   -0.000037448
 -------------------------------------------------------------------
 Cartesian Forces:  Max     0.008011717 RMS     0.002815190

 GradGradGradGradGradGradGradGradGradGradGradGradGradGradGradGradGradGrad
 Berny optimization.
 Internal  Forces:  Max     0.006912548 RMS     0.001488705
 Search for a saddle point.
 Step number   2 out of a maximum of  81
 All quantities printed in internal units (Hartrees-Bohrs-Radians)
 Swaping is turned off.
 Update second derivatives using D2CorX and points  1  2
     Eigenvalues ---   -0.10501   0.00108   0.00208   0.00329   0.00602
     Eigenvalues ---    0.00909   0.01840   0.03090   0.03647   0.04076
     Eigenvalues ---    0.04283   0.04722   0.05033   0.05650   0.05748
     Eigenvalues ---    0.07457   0.07541   0.11252   0.12460   0.13673
     Eigenvalues ---    0.14608   0.14705   0.17580   0.18554   0.20674
     Eigenvalues ---    0.21796   0.24218   0.27598   0.29578   0.32372
     Eigenvalues ---    0.32849   0.33276   0.33849   0.34885   0.36527
     Eigenvalues ---    0.37020   0.45500   0.46107   0.46642   0.46964
     Eigenvalues ---    0.47222   0.720131000.000001000.000001000.00000
     Eigenvalues --- 1000.000001000.000001000.000001000.000001000.00000
     Eigenvalues --- 1000.000001000.000001000.000001000.000001000.00000
     Eigenvalues --- 1000.000001000.000001000.000001000.000001000.00000
     Eigenvalues --- 1000.000001000.000001000.000001000.000001000.00000
     Eigenvalues --- 1000.000001000.000001000.000001000.000001000.00000
     Eigenvalues --- 1000.00000
 Eigenvectors required to have negative eigenvalues:
                          R1        R2        R3        R4        R5
         1             -0.00028  -0.00060   0.00025  -0.00357   0.00705
                          R6        R7        R8        R9        R10
         1             -0.00159   0.00000   0.00170   0.00106  -0.12958
                          R11       R12       R13       R14       R15
         1              0.13151   0.00122  -0.00068   0.00080   0.64126
                          R16       R17       A1        A2        A3
         1             -0.64059   0.00014   0.00422  -0.00022  -0.00568
                          A4        A5        A6        A7        A8
         1              0.00868  -0.01247   0.00037   0.00339  -0.01795
                          A9        A10       A11       A12       A13
         1              0.01785   0.00135   0.00170   0.00208  -0.00332
                          A14       A15       A16       A17       A18
         1             -0.00062  -0.00151  -0.06479   0.06493   0.00043
                          A19       A20       A21       A22       A23
         1             -0.00026  -0.00006   0.00034   0.00044   0.00029
                          A24       A25       D1        D2        D3
         1              0.02910   0.36504  -0.00385  -0.00179   0.01248
                          D4        D5        D6        D7        D8
         1             -0.00233  -0.00028   0.01399  -0.00068  -0.00292
                          D9        D10       D11       D12       D13
         1             -0.00218   0.00443   0.00219   0.00293  -0.00456
                          D14       D15       D16       D17       D18
         1             -0.00680  -0.00606   0.00943   0.00288   0.00923
                          D19       D20       D21       D22       D23
         1              0.00267   0.00611  -0.00044  -0.00175  -0.00015
                          D24       D25       D26       D27       D28
         1             -0.00438  -0.00278   0.00072   0.00232  -0.00023
                          D29
         1              0.00132
 RFO step:  Lambda0=2.764296278D-09 Lambda=-1.43554615D-03.
 Linear search not attempted -- option 19 set.
 Maximum step size (   0.300) exceeded in Quadratic search.
    -- Step size scaled by   0.971
 Iteration  1 RMS(Cart)=  0.03004776 RMS(Int)=  0.00263961
 Iteration  2 RMS(Cart)=  0.00206416 RMS(Int)=  0.00170010
 Iteration  3 RMS(Cart)=  0.00001159 RMS(Int)=  0.00170008
 Iteration  4 RMS(Cart)=  0.00000014 RMS(Int)=  0.00170008
 Variable       Old X    -DE/DX   Delta X   Delta X   Delta X     New X
                                 (Linear)    (Quad)   (Total)
    R1        1.91585  -0.00029   0.00000   0.00681   0.00681   1.92266
    R2        2.76532  -0.00082   0.00000   0.01598   0.01598   2.78130
    R3        1.91346  -0.00026   0.00000   0.00708   0.00708   1.92054
    R4        2.06227  -0.00025   0.00000  -0.00081  -0.00081   2.06146
    R5        2.88871  -0.00016   0.00000  -0.00380  -0.00380   2.88492
    R6        2.85843   0.00034   0.00000  -0.00232  -0.00232   2.85611
    R7        2.06661  -0.00033   0.00000  -0.00032  -0.00032   2.06628
    R8        2.06855  -0.00038   0.00000  -0.00143  -0.00143   2.06712
    R9        2.84953   0.00020   0.00000   0.00255   0.00255   2.85208
   R10        2.41421  -0.00427   0.00000  -0.00710  -0.00717   2.40704
   R11        2.42262  -0.00415   0.00000  -0.00776  -0.00782   2.41480
   R12        2.90832  -0.00432   0.00000  -0.04235  -0.04232   2.86601
   R13        2.28612  -0.00691   0.00000  -0.00577  -0.00577   2.28035
   R14        2.56206  -0.00386   0.00000  -0.00756  -0.00756   2.55449
   R15        2.49571  -0.00214   0.00000  -0.02337  -0.02332   2.47239
   R16        2.48592  -0.00208   0.00000  -0.02367  -0.02363   2.46229
   R17        1.83641  -0.00260   0.00000  -0.00422  -0.00422   1.83219
    A1        1.96933  -0.00051   0.00000  -0.05736  -0.06209   1.90724
    A2        1.93077  -0.00109   0.00000  -0.07899  -0.08942   1.84136
    A3        1.96431  -0.00065   0.00000  -0.05858  -0.06334   1.90096
    A4        1.88691   0.00000   0.00000  -0.00383  -0.00383   1.88308
    A5        1.91544  -0.00008   0.00000  -0.00685  -0.00686   1.90858
    A6        1.92660  -0.00025   0.00000   0.00309   0.00310   1.92970
    A7        1.91502  -0.00005   0.00000   0.00119   0.00116   1.91618
    A8        1.86690  -0.00002   0.00000   0.00132   0.00132   1.86822
    A9        1.95133   0.00037   0.00000   0.00502   0.00502   1.95635
   A10        1.90108   0.00003   0.00000  -0.00154  -0.00153   1.89955
   A11        1.93378  -0.00005   0.00000   0.00483   0.00481   1.93860
   A12        1.96510   0.00059   0.00000   0.00311   0.00309   1.96819
   A13        1.86678  -0.00002   0.00000  -0.00294  -0.00293   1.86384
   A14        1.90303  -0.00048   0.00000  -0.00563  -0.00563   1.89739
   A15        1.89132  -0.00011   0.00000   0.00170   0.00168   1.89299
   A16        2.17917  -0.00076   0.00000  -0.00296  -0.00295   2.17622
   A17        2.18492  -0.00074   0.00000   0.00040   0.00038   2.18530
   A18        1.91385   0.00154   0.00000   0.00388   0.00381   1.91767
   A19        2.19087  -0.00014   0.00000  -0.00133  -0.00133   2.18954
   A20        1.94741  -0.00023   0.00000  -0.00045  -0.00045   1.94696
   A21        2.14485   0.00037   0.00000   0.00178   0.00178   2.14663
   A22        1.83362  -0.00092   0.00000   0.02018   0.02032   1.85394
   A23        1.88674  -0.00253   0.00000  -0.01230  -0.01230   1.87444
   A24        3.06334   0.00008   0.00000   0.00987   0.00987   3.07321
   A25        3.15241  -0.00003   0.00000  -0.00375  -0.00377   3.14864
    D1        3.07121  -0.00116   0.00000  -0.07067  -0.06776   3.00345
    D2       -1.12375  -0.00126   0.00000  -0.07550  -0.07256  -1.19631
    D3        1.03468  -0.00101   0.00000  -0.07175  -0.06882   0.96586
    D4        0.87103   0.00128   0.00000   0.13203   0.12909   1.00012
    D5        2.95926   0.00119   0.00000   0.12720   0.12429   3.08355
    D6       -1.16549   0.00144   0.00000   0.13095   0.12803  -1.03747
    D7       -0.90784   0.00002   0.00000   0.01381   0.01381  -0.89403
    D8        1.14101  -0.00001   0.00000   0.01212   0.01211   1.15312
    D9       -3.02093   0.00022   0.00000   0.01997   0.01998  -3.00095
   D10        1.16312  -0.00005   0.00000   0.00571   0.00571   1.16883
   D11       -3.07122  -0.00008   0.00000   0.00402   0.00401  -3.06721
   D12       -0.94997   0.00015   0.00000   0.01188   0.01188  -0.93809
   D13       -3.05172   0.00013   0.00000   0.01128   0.01128  -3.04044
   D14       -1.00287   0.00010   0.00000   0.00958   0.00958  -0.99329
   D15        1.11838   0.00033   0.00000   0.01744   0.01745   1.13583
   D16        1.42137   0.00032   0.00000   0.00673   0.00672   1.42809
   D17       -1.59886  -0.00022   0.00000  -0.00877  -0.00877  -1.60763
   D18       -0.62755   0.00045   0.00000   0.00888   0.00888  -0.61867
   D19        2.63541  -0.00008   0.00000  -0.00662  -0.00662   2.62879
   D20       -2.72430   0.00030   0.00000   0.00364   0.00364  -2.72066
   D21        0.53866  -0.00023   0.00000  -0.01186  -0.01186   0.52680
   D22        0.03344   0.00005   0.00000   0.02175   0.02175   0.05519
   D23       -3.11889   0.00004   0.00000   0.02151   0.02151  -3.09738
   D24       -2.07853  -0.00004   0.00000   0.02557   0.02557  -2.05296
   D25        1.05232  -0.00005   0.00000   0.02533   0.02533   1.07766
   D26        2.17866   0.00031   0.00000   0.03116   0.03116   2.20982
   D27       -0.97367   0.00029   0.00000   0.03092   0.03092  -0.94275
   D28        3.13780   0.00005   0.00000   0.00534   0.00534  -3.14005
   D29       -0.01421   0.00003   0.00000   0.00509   0.00509  -0.00912
         Item               Value     Threshold  Converged?
 Maximum Force            0.006913     0.000450     NO 
 RMS     Force            0.001489     0.000300     NO 
 Maximum Displacement     0.154405     0.001800     NO 
 RMS     Displacement     0.030574     0.001200     NO 
 Predicted change in Energy=-7.866788D-04
 GradGradGradGradGradGradGradGradGradGradGradGradGradGradGradGradGradGrad

                          Input orientation:                          
 ---------------------------------------------------------------------
 Center     Atomic     Atomic              Coordinates (Angstroms)
 Number     Number      Type              X           Y           Z
 ---------------------------------------------------------------------
    1          7             0       -1.475784    1.945387   -0.129960
    2          1             0       -1.693268    1.978060    0.863412
    3          6             0       -0.633696    0.769943   -0.404583
    4          1             0       -0.532024    0.675938   -1.486635
    5          6             0        0.740758    0.973336    0.227960
    6          6             0       -1.305296   -0.491096    0.088403
    7          1             0        1.132232    1.945680   -0.083306
    8          1             0        0.672084    0.995057    1.319457
    9          6             0        1.729766   -0.095935   -0.167485
   10          8             0       -2.204093   -1.130326   -0.548767
   11          8             0        1.515238   -0.995645   -0.942496
   12          1             0       -2.369196    1.827696   -0.599895
   13          8             0       -1.138981   -1.011000    1.243807
   14          1             0       -2.055299   -1.696855    0.621123
   15          8             0        2.920522    0.076660    0.448647
   16          1             0        3.506287   -0.636930    0.152496
 ---------------------------------------------------------------------
                    Distance matrix (angstroms):
                    1          2          3          4          5
     1  N    0.000000
     2  H    1.017425   0.000000
     3  C    1.471801   2.046961   0.000000
     4  H    2.083927   2.926898   1.090876   0.000000
     5  C    2.446640   2.708828   1.526631   2.155982   0.000000
     6  C    2.452182   2.616848   1.511390   2.107288   2.519995
     7  H    2.608433   2.980062   2.145712   2.520184   1.093431
     8  H    2.759941   2.601760   2.174409   3.070158   1.093871
     9  C    3.800520   4.132960   2.528223   2.729769   1.509257
    10  O    3.188391   3.452138   2.469404   2.634008   3.701465
    11  O    4.272715   4.732730   2.832767   2.698436   2.417990
    12  H    1.016304   1.618875   2.041800   2.342660   3.329727
    13  O    3.277330   3.063726   2.478762   3.266416   2.915983
    14  H    3.763760   3.700645   3.026239   3.520392   3.886185
    15  O    4.811906   5.007435   3.720365   4.003065   2.367299
    16  H    5.618645   5.863356   4.407844   4.551740   3.201064
                    6          7          8          9         10
     6  C    0.000000
     7  H    3.450928   0.000000
     8  H    2.763001   1.755894   0.000000
     9  C    3.071356   2.128926   2.126018   0.000000
    10  O    1.273749   4.561746   4.034837   4.085411   0.000000
    11  O    3.045116   3.088089   3.128936   1.206707   3.742537
    12  H    2.642430   3.541296   3.691420   4.548496   2.963067
    13  O    1.277857   3.957473   2.703691   3.325477   2.088546
    14  H    1.516625   4.891282   3.895212   4.184682   1.308334
    15  O    4.278979   2.640870   2.580163   1.351780   5.358482
    16  H    4.814219   3.515910   3.472448   1.884434   5.774396
                   11         12         13         14         15
    11  O    0.000000
    12  H    4.814297   0.000000
    13  O    3.438755   3.601508   0.000000
    14  H    3.960471   3.743245   1.302985   0.000000
    15  O    2.249432   5.669804   4.277248   5.285253   0.000000
    16  H    2.300426   6.415744   4.786377   5.681046   0.969555
                   16
    16  H    0.000000
 Stoichiometry    C4H7NO4
 Framework group  C1[X(C4H7NO4)]
 Deg. of freedom    42
 Full point group                 C1
 Largest Abelian subgroup         C1      NOp   1
 Largest concise Abelian subgroup C1      NOp   1
                         Standard orientation:                         
 ---------------------------------------------------------------------
 Center     Atomic     Atomic              Coordinates (Angstroms)
 Number     Number      Type              X           Y           Z
 ---------------------------------------------------------------------
    1          7             0       -1.492328    1.919190   -0.124861
    2          1             0       -1.711857    1.946679    0.868218
    3          6             0       -0.641778    0.750516   -0.402284
    4          1             0       -0.537477    0.661244   -1.484487
    5          6             0        0.730097    0.960860    0.233577
    6          6             0       -1.305711   -0.516879    0.084751
    7          1             0        1.115536    1.936991   -0.073337
    8          1             0        0.659267    0.978039    1.325018
    9          6             0        1.727065   -0.100198   -0.163997
   10          8             0       -2.198974   -1.159803   -0.556471
   11          8             0        1.520076   -0.998441   -0.942751
   12          1             0       -2.384053    1.797201   -0.596898
   13          8             0       -1.138000   -1.039954    1.238521
   14          1             0       -2.048494   -1.729676    0.611579
   15          8             0        2.915486    0.078164    0.454995
   16          1             0        3.506625   -0.630328    0.157285
 ---------------------------------------------------------------------
 Rotational constants (GHZ):      2.5423306      1.1160476      0.9356796
 Standard basis: 6-311++G(d,p) (5D, 7F)
 There are   247 symmetry adapted basis functions of A   symmetry.
 Integral buffers will be    262144 words long.
 Raffenetti 2 integral format.
 Two-electron integral symmetry is turned on.
   247 basis functions,   387 primitive gaussians,   256 cartesian basis functions
    35 alpha electrons       35 beta electrons
       nuclear repulsion energy       471.3970755809 Hartrees.
 NAtoms=   16 NActive=   16 NUniq=   16 SFac= 7.50D-01 NAtFMM=   80 NAOKFM=F Big=F
 One-electron integrals computed using PRISM.
 NBasis=   247 RedAO= T  NBF=   247
 NBsUse=   247 1.00D-06 NBFU=   247
 Initial guess read from the read-write file:
 Initial guess orbital symmetries:
       Occupied  (A) (A) (A) (A) (A) (A) (A) (A) (A) (A) (A) (A)
                 (A) (A) (A) (A) (A) (A) (A) (A) (A) (A) (A) (A)
                 (A) (A) (A) (A) (A) (A) (A) (A) (A) (A) (A)
       Virtual   (A) (A) (A) (A) (A) (A) (A) (A) (A) (A) (A) (A)
                 (A) (A) (A) (A) (A) (A) (A) (A) (A) (A) (A) (A)
                 (A) (A) (A) (A) (A) (A) (A) (A) (A) (A) (A) (A)
                 (A) (A) (A) (A) (A) (A) (A) (A) (A) (A) (A) (A)
                 (A) (A) (A) (A) (A) (A) (A) (A) (A) (A) (A) (A)
                 (A) (A) (A) (A) (A) (A) (A) (A) (A) (A) (A) (A)
                 (A) (A) (A) (A) (A) (A) (A) (A) (A) (A) (A) (A)
                 (A) (A) (A) (A) (A) (A) (A) (A) (A) (A) (A) (A)
                 (A) (A) (A) (A) (A) (A) (A) (A) (A) (A) (A) (A)
                 (A) (A) (A) (A) (A) (A) (A) (A) (A) (A) (A) (A)
                 (A) (A) (A) (A) (A) (A) (A) (A) (A) (A) (A) (A)
                 (A) (A) (A) (A) (A) (A) (A) (A) (A) (A) (A) (A)
                 (A) (A) (A) (A) (A) (A) (A) (A) (A) (A) (A) (A)
                 (A) (A) (A) (A) (A) (A) (A) (A) (A) (A) (A) (A)
                 (A) (A) (A) (A) (A) (A) (A) (A) (A) (A) (A) (A)
                 (A) (A) (A) (A) (A) (A) (A) (A) (A) (A) (A) (A)
                 (A) (A) (A) (A) (A) (A) (A) (A) (A) (A) (A) (A)
                 (A) (A) (A) (A) (A) (A) (A) (A)
 Harris functional with IExCor=  402 diagonalized for initial guess.
 ExpMin= 3.60D-02 ExpMax= 8.59D+03 ExpMxC= 1.30D+03 IAcc=3 IRadAn=         5 AccDes= 0.00D+00
 HarFok:  IExCor= 402 AccDes= 0.00D+00 IRadAn=         5 IDoV=1
 ScaDFX=  1.000000  1.000000  1.000000  1.000000
 Requested convergence on RMS density matrix=1.00D-08 within 128 cycles.
 Requested convergence on MAX density matrix=1.00D-06.
 Requested convergence on             energy=1.00D-06.
 No special actions if energy rises.
 SCF Done:  E(RB+HF-LYP) =  -512.427642106     A.U. after   12 cycles
             Convg  =    0.4949D-08             -V/T =  2.0035
             S**2   =   0.0000
 ***** Axes restored to original set *****
 -------------------------------------------------------------------
 Center     Atomic                   Forces (Hartrees/Bohr)
 Number     Number              X              Y              Z
 -------------------------------------------------------------------
    1          7          -0.003874859   -0.005426046    0.002112752
    2          1           0.001327682    0.002780966    0.001036422
    3          6           0.002274512    0.000588619   -0.001024102
    4          1           0.000156757   -0.000184811   -0.000006466
    5          6           0.000214907   -0.000360496   -0.000070021
    6          6          -0.000580632   -0.000686686    0.000285898
    7          1           0.000009318   -0.000010392   -0.000021583
    8          1          -0.000007579    0.000007840    0.000004287
    9          6           0.000029036   -0.000985982   -0.000761627
   10          8           0.000638009    0.000573244    0.000320298
   11          8           0.000312655    0.001151927    0.000923792
   12          1          -0.000159154    0.002479809   -0.002053404
   13          8           0.000032728    0.000504571   -0.000733899
   14          1          -0.000168704   -0.000324637    0.000100749
   15          8          -0.000140717   -0.000178892   -0.000148513
   16          1          -0.000063960    0.000070965    0.000035418
 -------------------------------------------------------------------
 Cartesian Forces:  Max     0.005426046 RMS     0.001317145

 GradGradGradGradGradGradGradGradGradGradGradGradGradGradGradGradGradGrad
 Berny optimization.
 Internal  Forces:  Max     0.002947315 RMS     0.000761279
 Search for a saddle point.
 Step number   3 out of a maximum of  81
 All quantities printed in internal units (Hartrees-Bohrs-Radians)
 Swaping is turned off.
 Update second derivatives using D2CorX and points  1  2  3
     Eigenvalues ---   -0.10499   0.00080   0.00205   0.00316   0.00581
     Eigenvalues ---    0.01839   0.02710   0.03085   0.03647   0.04076
     Eigenvalues ---    0.04283   0.04723   0.05035   0.05641   0.05748
     Eigenvalues ---    0.07456   0.07541   0.11246   0.12404   0.13678
     Eigenvalues ---    0.14625   0.14706   0.17579   0.18550   0.20657
     Eigenvalues ---    0.21795   0.24216   0.27602   0.29603   0.32388
     Eigenvalues ---    0.32853   0.33293   0.33849   0.34909   0.36605
     Eigenvalues ---    0.37059   0.45554   0.46127   0.46634   0.46954
     Eigenvalues ---    0.47213   0.720211000.000001000.000001000.00000
     Eigenvalues --- 1000.000001000.000001000.000001000.000001000.00000
     Eigenvalues --- 1000.000001000.000001000.000001000.000001000.00000
     Eigenvalues --- 1000.000001000.000001000.000001000.000001000.00000
     Eigenvalues --- 1000.000001000.000001000.000001000.000001000.00000
     Eigenvalues --- 1000.000001000.000001000.000001000.000001000.00000
     Eigenvalues --- 1000.00000
 Eigenvectors required to have negative eigenvalues:
                          R1        R2        R3        R4        R5
         1             -0.00028  -0.00062   0.00024  -0.00357   0.00706
                          R6        R7        R8        R9        R10
         1             -0.00158   0.00000   0.00170   0.00106  -0.12925
                          R11       R12       R13       R14       R15
         1              0.13118   0.00128  -0.00070   0.00080   0.64014
                          R16       R17       A1        A2        A3
         1             -0.63941   0.00014   0.00436  -0.00022  -0.00554
                          A4        A5        A6        A7        A8
         1              0.00874  -0.01253   0.00042   0.00338  -0.01798
                          A9        A10       A11       A12       A13
         1              0.01785   0.00136   0.00169   0.00207  -0.00333
                          A14       A15       A16       A17       A18
         1             -0.00061  -0.00153  -0.06748   0.06757   0.00041
                          A19       A20       A21       A22       A23
         1             -0.00026  -0.00006   0.00034   0.00037   0.00030
                          A24       A25       D1        D2        D3
         1              0.02954   0.36832  -0.00357  -0.00151   0.01271
                          D4        D5        D6        D7        D8
         1             -0.00265  -0.00060   0.01363  -0.00073  -0.00297
                          D9        D10       D11       D12       D13
         1             -0.00224   0.00442   0.00218   0.00292  -0.00453
                          D14       D15       D16       D17       D18
         1             -0.00677  -0.00604   0.00949   0.00293   0.00924
                          D19       D20       D21       D22       D23
         1              0.00268   0.00618  -0.00039  -0.00177  -0.00018
                          D24       D25       D26       D27       D28
         1             -0.00440  -0.00281   0.00068   0.00228  -0.00024
                          D29
         1              0.00131
 RFO step:  Lambda0=5.884398142D-09 Lambda=-8.51631483D-04.
 Linear search not attempted -- option 19 set.
 Iteration  1 RMS(Cart)=  0.02329105 RMS(Int)=  0.00113659
 Iteration  2 RMS(Cart)=  0.00089387 RMS(Int)=  0.00071396
 Iteration  3 RMS(Cart)=  0.00000215 RMS(Int)=  0.00071395
 Iteration  4 RMS(Cart)=  0.00000001 RMS(Int)=  0.00071395
 Variable       Old X    -DE/DX   Delta X   Delta X   Delta X     New X
                                 (Linear)    (Quad)   (Total)
    R1        1.92266   0.00082   0.00000  -0.00336  -0.00336   1.91930
    R2        2.78130   0.00162   0.00000  -0.00924  -0.00924   2.77206
    R3        1.92054   0.00080   0.00000  -0.00339  -0.00339   1.91715
    R4        2.06146   0.00004   0.00000   0.00014   0.00014   2.06160
    R5        2.88492   0.00025   0.00000   0.00073   0.00073   2.88565
    R6        2.85611  -0.00002   0.00000   0.00313   0.00313   2.85924
    R7        2.06628   0.00000   0.00000   0.00038   0.00038   2.06667
    R8        2.06712   0.00000   0.00000  -0.00042  -0.00042   2.06670
    R9        2.85208   0.00004   0.00000   0.00055   0.00055   2.85263
   R10        2.40704  -0.00068   0.00000  -0.00270  -0.00270   2.40434
   R11        2.41480  -0.00065   0.00000  -0.00226  -0.00226   2.41254
   R12        2.86601   0.00000   0.00000  -0.00482  -0.00482   2.86119
   R13        2.28035  -0.00151   0.00000  -0.00258  -0.00258   2.27776
   R14        2.55449  -0.00025   0.00000  -0.00081  -0.00081   2.55368
   R15        2.47239  -0.00001   0.00000  -0.00268  -0.00267   2.46972
   R16        2.46229   0.00003   0.00000  -0.00321  -0.00321   2.45907
   R17        1.83219  -0.00010   0.00000  -0.00042  -0.00042   1.83177
    A1        1.90724   0.00287   0.00000   0.04846   0.04613   1.95336
    A2        1.84136   0.00011   0.00000   0.05141   0.04716   1.88852
    A3        1.90096   0.00295   0.00000   0.04952   0.04717   1.94813
    A4        1.88308   0.00004   0.00000   0.00256   0.00256   1.88564
    A5        1.90858   0.00039   0.00000   0.00439   0.00439   1.91297
    A6        1.92970  -0.00026   0.00000  -0.00161  -0.00161   1.92810
    A7        1.91618  -0.00015   0.00000  -0.00132  -0.00133   1.91485
[...]
 ! D2    D(2,1,3,5)            -65.7102         -DE/DX =    0.0                 !
 ! D3    D(2,1,3,6)             58.1455         -DE/DX =    0.0                 !
 ! D4    D(12,1,3,4)            54.3055         -DE/DX =    0.0                 !
 ! D5    D(12,1,3,5)           173.7977         -DE/DX =    0.0                 !
 ! D6    D(12,1,3,6)           -62.3465         -DE/DX =    0.0                 !
 ! D7    D(1,3,5,7)            -51.2913         -DE/DX =    0.0                 !
 ! D8    D(1,3,5,8)             66.0369         -DE/DX =    0.0                 !
 ! D9    D(1,3,5,9)           -171.8213         -DE/DX =    0.0                 !
 ! D10   D(4,3,5,7)             67.1395         -DE/DX =    0.0                 !
 ! D11   D(4,3,5,8)           -175.5324         -DE/DX =    0.0                 !
 ! D12   D(4,3,5,9)            -53.3906         -DE/DX =    0.0                 !
 ! D13   D(6,3,5,7)           -174.2534         -DE/DX =    0.0                 !
 ! D14   D(6,3,5,8)            -56.9252         -DE/DX =    0.0                 !
 ! D15   D(6,3,5,9)             65.2166         -DE/DX =    0.0                 !
 ! D16   D(1,3,6,10)            81.4634         -DE/DX =    0.0                 !
 ! D17   D(1,3,6,13)           -92.6471         -DE/DX =    0.0                 !
 ! D18   D(4,3,6,10)           -35.8392         -DE/DX =    0.0                 !
 ! D19   D(4,3,6,13)           150.0503         -DE/DX =    0.0                 !
 ! D20   D(5,3,6,10)          -156.0752         -DE/DX =    0.0                 !
 ! D21   D(5,3,6,13)            29.8143         -DE/DX =    0.0                 !
 ! D22   D(3,5,9,11)             4.8056         -DE/DX =    0.0                 !
 ! D23   D(3,5,9,15)          -175.958          -DE/DX =    0.0                 !
 ! D24   D(7,5,9,11)          -115.8371         -DE/DX =    0.0                 !
 ! D25   D(7,5,9,15)            63.3993         -DE/DX =    0.0                 !
 ! D26   D(8,5,9,11)           128.3753         -DE/DX =    0.0                 !
 ! D27   D(8,5,9,15)           -52.3883         -DE/DX =    0.0                 !
 ! D28   D(5,9,15,16)         -179.7105         -DE/DX =    0.0                 !
 ! D29   D(11,9,15,16)          -0.4519         -DE/DX =    0.0                 !
 --------------------------------------------------------------------------------
 GradGradGradGradGradGradGradGradGradGradGradGradGradGradGradGradGradGrad


 Test job not archived.
 1|1|UNPC-UNK|Freq|RB3LYP|6-311++G(d,p)|C4H7N1O4|PCUSER|01-Apr-2016|0||
 #N Geom=AllCheck Guess=Read SCRF=Check Test GenChk RB3LYP/6-311++G(d,p
 ) Freq||Asp-S-opt-freq-ts1-6-31++gdp||0,1|N,-1.4853762735,1.9306994046
 ,-0.1272118594|H,-1.6840874234,2.0191963472,0.8650124807|C,-0.63840097
 35,0.7643981416,-0.4019305446|H,-0.5373274907,0.6684504926,-1.48391451
 49|C,0.7373800581,0.9709529328,0.2278862452|C,-1.3037413775,-0.5010620
 048,0.0928898497|H,1.1248072482,1.9448083551,-0.0842753662|H,0.6717168
 081,0.9912593548,1.3194131678|C,1.7302121563,-0.0928174416,-0.17361050
 21|O,-2.2037762182,-1.1410583829,-0.5400537469|O,1.527409332,-0.973758
 4102,-0.9714895651|H,-2.3699418217,1.8638820477,-0.6196833051|O,-1.126
 0366755,-1.0239073572,1.2445574678|H,-2.0453942417,-1.7122673838,0.627
 419196|O,2.9109293012,0.0640211521,0.4653582005|H,3.5008765919,-0.6428
 27248,0.1618107965||Version=IA32W-G03RevE.01|State=1-A|HF=-512.4279809
 |RMSD=1.184e-009|RMSF=5.886e-006|ZeroPoint=0.118417|Thermal=0.1277083|
 Dipole=0.2411625,0.7413528,0.3361963|DipoleDeriv=-0.4691096,0.0165875,
 0.0622326,0.0349362,-0.7293322,0.085433,0.0377601,0.0941756,-0.22954,0
 .1701376,0.060852,0.010392,0.042861,0.2577855,0.0708403,0.0241648,0.01
 60202,0.0458854,0.4613031,-0.1265715,-0.0617205,-0.0864765,0.2638637,0
 .0029624,-0.0356667,-0.0000906,0.1526806,0.0345601,-0.0145079,0.001801
 9,-0.0178827,0.0278429,-0.0179194,0.0116337,-0.0104904,-0.0267929,-0.0
 60673,0.0905046,-0.0050088,0.1733317,-0.1383592,-0.0971554,0.0472939,-
 0.0661242,0.0450315,0.7260014,0.4558212,0.3595345,0.4043583,0.8466819,
 -0.1441934,0.3389083,-0.2125959,1.0815448,0.0114365,-0.0241761,0.02185
 12,-0.0509433,0.0051689,0.0200273,0.0144815,0.0416204,0.0868858,0.0351
 17,0.0431229,0.0270364,0.0178952,0.0929248,0.0135689,-0.0066473,-0.017
 1663,-0.0237946,1.6665067,-0.065092,0.4596369,-0.1027421,0.9490963,0.5
 3107,0.501532,0.5142664,0.882898,-0.7481378,-0.296207,-0.3531871,-0.27
 11181,-0.6274734,-0.0712519,-0.3184088,-0.0409174,-0.8259986,-0.744700
 1,0.0812887,-0.0498452,-0.0846985,-0.7809442,-0.4202548,-0.2002291,-0.
 3435662,-0.7001751,0.0590831,0.0180903,-0.0325755,-0.0464173,0.2462684
 ,-0.0995388,-0.0033655,-0.0915367,0.1854769,-0.5987712,-0.1528588,-0.2
 19309,-0.1094982,-0.5820364,0.1672899,-0.2898541,0.20789,-1.0259455,0.
 4190489,0.0229073,0.2085761,0.02761,0.2867818,0.0129399,0.2263134,0.02
 57033,0.6084149,-1.3116291,-0.105483,-0.4286651,0.0458385,-0.3585982,0
 .0135581,-0.3652434,-0.0383773,-0.5384591,0.3498263,-0.0042782,-0.0007
 504,0.0229458,0.2403292,-0.0673762,0.0173275,-0.0788108,0.2818878|Pola
 r=75.8214117,0.5636012,71.9326324,5.7339598,2.2655277,62.8777505|PG=C0
 1 [X(C4H7N1O4)]|NImag=1||0.54778801,-0.11061956,0.24268645,0.09071015,
 0.09944453,0.64570117,-0.06786187,0.02976537,0.07767474,0.06619188,0.0
 1936603,-0.02368915,-0.00261122,-0.02688306,0.03748522,0.05468415,-0.0
 4463177,-0.41075002,-0.06505569,0.04012715,0.42992785,-0.11536524,0.05
 119222,0.00254965,-0.00379687,0.00703293,0.00140285,0.48600729,0.07990
 005,-0.14383559,-0.03485924,-0.00269601,-0.00946293,0.00363729,0.01739
 301,0.43532347,0.00039515,-0.02311509,-0.09974752,0.02362422,-0.031922
 53,-0.00536122,0.00308175,0.01515882,0.62763674,-0.00366972,0.00779433
 ,0.02210192,-0.00238339,0.00307522,0.00071476,-0.05195609,-0.00253441,
 0.01916006,0.06009225,0.00555912,-0.00741922,-0.03225524,0.00395272,-0
 .00370616,-0.00113053,-0.00242125,-0.04916188,-0.01440287,-0.00282840,
 0.06203031,0.00219969,-0.00374490,-0.00346325,0.00045128,-0.00010807,0
 .00185158,0.02418014,-0.01703798,-0.31128726,-0.02629265,0.02117908,0.
 33520869,-0.02867386,0.00669022,-0.01227321,0.00122575,-0.00102680,0.0
 0023559,-0.15798009,-0.01823306,-0.03776320,0.00180600,-0.00054827,-0.
 00197956,0.49632365,0.03329598,-0.00003440,0.01464869,-0.00037082,0.00
 083577,0.00020548,-0.02386895,-0.08098265,-0.00997001,-0.00161770,-0.0
 0031503,-0.00029460,0.02565837,0.53275531,0.00653532,-0.00050498,0.004
 92377,0.00167943,0.00023069,0.00123774,-0.04401605,-0.00875147,-0.1084
 3507,-0.03080901,-0.00516430,-0.01175534,-0.00108162,-0.01266108,0.559
 19959,0.00369276,0.02621490,-0.00570398,0.00091904,0.00039437,-0.00091
 819,-0.11176843,-0.05165251,0.02261046,-0.00060139,-0.00289965,0.00005
 399,-0.01869378,-0.02778825,0.00912480,0.49463467,0.00842375,-0.040222
 47,0.00247414,-0.00031603,0.00046178,-0.00007652,-0.04926214,-0.133819
 14,0.03024261,0.00048488,0.00295414,0.00117522,-0.01065162,-0.00439173
 ,-0.00382753,0.24240408,0.58935731,-0.00428822,-0.00885016,0.00321962,
 -0.00023229,-0.00463312,0.00145731,0.02171648,0.03248260,-0.10118085,0
 .01632534,0.03130494,-0.01449753,-0.00413301,-0.01266302,0.00718297,0.
 10894669,-0.13298467,0.62713824,0.00291628,0.00018538,0.00070950,-0.00
 036961,-0.00021073,0.00010927,-0.01306314,-0.02700871,0.00953263,0.001
 10808,0.00025939,-0.00008253,-0.07851459,-0.07832984,0.02554920,-0.004
 26383,0.00199858,-0.00331060,0.08655212,0.00127996,0.00096130,0.000274
 03,0.00003595,-0.00004015,-0.00008983,-0.00224773,-0.00412934,0.001020
 97,-0.00014574,0.00010732,-0.00018707,-0.08341484,-0.25402411,0.070764
 82,0.00061545,0.00004752,-0.00068095,0.08925598,0.27663039,0.00129868,
 -0.00008125,0.00004960,0.00031276,0.00035155,-0.00003206,-0.00673023,-
 0.01350372,0.00385591,0.00042685,-0.00031668,0.00045261,0.02649115,0.0
 6946880,-0.06471919,-0.00254972,0.00116313,-0.00196127,-0.02811340,-0.
 07415839,0.07061458,0.00202985,-0.00107847,0.00059917,-0.00042211,0.00
 051498,0.00044898,0.00157744,-0.00080602,-0.03278616,-0.00559288,-0.00
 061832,-0.00171416,-0.05148991,0.00253566,0.01918113,0.00113961,0.0009
 0595,-0.00159869,-0.00109061,0.00037372,0.01073819,0.05480755,0.000012
 63,-0.00011522,0.00056808,0.00041912,0.00043405,0.00009493,0.00012395,
 -0.00115714,-0.00517841,-0.00066330,0.00014821,-0.00059303,0.00235424,
 -0.04148817,-0.00346198,-0.00014980,0.00060636,-0.00210469,-0.00251651
 ,0.00142779,0.02948074,-0.00253853,0.04642135,0.00033906,0.00016566,0.
 00119234,-0.00089419,0.00032576,-0.00001746,-0.00005273,-0.00100831,-0
 .01303351,-0.00189500,-0.00028513,0.00066057,0.01785013,-0.00421789,-0
 .30648063,-0.00016126,0.00111559,-0.00119038,0.00094360,0.00001243,-0.
 00877589,-0.01777271,0.00552201,0.33406222,-0.00183944,-0.00209757,-0.
 00257341,-0.00026558,0.00001035,0.00019043,-0.02534975,0.02121602,0.00
 610117,0.00031128,0.00090445,-0.00010304,-0.13658124,0.04776426,0.0210
 4761,-0.00528664,-0.00312859,0.00111592,0.01190688,-0.00969901,-0.0036
 6940,0.00069453,0.00121435,0.00003529,0.54496016,-0.00437318,-0.001035
 26,-0.00315020,0.00141751,-0.00019927,-0.00021698,0.00602073,0.0050547
 3,0.01026133,-0.00133777,0.00071134,-0.00213157,0.04570261,-0.12857273
 ,-0.01000779,-0.00363937,0.00794115,-0.00023594,0.01926300,-0.02376616
 ,-0.01110949,-0.00459198,-0.00014356,-0.00207005,-0.04000981,0.6829514
 7,-0.00532560,-0.00114451,-0.00357001,0.00040472,0.00006002,-0.0000129
 7,-0.00288603,0.01337647,0.00634814,-0.00229643,0.00121534,-0.00159991
 ,0.01823093,-0.00972616,-0.09119128,-0.00205316,0.00292611,0.00298866,
 -0.01035891,0.00644934,0.00241408,0.02426904,-0.02790629,-0.01061465,0
 .10615198,0.34751161,0.55539874,0.00031935,-0.00382669,0.00047119,-0.0
 0043323,-0.00018405,0.00009094,-0.00445818,-0.00812001,-0.01349628,0.0
 0044509,0.00090302,-0.00036727,-0.00014127,-0.00247924,0.00134817,-0.2
 7213007,-0.14681163,-0.12497253,-0.00100803,-0.00038624,0.00000019,0.0
 0044538,0.00041109,0.00018242,0.00180477,-0.00095297,-0.00049680,0.324
 82120,-0.00204584,-0.00078067,0.00031306,-0.00001981,-0.00029290,0.000
 30208,-0.02561863,-0.00857323,-0.01772729,0.00052801,0.00091720,-0.001
 11292,-0.00064702,-0.00565953,0.00431171,-0.12323437,-0.19137050,-0.05
 000784,-0.00234400,-0.00005049,-0.00107261,-0.00016231,-0.00022358,-0.
 00037862,0.00181195,-0.00368173,-0.00175263,0.15851197,0.15949506,0.00
 020580,0.00181064,0.00164955,-0.00034124,0.00117390,-0.00002996,0.0070
 6976,0.00367148,0.01118855,-0.00158586,-0.00261323,0.00266490,0.000143
 42,0.00236666,-0.00054695,-0.15845105,-0.08711511,-0.22884780,0.000562
 68,0.00013645,0.00099031,0.00100438,0.00118663,0.00102840,0.00019242,-
 0.00077734,-0.00222473,0.25107216,0.12709672,0.31343888,-0.00012505,0.
 00104369,0.00115752,-0.00026404,0.00018717,-0.00016309,0.00049275,0.00
 026293,-0.00025011,-0.00002085,-0.00014686,0.00148709,0.01445636,0.017
 05451,0.00894687,0.00278875,0.00035531,-0.00176398,-0.00257591,0.00363
 099,0.00210211,-0.00113129,0.00240323,0.00164055,-0.12342073,-0.055069
 22,-0.06458809,-0.00090647,-0.00015111,0.00061407,0.12219932,0.0016930
 0,0.00095730,0.00057602,-0.00077321,-0.00020332,0.00014176,-0.00499434
 ,-0.00119315,-0.00184518,0.00076744,-0.00024077,0.00039105,0.00167792,
 -0.02257615,-0.03779152,0.00123020,-0.00511344,0.00015825,0.00086038,0
 .00023534,-0.00069689,0.00447067,-0.00556969,-0.00002904,-0.04588790,-
 0.43977817,-0.31193173,0.00041323,0.00235740,0.00060094,0.08291784,0.4
 7002571,0.00112094,0.00054992,0.00171717,-0.00074411,0.00005020,0.0000
 5768,-0.00344054,0.00048055,-0.00292076,0.00137935,-0.00047426,0.00146
 320,-0.00404982,-0.02969566,0.00033741,0.00003544,-0.00110926,-0.00185
 266,0.00402967,-0.00193097,-0.00247889,-0.00085373,0.00078818,0.001097
 60,-0.05669391,-0.31647698,-0.35752608,0.00064541,0.00108940,0.0015880
 7,0.10672176,0.38875436,0.39065349,-0.33684149,0.00017100,-0.17459140,
 0.00731347,-0.00221244,0.00831769,-0.01748897,-0.00828725,-0.00898789,
 0.00035068,-0.00021779,0.00039665,-0.00225526,0.00476975,0.00231639,0.
 00120207,0.00047313,-0.00074958,0.00045281,0.00020269,0.00009411,0.000
 21007,-0.00004475,-0.00002338,-0.00042017,-0.00123788,-0.00164499,-0.0
 0017592,-0.00038931,0.00019804,0.00015771,0.00038965,0.00046947,0.3482
 0323,-0.03494445,-0.02802531,-0.04664496,-0.00436658,-0.00242826,0.001
 94936,0.02922035,-0.00492706,0.01640366,-0.00050651,0.00131714,-0.0002
 2447,0.00095587,-0.00376555,-0.00157266,0.00404573,0.00015791,0.002582
 76,0.00014576,0.00018883,-0.00025968,-0.00008339,-0.00012579,0.0001053
 0,0.00112053,0.00096485,0.00038463,-0.00099104,0.00113949,-0.00137361,
 -0.00031910,-0.00004458,0.00015913,0.00602650,0.03666525,-0.14850720,-
 0.02535627,-0.14016658,-0.03642950,-0.00299401,-0.01806778,0.00849068,
 0.00248037,0.00544010,0.00055794,0.00011134,0.00032462,0.00149902,-0.0
 0203268,-0.00005255,-0.00037567,0.00026322,-0.00057120,-0.00013396,-0.
 00018003,-0.00016963,0.00020254,-0.00010420,0.00026512,0.00021179,0.00
 015776,0.00095862,0.00013414,-0.00041392,-0.00021894,0.00012768,-0.000
 05155,-0.00023663,0.17376442,0.02827423,0.15232808,0.00191754,-0.00412
 239,0.00097165,-0.00026579,0.00042371,-0.00011493,0.01019287,-0.003063
 64,0.01130465,-0.00116878,-0.00309085,0.00252155,0.00064557,0.00043035
 ,0.00021019,-0.12103575,0.00285542,-0.08572588,0.00028013,-0.00007386,
 0.00095966,0.00030806,0.00078335,0.00126328,0.00210416,0.00037121,-0.0
 0022625,0.00088114,0.02730740,-0.13434957,-0.00124523,-0.00062285,0.00
 109496,0.00006266,-0.00120295,-0.00005857,0.11491821,-0.00029716,-0.00
 116881,0.00058155,0.00016122,0.00116636,-0.00010418,0.00237283,-0.0026
 7085,0.03317122,-0.00326811,-0.00673259,0.00181544,0.00131789,0.000224
 83,0.00105180,-0.01636364,-0.16318672,0.10008636,-0.00016961,0.0001943
 6,0.00042168,0.00018001,0.00016749,0.00064646,0.00193958,-0.00392370,-
 0.00133547,-0.00330828,0.08152843,-0.05226088,-0.00018082,0.00275180,0
 .00022110,-0.00027149,-0.00060897,-0.00010718,-0.02414703,0.12009444,0
 .00155778,0.00395065,-0.00019446,-0.00047489,0.00081653,-0.00035943,-0
 .00600545,0.00554482,-0.00840917,0.00053397,0.00122932,0.00124448,-0.0
 0167559,-0.00046345,-0.00087853,-0.05165187,0.14089690,-0.39322722,0.0
 0007102,-0.00012292,0.00066093,0.00121915,0.00088149,0.00087343,-0.000
 62707,-0.00013076,-0.00173950,-0.08735331,0.00368109,-0.11238511,0.000
 98240,0.00033694,0.00110622,0.00045255,-0.00096070,0.00014410,0.149605
 87,-0.14549554,0.55084270,-0.00060407,-0.00204189,-0.00023851,0.000337
 87,-0.00040970,0.00017230,0.00143293,-0.00256281,-0.00633623,0.0008365
 4,0.00160638,-0.00093686,-0.00009242,-0.00051885,0.00037199,0.02770114
 ,-0.05023446,0.08075146,-0.00020345,-0.00001022,-0.00041289,-0.0005775
 5,-0.00064218,-0.00043466,-0.00076758,-0.00050606,0.00002429,-0.048639
 44,-0.03246582,0.03283565,0.00033332,0.00045263,-0.00035928,-0.0000179
 4,0.00063030,-0.00009460,-0.00725009,0.04322044,-0.00799051,0.02750090
 ,0.00077652,0.00155020,-0.00067205,-0.00006023,-0.00039921,-0.00023920
 ,-0.00529888,0.00277203,0.00197119,0.00000241,-0.00032657,0.00042061,0
 .00033008,-0.00048713,0.00040437,-0.04957618,-0.06148773,0.04526609,-0
 .00017557,0.00000048,-0.00035690,-0.00013591,-0.00019360,-0.00024084,-
 0.00037688,0.00012173,0.00022111,0.00657197,-0.03576961,0.00598835,0.0
 0021983,-0.00015636,-0.00015179,0.00012311,-0.00018627,0.00021612,0.00
 415124,-0.02860137,-0.01001186,0.04336936,0.12316145,-0.00118458,0.000
 98965,-0.00103107,0.00015604,-0.00082479,0.00013264,-0.00530390,-0.000
 02663,-0.00511550,0.00114429,0.00191106,-0.00169987,-0.00069314,-0.001
 53327,0.00050114,0.08001090,0.04537053,0.10265910,-0.00044092,-0.00004
 705,-0.00058959,-0.00067697,-0.00084842,-0.00057617,-0.00041707,0.0007
 2845,0.00140314,-0.02706858,-0.06457540,0.01101282,-0.00023894,-0.0005
 9485,-0.00095332,-0.00016479,0.00125458,0.00008525,0.05268077,0.061135
 61,-0.03843181,-0.09741133,-0.04282286,-0.06696117,-0.00317042,0.00085
 579,-0.00116409,0.00006143,-0.00009438,-0.00012079,0.00144494,0.004652
 26,0.00306469,0.00050305,-0.00049281,0.00030534,-0.03601178,0.00628084
 ,-0.01525447,0.00210643,0.00220008,-0.00188443,-0.00243822,0.00024809,
 -0.00086451,-0.00137090,-0.00071122,-0.00107008,-0.22907372,0.00014088
 ,-0.07145925,-0.00103604,-0.00101883,0.00067289,-0.01925059,-0.0399896
 5,-0.05357957,-0.00061637,0.00017138,0.00052515,-0.00068662,-0.0010532
 4,0.00123050,0.00019035,0.00012375,-0.00031946,0.48373428,0.00204615,0
 .00024292,0.00125422,-0.00025832,0.00003034,0.00002227,0.00050267,-0.0
 0355535,-0.00357944,0.00019552,-0.00027013,0.00042357,0.02982291,0.005
 33122,0.00789160,0.00022457,-0.00206059,0.00039528,-0.00066643,0.00189
 376,0.00066161,0.00122684,0.00006272,0.00074059,0.02081697,-0.10355169
 ,-0.02250263,0.00025870,0.00100009,0.00003401,-0.04873234,0.00376664,-
 0.04132365,0.00052806,-0.00033427,-0.00024470,0.00000757,0.00091963,-0
 .00029126,0.00013859,-0.00003463,-0.00008503,-0.18535841,0.37542475,0.
 00037313,0.00052374,0.00063990,-0.00014207,-0.00001635,-0.00003727,0.0
 0057984,-0.00189966,0.00009274,0.00046376,-0.00036262,0.00043100,0.002
 70988,-0.00132266,0.00998414,0.00112345,-0.00043142,-0.00163748,0.0006
 8063,-0.00071487,-0.00007010,-0.00198540,0.00139635,0.00110872,-0.0557
 5553,-0.03163884,-0.11373484,-0.00014209,0.00027245,0.00091422,-0.0604
 3079,-0.03740614,-0.02714771,0.00019814,-0.00013246,-0.00007001,-0.000
 05923,0.00003686,0.00100715,-0.00000377,0.00000757,-0.00055652,0.04803
 679,0.18671425,0.20814664,-0.00051262,-0.00012634,-0.00040089,0.000013
 05,0.00001640,0.00000572,0.00007854,0.00154016,0.00074509,-0.00005988,
 0.00007910,-0.00011966,-0.00402311,-0.00281606,-0.00514997,-0.00040458
 ,0.00030328,-0.00019668,0.00031108,0.00033481,-0.00008354,0.00046276,-
 0.00045567,0.00004968,-0.03877692,0.03880230,0.01225455,0.00021171,-0.
 00006229,0.00015645,0.00851194,-0.00260501,0.00422395,-0.00013656,0.00
 009757,0.00008613,0.00034193,-0.00013259,0.00012546,-0.00018050,-0.000
 04461,-0.00007232,-0.19438584,0.17924694,0.06435327,0.22854901,-0.0000
 7301,-0.00007206,0.00005858,-0.00000780,0.00000784,0.00000869,-0.00014
 679,0.00031808,-0.00048897,0.00005413,-0.00001330,0.00002964,0.0000115
 1,0.00315005,-0.00091169,0.00017448,0.00012615,-0.00011588,-0.00054709
 ,0.00032318,0.00000810,-0.00019290,-0.00025121,-0.00040392,0.00440129,
 0.00690701,0.00415478,-0.00000983,-0.00003545,0.00007439,-0.00347605,-
 0.00521856,-0.00093028,-0.00002298,0.00001258,-0.00001849,-0.00000669,
 -0.00015433,0.00013875,-0.00002572,0.00003659,-0.00003158,0.21404546,-
 0.27886540,-0.11502620,-0.21417800,0.27372882,-0.00011426,-0.00000586,
 -0.00017022,0.00001080,-0.00002570,0.00000336,-0.00063625,0.00025462,0
 .00092869,0.00007074,0.00005378,0.00000151,-0.00351098,-0.00210916,0.0
 0069279,-0.00004083,-0.00008294,0.00032049,0.00025211,-0.00054595,-0.0
 0024138,-0.00027476,0.00027860,0.00040028,-0.01520716,0.01928679,0.012
 70259,-0.00004777,-0.00002529,-0.00022223,0.00365496,-0.00061244,-0.00
 490478,-0.00004544,0.00005488,0.00000742,-0.00007816,0.00013517,-0.000
 25379,0.00006295,0.00000008,0.00012090,0.09188129,-0.13011066,-0.07907
 059,-0.07597725,0.11345409,0.06968494||-0.00000454,-0.00000630,-0.0000
 0039,0.00000182,0.00000446,0.00000106,0.00000212,-0.00000270,-0.000002
 02,-0.00000207,-0.00000440,0.00000001,-0.00000121,0.00000026,-0.000002
 12,-0.00000099,0.00000272,0.00000711,-0.00000253,0.00000064,-0.0000068
 2,0.00000309,0.00000389,-0.00000303,0.00000135,-0.00000804,-0.00000962
 ,-0.00000150,0.00000163,-0.00000776,0.00000129,0.00000974,0.00000710,-
 0.00000482,-0.00000146,0.00000045,0.00001532,0.00000865,0.00001178,-0.
 00000582,-0.00001512,0.00001434,-0.00000068,0.00000173,-0.00000483,-0.
 00000083,0.00000429,-0.00000528|||@


 YOU CAN LEAD A BOY TO COLLEGE....
 BUT YOU CANNOT MAKE HIM THINK....
           ELBERT HUBBARD
 Job cpu time:  0 days  0 hours 38 minutes 18.0 seconds.
 File lengths (MBytes):  RWF=     99 Int=      0 D2E=      0 Chk=      8 Scr=      1
 Normal termination of Gaussian 03 at Fri Apr 01 18:51:53 2016.
