 Entering Link 1 = c:\G09w05\l1.exe PID=      1384.
  
 Copyright (c) 1988,1990,1992,1993,1995,1998,2003,2009,2010,
            Gaussian, Inc.  All Rights Reserved.
  
 This is part of the Gaussian(R) 09 program.  It is based on
 the Gaussian(R) 03 system (copyright 2003, Gaussian, Inc.),
 the Gaussian(R) 98 system (copyright 1998, Gaussian, Inc.),
 the Gaussian(R) 94 system (copyright 1995, Gaussian, Inc.),
 the Gaussian 92(TM) system (copyright 1992, Gaussian, Inc.),
 the Gaussian 90(TM) system (copyright 1990, Gaussian, Inc.),
 the Gaussian 88(TM) system (copyright 1988, Gaussian, Inc.),
 the Gaussian 86(TM) system (copyright 1986, Carnegie Mellon
 University), and the Gaussian 82(TM) system (copyright 1983,
 Carnegie Mellon University). Gaussian is a federally registered
 trademark of Gaussian, Inc.
  
 This software contains proprietary and confidential information,
 including trade secrets, belonging to Gaussian, Inc.
  
 This software is provided under written license and may be
 used, copied, transmitted, or stored only in accord with that
 written license.
  
 The following legend is applicable only to US Government
 contracts under FAR:
  
                    RESTRICTED RIGHTS LEGEND
  
 Use, reproduction and disclosure by the US Government is
 subject to restrictions as set forth in subparagraphs (a)
 and (c) of the Commercial Computer Software - Restricted
 Rights clause in FAR 52.227-19.
  
 Gaussian, Inc.
 340 Quinnipiac St., Bldg. 40, Wallingford CT 06492
  
  
 ---------------------------------------------------------------
 Warning -- This program may not be used in any manner that
 competes with the business of Gaussian, Inc. or will provide
 assistance to any competitor of Gaussian, Inc.  The licensee
 of this program is prohibited from giving any competitor of
 Gaussian, Inc. access to this program.  By using this program,
 the user acknowledges that Gaussian, Inc. is engaged in the
 business of creating and licensing software in the field of
 computational chemistry and represents and warrants to the
 licensee that it is not a competitor of Gaussian, Inc. and that
 it will not use this program in any manner prohibited above.
 ---------------------------------------------------------------
  

 Cite this work as:
 Gaussian 09, Revision B.01,
 M. J. Frisch, G. W. Trucks, H. B. Schlegel, G. E. Scuseria, 
 M. A. Robb, J. R. Cheeseman, G. Scalmani, V. Barone, B. Mennucci, 
 G. A. Petersson, H. Nakatsuji, M. Caricato, X. Li, H. P. Hratchian, 
 A. F. Izmaylov, J. Bloino, G. Zheng, J. L. Sonnenberg, M. Hada, 
 M. Ehara, K. Toyota, R. Fukuda, J. Hasegawa, M. Ishida, T. Nakajima, 
 Y. Honda, O. Kitao, H. Nakai, T. Vreven, J. A. Montgomery, Jr., 
 J. E. Peralta, F. Ogliaro, M. Bearpark, J. J. Heyd, E. Brothers, 
 K. N. Kudin, V. N. Staroverov, T. Keith, R. Kobayashi, J. Normand, 
 K. Raghavachari, A. Rendell, J. C. Burant, S. S. Iyengar, J. Tomasi, 
 M. Cossi, N. Rega, J. M. Millam, M. Klene, J. E. Knox, J. B. Cross, 
 V. Bakken, C. Adamo, J. Jaramillo, R. Gomperts, R. E. Stratmann, 
 O. Yazyev, A. J. Austin, R. Cammi, C. Pomelli, J. W. Ochterski, 
 R. L. Martin, K. Morokuma, V. G. Zakrzewski, G. A. Voth, 
 P. Salvador, J. J. Dannenberg, S. Dapprich, A. D. Daniels, 
 O. Farkas, J. B. Foresman, J. V. Ortiz, J. Cioslowski, 
 and D. J. Fox, Gaussian, Inc., Wallingford CT, 2010.
 
 ******************************************
 Gaussian 09:  IA32W-G09RevB.01 12-Aug-2010
                17-Apr-2016 
 ******************************************
 %chk=Ala-S-opt-freq-cpcm-w-tsa3-6-311++gdp.chk
 ----------------------------------------------------------------------
 #p opt=(calcfc,ts) freq rb3lyp/6-311++g(d,p) scrf=(cpcm,solvent=water)
  nosymm
 ----------------------------------------------------------------------
 1/5=1,10=4,14=-1,18=20,26=3,38=1/1,3;
 2/9=110,12=2,15=1,17=6,18=5,40=1/2;
 3/5=4,6=6,7=1111,11=2,16=1,25=1,30=1,70=2101,71=2,72=1,74=-5,116=1/1,2,3;
 4//1;
 5/5=2,38=5,53=1/2;
 8/6=4,10=90,11=11/1;
 11/6=1,8=1,9=11,15=111,16=1,31=1/1,2,10;
 10/6=1,7=6,13=1,31=1/2;
 6/7=2,8=2,9=2,10=2,28=1/1;
 7/10=1,18=20,25=1,30=1/1,2,3,16;
 1/5=1,10=4,14=-1,18=20/3(2);
 2/9=110,15=1/2;
 99//99;
 2/9=110,15=1/2;
 3/5=4,6=6,7=1111,11=2,16=1,25=1,30=1,70=2105,71=1,72=1,74=-5,116=1/1,2,3;
 4/5=5,16=3/1;
 5/5=2,38=5,53=1/2;
 7/30=1/1,2,3,16;
 1/5=1,14=-1,18=20/3(-5);
 2/9=110,15=1/2;
 6/7=2,8=2,9=2,10=2,19=2,28=1/1;
 99/9=1/99;
 Leave Link    1 at Sun Apr 17 21:55:00 2016, MaxMem=          0 cpu:       0.0
 (Enter c:\G09w05\l101.exe)
 -------------------------------------
 Ala-S-opt-freq-cpcm-w-tsa3-6-311++gdp
 -------------------------------------
 Symbolic Z-matrix:
 Charge =  0 Multiplicity = 1
 N                     1.08076  -1.49507  -0.12111 
 H                     2.05778  -1.71949  -0.20201 
 C                     0.61065  -0.22428  -0.23642 
 H                    -2.30175   1.09827  -0.11988 
 C                     1.56603   0.92653  -0.27633 
 C                    -0.77244  -0.07602  -0.36588 
 H                     1.03151   1.85541  -0.476 
 H                     2.07861   1.02873   0.68982 
 H                     2.33892   0.78843  -1.0454 
 O                    -1.64735  -1.24768  -0.20326 
 H                     0.3958   -2.22645   0.02474 
 O                    -1.32958   1.18811  -0.07809 
 H                    -0.32093  -1.08814  -1.03385 
 
 NAtoms=     13 NQM=     13 NQMF=      0 NMic=      0 NMicF=      0 NTot=     13.
                    Isotopes and Nuclear Properties:
 (Nuclear quadrupole moments (NQMom) in fm**2, nuclear magnetic moments (NMagM)
  in nuclear magnetons)

  Atom         1           2           3           4           5           6           7           8           9          10
 IAtWgt=          14           1          12           1          12          12           1           1           1          16
 AtmWgt=  14.0030740   1.0078250  12.0000000   1.0078250  12.0000000  12.0000000   1.0078250   1.0078250   1.0078250  15.9949146
 NucSpn=           2           1           0           1           0           0           1           1           1           0
 AtZEff=   0.0000000   0.0000000   0.0000000   0.0000000   0.0000000   0.0000000   0.0000000   0.0000000   0.0000000   0.0000000
 NQMom=    2.0440000   0.0000000   0.0000000   0.0000000   0.0000000   0.0000000   0.0000000   0.0000000   0.0000000   0.0000000
 NMagM=    0.4037610   2.7928460   0.0000000   2.7928460   0.0000000   0.0000000   2.7928460   2.7928460   2.7928460   0.0000000

  Atom        11          12          13
 IAtWgt=           1          16           1
 AtmWgt=   1.0078250  15.9949146   1.0078250
 NucSpn=           1           0           1
 AtZEff=   0.0000000   0.0000000   0.0000000
 NQMom=    0.0000000   0.0000000   0.0000000
 NMagM=    2.7928460   0.0000000   2.7928460
 Leave Link  101 at Sun Apr 17 21:55:00 2016, MaxMem=   33554432 cpu:       0.0
 (Enter c:\G09w05\l103.exe)

 GradGradGradGradGradGradGradGradGradGradGradGradGradGradGradGradGradGrad
 Berny optimization.
 Initialization pass.
                           ----------------------------
                           !    Initial Parameters    !
                           ! (Angstroms and Degrees)  !
 --------------------------                            --------------------------
 ! Name  Definition              Value          Derivative Info.                !
 --------------------------------------------------------------------------------
 ! R1    R(1,2)                  1.0057         calculate D2E/DX2 analytically  !
 ! R2    R(1,3)                  1.3599         calculate D2E/DX2 analytically  !
 ! R3    R(1,11)                 1.0126         calculate D2E/DX2 analytically  !
 ! R4    R(3,5)                  1.4962         calculate D2E/DX2 analytically  !
 ! R5    R(3,6)                  1.397          calculate D2E/DX2 analytically  !
 ! R6    R(4,12)                 0.9772         calculate D2E/DX2 analytically  !
 ! R7    R(5,7)                  1.0901         calculate D2E/DX2 analytically  !
 ! R8    R(5,8)                  1.0985         calculate D2E/DX2 analytically  !
 ! R9    R(5,9)                  1.099          calculate D2E/DX2 analytically  !
 ! R10   R(6,10)                 1.4713         calculate D2E/DX2 analytically  !
 ! R11   R(6,12)                 1.4111         calculate D2E/DX2 analytically  !
 ! R12   R(6,13)                 1.294          calculate D2E/DX2 analytically  !
 ! A1    A(2,1,3)              122.517          calculate D2E/DX2 analytically  !
 ! A2    A(2,1,11)             120.5008         calculate D2E/DX2 analytically  !
 ! A3    A(3,1,11)             116.9575         calculate D2E/DX2 analytically  !
 ! A4    A(1,3,5)              120.0185         calculate D2E/DX2 analytically  !
 ! A5    A(1,3,6)              116.6983         calculate D2E/DX2 analytically  !
 ! A6    A(5,3,6)              123.234          calculate D2E/DX2 analytically  !
 ! A7    A(3,5,7)              110.3142         calculate D2E/DX2 analytically  !
 ! A8    A(3,5,8)              110.2462         calculate D2E/DX2 analytically  !
 ! A9    A(3,5,9)              111.7813         calculate D2E/DX2 analytically  !
 ! A10   A(7,5,8)              108.0964         calculate D2E/DX2 analytically  !
 ! A11   A(7,5,9)              108.8876         calculate D2E/DX2 analytically  !
 ! A12   A(8,5,9)              107.3978         calculate D2E/DX2 analytically  !
 ! A13   A(3,6,10)             119.6019         calculate D2E/DX2 analytically  !
 ! A14   A(3,6,12)             117.8436         calculate D2E/DX2 analytically  !
 ! A15   A(3,6,13)              67.6284         calculate D2E/DX2 analytically  !
 ! A16   A(10,6,12)            117.1335         calculate D2E/DX2 analytically  !
 ! A17   A(10,6,13)             69.0026         calculate D2E/DX2 analytically  !
 ! A18   A(12,6,13)            160.6877         calculate D2E/DX2 analytically  !
 ! A19   A(4,12,6)             107.5604         calculate D2E/DX2 analytically  !
 ! D1    D(2,1,3,5)             -9.6716         calculate D2E/DX2 analytically  !
 ! D2    D(2,1,3,6)            167.859          calculate D2E/DX2 analytically  !
 ! D3    D(11,1,3,5)           172.1261         calculate D2E/DX2 analytically  !
 ! D4    D(11,1,3,6)           -10.3433         calculate D2E/DX2 analytically  !
 ! D5    D(1,3,5,7)            174.0445         calculate D2E/DX2 analytically  !
 ! D6    D(1,3,5,8)            -66.643          calculate D2E/DX2 analytically  !
 ! D7    D(1,3,5,9)             52.736          calculate D2E/DX2 analytically  !
 ! D8    D(6,3,5,7)             -3.3179         calculate D2E/DX2 analytically  !
 ! D9    D(6,3,5,8)            115.9947         calculate D2E/DX2 analytically  !
 ! D10   D(6,3,5,9)           -124.6264         calculate D2E/DX2 analytically  !
 ! D11   D(1,3,6,10)             7.6208         calculate D2E/DX2 analytically  !
 ! D12   D(1,3,6,12)           160.9112         calculate D2E/DX2 analytically  !
 ! D13   D(1,3,6,13)           -39.5751         calculate D2E/DX2 analytically  !
 ! D14   D(5,3,6,10)          -174.9355         calculate D2E/DX2 analytically  !
 ! D15   D(5,3,6,12)           -21.6452         calculate D2E/DX2 analytically  !
 ! D16   D(5,3,6,13)           137.8685         calculate D2E/DX2 analytically  !
 ! D17   D(3,6,12,4)          -173.8774         calculate D2E/DX2 analytically  !
 ! D18   D(10,6,12,4)          -19.926          calculate D2E/DX2 analytically  !
 ! D19   D(13,6,12,4)           84.2494         calculate D2E/DX2 analytically  !
 --------------------------------------------------------------------------------
 Trust Radius=3.00D-01 FncErr=1.00D-07 GrdErr=1.00D-06
 Number of steps in this run=     60 maximum allowed number of steps=    100.
 Search for a saddle point of order  1.
 GradGradGradGradGradGradGradGradGradGradGradGradGradGradGradGradGradGrad

 Leave Link  103 at Sun Apr 17 21:55:00 2016, MaxMem=   33554432 cpu:       0.0
 (Enter c:\G09w05\l202.exe)
                          Input orientation:                          
 ---------------------------------------------------------------------
 Center     Atomic      Atomic             Coordinates (Angstroms)
 Number     Number       Type             X           Y           Z
 ---------------------------------------------------------------------
      1          7           0        1.080762   -1.495072   -0.121112
      2          1           0        2.057782   -1.719492   -0.202011
      3          6           0        0.610646   -0.224278   -0.236415
      4          1           0       -2.301755    1.098266   -0.119878
      5          6           0        1.566028    0.926528   -0.276331
      6          6           0       -0.772437   -0.076018   -0.365876
      7          1           0        1.031508    1.855414   -0.476002
      8          1           0        2.078607    1.028733    0.689819
      9          1           0        2.338923    0.788432   -1.045395
     10          8           0       -1.647355   -1.247678   -0.203255
     11          1           0        0.395797   -2.226450    0.024737
     12          8           0       -1.329581    1.188106   -0.078090
     13          1           0       -0.320932   -1.088138   -1.033854
 ---------------------------------------------------------------------
                    Distance matrix (angstroms):
                    1          2          3          4          5
     1  N    0.000000
     2  H    1.005722   0.000000
     3  C    1.359861   2.081118   0.000000
     4  H    4.262256   5.191538   3.200747   0.000000
     5  C    2.474616   2.692353   1.496229   3.874754   0.000000
     6  C    2.346907   3.276888   1.397018   1.943778   2.545886
     7  H    3.369589   3.729378   2.135333   3.436676   1.090142
     8  H    2.832472   2.889383   2.140760   4.455111   1.098467
     9  H    2.766163   2.660831   2.160317   4.742201   1.099044
    10  O    2.740543   3.735057   2.479318   2.436933   3.880508
    11  H    1.012602   1.752317   2.030530   4.283858   3.376589
    12  O    3.607083   4.465838   2.405073   0.977210   2.914151
    13  H    1.721464   2.597855   1.500000   3.088588   2.862400
                    6          7          8          9         10
     6  C    0.000000
     7  H    2.645142   0.000000
     8  H    3.234721   1.771710   0.000000
     9  H    3.299937   1.781009   1.771010   0.000000
    10  O    1.471297   4.108513   4.456728   4.554707   0.000000
    11  H    2.478247   4.161308   3.724299   3.743052   2.276938
    12  O    1.411113   2.485634   3.497260   3.814884   2.459612
    13  H    1.294001   3.287064   3.634553   3.255223   1.573133
                   11         12         13
    11  H    0.000000
    12  O    3.827100   0.000000
    13  H    1.711745   2.666860   0.000000
 Symmetry turned off by external request.
 Stoichiometry    C3H7NO2
 Framework group  C1[X(C3H7NO2)]
 Deg. of freedom    33
 Full point group                 C1      NOp   1
 Rotational constants (GHZ):      4.7708748      3.3288607      2.0083862
 Leave Link  202 at Sun Apr 17 21:55:00 2016, MaxMem=   33554432 cpu:       0.0
 (Enter c:\G09w05\l301.exe)
 Standard basis: 6-311++G(d,p) (5D, 7F)
 Ernie: Thresh=  0.10000D-02 Tol=  0.10000D-05 Strict=F.
 Integral buffers will be    262144 words long.
 Raffenetti 2 integral format.
 Two-electron integral symmetry is turned off.
   181 basis functions,   279 primitive gaussians,   187 cartesian basis functions
    24 alpha electrons       24 beta electrons
       nuclear repulsion energy       245.9670586412 Hartrees.
 IExCor=  402 DFT=T Ex+Corr=B3LYP ExCW=0 ScaHFX=  0.200000
 ScaDFX=  0.800000  0.720000  1.000000  0.810000 ScalE2=  1.000000  1.000000
 IRadAn=      0 IRanWt=     -1 IRanGd=            0 ICorTp=0
 NAtoms=   13 NActive=   13 NUniq=   13 SFac= 1.00D+00 NAtFMM=   50 NAOKFM=F Big=F
 ------------------------------------------------------------------------------
 Polarizable Continuum Model (PCM)
 =================================
 Model                : C-PCM.
 Atomic radii         : UFF (Universal Force Field).
 Polarization charges : Total charges.
 Charge compensation  : None.
 Solution method      : Matrix inversion.
 Cavity type          : Scaled VdW (van der Waals Surface) (Alpha=1.100).
 Cavity algorithm     : GePol (No added spheres)
                        Default sphere list used, NSphG=   13.
                        Lebedev-Laikov grids with approx.  5.0 points / Ang**2.
                        Smoothing algorithm: Karplus/York (Gamma=1.0000).
                        Polarization charges: spherical gaussians, with
                                              point-specific exponents (IZeta= 3).
                        Self-potential: point-specific (ISelfS= 7).
                        Self-field    : sphere-specific E.n sum rule (ISelfD= 2).
 1st derivatives      : Analytical E(r).r(x)/FMM algorithm (CHGder, D1EAlg=3).
                        Cavity 1st derivative terms included.
 2nd derivatives      : Analytical E(r).r(xy)/FMM algorithm (CHGder, D2EAlg=3).
                        Cavity 2nd derivative terms included.
 Solvent              : Water, Eps=  78.355300 Eps(inf)=   1.777849
 ------------------------------------------------------------------------------
 Spheres list:
 ISph  on   Nord    Re0     Alpha      Xe            Ye            Ze
    1   N      1    1.830   1.100      1.080762     -1.495072     -0.121112
    2   H      2    1.443   1.100      2.057782     -1.719492     -0.202011
    3   C      3    1.926   1.100      0.610646     -0.224278     -0.236415
    4   H      4    1.443   1.100     -2.301755      1.098266     -0.119878
    5   C      5    1.926   1.100      1.566028      0.926528     -0.276331
    6   C      6    1.926   1.100     -0.772437     -0.076018     -0.365876
    7   H      7    1.443   1.100      1.031508      1.855414     -0.476002
    8   H      8    1.443   1.100      2.078607      1.028733      0.689819
    9   H      9    1.443   1.100      2.338923      0.788432     -1.045395
   10   O     10    1.750   1.100     -1.647355     -1.247678     -0.203255
   11   H     11    1.443   1.100      0.395797     -2.226450      0.024737
   12   O     12    1.750   1.100     -1.329581      1.188106     -0.078090
   13   H     13    1.443   1.100     -0.320932     -1.088138     -1.033854
 ------------------------------------------------------------------------------
 GePol: Number of generator spheres                  =      13
 GePol: Total number of spheres                      =      13
 GePol: Number of exposed spheres                    =      13 (100.00%)
 GePol: Number of points                             =    1110
 GePol: Average weight of points                     =       0.13
 GePol: Minimum weight of points                     =   0.11D-07
 GePol: Maximum weight of points                     =    0.20577
 GePol: Number of points with low weight             =      68
 GePol: Fraction of low-weight points (<1% of avg)   =       6.13%
 GePol: Cavity surface area                          =    148.771 Ang**2
 GePol: Cavity volume                                =    137.204 Ang**3
 Leave Link  301 at Sun Apr 17 21:55:01 2016, MaxMem=   33554432 cpu:       1.0
 (Enter c:\G09w05\l302.exe)
 NPDir=0 NMtPBC=     1 NCelOv=     1 NCel=       1 NClECP=     1 NCelD=      1
         NCelK=      1 NCelE2=     1 NClLst=     1 CellRange=     0.0.
 One-electron integrals computed using PRISM.
 NBasis=   181 RedAO= T  NBF=   181
 NBsUse=   181 1.00D-06 NBFU=   181
 Precomputing XC quadrature grid using
 IXCGrd= 2 IRadAn=           0 IRanWt=          -1 IRanGd=           0 AccXCQ= 0.00D+00.
 NRdTot=     842 NPtTot=      107204 NUsed=      111136 NTot=      111152
 NSgBfM=   187   187   187   187   187 NAtAll=    13    13.
 Leave Link  302 at Sun Apr 17 21:55:01 2016, MaxMem=   33554432 cpu:       0.0
 (Enter c:\G09w05\l303.exe)
 DipDrv:  MaxL=1.
 Leave Link  303 at Sun Apr 17 21:55:01 2016, MaxMem=   33554432 cpu:       0.0
 (Enter c:\G09w05\l401.exe)
 Harris functional with IExCor=  402 diagonalized for initial guess.
 ExpMin= 3.60D-02 ExpMax= 8.59D+03 ExpMxC= 1.30D+03 IAcc=3 IRadAn=         0 AccDes= 0.00D+00
 HarFok:  IExCor=  402 AccDes= 0.00D+00 IRadAn=         0 IDoV= 1
 ScaDFX=  1.000000  1.000000  1.000000  1.000000
 FoFCou: FMM=F IPFlag=           0 FMFlag=      100000 FMFlg1=           0
         NFxFlg=           0 DoJE=T BraDBF=F KetDBF=T FulRan=T
         Omega=  0.000000  0.000000  1.000000  0.000000  0.000000 ICntrl=     500 IOpCl=  0
         NMat0=    1 NMatS0=    1 NMatT0=    0 NMatD0=    1 NMtDS0=    0 NMtDT0=    0
         I1Cent=           4 NGrid=           0.
 Symmetry not used in FoFCou.
 Harris En= -323.698196760084    
 Leave Link  401 at Sun Apr 17 21:55:05 2016, MaxMem=   33554432 cpu:       4.0
 (Enter c:\G09w05\l502.exe)
 Closed shell SCF:
 Requested convergence on RMS density matrix=1.00D-08 within 128 cycles.
 Requested convergence on MAX density matrix=1.00D-06.
 Requested convergence on             energy=1.00D-06.
 No special actions if energy rises.
 Using DIIS extrapolation, IDIIS=  1040.
 Two-electron integral symmetry not used.
       111019 words used for storage of precomputed grid.
 IEnd=      236225 IEndB=      236225 NGot=    33554432 MDV=    33370004
 LenX=    33370004 LenY=    33334594
 Fock matrices will be formed incrementally for  20 cycles.

 Cycle   1  Pass 1  IDiag  1:
 FoFCou: FMM=F IPFlag=           0 FMFlag=      100000 FMFlg1=           0
         NFxFlg=           0 DoJE=F BraDBF=F KetDBF=F FulRan=T
         Omega=  0.000000  0.000000  1.000000  0.000000  0.000000 ICntrl=       0 IOpCl=  0
         NMat0=    1 NMatS0=    1 NMatT0=    0 NMatD0=    1 NMtDS0=    0 NMtDT0=    0
         I1Cent=           0 NGrid=           0.
 Symmetry not used in FoFCou.
 E= -323.488642386650    
 DIIS: error= 2.26D-02 at cycle   1 NSaved=   1.
 NSaved= 1 IEnMin= 1 EnMin= -323.488642386650     IErMin= 1 ErrMin= 2.26D-02
 ErrMax= 2.26D-02 EMaxC= 1.00D-01 BMatC= 2.60D-01 BMatP= 2.60D-01
 IDIUse=3 WtCom= 7.74D-01 WtEn= 2.26D-01
 Coeff-Com:  0.100D+01
 Coeff-En:   0.100D+01
 Coeff:      0.100D+01
 Gap=     0.138 Goal=   None    Shift=    0.000
 GapD=    0.138 DampG=1.000 DampE=0.500 DampFc=0.5000 IDamp=-1.
 Damping current iteration by 5.00D-01
 RMSDP=2.34D-02 MaxDP=2.17D+00              OVMax= 2.74D-01

 Cycle   2  Pass 1  IDiag  1:
 RMSU=  7.67D-03    CP:  1.24D+00
 E= -323.516286901961     Delta-E=       -0.027644515311 Rises=F Damp=T
 DIIS: error= 1.21D-02 at cycle   2 NSaved=   2.
 NSaved= 2 IEnMin= 2 EnMin= -323.516286901961     IErMin= 2 ErrMin= 1.21D-02
 ErrMax= 1.21D-02 EMaxC= 1.00D-01 BMatC= 5.18D-02 BMatP= 2.60D-01
 IDIUse=3 WtCom= 8.79D-01 WtEn= 1.21D-01
 Coeff-Com:  0.262D+00 0.738D+00
 Coeff-En:   0.435D+00 0.565D+00
 Coeff:      0.283D+00 0.717D+00
 Gap=     0.183 Goal=   None    Shift=    0.000
 RMSDP=9.30D-03 MaxDP=8.53D-01 DE=-2.76D-02 OVMax= 2.36D-01

 Cycle   3  Pass 1  IDiag  1:
 RMSU=  2.53D-03    CP:  1.01D+00  3.05D-01
 E= -323.634678185787     Delta-E=       -0.118391283825 Rises=F Damp=F
 DIIS: error= 1.35D-02 at cycle   3 NSaved=   3.
 NSaved= 3 IEnMin= 3 EnMin= -323.634678185787     IErMin= 2 ErrMin= 1.21D-02
 ErrMax= 1.35D-02 EMaxC= 1.00D-01 BMatC= 5.77D-02 BMatP= 5.18D-02
 IDIUse=2 WtCom= 0.00D+00 WtEn= 1.00D+00
 Coeff-En:   0.000D+00 0.000D+00 0.100D+01
 Coeff:      0.000D+00 0.000D+00 0.100D+01
 Gap=     0.167 Goal=   None    Shift=    0.000
 RMSDP=7.58D-03 MaxDP=2.94D-01 DE=-1.18D-01 OVMax= 3.62D-01

 Cycle   4  Pass 1  IDiag  1:
 RMSU=  3.98D-03    CP:  1.08D+00  6.60D-01  1.40D-01
 E= -323.217723880603     Delta-E=        0.416954305183 Rises=F Damp=F
 DIIS: error= 5.11D-02 at cycle   4 NSaved=   4.
 NSaved= 4 IEnMin= 3 EnMin= -323.634678185787     IErMin= 2 ErrMin= 1.21D-02
 ErrMax= 5.11D-02 EMaxC= 1.00D-01 BMatC= 5.46D-01 BMatP= 5.18D-02
 IDIUse=2 WtCom= 0.00D+00 WtEn= 1.00D+00
 Coeff-En:   0.000D+00 0.000D+00 0.850D+00 0.150D+00
 Coeff:      0.000D+00 0.000D+00 0.850D+00 0.150D+00
 Gap=     0.155 Goal=   None    Shift=    0.000
 RMSDP=4.75D-03 MaxDP=2.39D-01 DE= 4.17D-01 OVMax= 2.12D-01

 Cycle   5  Pass 1  IDiag  1:
 RMSU=  7.43D-04    CP:  1.02D+00  4.00D-01  6.79D-01  4.78D-01
 E= -323.638736653603     Delta-E=       -0.421012773000 Rises=F Damp=F
 DIIS: error= 1.36D-02 at cycle   5 NSaved=   5.
 NSaved= 5 IEnMin= 5 EnMin= -323.638736653603     IErMin= 2 ErrMin= 1.21D-02
 ErrMax= 1.36D-02 EMaxC= 1.00D-01 BMatC= 5.40D-02 BMatP= 5.18D-02
 IDIUse=3 WtCom= 8.64D-01 WtEn= 1.36D-01
 Coeff-Com:  0.463D-02 0.278D-01 0.397D+00-0.872D-01 0.658D+00
 Coeff-En:   0.000D+00 0.000D+00 0.484D+00 0.000D+00 0.516D+00
 Coeff:      0.400D-02 0.240D-01 0.409D+00-0.754D-01 0.638D+00
 Gap=     0.166 Goal=   None    Shift=    0.000
 RMSDP=1.74D-03 MaxDP=7.45D-02 DE=-4.21D-01 OVMax= 7.24D-02

 Cycle   6  Pass 1  IDiag  1:
 RMSU=  1.52D-04    CP:  1.00D+00  3.16D-01  8.76D-01  2.67D-01  6.86D-01
 E= -323.682659745340     Delta-E=       -0.043923091736 Rises=F Damp=F
 DIIS: error= 5.41D-04 at cycle   6 NSaved=   6.
 NSaved= 6 IEnMin= 6 EnMin= -323.682659745340     IErMin= 6 ErrMin= 5.41D-04
 ErrMax= 5.41D-04 EMaxC= 1.00D-01 BMatC= 9.48D-05 BMatP= 5.18D-02
 IDIUse=3 WtCom= 9.95D-01 WtEn= 5.41D-03
 Coeff-Com:  0.604D-03 0.603D-02 0.161D+00-0.415D-01 0.273D+00 0.601D+00
 Coeff-En:   0.000D+00 0.000D+00 0.000D+00 0.000D+00 0.000D+00 0.100D+01
 Coeff:      0.601D-03 0.600D-02 0.160D+00-0.413D-01 0.271D+00 0.604D+00
 Gap=     0.162 Goal=   None    Shift=    0.000
 RMSDP=8.26D-05 MaxDP=2.49D-03 DE=-4.39D-02 OVMax= 5.10D-03

 Cycle   7  Pass 1  IDiag  1:
 RMSU=  4.50D-05    CP:  1.00D+00  3.18D-01  8.77D-01  2.64D-01  7.18D-01
                    CP:  8.81D-01
 E= -323.682718943332     Delta-E=       -0.000059197992 Rises=F Damp=F
 DIIS: error= 3.66D-04 at cycle   7 NSaved=   7.
 NSaved= 7 IEnMin= 7 EnMin= -323.682718943332     IErMin= 7 ErrMin= 3.66D-04
 ErrMax= 3.66D-04 EMaxC= 1.00D-01 BMatC= 3.61D-05 BMatP= 9.48D-05
 IDIUse=3 WtCom= 9.96D-01 WtEn= 3.66D-03
 Coeff-Com:  0.959D-03-0.239D-02 0.364D-01-0.932D-02 0.494D-01 0.379D+00
 Coeff-Com:  0.546D+00
 Coeff-En:   0.000D+00 0.000D+00 0.000D+00 0.000D+00 0.000D+00 0.128D+00
 Coeff-En:   0.872D+00
 Coeff:      0.956D-03-0.238D-02 0.363D-01-0.929D-02 0.492D-01 0.378D+00
 Coeff:      0.547D+00
 Gap=     0.162 Goal=   None    Shift=    0.000
 RMSDP=4.35D-05 MaxDP=1.13D-03 DE=-5.92D-05 OVMax= 1.36D-03

 Cycle   8  Pass 1  IDiag  1:
 RMSU=  1.61D-05    CP:  1.00D+00  3.17D-01  8.82D-01  2.61D-01  7.08D-01
                    CP:  9.02D-01  6.28D-01
 E= -323.682746247457     Delta-E=       -0.000027304126 Rises=F Damp=F
 DIIS: error= 5.66D-05 at cycle   8 NSaved=   8.
 NSaved= 8 IEnMin= 8 EnMin= -323.682746247457     IErMin= 8 ErrMin= 5.66D-05
 ErrMax= 5.66D-05 EMaxC= 1.00D-01 BMatC= 1.37D-06 BMatP= 3.61D-05
 IDIUse=1 WtCom= 1.00D+00 WtEn= 0.00D+00
 Coeff-Com:  0.674D-03-0.281D-02 0.471D-02-0.255D-03-0.141D-02 0.138D+00
 Coeff-Com:  0.257D+00 0.604D+00
 Coeff:      0.674D-03-0.281D-02 0.471D-02-0.255D-03-0.141D-02 0.138D+00
 Coeff:      0.257D+00 0.604D+00
 Gap=     0.163 Goal=   None    Shift=    0.000
 RMSDP=1.79D-05 MaxDP=1.45D-03 DE=-2.73D-05 OVMax= 3.79D-04

 Cycle   9  Pass 1  IDiag  1:
 RMSU=  4.26D-06    CP:  1.00D+00  3.16D-01  8.82D-01  2.61D-01  7.08D-01
                    CP:  9.22D-01  6.72D-01  9.62D-01
 E= -323.682747326060     Delta-E=       -0.000001078603 Rises=F Damp=F
 DIIS: error= 1.37D-05 at cycle   9 NSaved=   9.
 NSaved= 9 IEnMin= 9 EnMin= -323.682747326060     IErMin= 9 ErrMin= 1.37D-05
 ErrMax= 1.37D-05 EMaxC= 1.00D-01 BMatC= 3.96D-08 BMatP= 1.37D-06
 IDIUse=1 WtCom= 1.00D+00 WtEn= 0.00D+00
 Coeff-Com:  0.185D-03-0.613D-03-0.101D-02 0.365D-03-0.319D-02 0.229D-01
 Coeff-Com:  0.446D-01 0.199D+00 0.738D+00
 Coeff:      0.185D-03-0.613D-03-0.101D-02 0.365D-03-0.319D-02 0.229D-01
 Coeff:      0.446D-01 0.199D+00 0.738D+00
 Gap=     0.163 Goal=   None    Shift=    0.000
 RMSDP=2.68D-06 MaxDP=1.19D-04 DE=-1.08D-06 OVMax= 1.02D-04

 Cycle  10  Pass 1  IDiag  1:
 RMSU=  1.32D-06    CP:  1.00D+00  3.16D-01  8.83D-01  2.61D-01  7.08D-01
                    CP:  9.27D-01  6.73D-01  9.97D-01  9.51D-01
 E= -323.682747358927     Delta-E=       -0.000000032867 Rises=F Damp=F
 DIIS: error= 5.62D-06 at cycle  10 NSaved=  10.
 NSaved=10 IEnMin=10 EnMin= -323.682747358927     IErMin=10 ErrMin= 5.62D-06
 ErrMax= 5.62D-06 EMaxC= 1.00D-01 BMatC= 1.03D-08 BMatP= 3.96D-08
 IDIUse=1 WtCom= 1.00D+00 WtEn= 0.00D+00
 Coeff-Com:  0.906D-05 0.219D-04-0.109D-02 0.202D-03-0.147D-02-0.236D-03
 Coeff-Com: -0.108D-02 0.352D-01 0.306D+00 0.663D+00
 Coeff:      0.906D-05 0.219D-04-0.109D-02 0.202D-03-0.147D-02-0.236D-03
 Coeff:     -0.108D-02 0.352D-01 0.306D+00 0.663D+00
 Gap=     0.163 Goal=   None    Shift=    0.000
 RMSDP=1.16D-06 MaxDP=3.84D-05 DE=-3.29D-08 OVMax= 2.06D-05

 Cycle  11  Pass 1  IDiag  1:
 RMSU=  3.99D-07    CP:  1.00D+00  3.16D-01  8.83D-01  2.61D-01  7.08D-01
                    CP:  9.26D-01  6.74D-01  1.02D+00  1.01D+00  9.32D-01
 E= -323.682747366885     Delta-E=       -0.000000007958 Rises=F Damp=F
 DIIS: error= 2.47D-06 at cycle  11 NSaved=  11.
 NSaved=11 IEnMin=11 EnMin= -323.682747366885     IErMin=11 ErrMin= 2.47D-06
 ErrMax= 2.47D-06 EMaxC= 1.00D-01 BMatC= 1.95D-09 BMatP= 1.03D-08
 IDIUse=1 WtCom= 1.00D+00 WtEn= 0.00D+00
 Coeff-Com: -0.367D-04 0.672D-04-0.265D-03 0.303D-04-0.202D-04-0.210D-02
 Coeff-Com: -0.613D-02-0.137D-01 0.337D-01 0.258D+00 0.730D+00
 Coeff:     -0.367D-04 0.672D-04-0.265D-03 0.303D-04-0.202D-04-0.210D-02
 Coeff:     -0.613D-02-0.137D-01 0.337D-01 0.258D+00 0.730D+00
 Gap=     0.163 Goal=   None    Shift=    0.000
 RMSDP=5.89D-07 MaxDP=4.01D-05 DE=-7.96D-09 OVMax= 1.31D-05

 Cycle  12  Pass 1  IDiag  1:
 RMSU=  1.39D-07    CP:  1.00D+00  3.16D-01  8.83D-01  2.61D-01  7.08D-01
                    CP:  9.26D-01  6.74D-01  1.03D+00  1.02D+00  1.03D+00
                    CP:  1.07D+00
 E= -323.682747368469     Delta-E=       -0.000000001584 Rises=F Damp=F
 DIIS: error= 5.40D-07 at cycle  12 NSaved=  12.
 NSaved=12 IEnMin=12 EnMin= -323.682747368469     IErMin=12 ErrMin= 5.40D-07
 ErrMax= 5.40D-07 EMaxC= 1.00D-01 BMatC= 6.65D-11 BMatP= 1.95D-09
 IDIUse=1 WtCom= 1.00D+00 WtEn= 0.00D+00
 Coeff-Com: -0.160D-04 0.265D-04-0.175D-04-0.291D-05 0.911D-04-0.721D-03
 Coeff-Com: -0.208D-02-0.802D-02-0.195D-01 0.535D-02 0.252D+00 0.773D+00
 Coeff:     -0.160D-04 0.265D-04-0.175D-04-0.291D-05 0.911D-04-0.721D-03
 Coeff:     -0.208D-02-0.802D-02-0.195D-01 0.535D-02 0.252D+00 0.773D+00
 Gap=     0.163 Goal=   None    Shift=    0.000
 RMSDP=1.32D-07 MaxDP=5.93D-06 DE=-1.58D-09 OVMax= 4.92D-06

 Cycle  13  Pass 1  IDiag  1:
 RMSU=  3.56D-08    CP:  1.00D+00  3.16D-01  8.83D-01  2.61D-01  7.08D-01
                    CP:  9.26D-01  6.74D-01  1.03D+00  1.03D+00  1.06D+00
                    CP:  1.15D+00  1.01D+00
 E= -323.682747368535     Delta-E=       -0.000000000066 Rises=F Damp=F
 DIIS: error= 9.26D-08 at cycle  13 NSaved=  13.
 NSaved=13 IEnMin=13 EnMin= -323.682747368535     IErMin=13 ErrMin= 9.26D-08
 ErrMax= 9.26D-08 EMaxC= 1.00D-01 BMatC= 2.80D-12 BMatP= 6.65D-11
 IDIUse=1 WtCom= 1.00D+00 WtEn= 0.00D+00
 Coeff-Com: -0.310D-05 0.583D-05-0.301D-05-0.475D-06 0.156D-04-0.118D-03
 Coeff-Com: -0.352D-03-0.143D-02-0.499D-02-0.874D-02 0.534D-01 0.299D+00
 Coeff-Com:  0.663D+00
 Coeff:     -0.310D-05 0.583D-05-0.301D-05-0.475D-06 0.156D-04-0.118D-03
 Coeff:     -0.352D-03-0.143D-02-0.499D-02-0.874D-02 0.534D-01 0.299D+00
 Coeff:      0.663D+00
 Gap=     0.163 Goal=   None    Shift=    0.000
 RMSDP=1.81D-08 MaxDP=4.01D-07 DE=-6.57D-11 OVMax= 1.07D-06

 Cycle  14  Pass 1  IDiag  1:
 RMSU=  8.94D-09    CP:  1.00D+00  3.16D-01  8.83D-01  2.61D-01  7.08D-01
                    CP:  9.26D-01  6.74D-01  1.03D+00  1.03D+00  1.06D+00
                    CP:  1.17D+00  1.04D+00  1.02D+00
 E= -323.682747368541     Delta-E=       -0.000000000006 Rises=F Damp=F
 DIIS: error= 5.48D-08 at cycle  14 NSaved=  14.
 NSaved=14 IEnMin=14 EnMin= -323.682747368541     IErMin=14 ErrMin= 5.48D-08
 ErrMax= 5.48D-08 EMaxC= 1.00D-01 BMatC= 6.84D-13 BMatP= 2.80D-12
 IDIUse=1 WtCom= 1.00D+00 WtEn= 0.00D+00
 Coeff-Com:  0.433D-06-0.572D-06 0.639D-05-0.805D-06 0.485D-05 0.177D-04
 Coeff-Com:  0.613D-04 0.688D-04-0.164D-02-0.929D-02-0.865D-02 0.636D-01
 Coeff-Com:  0.345D+00 0.610D+00
 Coeff:      0.433D-06-0.572D-06 0.639D-05-0.805D-06 0.485D-05 0.177D-04
 Coeff:      0.613D-04 0.688D-04-0.164D-02-0.929D-02-0.865D-02 0.636D-01
 Coeff:      0.345D+00 0.610D+00
 Gap=     0.163 Goal=   None    Shift=    0.000
 RMSDP=1.25D-08 MaxDP=4.19D-07 DE=-6.14D-12 OVMax= 4.22D-07

 Cycle  15  Pass 1  IDiag  1:
 RMSU=  3.58D-09    CP:  1.00D+00  3.16D-01  8.83D-01  2.61D-01  7.08D-01
                    CP:  9.26D-01  6.74D-01  1.03D+00  1.03D+00  1.06D+00
                    CP:  1.17D+00  1.07D+00  1.08D+00  9.50D-01
 E= -323.682747368534     Delta-E=        0.000000000006 Rises=F Damp=F
 DIIS: error= 7.18D-09 at cycle  15 NSaved=  15.
 NSaved=15 IEnMin=14 EnMin= -323.682747368541     IErMin=15 ErrMin= 7.18D-09
 ErrMax= 7.18D-09 EMaxC= 1.00D-01 BMatC= 2.06D-14 BMatP= 6.84D-13
 IDIUse=1 WtCom= 1.00D+00 WtEn= 0.00D+00
 Coeff-Com:  0.382D-06-0.561D-06 0.118D-05-0.683D-07-0.408D-06 0.780D-05
 Coeff-Com:  0.311D-04 0.127D-03 0.148D-03-0.137D-02-0.465D-02-0.480D-02
 Coeff-Com:  0.166D-01 0.129D+00 0.865D+00
 Coeff:      0.382D-06-0.561D-06 0.118D-05-0.683D-07-0.408D-06 0.780D-05
 Coeff:      0.311D-04 0.127D-03 0.148D-03-0.137D-02-0.465D-02-0.480D-02
 Coeff:      0.166D-01 0.129D+00 0.865D+00
 Gap=     0.163 Goal=   None    Shift=    0.000
 RMSDP=3.72D-09 MaxDP=2.19D-07 DE= 6.48D-12 OVMax= 1.52D-07

 Error on total polarization charges =  0.01320
 SCF Done:  E(RB3LYP) =  -323.682747369     A.U. after   15 cycles
             Convg  =    0.3718D-08             -V/T =  2.0045
 KE= 3.222269575478D+02 PE=-1.250216255478D+03 EE= 3.583394919207D+02
 Leave Link  502 at Sun Apr 17 21:58:17 2016, MaxMem=   33554432 cpu:     192.0
 (Enter c:\G09w05\l801.exe)
 Range of M.O.s used for correlation:     1   181
 NBasis=   181 NAE=    24 NBE=    24 NFC=     0 NFV=     0
 NROrb=    181 NOA=    24 NOB=    24 NVA=   157 NVB=   157

 **** Warning!!: The largest alpha MO coefficient is  0.83694216D+02

 Leave Link  801 at Sun Apr 17 21:58:17 2016, MaxMem=   33554432 cpu:       0.0
 (Enter c:\G09w05\l1101.exe)
 Using compressed storage, NAtomX=    13.
 Will process  14 centers per pass.
 Leave Link 1101 at Sun Apr 17 21:58:18 2016, MaxMem=   33554432 cpu:       1.0
 (Enter c:\G09w05\l1102.exe)
 Symmetrizing basis deriv contribution to polar:
 IMax=3 JMax=2 DiffMx= 0.00D+00
 Leave Link 1102 at Sun Apr 17 21:58:18 2016, MaxMem=   33554432 cpu:       0.0
 (Enter c:\G09w05\l1110.exe)
 Forming Gx(P) for the SCF density, NAtomX=    13.
 Integral derivatives from FoFDir/FoFCou, PRISM(SPDF).
 Do as many integral derivatives as possible in FoFDir.
 G2DrvN: MDV=      33554300.
 G2DrvN: will do    14 centers at a time, making    1 passes doing MaxLOS=2.
 Calling FoFCou, ICntrl=  3107 FMM=F I1Cent=   0 AccDes= 0.00D+00.
 FoFCou: FMM=F IPFlag=           0 FMFlag=      100000 FMFlg1=           0
         NFxFlg=           0 DoJE=F BraDBF=F KetDBF=F FulRan=T
         Omega=  0.000000  0.000000  1.000000  0.000000  0.000000 ICntrl=    3107 IOpCl=  0
         NMat0=    1 NMatS0=    1 NMatT0=    0 NMatD0=    1 NMtDS0=    0 NMtDT0=    0
         I1Cent=           0 NGrid=           0.
 Symmetry not used in FoFCou.
 FoFDir/FoFCou used for L=0 through L=2.
 G2PCM: DoFxE=T DoFxN=T DoGrad=T DoPD/DQ/DG=FFF NFrqRd=   0 IEInf=0 DoCFld=F IF1Alg=4.
 GePol: Maximum number of non-zero 1st derivatives   =     209
 End of G2Drv Frequency-dependent properties file   721 does not exist.
 End of G2Drv Frequency-dependent properties file   722 does not exist.
 Leave Link 1110 at Sun Apr 17 22:01:34 2016, MaxMem=   33554432 cpu:     196.0
 (Enter c:\G09w05\l1002.exe)
 Minotr:  Closed shell wavefunction.
          IDoAtm=1111111111111
 NEqPCM:  Using equilibrium solvation (IEInf=0, Eps=  78.3553, EpsInf=   1.7778)
          Direct CPHF calculation.
          Differentiating once with respect to nuclear coordinates.
          Requested convergence is 1.0D-06 RMS, and 1.0D-05 maximum.
          Secondary convergence is 1.0D-12 RMS, and 1.0D-12 maximum.
          NewPWx=T KeepS1=F KeepF1=F KeepIn=T MapXYZ=F SortEE=F KeepMc=T.
          MDV=      33554336 using IRadAn=       2.
 Generate precomputed XC quadrature information.
          Solving linear equations simultaneously, MaxMat=       0.
 Symmetry not used in FoFDir.
 MinBra= 0 MaxBra= 2 Meth= 1.
 IRaf=       0 NMat=  42 IRICut=     105 DoRegI=T DoRafI=T ISym2E= 0 JSym2E=0.
          There are    42 degrees of freedom in the 1st order CPHF.  IDoFFX=5.
     36 vectors produced by pass  0 Test12= 8.97D-11 2.38D-07 XBig12= 2.28D-01 1.44D-01.
 AX will form    36 AO Fock derivatives at one time.
     36 vectors produced by pass  1 Test12= 8.97D-11 2.38D-07 XBig12= 4.87D-02 5.24D-02.
     36 vectors produced by pass  2 Test12= 8.97D-11 2.38D-07 XBig12= 3.74D-04 2.94D-03.
     36 vectors produced by pass  3 Test12= 8.97D-11 2.38D-07 XBig12= 1.36D-06 1.79D-04.
     22 vectors produced by pass  4 Test12= 8.97D-11 2.38D-07 XBig12= 2.99D-09 6.23D-06.
      1 vectors produced by pass  5 Test12= 8.97D-11 2.38D-07 XBig12= 6.58D-12 2.67D-07.
 Inverted reduced A of dimension   167 with in-core refinement.
 End of Minotr Frequency-dependent properties file   721 does not exist.
 End of Minotr Frequency-dependent properties file   722 does not exist.
 Leave Link 1002 at Sun Apr 17 22:06:09 2016, MaxMem=   33554432 cpu:     275.0
 (Enter c:\G09w05\l601.exe)
 Copying SCF densities to generalized density rwf, IOpCl= 0 IROHF=0.

 **********************************************************************

            Population analysis using the SCF density.

 **********************************************************************

 Alpha  occ. eigenvalues --  -19.16696 -19.10502 -14.34182 -10.29451 -10.25797
 Alpha  occ. eigenvalues --  -10.18976  -1.06708  -0.98425  -0.92582  -0.78386
 Alpha  occ. eigenvalues --   -0.71767  -0.60319  -0.57016  -0.51796  -0.49086
 Alpha  occ. eigenvalues --   -0.46201  -0.44119  -0.41333  -0.40998  -0.37777
 Alpha  occ. eigenvalues --   -0.35672  -0.30294  -0.28692  -0.20206
 Alpha virt. eigenvalues --   -0.03955  -0.00553  -0.00036   0.01628   0.03023
 Alpha virt. eigenvalues --    0.03488   0.03908   0.04884   0.05673   0.06721
 Alpha virt. eigenvalues --    0.08097   0.09005   0.10183   0.10394   0.11847
 Alpha virt. eigenvalues --    0.12246   0.12923   0.13286   0.14064   0.15051
 Alpha virt. eigenvalues --    0.15548   0.16655   0.17385   0.17732   0.18652
 Alpha virt. eigenvalues --    0.18740   0.20071   0.20656   0.21477   0.23626
 Alpha virt. eigenvalues --    0.24083   0.25182   0.26060   0.27308   0.28139
 Alpha virt. eigenvalues --    0.29777   0.30203   0.31520   0.32128   0.34669
 Alpha virt. eigenvalues --    0.37691   0.38906   0.39754   0.43022   0.45346
 Alpha virt. eigenvalues --    0.47437   0.48901   0.53695   0.55672   0.57779
 Alpha virt. eigenvalues --    0.58886   0.60129   0.61392   0.65210   0.65666
 Alpha virt. eigenvalues --    0.67401   0.70648   0.71551   0.73925   0.74952
 Alpha virt. eigenvalues --    0.80936   0.81658   0.84767   0.88984   0.90969
 Alpha virt. eigenvalues --    0.97048   0.98624   1.07566   1.08449   1.09978
 Alpha virt. eigenvalues --    1.11458   1.14594   1.16085   1.18670   1.20549
 Alpha virt. eigenvalues --    1.22800   1.30162   1.36763   1.38395   1.41536
 Alpha virt. eigenvalues --    1.44957   1.47400   1.50159   1.53338   1.54314
 Alpha virt. eigenvalues --    1.57520   1.58787   1.60539   1.63795   1.65574
 Alpha virt. eigenvalues --    1.66641   1.72708   1.75391   1.76173   1.79082
 Alpha virt. eigenvalues --    1.84449   1.86933   1.91699   1.97056   2.01869
 Alpha virt. eigenvalues --    2.06176   2.09505   2.11368   2.16299   2.25848
 Alpha virt. eigenvalues --    2.29863   2.34633   2.39746   2.41407   2.45708
 Alpha virt. eigenvalues --    2.46166   2.52281   2.55739   2.56980   2.61533
 Alpha virt. eigenvalues --    2.63412   2.65334   2.72819   2.77731   2.84198
 Alpha virt. eigenvalues --    2.85400   2.89565   2.91496   2.94193   2.98547
 Alpha virt. eigenvalues --    3.03471   3.07955   3.08657   3.12006   3.14264
 Alpha virt. eigenvalues --    3.18414   3.23113   3.37292   3.39949   3.44073
 Alpha virt. eigenvalues --    3.48517   3.77100   3.79007   3.87236   3.87951
 Alpha virt. eigenvalues --    3.92724   4.02847   4.25571   4.76558   4.92637
 Alpha virt. eigenvalues --    4.99352   5.04826   5.13307   5.33784   5.49068
 Alpha virt. eigenvalues --    5.67304  23.59269  23.91006  23.97650  35.63716
 Alpha virt. eigenvalues --   49.87823  49.91694
          Condensed to atoms (all electrons):
              1          2          3          4          5          6
     1  N    6.864113   0.369232   0.267561  -0.002867  -0.112058  -0.324012
     2  H    0.369232   0.343946  -0.034560  -0.000154   0.034721  -0.025878
     3  C    0.267561  -0.034560   7.283099  -0.006662  -0.211642  -0.964035
     4  H   -0.002867  -0.000154  -0.006662   0.423063  -0.002935   0.015979
     5  C   -0.112058   0.034721  -0.211642  -0.002935   6.068459  -0.283417
     6  C   -0.324012  -0.025878  -0.964035   0.015979  -0.283417   7.142426
     7  H    0.022744  -0.001469  -0.019278  -0.002868   0.389702  -0.042461
     8  H   -0.002305  -0.002313  -0.027189   0.000920   0.342329   0.041948
     9  H    0.003431   0.004473  -0.052331  -0.000423   0.458494  -0.058509
    10  O   -0.008077   0.003500  -0.171955  -0.000448   0.047294   0.155859
    11  H    0.361900  -0.008359  -0.101481   0.000834  -0.000727   0.047958
    12  O    0.010115  -0.000242  -0.323556   0.263724   0.008129   0.253055
    13  H   -0.038537  -0.001708  -0.180507   0.002965  -0.052374   0.339994
              7          8          9         10         11         12
     1  N    0.022744  -0.002305   0.003431  -0.008077   0.361900   0.010115
     2  H   -0.001469  -0.002313   0.004473   0.003500  -0.008359  -0.000242
     3  C   -0.019278  -0.027189  -0.052331  -0.171955  -0.101481  -0.323556
     4  H   -0.002868   0.000920  -0.000423  -0.000448   0.000834   0.263724
     5  C    0.389702   0.342329   0.458494   0.047294  -0.000727   0.008129
     6  C   -0.042461   0.041948  -0.058509   0.155859   0.047958   0.253055
     7  H    0.512840  -0.010940  -0.029127  -0.000911  -0.000528  -0.000478
     8  H   -0.010940   0.527161  -0.060087  -0.000865   0.002586  -0.002230
     9  H   -0.029127  -0.060087   0.564263   0.003559  -0.001583   0.004568
    10  O   -0.000911  -0.000865   0.003559   8.551837   0.032422  -0.070857
    11  H   -0.000528   0.002586  -0.001583   0.032422   0.361873   0.005201
    12  O   -0.000478  -0.002230   0.004568  -0.070857   0.005201   8.131024
    13  H   -0.000532   0.000434  -0.008048   0.039472   0.011234   0.027216
             13
     1  N   -0.038537
     2  H   -0.001708
     3  C   -0.180507
     4  H    0.002965
     5  C   -0.052374
     6  C    0.339994
     7  H   -0.000532
     8  H    0.000434
     9  H   -0.008048
    10  O    0.039472
    11  H    0.011234
    12  O    0.027216
    13  H    0.581828
 Mulliken atomic charges:
              1
     1  N   -0.411240
     2  H    0.318810
     3  C    0.542536
     4  H    0.308873
     5  C   -0.685975
     6  C   -0.298907
     7  H    0.183305
     8  H    0.190550
     9  H    0.171319
    10  O   -0.580832
    11  H    0.288668
    12  O   -0.305670
    13  H    0.278563
 Sum of Mulliken atomic charges =   0.00000
 Mulliken charges with hydrogens summed into heavy atoms:
              1
     1  N    0.196238
     3  C    0.542536
     5  C   -0.140801
     6  C   -0.020344
    10  O   -0.580832
    12  O    0.003203
 Sum of Mulliken charges with hydrogens summed into heavy atoms =   0.00000
 APT atomic charges:
              1
     1  N   -1.081984
     2  H    0.748809
     3  C    0.398569
     4  H    0.728552
     5  C   -1.264472
     6  C   -0.268424
     7  H    0.331559
     8  H    0.431356
     9  H    0.496962
    10  O   -0.626872
    11  H    0.489898
    12  O   -0.686211
    13  H    0.302258
 Sum of APT charges=   0.00000
 APT Atomic charges with hydrogens summed into heavy atoms:
              1
     1  N    0.156723
     2  H    0.000000
     3  C    0.398569
     4  H    0.000000
     5  C   -0.004595
     6  C    0.033834
     7  H    0.000000
     8  H    0.000000
     9  H    0.000000
    10  O   -0.626872
    11  H    0.000000
    12  O    0.042342
    13  H    0.000000
 Sum of APT charges=   0.00000
 Electronic spatial extent (au):  <R**2>=            618.9305
 Charge=              0.0000 electrons
 Dipole moment (field-independent basis, Debye):
    X=              5.5018    Y=              0.8054    Z=             -1.0180  Tot=              5.6529
 Quadrupole moment (field-independent basis, Debye-Ang):
   XX=            -33.6749   YY=            -37.4155   ZZ=            -38.4455
   XY=             -8.6954   XZ=             -1.0649   YZ=              0.4516
 Traceless Quadrupole moment (field-independent basis, Debye-Ang):
   XX=              2.8371   YY=             -0.9036   ZZ=             -1.9335
   XY=             -8.6954   XZ=             -1.0649   YZ=              0.4516
 Octapole moment (field-independent basis, Debye-Ang**2):
  XXX=             15.3291  YYY=              9.4979  ZZZ=             25.7146  XYY=             16.0113
  XXY=             20.0043  XXZ=              7.8054  XZZ=              2.5972  YZZ=              7.3403
  YYZ=              8.0098  XYZ=              2.1847
 Hexadecapole moment (field-independent basis, Debye-Ang**3):
 XXXX=           -366.6350 YYYY=           -284.8470 ZZZZ=            -65.7887 XXXY=            -67.4400
 XXXZ=             -6.0453 YYYX=            -30.2296 YYYZ=             -5.0567 ZZZX=              0.6178
 ZZZY=             -2.5755 XXYY=           -117.4543 XXZZ=            -82.5915 YYZZ=            -66.0796
 XXYZ=             -2.7488 YYXZ=             -2.3769 ZZXY=             -0.8774
 N-N= 2.459670586412D+02 E-N=-1.250216256711D+03  KE= 3.222269575478D+02
  Exact polarizability:   0.000   0.000   0.000   0.000   0.000   0.000
 Approx polarizability: 131.610   4.849  92.289   2.585   0.525  61.675
 No NMR shielding tensors so no spin-rotation constants.
 Leave Link  601 at Sun Apr 17 22:06:09 2016, MaxMem=   33554432 cpu:       0.0
 (Enter c:\G09w05\l701.exe)
 Compute integral second derivatives.
 ... and contract with generalized density number  0.
 D2PCM: C-PCM CHGder 2nd derivatives, FixD1E=F FixD2E=F DoIter=F DoCFld=F I1PDM=0
 GePol: Maximum number of non-zero 2nd derivatives   =     209
 Leave Link  701 at Sun Apr 17 22:06:27 2016, MaxMem=   33554432 cpu:      18.0
 (Enter c:\G09w05\l702.exe)
 L702 exits ... SP integral derivatives will be done elsewhere.
 Leave Link  702 at Sun Apr 17 22:06:27 2016, MaxMem=   33554432 cpu:       0.0
 (Enter c:\G09w05\l703.exe)
 Compute integral second derivatives, UseDBF=F ICtDFT=           0.
 Integral derivatives from FoFDir, PRISM(SPDF).
 Calling FoFJK, ICntrl=    100147 FMM=F ISym2X=0 I1Cent= 0 IOpClX= 0 NMat=1 NMatS=1 NMatT=0.
 FoFCou: FMM=F IPFlag=           0 FMFlag=      100000 FMFlg1=         800
         NFxFlg=           0 DoJE=F BraDBF=F KetDBF=F FulRan=T
         Omega=  0.000000  0.000000  1.000000  0.000000  0.000000 ICntrl=  100147 IOpCl=  0
         NMat0=    1 NMatS0=    1 NMatT0=    0 NMatD0=    1 NMtDS0=    0 NMtDT0=    0
         I1Cent=           0 NGrid=           0.
 Symmetry not used in FoFCou.
 Leave Link  703 at Sun Apr 17 22:12:14 2016, MaxMem=   33554432 cpu:     347.0
 (Enter c:\G09w05\l716.exe)
 Dipole        = 2.16459224D+00 3.16873060D-01-4.00526134D-01
 Polarizability= 0.00000000D+00 0.00000000D+00 0.00000000D+00
                 0.00000000D+00 0.00000000D+00 0.00000000D+00
 -------------------------------------------------------------------
 Center     Atomic                   Forces (Hartrees/Bohr)
 Number     Number              X              Y              Z
 -------------------------------------------------------------------
      1        7           0.018704933   -0.024264357    0.019364297
      2        1          -0.000625273    0.000183703   -0.002530680
      3        6          -0.008017326    0.016486447    0.008588050
      4        1           0.010627353   -0.001753393   -0.004074567
      5        6           0.002295205    0.002491970   -0.009876169
      6        6          -0.037921153   -0.034375752    0.049450873
      7        1           0.001320759   -0.001211175   -0.000157146
      8        1          -0.002989294   -0.003606518   -0.000823222
      9        1          -0.002110874    0.000173533    0.002432596
     10        8           0.052978001    0.049172131   -0.014309640
     11        1           0.007394635   -0.003899088    0.005857158
     12        8          -0.001194574   -0.021483184   -0.018673770
     13        1          -0.040462390    0.022085685   -0.035247781
 -------------------------------------------------------------------
 Cartesian Forces:  Max     0.052978001 RMS     0.020746231
 Force constants in Cartesian coordinates: 
                1             2             3             4             5 
      1  0.889244D+00
      2 -0.437915D-01  0.712502D+00
      3 -0.645121D-01 -0.105962D+00 -0.227816D-02
      4 -0.448478D+00  0.828874D-01  0.407030D-01  0.457522D+00
      5  0.782314D-01 -0.852406D-01  0.308100D-02 -0.914605D-01  0.811432D-01
      6  0.388968D-01  0.859057D-03  0.695068D-02 -0.400070D-01 -0.840275D-03
      7 -0.169704D+00  0.533793D-01 -0.611530D-02 -0.246534D-02  0.359411D-01
      8  0.105832D+00 -0.323640D+00  0.551488D-01  0.149230D-02 -0.276153D-02
      9 -0.335621D-02  0.955872D-02 -0.116696D-01 -0.191260D-02 -0.305206D-02
     10  0.179842D-02 -0.277545D-02  0.142940D-02 -0.693900D-04  0.657048D-04
     11  0.162420D-02  0.336394D-03 -0.648645D-03 -0.738913D-04 -0.535668D-03
     12  0.707639D-03  0.582558D-03  0.105414D-02  0.821458D-04  0.420841D-04
     13  0.119736D-01  0.102614D-01 -0.218044D-02  0.907161D-03 -0.141229D-03
     14 -0.253749D-01 -0.336693D-01  0.144775D-02 -0.596569D-03  0.167805D-02
     15  0.651847D-02  0.535313D-03  0.321117D-02 -0.238194D-03 -0.247749D-03
     16 -0.152233D-01  0.483402D-02  0.776196D-02 -0.991188D-03 -0.212290D-02
     17  0.520925D-01  0.804228D-02  0.867231D-02 -0.115683D-02 -0.504819D-02
     18 -0.272285D-01  0.622486D-01 -0.174767D-02  0.412225D-02 -0.347298D-03
     19 -0.396886D-02 -0.369675D-02  0.177750D-03 -0.239656D-03 -0.636881D-04
     20 -0.492974D-02 -0.280592D-02  0.328052D-03 -0.264184D-03  0.402585D-03
     21  0.118384D-04  0.195472D-03  0.136470D-02 -0.651975D-05  0.100789D-03
     22  0.183819D-02  0.163589D-02  0.108380D-02  0.165624D-03 -0.579456D-04
     23  0.523004D-03  0.106628D-02  0.736753D-03  0.871219D-04 -0.266953D-03
     24  0.395319D-03  0.445668D-03  0.746963D-03 -0.145195D-03 -0.186786D-03
     25  0.158137D-02  0.201093D-02 -0.564368D-03  0.285295D-03 -0.268416D-03
     26 -0.125652D-04  0.249346D-02 -0.748947D-03  0.568687D-03 -0.510340D-03
     27 -0.300932D-03 -0.810430D-04 -0.958067D-04  0.175109D-03  0.478928D-03
     28 -0.280446D-02  0.174153D-01  0.229452D-02  0.599927D-03 -0.122953D-02
     29 -0.115313D-02  0.215211D-01 -0.847018D-02  0.261487D-02  0.195778D-02
     30  0.108062D-02 -0.249295D-01 -0.633054D-02 -0.189683D-02 -0.139496D-02
     31 -0.237539D+00 -0.176634D+00  0.417042D-01 -0.792919D-02 -0.206704D-01
     32 -0.175021D+00 -0.260487D+00  0.462270D-01  0.808915D-02  0.122858D-01
     33  0.465529D-01  0.494334D-01 -0.335713D-02 -0.458275D-04  0.309619D-03
     34 -0.132272D-01  0.585500D-02 -0.343089D-02  0.124179D-02  0.196882D-02
     35  0.870381D-02 -0.120550D-01  0.654646D-02 -0.148776D-02  0.151538D-03
     36  0.598819D-02 -0.100482D-01  0.660185D-02 -0.105680D-02  0.655576D-03
     37 -0.154904D-01  0.486180D-01 -0.183516D-01 -0.549678D-03 -0.192400D-03
     38  0.327618D-02 -0.280633D-01 -0.635883D-02 -0.699801D-03 -0.325568D-02
     39 -0.475409D-02  0.171616D-01  0.554941D-02  0.226405D-03  0.140112D-02
                6             7             8             9            10 
      6  0.231612D-02
      7 -0.335118D-02  0.664247D+00
      8  0.226236D-02 -0.793585D-02  0.643741D+00
      9 -0.837904D-02 -0.180790D-01 -0.267657D-01  0.132330D+00
     10  0.412649D-04 -0.128426D-02  0.202288D-02 -0.208860D-02  0.478540D+00
     11 -0.829587D-04  0.162704D-02 -0.782051D-02  0.747505D-03  0.301193D-01
     12  0.845055D-03 -0.365357D-03 -0.127363D-02 -0.773521D-03  0.178969D-01
     13 -0.112711D-02 -0.138427D+00 -0.618742D-01  0.627020D-02  0.310637D-03
     14 -0.249960D-03 -0.552434D-01 -0.157120D+00  0.117929D-01 -0.179055D-03
     15  0.259538D-04  0.129523D-01  0.580979D-02 -0.724565D-01 -0.997645D-04
     16 -0.279815D-02 -0.355536D+00  0.230276D-01 -0.308413D-01 -0.190034D-01
     17  0.457938D-02  0.683926D-01 -0.123524D+00  0.351341D-01  0.160093D-02
     18  0.148335D-02  0.510007D-01 -0.171055D-01  0.327325D-02  0.133760D-02
     19  0.108756D-03  0.134755D-01 -0.194944D-01  0.528806D-02 -0.211916D-05
     20  0.162274D-03  0.133666D-01 -0.214931D-01  0.484560D-02  0.834104D-04
     21 -0.391499D-03 -0.896436D-03 -0.113311D-02 -0.304017D-02 -0.329835D-04
     22 -0.175380D-04 -0.134803D-01 -0.521612D-02 -0.185422D-01  0.732383D-04
     23 -0.345919D-03 -0.121302D-01 -0.464618D-02 -0.235760D-01  0.113039D-03
     24 -0.307063D-04 -0.447159D-03 -0.181220D-02  0.374241D-02  0.477576D-04
     25  0.229195D-03 -0.217247D-01 -0.812344D-03  0.122297D-01  0.197541D-03
     26  0.216121D-03 -0.220648D-01  0.313716D-02  0.203088D-01  0.109026D-03
     27 -0.141643D-03 -0.197809D-02  0.883107D-03  0.150961D-02 -0.579862D-04
     28  0.961732D-03  0.291807D-03 -0.491543D-01  0.266891D-01  0.109355D-02
     29  0.377180D-03  0.241673D-02 -0.191937D-01  0.182599D-01 -0.286553D-02
     30 -0.205865D-02 -0.404920D-01  0.176498D-01 -0.802735D-02 -0.465223D-03
     31  0.339955D-02  0.186848D-01  0.344510D-02  0.142156D-03  0.166057D-03
     32 -0.288720D-02 -0.206870D-01 -0.256495D-01  0.489960D-02  0.211880D-03
     33 -0.555606D-02  0.482619D-03 -0.199825D-02 -0.305272D-02 -0.799609D-04
     34 -0.491143D-03 -0.160857D-01  0.440630D-01  0.112483D-01 -0.462925D+00
     35 -0.741837D-03  0.285793D-02 -0.138981D-02 -0.142407D-01 -0.293499D-01
     36  0.156717D-02 -0.747323D-02  0.380974D-02 -0.369694D-02 -0.177495D-01
     37  0.415476D-02  0.220086D-01 -0.353954D-01  0.129524D-01  0.110440D-02
     38 -0.330822D-02 -0.599200D-01  0.403602D-01 -0.379127D-01  0.843793D-03
     39  0.336927D-02  0.147623D-01 -0.354752D-01 -0.297595D-01 -0.178931D-03
               11            12            13            14            15 
     11  0.506786D-01
     12  0.150816D-01  0.125181D-01
     13 -0.758739D-03  0.404677D-03  0.523731D+00
     14 -0.414319D-03  0.248154D-04 -0.512486D-01  0.530862D+00
     15  0.194478D-03 -0.275093D-03 -0.579443D-03 -0.124977D-01  0.521639D+00
     16  0.461733D-01  0.991338D-02 -0.179298D-01 -0.988493D-02 -0.134767D-01
     17 -0.510813D-02  0.119766D-02 -0.220094D-01  0.788051D-02 -0.923785D-02
     18  0.461280D-04 -0.273375D-02  0.199853D-02 -0.767487D-03  0.510554D-03
     19  0.214147D-03 -0.843472D-04 -0.115594D+00  0.118207D+00 -0.255687D-01
     20  0.508172D-03 -0.158479D-03  0.110365D+00 -0.242251D+00  0.425901D-01
     21 -0.150437D-03 -0.984704D-04 -0.235647D-01  0.432741D-01 -0.549957D-01
     22 -0.713741D-04  0.183040D-04 -0.952645D-01 -0.940608D-02 -0.105595D+00
     23 -0.362476D-04  0.350551D-04 -0.104375D-01 -0.467385D-01 -0.190589D-01
     24 -0.220780D-04 -0.824373D-04 -0.103618D+00 -0.170652D-01 -0.242866D+00
     25 -0.171333D-03  0.129499D-03 -0.165288D+00  0.251848D-01  0.123602D+00
     26  0.232378D-03 -0.113223D-03  0.243497D-01 -0.543465D-01 -0.235978D-01
     27 -0.664839D-04  0.608218D-04  0.124663D+00 -0.235339D-01 -0.169257D+00
     28 -0.478189D-02 -0.123929D-02 -0.172667D-02  0.554454D-02 -0.594826D-02
     29  0.505788D-02  0.586102D-03  0.421915D-03  0.304421D-02  0.396943D-02
     30  0.210302D-02 -0.101723D-02 -0.181492D-02  0.324790D-03  0.103816D-01
     31  0.193657D-03 -0.544661D-04 -0.148666D-02  0.259433D-02  0.218686D-03
     32 -0.690127D-04  0.403466D-04  0.449648D-02 -0.250026D-02  0.161764D-02
     33  0.138917D-03 -0.337244D-03  0.109398D-02 -0.555380D-03  0.216348D-02
     34 -0.761763D-01 -0.281620D-01  0.410168D-03  0.792770D-03  0.135577D-02
     35 -0.455651D-01 -0.172705D-01 -0.100777D-02 -0.191296D-02  0.780699D-04
     36 -0.168583D-01 -0.103552D-01 -0.166888D-03 -0.624640D-03 -0.203386D-02
     37  0.208188D-02  0.752881D-03 -0.161611D-02 -0.390340D-03  0.685926D-02
     38  0.273562D-02  0.122568D-02 -0.241660D-02 -0.451190D-02  0.984519D-02
     39 -0.482752D-03  0.119490D-02 -0.137825D-02 -0.157000D-02  0.395162D-02
               16            17            18            19            20 
     16  0.586561D+00
     17 -0.146515D+00  0.341240D+00
     18  0.459410D-03  0.124862D-01  0.130462D+00
     19  0.281046D-03 -0.859264D-03 -0.944060D-03  0.123862D+00
     20  0.138638D-02 -0.109036D-02 -0.995755D-03 -0.121178D+00  0.264516D+00
     21 -0.570979D-04  0.608358D-03  0.400863D-03  0.273415D-01 -0.467461D-01
     22 -0.663326D-03 -0.391828D-02 -0.963821D-03 -0.685463D-02 -0.187664D-02
     23 -0.715468D-03 -0.396527D-02 -0.124046D-02  0.109528D-01  0.376291D-02
     24  0.138900D-02 -0.212330D-04 -0.428015D-03 -0.137523D-02 -0.115557D-03
     25  0.394461D-02 -0.206974D-02  0.132768D-02 -0.995185D-02  0.101354D-02
     26  0.331363D-02 -0.318950D-02  0.181621D-03  0.171821D-01 -0.169869D-02
     27 -0.103488D-02  0.694269D-03  0.787208D-03 -0.549701D-02 -0.242908D-03
     28 -0.105623D+00 -0.562549D-01 -0.940012D-02  0.158863D-03 -0.201791D-03
     29  0.100202D-01 -0.765629D-01 -0.156202D-01  0.526380D-04  0.119428D-03
     30  0.258714D-01  0.563814D-01 -0.307240D-01  0.364185D-03  0.292993D-03
     31  0.421783D-03  0.207304D-02 -0.665415D-02  0.548888D-03  0.736452D-03
     32 -0.227646D-02 -0.208245D-02 -0.798081D-03 -0.110936D-02 -0.825910D-03
     33  0.139219D-02 -0.220042D-02 -0.123598D-02 -0.171955D-03 -0.384262D-03
     34 -0.117939D+00  0.569128D-01  0.638728D-02 -0.188856D-02  0.105652D-02
     35  0.212414D-01 -0.154022D+00 -0.178646D-02  0.765033D-04  0.123764D-02
     36  0.960190D-02 -0.340083D-01 -0.381288D-01  0.455880D-03  0.321339D-03
     37  0.416999D-01  0.517118D-01 -0.214427D-01  0.174121D-03  0.442742D-03
     38  0.515184D-01  0.174288D-01 -0.363013D-01 -0.284263D-03 -0.381925D-03
     39 -0.818110D-02 -0.742859D-01 -0.619188D-01 -0.948208D-04  0.102670D-03
               21            22            23            24            25 
     21  0.552657D-01
     22 -0.130147D-01  0.105102D+00
     23  0.244821D-01  0.137745D-01  0.481391D-01
     24 -0.421544D-02  0.114528D+00  0.198769D-01  0.263578D+00
     25  0.101625D-01  0.109953D-01 -0.160439D-02 -0.991734D-02  0.183309D+00
     26 -0.202180D-01  0.148901D-02 -0.678167D-03 -0.112622D-02 -0.227387D-01
     27  0.512180D-02  0.197574D-01 -0.411488D-02 -0.199433D-01 -0.136007D+00
     28  0.291588D-03 -0.247711D-02 -0.263682D-02  0.238255D-03 -0.172679D-02
     29 -0.196728D-04 -0.390186D-03  0.251033D-03 -0.654262D-03 -0.165216D-02
     30 -0.249094D-03  0.190970D-02  0.223911D-02 -0.335008D-03 -0.677950D-03
     31  0.440437D-04 -0.175310D-03  0.483248D-04 -0.420552D-04 -0.249437D-03
     32 -0.672116D-04  0.430117D-04  0.298439D-03 -0.178043D-03 -0.128071D-03
     33  0.728617D-03  0.176848D-03  0.632779D-03 -0.607904D-04 -0.443887D-03
     34 -0.253313D-03 -0.302915D-03 -0.536488D-04 -0.308087D-03 -0.940952D-03
     35 -0.739594D-04  0.492761D-03  0.831467D-03  0.281672D-03  0.793622D-03
     36  0.716676D-04 -0.559159D-04 -0.176681D-03  0.109163D-03  0.268495D-03
     37 -0.256900D-04  0.104398D-02  0.207921D-02 -0.745212D-03 -0.431950D-03
     38 -0.252261D-03  0.350147D-02  0.198201D-02  0.577368D-03  0.442210D-03
     39  0.370174D-04  0.715430D-03  0.510089D-03 -0.214697D-03 -0.338943D-03
               26            27            28            29            30 
     26  0.550289D-01
     27  0.265852D-01  0.182066D+00
     28 -0.169587D-02  0.734547D-03  0.107932D+00
     29 -0.153679D-02  0.303378D-03  0.506632D-01  0.118303D+00
     30 -0.749563D-03 -0.108535D-02  0.146185D-01 -0.619586D-02  0.252042D-01
     31 -0.158984D-03  0.379073D-04 -0.276077D-02 -0.554685D-02  0.504401D-02
     32  0.240121D-03  0.908967D-04 -0.313336D-02  0.220625D-02 -0.590696D-03
     33 -0.393242D-03  0.158236D-03 -0.126707D-02 -0.989861D-03  0.331522D-03
     34  0.353715D-03 -0.227748D-03  0.175505D-01 -0.174901D-01 -0.743141D-02
     35  0.912082D-03 -0.286741D-03  0.339178D-02 -0.433697D-01 -0.536792D-02
     36  0.501241D-03 -0.116071D-03 -0.105078D-01 -0.115333D-03  0.891125D-02
     37 -0.695036D-03 -0.264183D-03 -0.105079D-01 -0.370916D-01  0.388998D-02
     38 -0.841050D-04 -0.709817D-03  0.420737D-01 -0.117973D-01 -0.397627D-01
     39 -0.845913D-03  0.935095D-03 -0.174657D-01  0.856931D-02  0.499870D-02
               31            32            33            34            35 
     31  0.229549D+00
     32  0.187259D+00  0.280947D+00
     33 -0.400468D-01 -0.540640D-01  0.167571D-01
     34 -0.485817D-03 -0.527970D-03  0.395433D-03  0.604094D+00
     35 -0.337400D-03  0.103984D-02 -0.216006D-03 -0.745324D-02  0.258745D+00
     36  0.902976D-03  0.396620D-03 -0.554338D-03  0.137688D-01  0.438095D-01
     37  0.125566D-02  0.278368D-02 -0.803854D-02 -0.950153D-02  0.207824D-02
     38  0.699710D-02 -0.540294D-02  0.102868D-01 -0.930138D-02 -0.460296D-02
     39 -0.469613D-02  0.531312D-02 -0.598467D-02  0.714899D-02 -0.107315D-01
               36            37            38            39 
     36  0.359967D-01
     37  0.602384D-02 -0.291890D-01
     38  0.123375D-01 -0.360308D-01 -0.440650D-02
     39  0.162753D-02  0.142348D-01  0.903334D-01  0.762141D-01
 Leave Link  716 at Sun Apr 17 22:12:14 2016, MaxMem=   33554432 cpu:       0.0
 (Enter c:\G09w05\l103.exe)

 GradGradGradGradGradGradGradGradGradGradGradGradGradGradGradGradGradGrad
 Berny optimization.
 Red2BG is reusing G-inverse.
 Internal  Forces:  Max     0.072242590 RMS     0.018552224
 Search for a saddle point.
 Step number   1 out of a maximum of   60
 All quantities printed in internal units (Hartrees-Bohrs-Radians)
 Swaping is turned off.
 Second derivative matrix not updated -- analytic derivatives used.
 ITU=  0
     Eigenvalues ---   -0.13005  -0.05231  -0.00510   0.00069   0.00138
     Eigenvalues ---    0.00472   0.01023   0.01739   0.03046   0.05460
     Eigenvalues ---    0.05557   0.09551   0.10144   0.11888   0.12372
     Eigenvalues ---    0.13801   0.14021   0.14108   0.15072   0.17040
     Eigenvalues ---    0.19205   0.21951   0.24070   0.30319   0.32162
     Eigenvalues ---    0.32570   0.33714   0.34672   0.41385   0.45689
     Eigenvalues ---    0.48219   0.48279   0.60864
 Eigenvectors required to have negative eigenvalues:
                          D13       A18       D16       A17       R12
   1                   -0.38071  -0.37911  -0.35929   0.35593  -0.33808
                          D14       D11       A16       A15       R2
   1                    0.29360   0.27219  -0.17766   0.16075  -0.15308
 Eigenvalue     2 is  -5.23D-02 should be greater than     0.000000 Eigenvector:
                          D19       A15       A17       D17       D13
   1                    0.50954  -0.41250   0.35286  -0.30025  -0.20711
                          D11       R12       R10       A16       D16
   1                   -0.19733   0.17354  -0.17295  -0.17132  -0.16972
 Eigenvalue     3 is  -5.10D-03 should be greater than     0.000000 Eigenvector:
                          D1        D2        D4        D3        D11
   1                    0.58674   0.52156  -0.44723  -0.38205   0.09902
                          D13       D12       D19       D18       D7
   1                    0.06694   0.06625   0.04723  -0.04271  -0.04120
 RFO step:  Lambda0=6.468947735D-03 Lambda=-7.14439728D-02.
 Linear search not attempted -- option 19 set.
 Maximum step size (   0.300) exceeded in Quadratic search.
    -- Step size scaled by   0.405
 Iteration  1 RMS(Cart)=  0.08065758 RMS(Int)=  0.01242143
 Iteration  2 RMS(Cart)=  0.00858133 RMS(Int)=  0.00323304
 Iteration  3 RMS(Cart)=  0.00025564 RMS(Int)=  0.00322681
 Iteration  4 RMS(Cart)=  0.00000391 RMS(Int)=  0.00322681
 Iteration  5 RMS(Cart)=  0.00000007 RMS(Int)=  0.00322681
 Variable       Old X    -DE/DX   Delta X   Delta X   Delta X     New X
                                 (Linear)    (Quad)   (Total)
    R1        1.90054  -0.00044   0.00000  -0.00086  -0.00086   1.89968
    R2        2.56976   0.03688   0.00000  -0.00623  -0.00623   2.56353
    R3        1.91354  -0.00134   0.00000  -0.00800  -0.00800   1.90554
    R4        2.82746  -0.00238   0.00000   0.00336   0.00336   2.83082
    R5        2.63998   0.01938   0.00000   0.00527   0.00527   2.64525
    R6        1.84666  -0.01024   0.00000  -0.00797  -0.00797   1.83869
    R7        2.06007  -0.00165   0.00000  -0.00220  -0.00220   2.05787
    R8        2.07580  -0.00246   0.00000  -0.00156  -0.00156   2.07424
    R9        2.07689  -0.00321   0.00000  -0.00233  -0.00233   2.07456
   R10        2.78035  -0.07224   0.00000  -0.08478  -0.08478   2.69557
   R11        2.66662  -0.02918   0.00000  -0.02219  -0.02219   2.64443
   R12        2.44531  -0.01320   0.00000  -0.01878  -0.01878   2.42653
    A1        2.13833  -0.00574   0.00000  -0.01477  -0.01876   2.11956
    A2        2.10314  -0.00493   0.00000  -0.02267  -0.02674   2.07639
    A3        2.04129   0.01076   0.00000   0.03282   0.02882   2.07011
    A4        2.09472  -0.01925   0.00000  -0.03319  -0.03321   2.06151
    A5        2.03677   0.03638   0.00000   0.04704   0.04703   2.08380
    A6        2.15084  -0.01702   0.00000  -0.01346  -0.01348   2.13736
    A7        1.92535   0.00200   0.00000   0.00608   0.00608   1.93142
    A8        1.92416  -0.00636   0.00000   0.00215   0.00214   1.92630
    A9        1.95095   0.00068   0.00000  -0.00510  -0.00510   1.94585
   A10        1.88664   0.00206   0.00000  -0.00034  -0.00036   1.88628
   A11        1.90045  -0.00021   0.00000  -0.00222  -0.00222   1.89823
   A12        1.87444   0.00192   0.00000  -0.00065  -0.00065   1.87379
   A13        2.08745  -0.00655   0.00000  -0.03177  -0.03220   2.05525
   A14        2.05676  -0.01670   0.00000  -0.04380  -0.03789   2.01887
   A15        1.18034   0.03758   0.00000   0.15710   0.16297   1.34331
   A16        2.04437   0.02242   0.00000   0.10384   0.09615   2.14051
   A17        1.20432  -0.01118   0.00000  -0.17846  -0.18636   1.01796
   A18        2.80453  -0.04171   0.00000  -0.06934  -0.07707   2.72746
   A19        1.87728  -0.00680   0.00000   0.01463   0.01463   1.89191
    D1       -0.16880  -0.00310   0.00000  -0.09863  -0.09832  -0.26712
    D2        2.92969  -0.00082   0.00000  -0.08918  -0.08880   2.84089
    D3        3.00417  -0.00628   0.00000   0.07051   0.07013   3.07430
    D4       -0.18052  -0.00399   0.00000   0.07996   0.07965  -0.10088
    D5        3.03765   0.00233   0.00000   0.00338   0.00326   3.04091
    D6       -1.16314   0.00213   0.00000   0.00815   0.00804  -1.15510
    D7        0.92042   0.00075   0.00000   0.00545   0.00534   0.92575
    D8       -0.05791  -0.00147   0.00000  -0.00821  -0.00810  -0.06601
    D9        2.02449  -0.00167   0.00000  -0.00344  -0.00332   2.02117
   D10       -2.17514  -0.00305   0.00000  -0.00614  -0.00602  -2.18116
   D11        0.13301  -0.00216   0.00000  -0.05319  -0.05366   0.07935
   D12        2.80843   0.00184   0.00000   0.03970   0.03414   2.84257
   D13       -0.69072  -0.03502   0.00000   0.01318   0.01892  -0.67180
   D14       -3.05320   0.00021   0.00000  -0.04386  -0.04415  -3.09735
   D15       -0.37778   0.00421   0.00000   0.04902   0.04365  -0.33413
   D16        2.40626  -0.03265   0.00000   0.02250   0.02843   2.43469
   D17       -3.03473   0.00675   0.00000   0.06353   0.05934  -2.97540
   D18       -0.34777   0.00320   0.00000   0.11893   0.11527  -0.23250
   D19        1.47043  -0.01662   0.00000  -0.23251  -0.22467   1.24576
         Item               Value     Threshold  Converged?
 Maximum Force            0.072243     0.000450     NO 
 RMS     Force            0.018552     0.000300     NO 
 Maximum Displacement     0.416927     0.001800     NO 
 RMS     Displacement     0.080708     0.001200     NO 
 Predicted change in Energy=-2.738860D-02
 Optimization stopped.
    -- Wrong number of Negative eigenvalues: Desired=  1 Actual=  3
    -- Flag reset to prevent archiving.
                           ----------------------------
                           ! Non-Optimized Parameters !
                           ! (Angstroms and Degrees)  !
 --------------------------                            --------------------------
 ! Name  Definition              Value          Derivative Info.                !
 --------------------------------------------------------------------------------
 ! R1    R(1,2)                  1.0053         -DE/DX =   -0.0004              !
 ! R2    R(1,3)                  1.3566         -DE/DX =    0.0369              !
 ! R3    R(1,11)                 1.0084         -DE/DX =   -0.0013              !
 ! R4    R(3,5)                  1.498          -DE/DX =   -0.0024              !
 ! R5    R(3,6)                  1.3998         -DE/DX =    0.0194              !
 ! R6    R(4,12)                 0.973          -DE/DX =   -0.0102              !
 ! R7    R(5,7)                  1.089          -DE/DX =   -0.0016              !
 ! R8    R(5,8)                  1.0976         -DE/DX =   -0.0025              !
 ! R9    R(5,9)                  1.0978         -DE/DX =   -0.0032              !
 ! R10   R(6,10)                 1.4264         -DE/DX =   -0.0722              !
 ! R11   R(6,12)                 1.3994         -DE/DX =   -0.0292              !
 ! R12   R(6,13)                 1.2841         -DE/DX =   -0.0132              !
 ! A1    A(2,1,3)              121.4419         -DE/DX =   -0.0057              !
 ! A2    A(2,1,11)             118.9686         -DE/DX =   -0.0049              !
 ! A3    A(3,1,11)             118.6088         -DE/DX =    0.0108              !
 ! A4    A(1,3,5)              118.1158         -DE/DX =   -0.0192              !
 ! A5    A(1,3,6)              119.3929         -DE/DX =    0.0364              !
 ! A6    A(5,3,6)              122.4618         -DE/DX =   -0.017               !
 ! A7    A(3,5,7)              110.6624         -DE/DX =    0.002               !
 ! A8    A(3,5,8)              110.3687         -DE/DX =   -0.0064              !
 ! A9    A(3,5,9)              111.489          -DE/DX =    0.0007              !
 ! A10   A(7,5,8)              108.0758         -DE/DX =    0.0021              !
 ! A11   A(7,5,9)              108.7605         -DE/DX =   -0.0002              !
 ! A12   A(8,5,9)              107.3605         -DE/DX =    0.0019              !
 ! A13   A(3,6,10)             117.757          -DE/DX =   -0.0065              !
 ! A14   A(3,6,12)             115.6729         -DE/DX =   -0.0167              !
 ! A15   A(3,6,13)              76.9659         -DE/DX =    0.0376              !
 ! A16   A(10,6,12)            122.6423         -DE/DX =    0.0224              !
 ! A17   A(10,6,13)             58.3248         -DE/DX =   -0.0112              !
 ! A18   A(12,6,13)            156.2717         -DE/DX =   -0.0417              !
 ! A19   A(4,12,6)             108.3985         -DE/DX =   -0.0068              !
 ! D1    D(2,1,3,5)            -15.3048         -DE/DX =   -0.0031              !
 ! D2    D(2,1,3,6)            162.7711         -DE/DX =   -0.0008              !
 ! D3    D(11,1,3,5)           176.1442         -DE/DX =   -0.0063              !
 ! D4    D(11,1,3,6)            -5.78           -DE/DX =   -0.004               !
 ! D5    D(1,3,5,7)            174.231          -DE/DX =    0.0023              !
 ! D6    D(1,3,5,8)            -66.1825         -DE/DX =    0.0021              !
 ! D7    D(1,3,5,9)             53.0417         -DE/DX =    0.0007              !
 ! D8    D(6,3,5,7)             -3.782          -DE/DX =   -0.0015              !
 ! D9    D(6,3,5,8)            115.8045         -DE/DX =   -0.0017              !
 ! D10   D(6,3,5,9)           -124.9714         -DE/DX =   -0.0031              !
 ! D11   D(1,3,6,10)             4.5464         -DE/DX =   -0.0022              !
 ! D12   D(1,3,6,12)           162.8674         -DE/DX =    0.0018              !
 ! D13   D(1,3,6,13)           -38.4911         -DE/DX =   -0.035               !
 ! D14   D(5,3,6,10)          -177.4649         -DE/DX =    0.0002              !
 ! D15   D(5,3,6,12)           -19.144          -DE/DX =    0.0042              !
 ! D16   D(5,3,6,13)           139.4976         -DE/DX =   -0.0326              !
 ! D17   D(3,6,12,4)          -170.4777         -DE/DX =    0.0068              !
 ! D18   D(10,6,12,4)          -13.3213         -DE/DX =    0.0032              !
 ! D19   D(13,6,12,4)           71.377          -DE/DX =   -0.0166              !
 --------------------------------------------------------------------------------
 GradGradGradGradGradGradGradGradGradGradGradGradGradGradGradGradGradGrad

 Largest change from initial coordinates is atom    0       0.000 Angstoms.
 Leave Link  103 at Sun Apr 17 22:12:15 2016, MaxMem=   33554432 cpu:       1.0
 (Enter c:\G09w05\l202.exe)
                          Input orientation:                          
 ---------------------------------------------------------------------
 Center     Atomic      Atomic             Coordinates (Angstroms)
 Number     Number       Type             X           Y           Z
 ---------------------------------------------------------------------
      1          7           0        1.080762   -1.495072   -0.121112
      2          1           0        2.057782   -1.719492   -0.202011
      3          6           0        0.610646   -0.224278   -0.236415
      4          1           0       -2.301755    1.098266   -0.119878
      5          6           0        1.566028    0.926528   -0.276331
      6          6           0       -0.772437   -0.076018   -0.365876
      7          1           0        1.031508    1.855414   -0.476002
      8          1           0        2.078607    1.028733    0.689819
      9          1           0        2.338923    0.788432   -1.045395
     10          8           0       -1.647355   -1.247678   -0.203255
     11          1           0        0.395797   -2.226450    0.024737
     12          8           0       -1.329581    1.188106   -0.078090
     13          1           0       -0.320932   -1.088138   -1.033854
 ---------------------------------------------------------------------
                    Distance matrix (angstroms):
                    1          2          3          4          5
     1  N    0.000000
     2  H    1.005722   0.000000
     3  C    1.359861   2.081118   0.000000
     4  H    4.262256   5.191538   3.200747   0.000000
     5  C    2.474616   2.692353   1.496229   3.874754   0.000000
     6  C    2.346907   3.276888   1.397018   1.943778   2.545886
     7  H    3.369589   3.729378   2.135333   3.436676   1.090142
     8  H    2.832472   2.889383   2.140760   4.455111   1.098467
     9  H    2.766163   2.660831   2.160317   4.742201   1.099044
    10  O    2.740543   3.735057   2.479318   2.436933   3.880508
    11  H    1.012602   1.752317   2.030530   4.283858   3.376589
    12  O    3.607083   4.465838   2.405073   0.977210   2.914151
    13  H    1.721464   2.597855   1.500000   3.088588   2.862400
                    6          7          8          9         10
     6  C    0.000000
     7  H    2.645142   0.000000
     8  H    3.234721   1.771710   0.000000
     9  H    3.299937   1.781009   1.771010   0.000000
    10  O    1.471297   4.108513   4.456728   4.554707   0.000000
    11  H    2.478247   4.161308   3.724299   3.743052   2.276938
    12  O    1.411113   2.485634   3.497260   3.814884   2.459612
    13  H    1.294001   3.287064   3.634553   3.255223   1.573133
                   11         12         13
    11  H    0.000000
    12  O    3.827100   0.000000
    13  H    1.711745   2.666860   0.000000
 Symmetry turned off by external request.
 Stoichiometry    C3H7NO2
 Framework group  C1[X(C3H7NO2)]
 Deg. of freedom    33
 Full point group                 C1      NOp   1
 Rotational constants (GHZ):      4.7708748      3.3288607      2.0083862
 Leave Link  202 at Sun Apr 17 22:12:15 2016, MaxMem=   33554432 cpu:       0.0
 (Enter c:\G09w05\l9999.exe)


 LENDING MONEY TO FRIENDS CAUSES THEM TO LOSE THEIR MEMORIES.

    --  PETER'S THEORY OF RECIPROCAL INHIBITION OF FISCAL RECALL
 Error termination request processed by link 9999.
 Error termination via Lnk1e in c:\G09w05\l9999.exe at Sun Apr 17 22:12:15 2016.
 Job cpu time:  0 days  0 hours 17 minutes 15.0 seconds.
 File lengths (MBytes):  RWF=     59 Int=      0 D2E=      0 Chk=      6 Scr=      1
