 Entering Gaussian System, Link 0=g09
 Input=Ala-S-opt-freq-tsa3-6-31g.com
 Output=Ala-S-opt-freq-tsa3-6-31g.log
 Initial command:
 /usr/local/gau/g09/l1.exe "/tmp/Gau-3620.inp" -scrdir="/tmp/"
 Entering Link 1 = /usr/local/gau/g09/l1.exe PID=      3622.
  
 Copyright (c) 1988,1990,1992,1993,1995,1998,2003,2009,2013,
            Gaussian, Inc.  All Rights Reserved.
  
 This is part of the Gaussian(R) 09 program.  It is based on
 the Gaussian(R) 03 system (copyright 2003, Gaussian, Inc.),
 the Gaussian(R) 98 system (copyright 1998, Gaussian, Inc.),
 the Gaussian(R) 94 system (copyright 1995, Gaussian, Inc.),
 the Gaussian 92(TM) system (copyright 1992, Gaussian, Inc.),
 the Gaussian 90(TM) system (copyright 1990, Gaussian, Inc.),
 the Gaussian 88(TM) system (copyright 1988, Gaussian, Inc.),
 the Gaussian 86(TM) system (copyright 1986, Carnegie Mellon
 University), and the Gaussian 82(TM) system (copyright 1983,
 Carnegie Mellon University). Gaussian is a federally registered
 trademark of Gaussian, Inc.
  
 This software contains proprietary and confidential information,
 including trade secrets, belonging to Gaussian, Inc.
  
 This software is provided under written license and may be
 used, copied, transmitted, or stored only in accord with that
 written license.
  
 The following legend is applicable only to US Government
 contracts under FAR:
  
                    RESTRICTED RIGHTS LEGEND
  
 Use, reproduction and disclosure by the US Government is
 subject to restrictions as set forth in subparagraphs (a)
 and (c) of the Commercial Computer Software - Restricted
 Rights clause in FAR 52.227-19.
  
 Gaussian, Inc.
 340 Quinnipiac St., Bldg. 40, Wallingford CT 06492
  
  
 ---------------------------------------------------------------
 Warning -- This program may not be used in any manner that
 competes with the business of Gaussian, Inc. or will provide
 assistance to any competitor of Gaussian, Inc.  The licensee
 of this program is prohibited from giving any competitor of
 Gaussian, Inc. access to this program.  By using this program,
 the user acknowledges that Gaussian, Inc. is engaged in the
 business of creating and licensing software in the field of
 computational chemistry and represents and warrants to the
 licensee that it is not a competitor of Gaussian, Inc. and that
 it will not use this program in any manner prohibited above.
 ---------------------------------------------------------------
  

 Cite this work as:
 Gaussian 09, Revision D.01,
 M. J. Frisch, G. W. Trucks, H. B. Schlegel, G. E. Scuseria, 
 M. A. Robb, J. R. Cheeseman, G. Scalmani, V. Barone, B. Mennucci, 
 G. A. Petersson, H. Nakatsuji, M. Caricato, X. Li, H. P. Hratchian, 
 A. F. Izmaylov, J. Bloino, G. Zheng, J. L. Sonnenberg, M. Hada, 
 M. Ehara, K. Toyota, R. Fukuda, J. Hasegawa, M. Ishida, T. Nakajima, 
 Y. Honda, O. Kitao, H. Nakai, T. Vreven, J. A. Montgomery, Jr., 
 J. E. Peralta, F. Ogliaro, M. Bearpark, J. J. Heyd, E. Brothers, 
 K. N. Kudin, V. N. Staroverov, T. Keith, R. Kobayashi, J. Normand, 
 K. Raghavachari, A. Rendell, J. C. Burant, S. S. Iyengar, J. Tomasi, 
 M. Cossi, N. Rega, J. M. Millam, M. Klene, J. E. Knox, J. B. Cross, 
 V. Bakken, C. Adamo, J. Jaramillo, R. Gomperts, R. E. Stratmann, 
 O. Yazyev, A. J. Austin, R. Cammi, C. Pomelli, J. W. Ochterski, 
 R. L. Martin, K. Morokuma, V. G. Zakrzewski, G. A. Voth, 
 P. Salvador, J. J. Dannenberg, S. Dapprich, A. D. Daniels, 
 O. Farkas, J. B. Foresman, J. V. Ortiz, J. Cioslowski, 
 and D. J. Fox, Gaussian, Inc., Wallingford CT, 2013.
 
 ******************************************
 Gaussian 09:  ES64L-G09RevD.01 24-Apr-2013
                14-Apr-2016 
 ******************************************
 %chk=Ala-S-opt-freq-tsa3-6-31g.chk
 ------------------------------------------------
 #p opt=(calcfc,ts) freq rb3lyp/6-31g iop(1/11=1)
 ------------------------------------------------
 1/5=1,10=4,11=1,14=-1,18=20,26=3,38=1/1,3;
 2/9=110,12=2,17=6,18=5,40=1/2;
 3/5=1,6=6,11=2,16=1,25=1,30=1,71=2,74=-5,116=1,140=1/1,2,3;
 4//1;
 5/5=2,38=5/2;
 8/6=4,10=90,11=11/1;
 11/6=1,8=1,9=11,15=111,16=1/1,2,10;
 10/6=1,13=1/2;
 6/7=2,8=2,9=2,10=2,28=1/1;
 7/10=1,18=20,25=1/1,2,3,16;
 1/5=1,10=4,11=1,14=-1,18=20,26=3/3(2);
 2/9=110/2;
 99//99;
 2/9=110/2;
 3/5=1,6=6,11=2,16=1,25=1,30=1,71=1,74=-5,116=1/1,2,3;
 4/5=5,16=3,69=1/1;
 5/5=2,38=5/2;
 7//1,2,3,16;
 1/5=1,11=1,14=-1,18=20,26=3/3(-5);
 2/9=110/2;
 6/7=2,8=2,9=2,10=2,19=2,28=1/1;
 99/9=1/99;
 Leave Link    1 at Thu Apr 14 11:23:58 2016, MaxMem=           0 cpu:         0.0
 (Enter /usr/local/gau/g09/l101.exe)
 -------------------------
 Ala-S-opt-freq-tsa3-6-31g
 -------------------------
 Symbolic Z-matrix:
 Charge =  0 Multiplicity = 1
 N                     1.19583   0.8568    0.24471 
 H                     2.19306   0.93273   0.16224 
 C                     0.57789  -0.39162   0.21947 
 H                    -2.14965  -1.88597  -0.4869 
 C                     1.48591  -1.5897    0.21179 
 C                    -0.91739  -0.51036   0.21225 
 H                     2.13143  -1.59261   1.10045 
 H                     0.90465  -2.51221   0.20881 
 H                     2.14114  -1.58265  -0.67074 
 O                    -1.72667   0.64084   0.12095 
 H                     0.63348   1.68459   0.14798 
 O                    -1.60764  -1.72589   0.31636 
 H                    -0.30638   0.74313   0.33641 
 
 Add virtual bond connecting atoms H13        and C3         Dist= 2.73D+00.
 Add virtual bond connecting atoms H13        and C6         Dist= 2.65D+00.
 Add virtual bond connecting atoms H13        and O10        Dist= 2.72D+00.
 Add virtual bond connecting atoms H13        and H11        Dist= 2.54D+00.
 NAtoms=     13 NQM=       13 NQMF=       0 NMMI=      0 NMMIF=      0
                NMic=       0 NMicF=      0.
                    Isotopes and Nuclear Properties:
 (Nuclear quadrupole moments (NQMom) in fm**2, nuclear magnetic moments (NMagM)
  in nuclear magnetons)

  Atom         1           2           3           4           5           6           7           8           9          10
 IAtWgt=          14           1          12           1          12          12           1           1           1          16
 AtmWgt=  14.0030740   1.0078250  12.0000000   1.0078250  12.0000000  12.0000000   1.0078250   1.0078250   1.0078250  15.9949146
 NucSpn=           2           1           0           1           0           0           1           1           1           0
 AtZEff=   0.0000000   0.0000000   0.0000000   0.0000000   0.0000000   0.0000000   0.0000000   0.0000000   0.0000000   0.0000000
 NQMom=    2.0440000   0.0000000   0.0000000   0.0000000   0.0000000   0.0000000   0.0000000   0.0000000   0.0000000   0.0000000
 NMagM=    0.4037610   2.7928460   0.0000000   2.7928460   0.0000000   0.0000000   2.7928460   2.7928460   2.7928460   0.0000000
 AtZNuc=   7.0000000   1.0000000   6.0000000   1.0000000   6.0000000   6.0000000   1.0000000   1.0000000   1.0000000   8.0000000

  Atom        11          12          13
 IAtWgt=           1          16           1
 AtmWgt=   1.0078250  15.9949146   1.0078250
 NucSpn=           1           0           1
 AtZEff=   0.0000000   0.0000000   0.0000000
 NQMom=    0.0000000   0.0000000   0.0000000
 NMagM=    2.7928460   0.0000000   2.7928460
 AtZNuc=   1.0000000   8.0000000   1.0000000
 Leave Link  101 at Thu Apr 14 11:23:58 2016, MaxMem=    33554432 cpu:         0.1
 (Enter /usr/local/gau/g09/l103.exe)

 GradGradGradGradGradGradGradGradGradGradGradGradGradGradGradGradGradGrad
 Berny optimization.
 Initialization pass.
                           ----------------------------
                           !    Initial Parameters    !
                           ! (Angstroms and Degrees)  !
 --------------------------                            --------------------------
 ! Name  Definition              Value          Derivative Info.                !
 --------------------------------------------------------------------------------
 ! R1    R(1,2)                  1.0035         calculate D2E/DX2 analytically  !
 ! R2    R(1,3)                  1.3932         calculate D2E/DX2 analytically  !
 ! R3    R(1,11)                 1.0054         calculate D2E/DX2 analytically  !
 ! R4    R(3,5)                  1.5033         calculate D2E/DX2 analytically  !
 ! R5    R(3,6)                  1.5            calculate D2E/DX2 analytically  !
 ! R6    R(3,13)                 1.4433         calculate D2E/DX2 analytically  !
 ! R7    R(4,12)                 0.9822         calculate D2E/DX2 analytically  !
 ! R8    R(5,7)                  1.0984         calculate D2E/DX2 analytically  !
 ! R9    R(5,8)                  1.0904         calculate D2E/DX2 analytically  !
 ! R10   R(5,9)                  1.0992         calculate D2E/DX2 analytically  !
 ! R11   R(6,10)                 1.4102         calculate D2E/DX2 analytically  !
 ! R12   R(6,12)                 1.4017         calculate D2E/DX2 analytically  !
 ! R13   R(6,13)                 1.4            calculate D2E/DX2 analytically  !
 ! R14   R(10,13)                1.4402         calculate D2E/DX2 analytically  !
 ! R15   R(11,13)                1.3436         calculate D2E/DX2 analytically  !
 ! A1    A(2,1,3)              120.4689         calculate D2E/DX2 analytically  !
 ! A2    A(2,1,11)             119.0538         calculate D2E/DX2 analytically  !
 ! A3    A(3,1,11)             119.2059         calculate D2E/DX2 analytically  !
 ! A4    A(1,3,5)              116.508          calculate D2E/DX2 analytically  !
 ! A5    A(1,3,6)              120.8748         calculate D2E/DX2 analytically  !
 ! A6    A(1,3,13)              64.2643         calculate D2E/DX2 analytically  !
 ! A7    A(5,3,6)              122.6153         calculate D2E/DX2 analytically  !
 ! A8    A(3,5,7)              110.6686         calculate D2E/DX2 analytically  !
 ! A9    A(3,5,8)              110.6273         calculate D2E/DX2 analytically  !
 ! A10   A(3,5,9)              111.0413         calculate D2E/DX2 analytically  !
 ! A11   A(7,5,8)              108.2564         calculate D2E/DX2 analytically  !
 ! A12   A(7,5,9)              107.4144         calculate D2E/DX2 analytically  !
 ! A13   A(8,5,9)              108.7238         calculate D2E/DX2 analytically  !
 ! A14   A(3,6,10)             120.5154         calculate D2E/DX2 analytically  !
 ! A15   A(3,6,12)             123.9986         calculate D2E/DX2 analytically  !
 ! A16   A(10,6,12)            115.4764         calculate D2E/DX2 analytically  !
 ! A17   A(1,11,13)             78.5126         calculate D2E/DX2 analytically  !
 ! A18   A(4,12,6)             110.6311         calculate D2E/DX2 analytically  !
 ! A19   A(3,13,10)            122.4272         calculate D2E/DX2 analytically  !
 ! A20   A(3,13,11)             96.3713         calculate D2E/DX2 analytically  !
 ! A21   A(6,13,11)            156.9621         calculate D2E/DX2 analytically  !
 ! A22   A(10,13,11)           135.9432         calculate D2E/DX2 analytically  !
 ! A23   L(5,3,13,1,-1)        180.7723         calculate D2E/DX2 analytically  !
 ! A24   L(12,6,13,5,-1)       183.5975         calculate D2E/DX2 analytically  !
 ! A25   L(5,3,13,1,-2)        184.8493         calculate D2E/DX2 analytically  !
 ! A26   L(12,6,13,5,-2)       189.3681         calculate D2E/DX2 analytically  !
 ! D1    D(2,1,3,5)              6.2762         calculate D2E/DX2 analytically  !
 ! D2    D(2,1,3,6)           -174.2135         calculate D2E/DX2 analytically  !
 ! D3    D(2,1,3,13)          -178.5732         calculate D2E/DX2 analytically  !
 ! D4    D(11,1,3,5)           173.2777         calculate D2E/DX2 analytically  !
 ! D5    D(11,1,3,6)            -7.2119         calculate D2E/DX2 analytically  !
 ! D6    D(11,1,3,13)          -11.5716         calculate D2E/DX2 analytically  !
 ! D7    D(2,1,11,13)          178.6118         calculate D2E/DX2 analytically  !
 ! D8    D(3,1,11,13)           11.4249         calculate D2E/DX2 analytically  !
 ! D9    D(1,3,5,7)             59.0596         calculate D2E/DX2 analytically  !
 ! D10   D(1,3,5,8)            179.0434         calculate D2E/DX2 analytically  !
 ! D11   D(1,3,5,9)            -60.1392         calculate D2E/DX2 analytically  !
 ! D12   D(6,3,5,7)           -120.4415         calculate D2E/DX2 analytically  !
 ! D13   D(6,3,5,8)             -0.4577         calculate D2E/DX2 analytically  !
 ! D14   D(6,3,5,9)            120.3597         calculate D2E/DX2 analytically  !
 ! D15   D(7,5,13,10)         -131.2257         calculate D2E/DX2 analytically  !
 ! D16   D(7,5,13,11)           69.0178         calculate D2E/DX2 analytically  !
 ! D17   D(8,5,13,10)          -12.5346         calculate D2E/DX2 analytically  !
 ! D18   D(8,5,13,11)         -172.291          calculate D2E/DX2 analytically  !
 ! D19   D(9,5,13,10)          109.3916         calculate D2E/DX2 analytically  !
 ! D20   D(9,5,13,11)          -50.3648         calculate D2E/DX2 analytically  !
 ! D21   D(1,3,6,10)             5.1914         calculate D2E/DX2 analytically  !
 ! D22   D(1,3,6,12)          -173.6291         calculate D2E/DX2 analytically  !
 ! D23   D(5,3,6,10)          -175.3288         calculate D2E/DX2 analytically  !
 ! D24   D(5,3,6,12)             5.8507         calculate D2E/DX2 analytically  !
 ! D25   D(1,3,13,10)          165.645          calculate D2E/DX2 analytically  !
 ! D26   D(1,3,13,11)            7.5757         calculate D2E/DX2 analytically  !
 ! D27   D(3,6,12,4)          -118.4765         calculate D2E/DX2 analytically  !
 ! D28   D(10,6,12,4)           62.649          calculate D2E/DX2 analytically  !
 ! D29   D(4,12,13,11)         -90.1146         calculate D2E/DX2 analytically  !
 ! D30   D(1,11,13,3)           -9.6676         calculate D2E/DX2 analytically  !
 ! D31   D(1,11,13,6)          -38.2259         calculate D2E/DX2 analytically  !
 ! D32   D(1,11,13,10)        -162.7086         calculate D2E/DX2 analytically  !
 --------------------------------------------------------------------------------
 Trust Radius=3.00D-01 FncErr=1.00D-07 GrdErr=1.00D-06
 Number of steps in this run=     83 maximum allowed number of steps=    100.
 Search for a saddle point of order  1.
 GradGradGradGradGradGradGradGradGradGradGradGradGradGradGradGradGradGrad

 Leave Link  103 at Thu Apr 14 11:23:58 2016, MaxMem=    33554432 cpu:         0.0
 (Enter /usr/local/gau/g09/l202.exe)
                          Input orientation:                          
 ---------------------------------------------------------------------
 Center     Atomic      Atomic             Coordinates (Angstroms)
 Number     Number       Type             X           Y           Z
 ---------------------------------------------------------------------
      1          7           0        1.195828    0.856803    0.244706
      2          1           0        2.193058    0.932729    0.162242
      3          6           0        0.577887   -0.391617    0.219472
      4          1           0       -2.149648   -1.885972   -0.486899
      5          6           0        1.485913   -1.589701    0.211792
      6          6           0       -0.917388   -0.510364    0.212250
      7          1           0        2.131430   -1.592613    1.100448
      8          1           0        0.904646   -2.512209    0.208812
      9          1           0        2.141138   -1.582651   -0.670737
     10          8           0       -1.726669    0.640843    0.120948
     11          1           0        0.633480    1.684587    0.147984
     12          8           0       -1.607636   -1.725895    0.316356
     13          1           0       -0.306377    0.743132    0.336408
 ---------------------------------------------------------------------
                    Distance matrix (angstroms):
                    1          2          3          4          5
     1  N    0.000000
     2  H    1.003510   0.000000
     3  C    1.393212   2.089484   0.000000
     4  H    4.387513   5.217811   3.189279   0.000000
     5  C    2.463862   2.620145   1.503321   3.713926   0.000000
     6  C    2.517117   3.429270   1.500000   1.974733   2.634545
     7  H    2.758131   2.694695   2.152210   4.575299   1.098367
     8  H    3.381762   3.678284   2.145646   3.194511   1.090367
     9  H    2.771747   2.650224   2.157496   4.305420   1.099194
    10  O    2.933077   3.930797   2.527184   2.633094   3.912067
    11  H    1.005394   1.731409   2.078178   4.571407   3.384032
    12  O    3.812462   4.640830   2.562458   0.982151   3.098310
    13  H    1.509289   2.512660   1.443348   3.314765   2.944477
                    6          7          8          9         10
     6  C    0.000000
     7  H    3.354914   0.000000
     8  H    2.706881   1.773604   0.000000
     9  H    3.359174   1.771240   1.779493   0.000000
    10  O    1.410159   4.564283   4.107710   4.531073   0.000000
    11  H    2.688332   3.727074   4.205987   3.690282   2.580782
    12  O    1.401712   3.822719   2.634657   3.879198   2.377772
    13  H    1.400000   3.461556   3.475645   3.523343   1.440178
                   11         12         13
    11  H    0.000000
    12  O    4.084401   0.000000
    13  H    1.343567   2.791015   0.000000
 Stoichiometry    C3H7NO2
 Framework group  C1[X(C3H7NO2)]
 Deg. of freedom    33
 Full point group                 C1      NOp   1
 Largest Abelian subgroup         C1      NOp   1
 Largest concise Abelian subgroup C1      NOp   1
                         Standard orientation:                         
 ---------------------------------------------------------------------
 Center     Atomic      Atomic             Coordinates (Angstroms)
 Number     Number       Type             X           Y           Z
 ---------------------------------------------------------------------
      1          7           0        1.425315   -1.194964   -0.032600
      2          1           0        2.423986   -1.187255    0.065523
      3          6           0        0.703327   -0.003790   -0.002940
      4          1           0       -2.151857    1.244836    0.675558
      5          6           0        1.506160    1.266673    0.033931
      6          6           0       -0.796562   -0.012186   -0.019167
      7          1           0        2.162847    1.335909   -0.843781
      8          1           0        0.848717    2.136530    0.038113
      9          1           0        2.145809    1.303533    0.927081
     10          8           0       -1.506537   -1.228883    0.045116
     11          1           0        0.933817   -2.068590    0.045013
     12          8           0       -1.585783    1.141796   -0.120409
     13          1           0       -0.079509   -1.207703   -0.147905
 ---------------------------------------------------------------------
 Rotational constants (GHZ):      4.8844899      2.9864938      1.8858099
 Leave Link  202 at Thu Apr 14 11:23:58 2016, MaxMem=    33554432 cpu:         0.0
 (Enter /usr/local/gau/g09/l301.exe)
 Standard basis: 6-31G (6D, 7F)
 Ernie: Thresh=  0.10000D-02 Tol=  0.10000D-05 Strict=F.
 There are    68 symmetry adapted cartesian basis functions of A   symmetry.
 There are    68 symmetry adapted basis functions of A   symmetry.
    68 basis functions,   160 primitive gaussians,    68 cartesian basis functions
    24 alpha electrons       24 beta electrons
       nuclear repulsion energy       241.9846070299 Hartrees.
 IExCor=  402 DFT=T Ex+Corr=B3LYP ExCW=0 ScaHFX=  0.200000
 ScaDFX=  0.800000  0.720000  1.000000  0.810000 ScalE2=  1.000000  1.000000
 IRadAn=      0 IRanWt=     -1 IRanGd=            0 ICorTp=0 IEmpDi=  4
 NAtoms=   13 NActive=   13 NUniq=   13 SFac= 1.00D+00 NAtFMM=   60 NAOKFM=F Big=F
 Integral buffers will be    131072 words long.
 Raffenetti 2 integral format.
 Two-electron integral symmetry is turned on.
 Leave Link  301 at Thu Apr 14 11:23:58 2016, MaxMem=    33554432 cpu:         0.0
 (Enter /usr/local/gau/g09/l302.exe)
 NPDir=0 NMtPBC=     1 NCelOv=     1 NCel=       1 NClECP=     1 NCelD=      1
         NCelK=      1 NCelE2=     1 NClLst=     1 CellRange=     0.0.
 One-electron integrals computed using PRISM.
 NBasis=    68 RedAO= T EigKep=  3.91D-03  NBF=    68
 NBsUse=    68 1.00D-06 EigRej= -1.00D+00 NBFU=    68
 Precomputing XC quadrature grid using
 IXCGrd= 4 IRadAn=           0 IRanWt=          -1 IRanGd=           0 AccXCQ= 0.00D+00.
 Generated NRdTot=       0 NPtTot=           0 NUsed=           0 NTot=          32
 NSgBfM=    68    68    68    68    68 MxSgAt=    13 MxSgA2=    13.
 Leave Link  302 at Thu Apr 14 11:23:58 2016, MaxMem=    33554432 cpu:         0.2
 (Enter /usr/local/gau/g09/l303.exe)
 DipDrv:  MaxL=1.
 Leave Link  303 at Thu Apr 14 11:23:58 2016, MaxMem=    33554432 cpu:         0.0
 (Enter /usr/local/gau/g09/l401.exe)
 ExpMin= 1.61D-01 ExpMax= 5.48D+03 ExpMxC= 8.25D+02 IAcc=1 IRadAn=         1 AccDes= 0.00D+00
 Harris functional with IExCor=  402 and IRadAn=       1 diagonalized for initial guess.
 HarFok:  IExCor=  402 AccDes= 0.00D+00 IRadAn=         1 IDoV= 1 UseB2=F ITyADJ=14
 ICtDFT=  3500011 ScaDFX=  1.000000  1.000000  1.000000  1.000000
 FoFCou: FMM=F IPFlag=           0 FMFlag=      100000 FMFlg1=           0
         NFxFlg=           0 DoJE=T BraDBF=F KetDBF=T FulRan=T
         wScrn=  0.000000 ICntrl=     500 IOpCl=  0 I1Cent=   200000004 NGrid=           0
         NMat0=    1 NMatS0=      1 NMatT0=    0 NMatD0=    1 NMtDS0=    0 NMtDT0=    0
 Petite list used in FoFCou.
 Harris En= -323.465406928706    
 JPrj=0 DoOrth=F DoCkMO=F.
 Leave Link  401 at Thu Apr 14 11:24:00 2016, MaxMem=    33554432 cpu:         0.5
 (Enter /usr/local/gau/g09/l502.exe)
 Closed shell SCF:
 Using DIIS extrapolation, IDIIS=  1040.
 Integral symmetry usage will be decided dynamically.
 Keep R1 ints in memory in canonical form, NReq=3676491.
 IVT=       33364 IEndB=       33364 NGot=    33554432 MDV=    30768038
 LenX=    30768038 LenY=    30762973
 Requested convergence on RMS density matrix=1.00D-08 within 128 cycles.
 Requested convergence on MAX density matrix=1.00D-06.
 Requested convergence on             energy=1.00D-06.
 No special actions if energy rises.
 FoFCou: FMM=F IPFlag=           0 FMFlag=           0 FMFlg1=           0
         NFxFlg=           0 DoJE=F BraDBF=F KetDBF=F FulRan=T
         wScrn=  0.000000 ICntrl=     600 IOpCl=  0 I1Cent=           0 NGrid=           0
         NMat0=    1 NMatS0=   2346 NMatT0=    0 NMatD0=    1 NMtDS0=    0 NMtDT0=    0
 Symmetry not used in FoFCou.
 Integral accuracy reduced to 1.0D-05 until final iterations.

 Cycle   1  Pass 0  IDiag  1:
 E= -323.205669628448    
 DIIS: error= 3.86D-02 at cycle   1 NSaved=   1.
 NSaved= 1 IEnMin= 1 EnMin= -323.205669628448     IErMin= 1 ErrMin= 3.86D-02
 ErrMax= 3.86D-02  0.00D+00 EMaxC= 1.00D-01 BMatC= 2.16D-01 BMatP= 2.16D-01
 IDIUse=3 WtCom= 6.14D-01 WtEn= 3.86D-01
 Coeff-Com:  0.100D+01
 Coeff-En:   0.100D+01
 Coeff:      0.100D+01
 Gap=     0.147 Goal=   None    Shift=    0.000
 GapD=    0.147 DampG=1.000 DampE=0.500 DampFc=0.5000 IDamp=-1.
 Damping current iteration by 5.00D-01
 RMSDP=1.85D-02 MaxDP=3.60D-01              OVMax= 2.37D-01

 Cycle   2  Pass 0  IDiag  1:
 E= -323.247981325989     Delta-E=       -0.042311697541 Rises=F Damp=T
 DIIS: error= 2.00D-02 at cycle   2 NSaved=   2.
 NSaved= 2 IEnMin= 2 EnMin= -323.247981325989     IErMin= 2 ErrMin= 2.00D-02
 ErrMax= 2.00D-02  0.00D+00 EMaxC= 1.00D-01 BMatC= 4.02D-02 BMatP= 2.16D-01
 IDIUse=3 WtCom= 8.00D-01 WtEn= 2.00D-01
 Coeff-Com:  0.260D+00 0.740D+00
 Coeff-En:   0.394D+00 0.606D+00
 Coeff:      0.287D+00 0.713D+00
 Gap=     0.156 Goal=   None    Shift=    0.000
 RMSDP=5.90D-03 MaxDP=1.09D-01 DE=-4.23D-02 OVMax= 2.15D-01

 Cycle   3  Pass 0  IDiag  1:
 E= -323.359478748606     Delta-E=       -0.111497422617 Rises=F Damp=F
 DIIS: error= 2.57D-02 at cycle   3 NSaved=   3.
 NSaved= 3 IEnMin= 3 EnMin= -323.359478748606     IErMin= 2 ErrMin= 2.00D-02
 ErrMax= 2.57D-02  0.00D+00 EMaxC= 1.00D-01 BMatC= 4.94D-02 BMatP= 4.02D-02
 IDIUse=2 WtCom= 0.00D+00 WtEn= 1.00D+00
 Coeff-En:   0.000D+00 0.000D+00 0.100D+01
 Coeff:      0.000D+00 0.000D+00 0.100D+01
 Gap=     0.181 Goal=   None    Shift=    0.000
 RMSDP=1.41D-02 MaxDP=1.79D-01 DE=-1.11D-01 OVMax= 3.81D-01

 Cycle   4  Pass 0  IDiag  1:
 E= -322.918960806442     Delta-E=        0.440517942164 Rises=F Damp=F
 DIIS: error= 8.54D-02 at cycle   4 NSaved=   4.
 NSaved= 4 IEnMin= 3 EnMin= -323.359478748606     IErMin= 2 ErrMin= 2.00D-02
 ErrMax= 8.54D-02  0.00D+00 EMaxC= 1.00D-01 BMatC= 5.32D-01 BMatP= 4.02D-02
 IDIUse=2 WtCom= 0.00D+00 WtEn= 1.00D+00
 Coeff-En:   0.000D+00 0.000D+00 0.855D+00 0.145D+00
 Coeff:      0.000D+00 0.000D+00 0.855D+00 0.145D+00
 Gap=     0.171 Goal=   None    Shift=    0.000
 RMSDP=7.93D-03 MaxDP=1.15D-01 DE= 4.41D-01 OVMax= 2.07D-01

 Cycle   5  Pass 0  IDiag  1:
 E= -323.358809208136     Delta-E=       -0.439848401694 Rises=F Damp=F
 DIIS: error= 2.56D-02 at cycle   5 NSaved=   5.
 NSaved= 5 IEnMin= 3 EnMin= -323.359478748606     IErMin= 2 ErrMin= 2.00D-02
 ErrMax= 2.56D-02  0.00D+00 EMaxC= 1.00D-01 BMatC= 5.15D-02 BMatP= 4.02D-02
 IDIUse=2 WtCom= 0.00D+00 WtEn= 1.00D+00
 Coeff-En:   0.000D+00 0.000D+00 0.502D+00 0.000D+00 0.498D+00
 Coeff:      0.000D+00 0.000D+00 0.502D+00 0.000D+00 0.498D+00
 Gap=     0.155 Goal=   None    Shift=    0.000
 RMSDP=3.60D-03 MaxDP=4.59D-02 DE=-4.40D-01 OVMax= 1.01D-01

 Cycle   6  Pass 0  IDiag  1:
 E= -323.405333095014     Delta-E=       -0.046523886879 Rises=F Damp=F
 DIIS: error= 3.49D-03 at cycle   6 NSaved=   6.
 NSaved= 6 IEnMin= 6 EnMin= -323.405333095014     IErMin= 6 ErrMin= 3.49D-03
 ErrMax= 3.49D-03  0.00D+00 EMaxC= 1.00D-01 BMatC= 6.85D-04 BMatP= 4.02D-02
 IDIUse=3 WtCom= 9.65D-01 WtEn= 3.49D-02
 Coeff-Com: -0.765D-02 0.192D-01 0.266D+00-0.607D-01 0.453D+00 0.330D+00
 Coeff-En:   0.000D+00 0.000D+00 0.000D+00 0.000D+00 0.000D+00 0.100D+01
 Coeff:     -0.738D-02 0.185D-01 0.257D+00-0.586D-01 0.437D+00 0.353D+00
 Gap=     0.152 Goal=   None    Shift=    0.000
 RMSDP=6.21D-04 MaxDP=1.09D-02 DE=-4.65D-02 OVMax= 2.05D-02

 Cycle   7  Pass 0  IDiag  1:
 E= -323.405992715930     Delta-E=       -0.000659620915 Rises=F Damp=F
 DIIS: error= 1.41D-03 at cycle   7 NSaved=   7.
 NSaved= 7 IEnMin= 7 EnMin= -323.405992715930     IErMin= 7 ErrMin= 1.41D-03
 ErrMax= 1.41D-03  0.00D+00 EMaxC= 1.00D-01 BMatC= 1.08D-04 BMatP= 6.85D-04
 IDIUse=3 WtCom= 9.86D-01 WtEn= 1.41D-02
 Coeff-Com: -0.262D-02 0.235D-03 0.718D-01-0.180D-01 0.114D+00 0.218D+00
 Coeff-Com:  0.617D+00
 Coeff-En:   0.000D+00 0.000D+00 0.000D+00 0.000D+00 0.000D+00 0.158D+00
 Coeff-En:   0.842D+00
 Coeff:     -0.258D-02 0.232D-03 0.708D-01-0.177D-01 0.112D+00 0.217D+00
 Coeff:      0.620D+00
 Gap=     0.152 Goal=   None    Shift=    0.000
 RMSDP=1.49D-04 MaxDP=2.61D-03 DE=-6.60D-04 OVMax= 5.27D-03

 Cycle   8  Pass 0  IDiag  1:
 E= -323.406101249111     Delta-E=       -0.000108533181 Rises=F Damp=F
 DIIS: error= 1.97D-04 at cycle   8 NSaved=   8.
 NSaved= 8 IEnMin= 8 EnMin= -323.406101249111     IErMin= 8 ErrMin= 1.97D-04
 ErrMax= 1.97D-04  0.00D+00 EMaxC= 1.00D-01 BMatC= 3.69D-06 BMatP= 1.08D-04
 IDIUse=3 WtCom= 9.98D-01 WtEn= 1.97D-03
 Coeff-Com:  0.474D-03-0.219D-02 0.273D-02-0.339D-03-0.585D-02 0.669D-01
 Coeff-Com:  0.270D+00 0.668D+00
 Coeff-En:   0.000D+00 0.000D+00 0.000D+00 0.000D+00 0.000D+00 0.000D+00
 Coeff-En:   0.000D+00 0.100D+01
 Coeff:      0.473D-03-0.219D-02 0.272D-02-0.338D-03-0.584D-02 0.667D-01
 Coeff:      0.269D+00 0.669D+00
 Gap=     0.152 Goal=   None    Shift=    0.000
 RMSDP=3.85D-05 MaxDP=4.51D-04 DE=-1.09D-04 OVMax= 8.74D-04

 Cycle   9  Pass 0  IDiag  1:
 E= -323.406104901770     Delta-E=       -0.000003652659 Rises=F Damp=F
 DIIS: error= 3.39D-05 at cycle   9 NSaved=   9.
 NSaved= 9 IEnMin= 9 EnMin= -323.406104901770     IErMin= 9 ErrMin= 3.39D-05
 ErrMax= 3.39D-05  0.00D+00 EMaxC= 1.00D-01 BMatC= 7.24D-08 BMatP= 3.69D-06
 IDIUse=1 WtCom= 1.00D+00 WtEn= 0.00D+00
 Coeff-Com:  0.229D-03-0.138D-02-0.816D-03 0.391D-03-0.540D-02 0.236D-01
 Coeff-Com:  0.106D+00 0.290D+00 0.587D+00
 Coeff:      0.229D-03-0.138D-02-0.816D-03 0.391D-03-0.540D-02 0.236D-01
 Coeff:      0.106D+00 0.290D+00 0.587D+00
 Gap=     0.152 Goal=   None    Shift=    0.000
 RMSDP=5.12D-06 MaxDP=5.60D-05 DE=-3.65D-06 OVMax= 7.24D-05

 Initial convergence to 1.0D-05 achieved.  Increase integral accuracy.
 Cycle  10  Pass 1  IDiag  1:
 E= -323.406141586884     Delta-E=       -0.000036685113 Rises=F Damp=F
 DIIS: error= 2.08D-05 at cycle   1 NSaved=   1.
 NSaved= 1 IEnMin= 1 EnMin= -323.406141586884     IErMin= 1 ErrMin= 2.08D-05
 ErrMax= 2.08D-05  0.00D+00 EMaxC= 1.00D-01 BMatC= 3.72D-08 BMatP= 3.72D-08
 IDIUse=1 WtCom= 1.00D+00 WtEn= 0.00D+00
 Coeff-Com:  0.100D+01
 Coeff:      0.100D+01
 Gap=     0.152 Goal=   None    Shift=    0.000
 RMSDP=5.12D-06 MaxDP=5.60D-05 DE=-3.67D-05 OVMax= 3.28D-04

 Cycle  11  Pass 1  IDiag  1:
 E= -323.406141435841     Delta-E=        0.000000151043 Rises=F Damp=F
 DIIS: error= 6.38D-05 at cycle   2 NSaved=   2.
 NSaved= 2 IEnMin= 1 EnMin= -323.406141586884     IErMin= 1 ErrMin= 2.08D-05
 ErrMax= 6.38D-05  0.00D+00 EMaxC= 1.00D-01 BMatC= 1.92D-07 BMatP= 3.72D-08
 IDIUse=1 WtCom= 1.00D+00 WtEn= 0.00D+00
 Coeff-Com:  0.708D+00 0.292D+00
 Coeff:      0.708D+00 0.292D+00
 Gap=     0.152 Goal=   None    Shift=    0.000
 RMSDP=8.12D-06 MaxDP=1.15D-04 DE= 1.51D-07 OVMax= 2.80D-04

 Cycle  12  Pass 1  IDiag  1:
 E= -323.406141628789     Delta-E=       -0.000000192949 Rises=F Damp=F
 DIIS: error= 1.03D-05 at cycle   3 NSaved=   3.
 NSaved= 3 IEnMin= 3 EnMin= -323.406141628789     IErMin= 3 ErrMin= 1.03D-05
 ErrMax= 1.03D-05  0.00D+00 EMaxC= 1.00D-01 BMatC= 7.21D-09 BMatP= 3.72D-08
 IDIUse=1 WtCom= 1.00D+00 WtEn= 0.00D+00
 Coeff-Com:  0.300D+00 0.180D+00 0.520D+00
 Coeff:      0.300D+00 0.180D+00 0.520D+00
 Gap=     0.152 Goal=   None    Shift=    0.000
 RMSDP=1.65D-06 MaxDP=2.23D-05 DE=-1.93D-07 OVMax= 3.06D-05

 Cycle  13  Pass 1  IDiag  1:
 E= -323.406141633704     Delta-E=       -0.000000004914 Rises=F Damp=F
 DIIS: error= 6.47D-06 at cycle   4 NSaved=   4.
 NSaved= 4 IEnMin= 4 EnMin= -323.406141633704     IErMin= 4 ErrMin= 6.47D-06
 ErrMax= 6.47D-06  0.00D+00 EMaxC= 1.00D-01 BMatC= 1.96D-09 BMatP= 7.21D-09
 IDIUse=1 WtCom= 1.00D+00 WtEn= 0.00D+00
 Coeff-Com: -0.442D-02 0.456D-01 0.375D+00 0.583D+00
 Coeff:     -0.442D-02 0.456D-01 0.375D+00 0.583D+00
 Gap=     0.152 Goal=   None    Shift=    0.000
 RMSDP=7.83D-07 MaxDP=8.39D-06 DE=-4.91D-09 OVMax= 1.28D-05

 Cycle  14  Pass 1  IDiag  1:
 E= -323.406141635187     Delta-E=       -0.000000001483 Rises=F Damp=F
 DIIS: error= 1.21D-06 at cycle   5 NSaved=   5.
 NSaved= 5 IEnMin= 5 EnMin= -323.406141635187     IErMin= 5 ErrMin= 1.21D-06
 ErrMax= 1.21D-06  0.00D+00 EMaxC= 1.00D-01 BMatC= 1.62D-10 BMatP= 1.96D-09
 IDIUse=1 WtCom= 1.00D+00 WtEn= 0.00D+00
 Coeff-Com: -0.181D-01 0.188D-01 0.189D+00 0.353D+00 0.457D+00
 Coeff:     -0.181D-01 0.188D-01 0.189D+00 0.353D+00 0.457D+00
 Gap=     0.152 Goal=   None    Shift=    0.000
 RMSDP=2.15D-07 MaxDP=2.85D-06 DE=-1.48D-09 OVMax= 4.75D-06

 Cycle  15  Pass 1  IDiag  1:
 E= -323.406141635331     Delta-E=       -0.000000000144 Rises=F Damp=F
 DIIS: error= 3.04D-07 at cycle   6 NSaved=   6.
 NSaved= 6 IEnMin= 6 EnMin= -323.406141635331     IErMin= 6 ErrMin= 3.04D-07
 ErrMax= 3.04D-07  0.00D+00 EMaxC= 1.00D-01 BMatC= 8.33D-12 BMatP= 1.62D-10
 IDIUse=1 WtCom= 1.00D+00 WtEn= 0.00D+00
 Coeff-Com: -0.817D-02 0.451D-02 0.363D-01 0.922D-01 0.202D+00 0.674D+00
 Coeff:     -0.817D-02 0.451D-02 0.363D-01 0.922D-01 0.202D+00 0.674D+00
 Gap=     0.152 Goal=   None    Shift=    0.000
 RMSDP=8.22D-08 MaxDP=1.03D-06 DE=-1.44D-10 OVMax= 2.41D-06

 Cycle  16  Pass 1  IDiag  1:
 E= -323.406141635341     Delta-E=       -0.000000000010 Rises=F Damp=F
 DIIS: error= 1.05D-07 at cycle   7 NSaved=   7.
 NSaved= 7 IEnMin= 7 EnMin= -323.406141635341     IErMin= 7 ErrMin= 1.05D-07
 ErrMax= 1.05D-07  0.00D+00 EMaxC= 1.00D-01 BMatC= 1.23D-12 BMatP= 8.33D-12
 IDIUse=1 WtCom= 1.00D+00 WtEn= 0.00D+00
 Coeff-Com: -0.121D-02-0.126D-03-0.101D-01-0.561D-02 0.411D-01 0.360D+00
 Coeff-Com:  0.616D+00
 Coeff:     -0.121D-02-0.126D-03-0.101D-01-0.561D-02 0.411D-01 0.360D+00
 Coeff:      0.616D+00
 Gap=     0.152 Goal=   None    Shift=    0.000
 RMSDP=3.98D-08 MaxDP=3.73D-07 DE=-1.03D-11 OVMax= 1.13D-06

 Cycle  17  Pass 1  IDiag  1:
 E= -323.406141635345     Delta-E=       -0.000000000004 Rises=F Damp=F
 DIIS: error= 2.60D-08 at cycle   8 NSaved=   8.
 NSaved= 8 IEnMin= 8 EnMin= -323.406141635345     IErMin= 8 ErrMin= 2.60D-08
 ErrMax= 2.60D-08  0.00D+00 EMaxC= 1.00D-01 BMatC= 8.17D-14 BMatP= 1.23D-12
 IDIUse=1 WtCom= 1.00D+00 WtEn= 0.00D+00
 Coeff-Com:  0.656D-03-0.754D-03-0.682D-02-0.142D-01-0.105D-01-0.874D-04
 Coeff-Com:  0.173D+00 0.859D+00
 Coeff:      0.656D-03-0.754D-03-0.682D-02-0.142D-01-0.105D-01-0.874D-04
 Coeff:      0.173D+00 0.859D+00
 Gap=     0.152 Goal=   None    Shift=    0.000
 RMSDP=1.82D-08 MaxDP=1.77D-07 DE=-3.52D-12 OVMax= 5.54D-07

 Cycle  18  Pass 1  IDiag  1:
 E= -323.406141635345     Delta-E=        0.000000000000 Rises=F Damp=F
 DIIS: error= 1.03D-08 at cycle   9 NSaved=   9.
 NSaved= 9 IEnMin= 9 EnMin= -323.406141635345     IErMin= 9 ErrMin= 1.03D-08
 ErrMax= 1.03D-08  0.00D+00 EMaxC= 1.00D-01 BMatC= 1.29D-14 BMatP= 8.17D-14
 IDIUse=1 WtCom= 1.00D+00 WtEn= 0.00D+00
 Coeff-Com:  0.436D-03-0.415D-03-0.270D-02-0.697D-02-0.832D-02-0.300D-01
 Coeff-Com:  0.435D-01 0.399D+00 0.605D+00
 Coeff:      0.436D-03-0.415D-03-0.270D-02-0.697D-02-0.832D-02-0.300D-01
 Coeff:      0.435D-01 0.399D+00 0.605D+00
 Gap=     0.152 Goal=   None    Shift=    0.000
 RMSDP=4.17D-09 MaxDP=4.15D-08 DE=-2.27D-13 OVMax= 1.21D-07

 SCF Done:  E(RB3LYP) =  -323.406141635     A.U. after   18 cycles
            NFock= 18  Conv=0.42D-08     -V/T= 2.0060
 KE= 3.214859566472D+02 PE=-1.240975629150D+03 EE= 3.540989238370D+02
 Leave Link  502 at Thu Apr 14 11:24:49 2016, MaxMem=    33554432 cpu:        14.7
 (Enter /usr/local/gau/g09/l801.exe)
 DoSCS=F DFT=T ScalE2(SS,OS)=  1.000000  1.000000
 Range of M.O.s used for correlation:     1    68
 NBasis=    68 NAE=    24 NBE=    24 NFC=     0 NFV=     0
 NROrb=     68 NOA=    24 NOB=    24 NVA=    44 NVB=    44
 Leave Link  801 at Thu Apr 14 11:24:49 2016, MaxMem=    33554432 cpu:         0.0
 (Enter /usr/local/gau/g09/l1101.exe)
 Using compressed storage, NAtomX=    13.
 Will process     14 centers per pass.
 Leave Link 1101 at Thu Apr 14 11:24:49 2016, MaxMem=    33554432 cpu:         0.1
 (Enter /usr/local/gau/g09/l1102.exe)
 Symmetrizing basis deriv contribution to polar:
 IMax=3 JMax=2 DiffMx= 0.00D+00
 Leave Link 1102 at Thu Apr 14 11:24:49 2016, MaxMem=    33554432 cpu:         0.0
 (Enter /usr/local/gau/g09/l1110.exe)
 Forming Gx(P) for the SCF density, NAtomX=    13.
 Integral derivatives from FoFJK, PRISM(SPDF).
 Do as many integral derivatives as possible in FoFJK.
 G2DrvN: MDV=      33554224.
 G2DrvN: will do    14 centers at a time, making    1 passes.
 Calling FoFCou, ICntrl=  3107 FMM=F I1Cent=   0 AccDes= 0.00D+00.
 FoFJK:  IHMeth= 1 ICntrl=    3107 DoSepK=F KAlg= 0 I1Cent=   0 FoldK=F
 IRaf=         0 NMat=   1 IRICut=       1 DoRegI=T DoRafI=F ISym2E= 0.
 FoFCou: FMM=F IPFlag=           0 FMFlag=      100000 FMFlg1=           0
         NFxFlg=           0 DoJE=F BraDBF=F KetDBF=F FulRan=T
         wScrn=  0.000000 ICntrl=    3107 IOpCl=  0 I1Cent=           0 NGrid=           0
         NMat0=    1 NMatS0=      1 NMatT0=    0 NMatD0=    1 NMtDS0=    0 NMtDT0=    0
 Symmetry not used in FoFCou.
 End of G2Drv F.D. properties file   721 does not exist.
 End of G2Drv F.D. properties file   722 does not exist.
 End of G2Drv F.D. properties file   788 does not exist.
 Leave Link 1110 at Thu Apr 14 11:25:58 2016, MaxMem=    33554432 cpu:        25.1
 (Enter /usr/local/gau/g09/l1002.exe)
 Minotr:  Closed shell wavefunction.
          IDoAtm=1111111111111
          Direct CPHF calculation.
          Differentiating once with respect to nuclear coordinates.
          Requested convergence is 1.0D-08 RMS, and 1.0D-07 maximum.
          Secondary convergence is 1.0D-12 RMS, and 1.0D-12 maximum.
          NewPWx=T KeepS1=F KeepF1=F KeepIn=T MapXYZ=F SortEE=F KeepMc=T.
          MDV=      33554230 using IRadAn=       2.
 Generate precomputed XC quadrature information.
 Keep R1 ints in memory in canonical form, NReq=3645297.
 FoFCou: FMM=F IPFlag=           0 FMFlag=           0 FMFlg1=           0
         NFxFlg=           0 DoJE=F BraDBF=F KetDBF=F FulRan=T
         wScrn=  0.000000 ICntrl=     600 IOpCl=  0 I1Cent=           0 NGrid=           0
         NMat0=    1 NMatS0=   2346 NMatT0=    0 NMatD0=    1 NMtDS0=    0 NMtDT0=    0
 Symmetry not used in FoFCou.
          Solving linear equations simultaneously, MaxMat=       0.
          There are    42 degrees of freedom in the 1st order CPHF.  IDoFFX=6 NUNeed=     0.
     36 vectors produced by pass  0 Test12= 2.51D-15 2.38D-09 XBig12= 1.79D-01 1.40D-01.
 AX will form    36 AO Fock derivatives at one time.
     36 vectors produced by pass  1 Test12= 2.51D-15 2.38D-09 XBig12= 2.56D-02 4.83D-02.
     36 vectors produced by pass  2 Test12= 2.51D-15 2.38D-09 XBig12= 8.93D-05 1.65D-03.
     36 vectors produced by pass  3 Test12= 2.51D-15 2.38D-09 XBig12= 1.51D-07 7.54D-05.
     36 vectors produced by pass  4 Test12= 2.51D-15 2.38D-09 XBig12= 1.73D-10 2.02D-06.
     20 vectors produced by pass  5 Test12= 2.51D-15 2.38D-09 XBig12= 9.78D-14 4.72D-08.
 InvSVY:  IOpt=1 It=  1 EMax= 1.67D-15
 Solved reduced A of dimension   200 with    36 vectors.
 End of Minotr F.D. properties file   721 does not exist.
 End of Minotr F.D. properties file   722 does not exist.
 End of Minotr F.D. properties file   788 does not exist.
 Leave Link 1002 at Thu Apr 14 11:26:41 2016, MaxMem=    33554432 cpu:        15.8
 (Enter /usr/local/gau/g09/l601.exe)
 Copying SCF densities to generalized density rwf, IOpCl= 0 IROHF=0.

 **********************************************************************

            Population analysis using the SCF density.

 **********************************************************************

 Orbital symmetries:
       Occupied  (A) (A) (A) (A) (A) (A) (A) (A) (A) (A) (A) (A)
                 (A) (A) (A) (A) (A) (A) (A) (A) (A) (A) (A) (A)
       Virtual   (A) (A) (A) (A) (A) (A) (A) (A) (A) (A) (A) (A)
                 (A) (A) (A) (A) (A) (A) (A) (A) (A) (A) (A) (A)
                 (A) (A) (A) (A) (A) (A) (A) (A) (A) (A) (A) (A)
                 (A) (A) (A) (A) (A) (A) (A) (A)
 The electronic state is 1-A.
 Alpha  occ. eigenvalues --  -19.16558 -19.15078 -14.36883 -10.29825 -10.24816
 Alpha  occ. eigenvalues --  -10.19375  -1.06194  -1.00044  -0.95026  -0.76329
 Alpha  occ. eigenvalues --   -0.70244  -0.60251  -0.59130  -0.51447  -0.46557
 Alpha  occ. eigenvalues --   -0.44533  -0.42454  -0.40367  -0.39234  -0.34909
 Alpha  occ. eigenvalues --   -0.32324  -0.30947  -0.29053  -0.16823
 Alpha virt. eigenvalues --   -0.01616   0.02503   0.06470   0.09453   0.10330
 Alpha virt. eigenvalues --    0.14235   0.16214   0.17162   0.19513   0.21355
 Alpha virt. eigenvalues --    0.25557   0.33861   0.39006   0.52931   0.54923
 Alpha virt. eigenvalues --    0.55322   0.59085   0.62395   0.65292   0.66064
 Alpha virt. eigenvalues --    0.71288   0.74608   0.76333   0.80198   0.83567
 Alpha virt. eigenvalues --    0.85474   0.86946   0.90698   0.91384   0.93709
 Alpha virt. eigenvalues --    0.95445   0.97488   1.00309   1.01826   1.06298
 Alpha virt. eigenvalues --    1.06839   1.14562   1.22662   1.24530   1.39527
 Alpha virt. eigenvalues --    1.42032   1.52185   1.82521   1.96172
          Condensed to atoms (all electrons):
               1          2          3          4          5          6
     1  N    7.272975   0.328071   0.154557  -0.000022  -0.064047  -0.108325
     2  H    0.328071   0.345691  -0.018605   0.000003  -0.004467   0.004365
     3  C    0.154557  -0.018605   5.514944   0.001394   0.338284   0.434514
     4  H   -0.000022   0.000003   0.001394   0.422265   0.000151  -0.039687
     5  C   -0.064047  -0.004467   0.338284   0.000151   5.077870   0.003050
     6  C   -0.108325   0.004365   0.434514  -0.039687   0.003050   4.986936
     7  H    0.002504   0.000830  -0.049640  -0.000060   0.368686  -0.001317
     8  H    0.003694  -0.000015  -0.030486  -0.000298   0.373667  -0.002294
     9  H    0.000694   0.002430  -0.050418   0.000124   0.368370  -0.000287
    10  O   -0.012725   0.000160  -0.131632   0.003450   0.002052   0.187623
    11  H    0.301219  -0.014830  -0.035132   0.000000   0.004388  -0.006015
    12  O    0.001296   0.000002  -0.083482   0.235684  -0.004875   0.208422
    13  H   -0.020589   0.002875  -0.209656  -0.000831   0.003099  -0.015157
               7          8          9         10         11         12
     1  N    0.002504   0.003694   0.000694  -0.012725   0.301219   0.001296
     2  H    0.000830  -0.000015   0.002430   0.000160  -0.014830   0.000002
     3  C   -0.049640  -0.030486  -0.050418  -0.131632  -0.035132  -0.083482
     4  H   -0.000060  -0.000298   0.000124   0.003450   0.000000   0.235684
     5  C    0.368686   0.373667   0.368370   0.002052   0.004388  -0.004875
     6  C   -0.001317  -0.002294  -0.000287   0.187623  -0.006015   0.208422
     7  H    0.597152  -0.023517  -0.046834  -0.000021  -0.000118   0.000091
     8  H   -0.023517   0.509107  -0.023656   0.000130  -0.000181   0.008362
     9  H   -0.046834  -0.023656   0.604109  -0.000010  -0.000004   0.000303
    10  O   -0.000021   0.000130  -0.000010   8.361214   0.002378  -0.080079
    11  H   -0.000118  -0.000181  -0.000004   0.002378   0.373636   0.000049
    12  O    0.000091   0.008362   0.000303  -0.080079   0.000049   8.295428
    13  H   -0.000297  -0.000192  -0.000388   0.184863   0.013399   0.019079
              13
     1  N   -0.020589
     2  H    0.002875
     3  C   -0.209656
     4  H   -0.000831
     5  C    0.003099
     6  C   -0.015157
     7  H   -0.000297
     8  H   -0.000192
     9  H   -0.000388
    10  O    0.184863
    11  H    0.013399
    12  O    0.019079
    13  H    0.670424
 Mulliken charges:
               1
     1  N   -0.859301
     2  H    0.353487
     3  C    0.165359
     4  H    0.377828
     5  C   -0.466228
     6  C    0.348170
     7  H    0.152541
     8  H    0.185680
     9  H    0.145567
    10  O   -0.517404
    11  H    0.361210
    12  O   -0.600279
    13  H    0.353370
 Sum of Mulliken charges =   0.00000
 Mulliken charges with hydrogens summed into heavy atoms:
               1
     1  N   -0.144603
     3  C    0.165359
     5  C    0.017560
     6  C    0.701540
    10  O   -0.517404
    12  O   -0.222451
 APT charges:
               1
     1  N   -1.334748
     2  H    0.779602
     3  C    0.189150
     4  H    0.662758
     5  C   -1.234710
     6  C    0.028801
     7  H    0.434889
     8  H    0.367032
     9  H    0.440015
    10  O   -0.341325
    11  H    0.533399
    12  O   -0.732502
    13  H    0.207641
 Sum of APT charges =   0.00000
 APT charges with hydrogens summed into heavy atoms:
               1
     1  N   -0.021747
     3  C    0.189150
     5  C    0.007225
     6  C    0.236442
    10  O   -0.341325
    12  O   -0.069744
 Electronic spatial extent (au):  <R**2>=            633.9217
 Charge=              0.0000 electrons
 Dipole moment (field-independent basis, Debye):
    X=              3.8290    Y=              0.0025    Z=              1.7636  Tot=              4.2156
 Quadrupole moment (field-independent basis, Debye-Ang):
   XX=            -33.0345   YY=            -35.0640   ZZ=            -38.3467
   XY=             -6.2433   XZ=             -2.9369   YZ=              2.0650
 Traceless Quadrupole moment (field-independent basis, Debye-Ang):
   XX=              2.4473   YY=              0.4177   ZZ=             -2.8650
   XY=             -6.2433   XZ=             -2.9369   YZ=              2.0650
 Octapole moment (field-independent basis, Debye-Ang**2):
  XXX=              6.6168  YYY=             -7.4898  ZZZ=              1.4077  XYY=              8.5188
  XXY=              5.0283  XXZ=              9.4828  XZZ=             -5.0019  YZZ=              2.1468
  YYZ=              3.7052  XYZ=             -6.0010
 Hexadecapole moment (field-independent basis, Debye-Ang**3):
 XXXX=           -382.0916 YYYY=           -266.8988 ZZZZ=            -44.3076 XXXY=            -47.0400
 XXXZ=            -14.9722 YYYX=            -26.2195 YYYZ=              2.9226 ZZZX=             -2.2521
 ZZZY=              0.8548 XXYY=           -117.9765 XXZZ=            -79.1816 YYZZ=            -57.1903
 XXYZ=              8.2398 YYXZ=             -4.8276 ZZXY=             -2.3928
 N-N= 2.419846070299D+02 E-N=-1.240975628077D+03  KE= 3.214859566472D+02
  Exact polarizability:   0.000   0.000   0.000   0.000   0.000   0.000
 Approx polarizability: 142.758   3.285  69.004  -4.470  -0.492  32.988
 No NMR shielding tensors so no spin-rotation constants.
 Leave Link  601 at Thu Apr 14 11:26:41 2016, MaxMem=    33554432 cpu:         0.1
 (Enter /usr/local/gau/g09/l701.exe)
 Compute integral second derivatives.
 ... and contract with generalized density number  0.
 Leave Link  701 at Thu Apr 14 11:26:41 2016, MaxMem=    33554432 cpu:         0.1
 (Enter /usr/local/gau/g09/l702.exe)
 L702 exits ... SP integral derivatives will be done elsewhere.
 Leave Link  702 at Thu Apr 14 11:26:41 2016, MaxMem=    33554432 cpu:         0.0
 (Enter /usr/local/gau/g09/l703.exe)
 Compute integral second derivatives, UseDBF=F ICtDFT=           0.
 Integral derivatives from FoFJK, PRISM(SPDF).
 Calling FoFJK, ICntrl=    100147 FMM=F ISym2X=0 I1Cent= 0 IOpClX= 0 NMat=1 NMatS=1 NMatT=0.
 FoFJK:  IHMeth= 1 ICntrl=  100147 DoSepK=F KAlg= 0 I1Cent=   0 FoldK=F
 IRaf=         0 NMat=   1 IRICut=       1 DoRegI=T DoRafI=F ISym2E= 0.
 FoFCou: FMM=F IPFlag=           0 FMFlag=      100000 FMFlg1=         800
         NFxFlg=           0 DoJE=F BraDBF=F KetDBF=F FulRan=T
         wScrn=  0.000000 ICntrl=  100147 IOpCl=  0 I1Cent=           0 NGrid=           0
         NMat0=    1 NMatS0=      1 NMatT0=    0 NMatD0=    1 NMtDS0=    0 NMtDT0=    0
 Symmetry not used in FoFCou.
 Leave Link  703 at Thu Apr 14 11:27:49 2016, MaxMem=    33554432 cpu:        25.3
 (Enter /usr/local/gau/g09/l716.exe)
 Dipole        = 1.50644180D+00 9.74948744D-04 6.93869475D-01
 Polarizability= 0.00000000D+00 0.00000000D+00 0.00000000D+00
                 0.00000000D+00 0.00000000D+00 0.00000000D+00
 ***** Axes restored to original set *****
 -------------------------------------------------------------------
 Center     Atomic                   Forces (Hartrees/Bohr)
 Number     Number              X              Y              Z
 -------------------------------------------------------------------
      1        7           0.015091519    0.020113454   -0.001173622
      2        1           0.000949812    0.001287225    0.001307608
      3        6          -0.076524081   -0.076012714   -0.009738930
      4        1          -0.000529566    0.002595463    0.000288637
      5        6          -0.003331178    0.002267066    0.005072322
      6        6           0.053281307   -0.020337275   -0.008496146
      7        1           0.000894089   -0.001222208    0.001004528
      8        1          -0.001012172    0.000553884    0.000017498
      9        1          -0.000452083    0.000626411   -0.001252613
     10        8           0.082242386    0.002829724    0.011659675
     11        1           0.013889162    0.022519897   -0.006727400
     12        8           0.018858219    0.002120853    0.000739732
     13        1          -0.103357414    0.042658218    0.007298708
 -------------------------------------------------------------------
 Cartesian Forces:  Max     0.103357414 RMS     0.030515537
 Force constants in Cartesian coordinates: 
                1             2             3             4             5 
      1  0.869092D+00
      2 -0.977136D-02  0.709569D+00
      3 -0.138630D-01 -0.408547D-01  0.668537D-03
      4 -0.475194D+00 -0.267510D-01  0.315543D-01  0.489253D+00
      5 -0.245236D-01 -0.627812D-01  0.533699D-02  0.323786D-01  0.657107D-01
      6  0.484770D-01  0.478969D-02  0.282109D-02 -0.358406D-01 -0.518466D-02
      7 -0.173381D+00 -0.775438D-01 -0.240544D-02 -0.862687D-02 -0.404169D-01
      8 -0.137071D+00 -0.299040D+00  0.639140D-02 -0.839767D-03 -0.420778D-03
      9 -0.635255D-02 -0.848173D-02 -0.863825D-02  0.169095D-02  0.256147D-02
     10 -0.114459D-02  0.237425D-02  0.280519D-02 -0.237563D-03 -0.449866D-03
     11  0.154244D-03 -0.587088D-03  0.134149D-02  0.289458D-03 -0.203505D-03
     12  0.178459D-02 -0.247896D-02 -0.151294D-03  0.441469D-03  0.268114D-03
     13  0.112164D-01 -0.211897D-01  0.621676D-03  0.219109D-02 -0.354775D-03
     14  0.252340D-01 -0.365134D-01 -0.138590D-04  0.151200D-02  0.216605D-02
     15 -0.227855D-02 -0.120564D-02  0.161494D-02 -0.393388D-03  0.422119D-03
     16 -0.232734D-01  0.157182D-01  0.355616D-02  0.215392D-03  0.171015D-02
     17 -0.389884D-01 -0.156015D-01 -0.437174D-03  0.464117D-02 -0.729818D-02
     18  0.531650D-03  0.238813D-02 -0.967765D-02  0.537700D-03  0.622001D-03
     19  0.222049D-02 -0.796267D-03  0.178547D-02  0.298655D-03  0.232789D-03
     20 -0.105569D-02  0.266439D-02 -0.160415D-02 -0.402344D-03 -0.628239D-03
     21  0.108357D-02  0.673359D-03  0.000000D+00 -0.315628D-03  0.810031D-03
     22 -0.359488D-02  0.439099D-02 -0.194509D-03 -0.401677D-03  0.246114D-03
     23  0.480190D-02 -0.342865D-02  0.183716D-03  0.551218D-03  0.459466D-03
     24  0.155551D-03 -0.109145D-03  0.139203D-02 -0.839067D-04 -0.188739D-04
     25  0.272172D-02 -0.724358D-03 -0.169790D-02  0.332194D-03  0.338605D-03
     26 -0.133213D-02  0.258567D-02  0.146820D-02 -0.795823D-03 -0.554952D-03
     27 -0.100747D-02 -0.662911D-03  0.276465D-03  0.425277D-03 -0.100229D-02
     28  0.665823D-02 -0.802526D-02 -0.121352D-02  0.193660D-02  0.129910D-02
     29 -0.637591D-02  0.224234D-01  0.292135D-02 -0.199950D-02  0.208029D-02
     30  0.135217D-02 -0.108275D-02 -0.745729D-03  0.131647D-03 -0.352590D-04
     31 -0.185576D+00  0.164581D+00 -0.186202D-01 -0.839593D-02  0.318996D-01
     32  0.181416D+00 -0.338426D+00  0.332144D-01 -0.707917D-02  0.778207D-02
     33 -0.330803D-01  0.465988D-01 -0.748610D-02  0.316491D-02 -0.289686D-02
     34 -0.510478D-02 -0.561541D-02 -0.368192D-02  0.123995D-02 -0.148922D-02
     35 -0.627251D-02 -0.574106D-02 -0.271528D-02  0.788605D-04  0.934025D-04
     36 -0.293549D-02  0.424492D-02  0.105946D-01 -0.468254D-03 -0.785845D-03
     37 -0.246410D-01 -0.366476D-01  0.135370D-02 -0.261097D-02 -0.870564D-03
     38  0.137843D-01  0.248762D-01 -0.523240D-02 -0.158368D-02 -0.640513D-02
     39  0.613289D-02 -0.381913D-02  0.933157D-02 -0.844525D-03 -0.969404D-04
                6             7             8             9            10 
      6 -0.643907D-02
      7 -0.239682D-02  0.503290D+00
      8  0.313809D-03 -0.243518D-01  0.653224D+00
      9  0.151457D-02  0.724796D-02  0.411837D-02  0.821345D-01
     10  0.922809D-03 -0.199559D-03 -0.475522D-02 -0.387490D-02  0.152989D+00
     11  0.856138D-03  0.242953D-02 -0.130256D-02 -0.200121D-02  0.629726D-01
     12  0.238410D-03  0.393543D-02  0.496773D-02 -0.935518D-03  0.199607D+00
     13  0.251935D-03 -0.126828D+00  0.695994D-01 -0.615649D-03 -0.469323D-03
     14  0.221398D-04  0.502973D-01 -0.161228D+00  0.173397D-02 -0.162707D-03
     15  0.587290D-02 -0.118548D-02 -0.134547D-02 -0.569544D-01 -0.107224D-02
     16 -0.259387D-03 -0.168402D+00 -0.170620D-01 -0.511760D-02 -0.186277D-01
     17  0.200636D-02 -0.867292D-02 -0.111622D+00  0.270035D-02 -0.101568D-01
     18 -0.100155D-01 -0.935493D-02  0.792012D-04 -0.349340D-01 -0.133033D-01
     19 -0.319682D-03 -0.206396D-01  0.515447D-02 -0.150364D-01  0.548608D-04
     20  0.337143D-03  0.233617D-01 -0.501789D-02  0.214872D-01 -0.376343D-04
     21 -0.100438D-02 -0.115908D-02  0.287877D-03  0.556167D-02  0.235201D-03
     22 -0.108515D-03  0.110261D-01  0.196421D-01  0.291345D-04 -0.102995D-03
     23  0.509548D-04 -0.150018D-01 -0.225760D-01 -0.889180D-04  0.934777D-04
     24 -0.864581D-03  0.666034D-04 -0.119729D-03 -0.219857D-02 -0.408240D-03
     25  0.239278D-03 -0.196155D-01  0.481903D-02  0.144732D-01  0.154130D-03
     26  0.103667D-03  0.219943D-01 -0.539622D-02 -0.209434D-01  0.666572D-04
     27 -0.767503D-03  0.785097D-03 -0.835169D-04  0.527731D-02 -0.468563D-04
     28 -0.213629D-02 -0.142454D-01  0.481995D-01 -0.333844D-02  0.107095D-02
     29 -0.549317D-03 -0.431267D-02 -0.266701D-01  0.868083D-03  0.163506D-02
     30 -0.758965D-04  0.319459D-02  0.186529D-02 -0.480554D-02 -0.474007D-03
     31 -0.639159D-02  0.180287D-01 -0.151362D-01  0.162911D-02  0.163896D-03
     32  0.438123D-03  0.205224D-01 -0.209211D-01  0.268438D-02  0.567989D-04
     33  0.778896D-02  0.910677D-03 -0.635317D-02 -0.669484D-02 -0.921102D-03
     34 -0.625554D-03 -0.921395D-02 -0.236522D-01  0.529071D-02 -0.134289D+00
     35 -0.735356D-03 -0.296000D-02 -0.124542D-02  0.393347D-02 -0.530353D-01
     36  0.439877D-02 -0.324300D-02 -0.628223D-02 -0.677102D-02 -0.182730D+00
     37 -0.181261D-02  0.880823D-02  0.754540D-01  0.397447D-02  0.637810D-03
     38 -0.244869D-02  0.546548D-01  0.221543D-02 -0.857194D-02  0.139870D-02
     39 -0.346781D-02  0.360439D-02 -0.383955D-02  0.274440D-01 -0.738907D-03
               11            12            13            14            15 
     11  0.493780D-01
     12  0.511442D-01  0.303647D+00
     13  0.337031D-03  0.189854D-03  0.532366D+00
     14  0.260105D-03  0.610359D-04  0.662165D-01  0.540175D+00
     15 -0.986798D-03 -0.233668D-03  0.746902D-03 -0.181097D-02  0.528457D+00
     16 -0.352582D-01  0.491468D-02 -0.217222D-01  0.111397D-01  0.255009D-02
     17 -0.198877D-01  0.887773D-02  0.238865D-01  0.803659D-02 -0.370763D-02
     18 -0.269541D-01  0.682175D-02 -0.623521D-03 -0.137215D-03  0.453293D-02
     19  0.244902D-04 -0.100658D-03 -0.129621D+00 -0.473098D-02 -0.118848D+00
     20  0.735138D-04 -0.114701D-03 -0.368627D-02 -0.483930D-01 -0.767509D-03
     21  0.669167D-04 -0.117577D-03 -0.118065D+00 -0.346892D-02 -0.216769D+00
     22 -0.212301D-03 -0.794003D-04 -0.129925D+00 -0.130637D+00 -0.473688D-03
     23  0.251410D-03 -0.427901D-04 -0.124114D+00 -0.245729D+00 -0.996673D-03
     24  0.285463D-03  0.969084D-04 -0.225893D-03 -0.634998D-03 -0.484115D-01
     25  0.144839D-03  0.823573D-04 -0.131196D+00 -0.638449D-02  0.119481D+00
     26 -0.190202D-03  0.134734D-03 -0.485747D-02 -0.485062D-01  0.218504D-02
     27  0.215848D-04  0.747042D-04  0.118179D+00  0.574737D-02 -0.213172D+00
     28  0.573605D-02  0.795709D-03 -0.107427D-03 -0.772240D-02  0.190302D-02
     29 -0.433387D-03 -0.724395D-03 -0.197530D-02  0.361191D-02  0.193247D-02
     30  0.243055D-02 -0.136816D-02  0.460661D-03 -0.429620D-03  0.118107D-01
     31 -0.161955D-03 -0.431791D-03 -0.274220D-02 -0.113437D-02  0.417173D-03
     32 -0.493424D-03 -0.333734D-03 -0.516828D-02 -0.274351D-02  0.563670D-03
     33 -0.425107D-03  0.165856D-03 -0.665222D-03 -0.422370D-03 -0.111643D-02
     34 -0.342686D-01 -0.209490D+00  0.187913D-02 -0.100950D-02  0.972154D-03
     35 -0.310519D-01 -0.607316D-01  0.158462D-02 -0.362953D-02  0.752268D-03
     36 -0.246110D-01 -0.308383D+00 -0.557378D-03 -0.968233D-04 -0.477504D-02
     37 -0.218725D-02 -0.164844D-02 -0.504032D-02 -0.261777D-02 -0.181905D-02
     38  0.418667D-02 -0.102742D-02 -0.277902D-03 -0.750673D-02  0.496512D-02
     39 -0.116814D-02  0.144946D-03  0.302714D-03 -0.549737D-03 -0.108564D-01
               16            17            18            19            20 
     16  0.439262D+00
     17  0.734735D-01  0.525254D+00
     18  0.305088D-01  0.378559D-02  0.810105D-01
     19  0.355836D-02  0.211949D-02 -0.162408D-02  0.146349D+00
     20 -0.253478D-02 -0.247092D-02  0.651727D-03 -0.240652D-02  0.513183D-01
     21  0.238661D-02 -0.301408D-03 -0.848323D-03  0.132499D+00  0.203637D-02
     22  0.693884D-03  0.132561D-02  0.313520D-03 -0.996332D-02 -0.160648D-01
     23 -0.160345D-02 -0.158958D-02  0.720745D-04  0.816525D-03  0.864981D-03
     24 -0.194407D-04  0.148609D-03  0.306474D-03 -0.154592D-01 -0.245355D-01
     25  0.240761D-02  0.269835D-02  0.172101D-02  0.111669D-01  0.325933D-03
     26 -0.110958D-02 -0.398538D-02 -0.528244D-03 -0.227068D-03  0.591606D-03
     27 -0.222049D-02  0.923238D-03 -0.949275D-03  0.171800D-01  0.190448D-02
     28 -0.135348D+00  0.146907D+00 -0.122222D-01 -0.184397D-02  0.139937D-02
     29  0.730914D-01 -0.171049D+00  0.105941D-01  0.174430D-02 -0.122836D-02
     30 -0.530579D-02  0.215997D-01 -0.308326D-01  0.179700D-02 -0.211242D-02
     31  0.386859D-02 -0.505717D-03 -0.609278D-03 -0.742292D-04 -0.173344D-03
     32  0.606333D-02 -0.491789D-02  0.594071D-03 -0.124665D-03  0.297748D-03
     33 -0.290990D-02 -0.169313D-03  0.657956D-02 -0.762758D-04 -0.998272D-04
     34 -0.119236D+00 -0.929550D-01  0.172445D-02 -0.630563D-03  0.259892D-03
     35 -0.605164D-01 -0.188254D+00  0.261871D-01 -0.820973D-03  0.110949D-02
     36 -0.227149D-01 -0.128708D-01 -0.450972D-01 -0.127247D-03  0.620368D-03
     37  0.366042D-01 -0.103773D+00  0.240015D-02 -0.875862D-03  0.101447D-02
     38 -0.631119D-01 -0.661411D-02 -0.173544D-01 -0.985582D-03  0.818359D-03
     39 -0.536884D-02 -0.225552D-01  0.331032D-01 -0.166979D-02  0.219687D-02
               21            22            23            24            25 
     21  0.236644D+00
     22  0.129785D-02  0.140255D+00
     23  0.752261D-03  0.136456D+00  0.269568D+00
     24  0.237746D-03  0.811212D-03  0.963536D-03  0.489117D-01
     25 -0.166217D-01 -0.967012D-02  0.818511D-03  0.151984D-01  0.147389D+00
     26 -0.124054D-02 -0.154312D-01  0.791456D-03  0.243421D-01 -0.229331D-03
     27 -0.245689D-01 -0.153344D-02 -0.775853D-03  0.493844D-03 -0.132780D+00
     28 -0.271362D-03  0.172936D-03  0.207602D-03  0.535649D-05 -0.201916D-02
     29  0.833759D-03 -0.295270D-03  0.205668D-03  0.285503D-05  0.135053D-02
     30 -0.258156D-03 -0.295743D-04  0.256007D-04 -0.163759D-03 -0.189907D-02
     31  0.952000D-04  0.873345D-03 -0.795911D-03 -0.504570D-04 -0.594844D-04
     32  0.881049D-04  0.140391D-02 -0.931464D-03  0.913257D-05 -0.149925D-03
     33  0.176502D-03  0.104338D-03 -0.226546D-03  0.800905D-03  0.233049D-03
     34 -0.436265D-03 -0.603476D-03 -0.828021D-03  0.955673D-04 -0.927783D-03
     35 -0.386891D-03 -0.102056D-02  0.217714D-02 -0.303560D-03 -0.658130D-03
     36  0.423772D-03 -0.159293D-03  0.477989D-04 -0.589975D-03  0.411187D-03
     37 -0.728920D-03  0.124037D-02 -0.140199D-02 -0.855062D-04 -0.683053D-03
     38 -0.150922D-03  0.196445D-03 -0.633135D-04 -0.299052D-04 -0.234957D-02
     39  0.523059D-03  0.223615D-04  0.348384D-04 -0.112333D-04  0.115876D-02
               26            27            28            29            30 
     26  0.509051D-01
     27 -0.490548D-02  0.233028D+00
     28  0.226293D-02 -0.742000D-04  0.118958D+00
     29 -0.384247D-03 -0.111043D-02 -0.120183D+00  0.238943D+00
     30  0.231116D-02 -0.241791D-03 -0.503117D-02 -0.148494D-01  0.424120D-01
     31  0.214763D-04 -0.180792D-03 -0.521271D-02  0.327905D-02 -0.113288D-02
     32  0.348366D-03 -0.776967D-04  0.262656D-02  0.602010D-02  0.191835D-03
     33 -0.617773D-04  0.000000D+00  0.261280D-02 -0.217775D-02 -0.212836D-02
     34 -0.500370D-03  0.245362D-03  0.192231D-01  0.123835D-01  0.167326D-02
     35  0.127549D-02  0.140684D-03 -0.214089D-01 -0.445201D-01  0.322377D-02
     36 -0.649259D-03  0.101848D-03  0.744323D-02  0.317249D-02  0.911537D-02
     37  0.137659D-03  0.102885D-02  0.107574D-01  0.416576D-01  0.526316D-02
     38  0.251951D-02 -0.119185D-03 -0.512990D-01 -0.289997D-01 -0.131384D-01
     39 -0.221617D-02  0.447655D-03  0.115271D-01 -0.913799D-03 -0.227180D-01
               31            32            33            34            35 
     31  0.186349D+00
     32 -0.171756D+00  0.369573D+00
     33  0.199856D-01 -0.433106D-01 -0.135477D-01
     34 -0.490185D-03 -0.396161D-03  0.142560D-02  0.255064D+00
     35  0.146809D-03  0.212348D-02  0.923675D-03  0.140494D+00  0.279378D+00
     36  0.814821D-03 -0.532878D-04 -0.303300D-02  0.203465D+00  0.279419D-01
     37 -0.673272D-02 -0.274150D-01  0.921580D-02 -0.691036D-02  0.438802D-02
     38 -0.102646D-01 -0.177110D-01  0.862085D-02  0.757661D-02 -0.117144D-01
     39  0.447502D-02  0.599166D-02  0.184948D-01 -0.657639D-03  0.176979D-02
               36            37            38            39 
     36  0.349993D+00
     37  0.801944D-03 -0.105537D-01
     38  0.932176D-02  0.522613D-01  0.443982D-01
     39 -0.597862D-02 -0.179435D-01  0.251655D-01 -0.464572D-01
 FormGI is forming the generalized inverse of G from B-inverse, IUseBI=4.
 Leave Link  716 at Thu Apr 14 11:27:49 2016, MaxMem=    33554432 cpu:         0.0
 (Enter /usr/local/gau/g09/l103.exe)

 GradGradGradGradGradGradGradGradGradGradGradGradGradGradGradGradGradGrad
 Berny optimization.
 Red2BG is reusing G-inverse.
 Internal  Forces:  Max     0.071779564 RMS     0.014686637
 Search for a saddle point.
 Step number   1 out of a maximum of   83
 All quantities printed in internal units (Hartrees-Bohrs-Radians)
 Swapping is turned off.
 Second derivative matrix not updated -- analytic derivatives used.
 ITU=  0
     Eigenvalues ---   -0.04375  -0.01203  -0.00229   0.00009   0.00120
     Eigenvalues ---    0.00344   0.00680   0.01040   0.01486   0.01773
     Eigenvalues ---    0.03446   0.03971   0.04087   0.05119   0.10302
     Eigenvalues ---    0.11187   0.11659   0.12726   0.13402   0.15590
     Eigenvalues ---    0.15759   0.16531   0.19264   0.24059   0.31910
     Eigenvalues ---    0.32765   0.33948   0.34649   0.35742   0.36410
     Eigenvalues ---    0.41337   0.45953   0.49484
 Eigenvectors required to have negative eigenvalues:
                          R14       R6        D31       A24       A21
   1                    0.60168  -0.36829  -0.28358  -0.26822   0.24834
                          R13       A14       A22       D4        R5
   1                   -0.21856   0.16931  -0.15891   0.13009   0.12634
 Eigenvalue     2 is  -1.20D-02 should be greater than     0.000000 Eigenvector:
                          D2        D1        D32       D5        D4
   1                    0.39490   0.39325   0.26810   0.25822   0.25657
                          D3        D7        D25       A26       D28
   1                    0.25487  -0.24593  -0.21814   0.21016   0.18016
 Eigenvalue     3 is  -2.29D-03 should be greater than     0.000000 Eigenvector:
                          D3        D7        D32       D2        D25
   1                   -0.42170   0.41752   0.32275  -0.28585  -0.28149
                          D1        D4        A25       A26       D29
   1                   -0.23392   0.20297   0.18778   0.17805   0.17377
 RFO step:  Lambda0=5.671885357D-02 Lambda=-5.37275074D-02.
 Linear search not attempted -- option 19 set.
 Maximum step size (   0.300) exceeded in Quadratic search.
    -- Step size scaled by   0.372
 Iteration  1 RMS(Cart)=  0.04787456 RMS(Int)=  0.00339331
 Iteration  2 RMS(Cart)=  0.00319345 RMS(Int)=  0.00160240
 Iteration  3 RMS(Cart)=  0.00001678 RMS(Int)=  0.00160231
 Iteration  4 RMS(Cart)=  0.00000007 RMS(Int)=  0.00160231
 ITry= 1 IFail=0 DXMaxC= 1.65D-01 DCOld= 1.00D+10 DXMaxT= 3.00D-01 DXLimC= 3.00D+00 Rises=F
 Variable       Old X    -DE/DX   Delta X   Delta X   Delta X     New X
                                 (Linear)    (Quad)   (Total)
    R1        1.89636   0.00094   0.00000   0.00047   0.00047   1.89683
    R2        2.63279   0.04131   0.00000   0.04345   0.04303   2.67582
    R3        1.89992   0.01765   0.00000   0.00922   0.01021   1.91013
    R4        2.84087  -0.00413   0.00000  -0.00286  -0.00287   2.83799
    R5        2.83459  -0.06746   0.00000  -0.06061  -0.06110   2.77349
    R6        2.72753   0.02269   0.00000  -0.09108  -0.09226   2.63527
    R7        1.85600  -0.00037   0.00000  -0.00056  -0.00056   1.85544
    R8        2.07561   0.00134   0.00000  -0.00036  -0.00036   2.07526
    R9        2.06050   0.00007   0.00000  -0.00105  -0.00105   2.05945
   R10        2.07718   0.00074   0.00000   0.00085   0.00085   2.07802
   R11        2.66481   0.00000   0.00000  -0.01924  -0.01969   2.64513
   R12        2.64885  -0.01317   0.00000   0.00048   0.00029   2.64914
   R13        2.64562   0.00525   0.00000  -0.09350  -0.09207   2.55355
   R14        2.72154  -0.07178   0.00000   0.04917   0.04922   2.77076
   R15        2.53897   0.01612   0.00000   0.12007   0.12069   2.65966
    A1        2.10258  -0.00015   0.00000  -0.01069  -0.01093   2.09165
    A2        2.07788  -0.00205   0.00000   0.00435   0.00461   2.08249
    A3        2.08053   0.00162   0.00000   0.01319   0.01274   2.09327
    A4        2.03345   0.00574   0.00000  -0.00283  -0.00171   2.03174
    A5        2.10966   0.00120   0.00000   0.00533   0.00233   2.11199
    A6        1.12162  -0.01054   0.00000   0.02043   0.02027   1.14189
    A7        2.14004  -0.00694   0.00000  -0.00271  -0.00115   2.13889
    A8        1.93153   0.00242   0.00000   0.01089   0.01100   1.94253
    A9        1.93081  -0.00190   0.00000  -0.00572  -0.00599   1.92482
   A10        1.93804  -0.00163   0.00000  -0.01486  -0.01472   1.92332
   A11        1.88943  -0.00018   0.00000   0.00518   0.00485   1.89428
   A12        1.87473   0.00057   0.00000   0.00352   0.00380   1.87853
   A13        1.89759   0.00081   0.00000   0.00161   0.00155   1.89914
   A14        2.10339  -0.00812   0.00000   0.03039   0.02819   2.13158
   A15        2.16418  -0.01547   0.00000  -0.05772  -0.05556   2.10863
   A16        2.01544   0.02351   0.00000   0.02613   0.02414   2.03958
   A17        1.37030  -0.00674   0.00000  -0.04685  -0.04636   1.32394
   A18        1.93088  -0.00401   0.00000  -0.01528  -0.01550   1.91538
   A19        2.13676  -0.02074   0.00000   0.00648   0.00324   2.14000
   A20        1.68200   0.01399   0.00000   0.02535   0.02414   1.70614
   A21        2.73950  -0.02215   0.00000   0.00891   0.00159   2.74110
   A22        2.37266   0.00264   0.00000  -0.08159  -0.08302   2.28964
   A23        3.15507  -0.00479   0.00000   0.01760   0.01856   3.17363
   A24        3.20438   0.00848   0.00000  -0.06819  -0.07001   3.13437
   A25        3.22623   0.00321   0.00000   0.11076   0.11058   3.33681
   A26        3.30510   0.00096   0.00000   0.12434   0.12453   3.42962
    D1        0.10954   0.00065   0.00000   0.11132   0.11185   0.22139
    D2       -3.04060   0.00170   0.00000   0.08437   0.08540  -2.95520
    D3       -3.11669  -0.00256   0.00000   0.00056   0.00126  -3.11543
    D4        3.02427  -0.00251   0.00000   0.14646   0.14753  -3.11139
    D5       -0.12587  -0.00145   0.00000   0.11950   0.12108  -0.00479
    D6       -0.20196  -0.00572   0.00000   0.03570   0.03695  -0.16502
    D7        3.11736   0.00242   0.00000  -0.01498  -0.01271   3.10466
    D8        0.19940   0.00529   0.00000  -0.04762  -0.04615   0.15325
    D9        1.03078  -0.00081   0.00000   0.00356   0.00474   1.03553
   D10        3.12490  -0.00069   0.00000   0.01342   0.01408   3.13898
   D11       -1.04963  -0.00204   0.00000   0.00168   0.00246  -1.04717
   D12       -2.10210  -0.00193   0.00000   0.03099   0.03162  -2.07048
   D13       -0.00799  -0.00181   0.00000   0.04085   0.04095   0.03297
   D14        2.10067  -0.00316   0.00000   0.02911   0.02933   2.13001
   D15       -2.29032  -0.00112   0.00000  -0.05224  -0.05282  -2.34314
   D16        1.20459   0.00432   0.00000   0.02565   0.02387   1.22846
   D17       -0.21877  -0.00108   0.00000  -0.07074  -0.07042  -0.28919
   D18       -3.00705   0.00436   0.00000   0.00715   0.00627  -3.00077
   D19        1.90924  -0.00085   0.00000  -0.05712  -0.05687   1.85237
   D20       -0.87903   0.00459   0.00000   0.02077   0.01983  -0.85921
   D21        0.09061  -0.00917   0.00000  -0.02279  -0.02142   0.06919
   D22       -3.03040  -0.00453   0.00000   0.05055   0.04923  -2.98117
   D23       -3.06006  -0.00798   0.00000  -0.05142  -0.04952  -3.10959
   D24        0.10211  -0.00334   0.00000   0.02191   0.02112   0.12324
   D25        2.89105  -0.00119   0.00000  -0.14819  -0.14913   2.74192
   D26        0.13222   0.00419   0.00000  -0.02943  -0.02886   0.10336
   D27       -2.06781  -0.00147   0.00000  -0.05545  -0.05255  -2.12035
   D28        1.09343   0.00327   0.00000   0.01442   0.01440   1.10783
   D29       -1.57280  -0.00476   0.00000   0.02757   0.02483  -1.54796
   D30       -0.16873  -0.00583   0.00000   0.03242   0.03276  -0.13598
   D31       -0.66717   0.01215   0.00000  -0.12813  -0.13084  -0.79801
   D32       -2.83980   0.00907   0.00000   0.13746   0.13218  -2.70762
         Item               Value     Threshold  Converged?
 Maximum Force            0.071780     0.000450     NO 
 RMS     Force            0.014687     0.000300     NO 
 Maximum Displacement     0.164601     0.001800     NO 
 RMS     Displacement     0.047323     0.001200     NO 
 Predicted change in Energy=-2.499969D-03
 Lowest energy point so far.  Saving SCF results.
 GradGradGradGradGradGradGradGradGradGradGradGradGradGradGradGradGradGrad

 Leave Link  103 at Thu Apr 14 11:27:49 2016, MaxMem=    33554432 cpu:         0.0
 (Enter /usr/local/gau/g09/l202.exe)
                          Input orientation:                          
 ---------------------------------------------------------------------
 Center     Atomic      Atomic             Coordinates (Angstroms)
 Number     Number       Type             X           Y           Z
 ---------------------------------------------------------------------
      1          7           0        1.201777    0.876031    0.222010
      2          1           0        2.192892    0.936489    0.075138
      3          6           0        0.559817   -0.385562    0.186186
      4          1           0       -2.100217   -1.915467   -0.462178
      5          6           0        1.454361   -1.591426    0.219139
      6          6           0       -0.904061   -0.488664    0.164429
      7          1           0        2.071353   -1.605687    1.127496
      8          1           0        0.859451   -2.504075    0.190086
      9          1           0        2.134155   -1.583598   -0.645171
     10          8           0       -1.728922    0.640129    0.095844
     11          1           0        0.649866    1.722825    0.228747
     12          8           0       -1.539068   -1.728548    0.321540
     13          1           0       -0.295737    0.694621    0.400511
 ---------------------------------------------------------------------
                    Distance matrix (angstroms):
                    1          2          3          4          5
     1  N    0.000000
     2  H    1.003761   0.000000
     3  C    1.415984   2.104064   0.000000
     4  H    4.377641   5.182003   3.136362   0.000000
     5  C    2.480352   2.637521   1.501800   3.633762   0.000000
     6  C    2.510032   3.410301   1.467666   1.964483   2.604080
     7  H    2.781185   2.754068   2.158591   4.474933   1.098178
     8  H    3.397546   3.691715   2.139602   3.087320   1.089812
     9  H    2.769675   2.621666   2.145923   4.251297   1.099642
    10  O    2.942883   3.933050   2.509687   2.642030   3.889515
    11  H    1.010798   1.738634   2.110738   4.612754   3.410508
    12  O    3.782323   4.592457   2.495446   0.981856   2.998317
    13  H    1.518987   2.521437   1.394526   3.288304   2.884745
                    6          7          8          9         10
     6  C    0.000000
     7  H    3.320893   0.000000
     8  H    2.678155   1.776104   0.000000
     9  H    3.329427   1.773917   1.780394   0.000000
    10  O    1.399740   4.533221   4.073644   4.518564   0.000000
    11  H    2.703610   3.729259   4.232269   3.728173   2.616968
    12  O    1.401867   3.701325   2.524206   3.801066   2.386968
    13  H    1.351280   3.379800   3.407403   3.491147   1.466223
                   11         12         13
    11  H    0.000000
    12  O    4.088033   0.000000
    13  H    1.407434   2.724676   0.000000
 Stoichiometry    C3H7NO2
 Framework group  C1[X(C3H7NO2)]
 Deg. of freedom    33
 Full point group                 C1      NOp   1
 RotChk:  IX=0 Diff= 1.39D-02
 Largest Abelian subgroup         C1      NOp   1
 Largest concise Abelian subgroup C1      NOp   1
                         Standard orientation:                         
 ---------------------------------------------------------------------
 Center     Atomic      Atomic             Coordinates (Angstroms)
 Number     Number       Type             X           Y           Z
 ---------------------------------------------------------------------
      1          7           0        1.432346   -1.201664   -0.031611
      2          1           0        2.422293   -1.175818    0.132317
      3          6           0        0.678540   -0.003999    0.017222
      4          1           0       -2.119224    1.266208    0.646396
      5          6           0        1.460920    1.277887    0.024578
      6          6           0       -0.788825   -0.033512    0.013971
      7          1           0        2.089106    1.366952   -0.871773
      8          1           0        0.785598    2.132482    0.060630
      9          1           0        2.124188    1.312843    0.900972
     10          8           0       -1.509371   -1.233146    0.045041
     11          1           0        0.959374   -2.094345   -0.065235
     12          8           0       -1.530542    1.147274   -0.130359
     13          1           0       -0.072260   -1.151966   -0.234124
 ---------------------------------------------------------------------
 Rotational constants (GHZ):      4.8336422      3.0785689      1.9148519
 Leave Link  202 at Thu Apr 14 11:27:49 2016, MaxMem=    33554432 cpu:         0.0
 (Enter /usr/local/gau/g09/l301.exe)
 Standard basis: 6-31G (6D, 7F)
 Ernie: Thresh=  0.10000D-02 Tol=  0.10000D-05 Strict=F.
 There are    68 symmetry adapted cartesian basis functions of A   symmetry.
 There are    68 symmetry adapted basis functions of A   symmetry.
    68 basis functions,   160 primitive gaussians,    68 cartesian basis functions
    24 alpha electrons       24 beta electrons
       nuclear repulsion energy       243.0927535766 Hartrees.
 IExCor=  402 DFT=T Ex+Corr=B3LYP ExCW=0 ScaHFX=  0.200000
 ScaDFX=  0.800000  0.720000  1.000000  0.810000 ScalE2=  1.000000  1.000000
 IRadAn=      0 IRanWt=     -1 IRanGd=            0 ICorTp=0 IEmpDi=  4
 NAtoms=   13 NActive=   13 NUniq=   13 SFac= 1.00D+00 NAtFMM=   60 NAOKFM=F Big=F
 Integral buffers will be    131072 words long.
 Raffenetti 2 integral format.
 Two-electron integral symmetry is turned on.
 Leave Link  301 at Thu Apr 14 11:27:49 2016, MaxMem=    33554432 cpu:         0.0
 (Enter /usr/local/gau/g09/l302.exe)
 NPDir=0 NMtPBC=     1 NCelOv=     1 NCel=       1 NClECP=     1 NCelD=      1
         NCelK=      1 NCelE2=     1 NClLst=     1 CellRange=     0.0.
 One-electron integrals computed using PRISM.
 NBasis=    68 RedAO= T EigKep=  3.93D-03  NBF=    68
 NBsUse=    68 1.00D-06 EigRej= -1.00D+00 NBFU=    68
 Precomputing XC quadrature grid using
 IXCGrd= 4 IRadAn=           0 IRanWt=          -1 IRanGd=           0 AccXCQ= 0.00D+00.
 Generated NRdTot=       0 NPtTot=           0 NUsed=           0 NTot=          32
 NSgBfM=    68    68    68    68    68 MxSgAt=    13 MxSgA2=    13.
 Leave Link  302 at Thu Apr 14 11:27:50 2016, MaxMem=    33554432 cpu:         0.2
 (Enter /usr/local/gau/g09/l303.exe)
 DipDrv:  MaxL=1.
 Leave Link  303 at Thu Apr 14 11:27:50 2016, MaxMem=    33554432 cpu:         0.0
 (Enter /usr/local/gau/g09/l401.exe)
 Initial guess from the checkpoint file:  "Ala-S-opt-freq-tsa3-6-31g.chk"
 B after Tr=     0.000000    0.000000    0.000000
         Rot=    0.999999   -0.000272    0.000074   -0.001004 Ang=  -0.12 deg.
 Guess basis will be translated and rotated to current coordinates.
 JPrj=2 DoOrth=T DoCkMO=T.
 Generating alternative initial guess.
 ExpMin= 1.61D-01 ExpMax= 5.48D+03 ExpMxC= 8.25D+02 IAcc=1 IRadAn=         1 AccDes= 0.00D+00
 Harris functional with IExCor=  402 and IRadAn=       1 diagonalized for initial guess.
 HarFok:  IExCor=  402 AccDes= 0.00D+00 IRadAn=         1 IDoV= 1 UseB2=F ITyADJ=14
 ICtDFT=  3500011 ScaDFX=  1.000000  1.000000  1.000000  1.000000
 FoFCou: FMM=F IPFlag=           0 FMFlag=      100000 FMFlg1=           0
         NFxFlg=           0 DoJE=T BraDBF=F KetDBF=T FulRan=T
         wScrn=  0.000000 ICntrl=     500 IOpCl=  0 I1Cent=   200000004 NGrid=           0
         NMat0=    1 NMatS0=      1 NMatT0=    0 NMatD0=    1 NMtDS0=    0 NMtDT0=    0
 Petite list used in FoFCou.
 Harris En= -323.468691342578    
 Leave Link  401 at Thu Apr 14 11:27:51 2016, MaxMem=    33554432 cpu:         0.5
 (Enter /usr/local/gau/g09/l502.exe)
 Closed shell SCF:
 Using DIIS extrapolation, IDIIS=  1040.
 Integral symmetry usage will be decided dynamically.
 Keep R1 ints in memory in canonical form, NReq=3676491.
 IVT=       33364 IEndB=       33364 NGot=    33554432 MDV=    30768038
 LenX=    30768038 LenY=    30762973
 Requested convergence on RMS density matrix=1.00D-08 within 128 cycles.
 Requested convergence on MAX density matrix=1.00D-06.
 Requested convergence on             energy=1.00D-06.
 No special actions if energy rises.
 FoFCou: FMM=F IPFlag=           0 FMFlag=           0 FMFlg1=           0
         NFxFlg=           0 DoJE=F BraDBF=F KetDBF=F FulRan=T
         wScrn=  0.000000 ICntrl=     600 IOpCl=  0 I1Cent=           0 NGrid=           0
         NMat0=    1 NMatS0=   2346 NMatT0=    0 NMatD0=    1 NMtDS0=    0 NMtDT0=    0
 Symmetry not used in FoFCou.
 Integral accuracy reduced to 1.0D-05 until final iterations.

 Cycle   1  Pass 0  IDiag  1:
 E= -323.400326221494    
 DIIS: error= 3.96D-03 at cycle   1 NSaved=   1.
 NSaved= 1 IEnMin= 1 EnMin= -323.400326221494     IErMin= 1 ErrMin= 3.96D-03
 ErrMax= 3.96D-03  0.00D+00 EMaxC= 1.00D-01 BMatC= 3.61D-03 BMatP= 3.61D-03
 IDIUse=3 WtCom= 9.60D-01 WtEn= 3.96D-02
 Coeff-Com:  0.100D+01
 Coeff-En:   0.100D+01
 Coeff:      0.100D+01
 Gap=     0.542 Goal=   None    Shift=    0.000
 GapD=    0.542 DampG=2.000 DampE=1.000 DampFc=2.0000 IDamp=-1.
 RMSDP=2.94D-03 MaxDP=2.27D-02              OVMax= 4.94D-02

 Cycle   2  Pass 0  IDiag  1:
 E= -323.407908326319     Delta-E=       -0.007582104825 Rises=F Damp=F
 DIIS: error= 2.54D-03 at cycle   2 NSaved=   2.
 NSaved= 2 IEnMin= 2 EnMin= -323.407908326319     IErMin= 2 ErrMin= 2.54D-03
 ErrMax= 2.54D-03  0.00D+00 EMaxC= 1.00D-01 BMatC= 6.88D-04 BMatP= 3.61D-03
 IDIUse=3 WtCom= 9.75D-01 WtEn= 2.54D-02
 Coeff-Com:  0.190D+00 0.810D+00
 Coeff-En:   0.000D+00 0.100D+01
 Coeff:      0.185D+00 0.815D+00
 Gap=     0.158 Goal=   None    Shift=    0.000
 RMSDP=1.09D-03 MaxDP=1.16D-02 DE=-7.58D-03 OVMax= 1.92D-02

 Cycle   3  Pass 0  IDiag  1:
 E= -323.407281032897     Delta-E=        0.000627293422 Rises=F Damp=F
 DIIS: error= 4.22D-03 at cycle   3 NSaved=   3.
 NSaved= 3 IEnMin= 2 EnMin= -323.407908326319     IErMin= 2 ErrMin= 2.54D-03
 ErrMax= 4.22D-03  0.00D+00 EMaxC= 1.00D-01 BMatC= 1.68D-03 BMatP= 6.88D-04
 IDIUse=3 WtCom= 1.33D-01 WtEn= 8.67D-01
 Coeff-Com: -0.317D-01 0.627D+00 0.405D+00
 Coeff-En:   0.000D+00 0.624D+00 0.376D+00
 Coeff:     -0.423D-02 0.624D+00 0.380D+00
 Gap=     0.159 Goal=   None    Shift=    0.000
 RMSDP=6.63D-04 MaxDP=8.32D-03 DE= 6.27D-04 OVMax= 1.12D-02

 Cycle   4  Pass 0  IDiag  1:
 E= -323.408605155829     Delta-E=       -0.001324122932 Rises=F Damp=F
 DIIS: error= 1.06D-03 at cycle   4 NSaved=   4.
 NSaved= 4 IEnMin= 4 EnMin= -323.408605155829     IErMin= 4 ErrMin= 1.06D-03
 ErrMax= 1.06D-03  0.00D+00 EMaxC= 1.00D-01 BMatC= 1.07D-04 BMatP= 6.88D-04
 IDIUse=3 WtCom= 9.89D-01 WtEn= 1.06D-02
[...]
   D24       -0.37797   0.00000   0.00000   0.00007   0.00007  -0.37790
   D25        1.23109   0.00000   0.00000  -0.00002  -0.00002   1.23107
   D26        0.28000   0.00000   0.00000  -0.00005  -0.00005   0.27995
   D27       -3.03427   0.00000   0.00000   0.00012   0.00012  -3.03415
   D28       -0.34724   0.00000   0.00000   0.00007   0.00007  -0.34717
   D29       -2.21567   0.00000   0.00000   0.00004   0.00004  -2.21563
   D30       -0.37866   0.00000   0.00000   0.00007   0.00007  -0.37859
   D31       -1.00193   0.00000   0.00000   0.00013   0.00013  -1.00180
   D32       -2.34220   0.00000   0.00000   0.00010   0.00010  -2.34210
         Item               Value     Threshold  Converged?
 Maximum Force            0.000008     0.000450     YES
 RMS     Force            0.000002     0.000300     YES
 Maximum Displacement     0.000558     0.001800     YES
 RMS     Displacement     0.000139     0.001200     YES
 Predicted change in Energy=-1.490332D-09
 Optimization completed.
    -- Stationary point found.
                           ----------------------------
                           !   Optimized Parameters   !
                           ! (Angstroms and Degrees)  !
 --------------------------                            --------------------------
 ! Name  Definition              Value          Derivative Info.                !
 --------------------------------------------------------------------------------
 ! R1    R(1,2)                  1.0057         -DE/DX =    0.0                 !
 ! R2    R(1,3)                  1.3599         -DE/DX =    0.0                 !
 ! R3    R(1,11)                 1.0126         -DE/DX =    0.0                 !
 ! R4    R(3,5)                  1.4962         -DE/DX =    0.0                 !
 ! R5    R(3,6)                  1.397          -DE/DX =    0.0                 !
 ! R6    R(3,13)                 2.1526         -DE/DX =    0.0                 !
 ! R7    R(4,12)                 0.9772         -DE/DX =    0.0                 !
 ! R8    R(5,7)                  1.099          -DE/DX =    0.0                 !
 ! R9    R(5,8)                  1.0901         -DE/DX =    0.0                 !
 ! R10   R(5,9)                  1.0985         -DE/DX =    0.0                 !
 ! R11   R(6,10)                 1.4713         -DE/DX =    0.0                 !
 ! R12   R(6,12)                 1.4111         -DE/DX =    0.0                 !
 ! R13   R(6,13)                 1.2188         -DE/DX =    0.0                 !
 ! R14   R(10,13)                1.3417         -DE/DX =    0.0                 !
 ! R15   R(11,13)                2.5838         -DE/DX =    0.0                 !
 ! A1    A(2,1,3)              122.5184         -DE/DX =    0.0                 !
 ! A2    A(2,1,11)             120.5022         -DE/DX =    0.0                 !
 ! A3    A(3,1,11)             116.9548         -DE/DX =    0.0                 !
 ! A4    A(1,3,5)              120.0199         -DE/DX =    0.0                 !
 ! A5    A(1,3,6)              116.695          -DE/DX =    0.0                 !
 ! A6    A(1,3,13)              97.2756         -DE/DX =    0.0                 !
 ! A7    A(5,3,6)              123.2356         -DE/DX =    0.0                 !
 ! A8    A(3,5,7)              111.7788         -DE/DX =    0.0                 !
 ! A9    A(3,5,8)              110.3143         -DE/DX =    0.0                 !
 ! A10   A(3,5,9)              110.2477         -DE/DX =    0.0                 !
 ! A11   A(7,5,8)              108.8869         -DE/DX =    0.0                 !
 ! A12   A(7,5,9)              107.3978         -DE/DX =    0.0                 !
 ! A13   A(8,5,9)              108.098          -DE/DX =    0.0                 !
 ! A14   A(3,6,10)             119.6004         -DE/DX =    0.0                 !
 ! A15   A(3,6,12)             117.8468         -DE/DX =    0.0                 !
 ! A16   A(10,6,12)            117.1338         -DE/DX =    0.0                 !
 ! A17   A(1,11,13)             84.7723         -DE/DX =    0.0                 !
 ! A18   A(4,12,6)             107.5601         -DE/DX =    0.0                 !
 ! A19   A(3,13,10)             87.1495         -DE/DX =    0.0                 !
 ! A20   A(3,13,11)             49.7544         -DE/DX =    0.0                 !
 ! A21   A(6,13,11)             71.2912         -DE/DX =    0.0                 !
 ! A22   A(10,13,11)            61.6477         -DE/DX =    0.0                 !
 ! A23   L(5,3,13,1,-1)        217.2955         -DE/DX =    0.0                 !
 ! A24   L(12,6,13,5,-1)       212.538          -DE/DX =    0.0                 !
 ! A25   L(5,3,13,1,-2)        209.274          -DE/DX =    0.0                 !
 ! A26   L(12,6,13,5,-2)       234.8824         -DE/DX =    0.0                 !
 ! D1    D(2,1,3,5)             -9.6672         -DE/DX =    0.0                 !
 ! D2    D(2,1,3,6)            167.8566         -DE/DX =    0.0                 !
 ! D3    D(2,1,3,13)           141.0588         -DE/DX =    0.0                 !
 ! D4    D(11,1,3,5)           172.1296         -DE/DX =    0.0                 !
 ! D5    D(11,1,3,6)           -10.3465         -DE/DX =    0.0                 !
 ! D6    D(11,1,3,13)          -37.1444         -DE/DX =    0.0                 !
 ! D7    D(2,1,11,13)         -148.1687         -DE/DX =    0.0                 !
 ! D8    D(3,1,11,13)           30.0729         -DE/DX =    0.0                 !
 ! D9    D(1,3,5,7)             52.7486         -DE/DX =    0.0                 !
 ! D10   D(1,3,5,8)            174.0547         -DE/DX =    0.0                 !
 ! D11   D(1,3,5,9)            -66.6298         -DE/DX =    0.0                 !
 ! D12   D(6,3,5,7)           -124.6064         -DE/DX =    0.0                 !
 ! D13   D(6,3,5,8)             -3.3003         -DE/DX =    0.0                 !
 ! D14   D(6,3,5,9)            116.0153         -DE/DX =    0.0                 !
 ! D15   D(7,5,13,10)          140.329          -DE/DX =    0.0                 !
 ! D16   D(7,5,13,11)           88.4229         -DE/DX =    0.0                 !
 ! D17   D(8,5,13,10)         -110.7363         -DE/DX =    0.0                 !
 ! D18   D(8,5,13,11)         -162.6424         -DE/DX =    0.0                 !
 ! D19   D(9,5,13,10)            2.2543         -DE/DX =    0.0                 !
 ! D20   D(9,5,13,11)          -49.6518         -DE/DX =    0.0                 !
 ! D21   D(1,3,6,10)             7.612          -DE/DX =    0.0                 !
 ! D22   D(1,3,6,12)           160.9071         -DE/DX =    0.0                 !
 ! D23   D(5,3,6,10)          -174.9513         -DE/DX =    0.0                 !
 ! D24   D(5,3,6,12)           -21.6562         -DE/DX =    0.0                 !
 ! D25   D(1,3,13,10)           70.5363         -DE/DX =    0.0                 !
 ! D26   D(1,3,13,11)           16.0429         -DE/DX =    0.0                 !
 ! D27   D(3,6,12,4)          -173.8508         -DE/DX =    0.0                 !
 ! D28   D(10,6,12,4)          -19.8952         -DE/DX =    0.0                 !
 ! D29   D(4,12,13,11)        -126.9487         -DE/DX =    0.0                 !
 ! D30   D(1,11,13,3)          -21.6958         -DE/DX =    0.0                 !
 ! D31   D(1,11,13,6)          -57.4064         -DE/DX =    0.0                 !
 ! D32   D(1,11,13,10)        -134.198          -DE/DX =    0.0                 !
 --------------------------------------------------------------------------------
 GradGradGradGradGradGradGradGradGradGradGradGradGradGradGradGradGradGrad

 Leave Link  103 at Thu Apr 14 12:05:29 2016, MaxMem=    33554432 cpu:         0.0
 (Enter /usr/local/gau/g09/l9999.exe)

 Test job not archived.
 1\1\GINC-KALI\Freq\RB3LYP\6-31G\C3H7N1O2\ROOT\14-Apr-2016\0\\#P Geom=A
 llCheck Guess=TCheck SCRF=Check Test GenChk RB3LYP/6-31G Freq\\Ala-S-o
 pt-freq-tsa3-6-31g\\0,1\N,1.2285957328,0.8473107744,0.0536452538\H,2.2
 109980265,1.0080963052,0.196850872\C,0.6713950209,-0.390662385,0.13214
 58207\H,-2.3070351935,-1.5218721882,-0.1744188143\C,1.5463397984,-1.60
 08140216,0.2254936861\C,-0.7237355862,-0.449454295,0.1739118608\H,2.27
 64022108,-1.514128629,1.0424353753\H,0.9416402192,-2.4935758004,0.3858
 796521\H,2.1112740126,-1.7343250757,-0.7070570805\O,-1.5093982066,0.77
 65700514,-0.0364000907\H,0.6025878538,1.6215688027,-0.1307479454\O,-1.
 3419935074,-1.6744307333,-0.1553620103\H,-1.1514036214,0.1927870744,1.
 1174013406\\Version=ES64L-G09RevD.01\State=1-A\HF=-323.5135361\RMSD=3.
 093e-09\RMSF=4.354e-06\ZeroPoint=0.1013228\Thermal=0.1085862\Dipole=1.
 2905091,-0.0486198,0.4910616\DipoleDeriv=-0.6576285,-0.1568345,0.14992
 63,-0.8815064,-0.7265038,0.0490293,0.1392958,-0.0179158,-0.7335539,0.2
 023235,0.0131306,-0.0431003,-0.0020587,0.2215346,0.0313843,-0.1001883,
 0.0250447,0.37905,0.9940697,0.0562819,-0.2014913,0.7658077,0.5688318,-
 0.0847389,-0.3037893,-0.1222645,0.1645298,0.2252735,0.0644887,0.003853
 9,0.1992938,0.3024687,-0.0252775,0.0383592,-0.0307212,0.3867289,0.0545
 539,0.0761149,0.0318106,-0.0660183,-0.0705301,0.0109081,0.11705,-0.023
 6512,0.1140909,-0.1893695,0.2832631,0.1944579,0.7392511,0.7074759,0.21
 82863,1.2888843,0.1393501,0.0207125,-0.0711457,0.0296493,-0.1102956,-0
 .0009927,0.0402648,-0.047961,-0.1517151,0.0052403,-0.0325848,0.0699372
 ,-0.0779921,0.015139,-0.0203537,0.0035367,0.0182845,0.0081121,0.030049
 7,0.1021303,-0.0257536,0.058565,0.0838617,0.0586753,0.0502365,0.011061
 5,0.1022192,-0.0152344,-0.0519607,-0.8210895,0.1244008,0.0478744,0.571
 3986,-0.7430745,-0.1368366,-0.8627459,0.1987451,-0.3328087,0.100789,0.
 0563954,-0.0165879,0.0217851,0.2283968,0.0042367,0.0183821,0.0085153,0
 .3748749,-0.4464089,-0.335083,-0.1185657,-0.6360892,-0.8533665,-0.0931
 942,-0.3608864,-0.0861394,-0.5143713,0.564449,-0.19238,-0.036883,-0.74
 91927,0.2707292,0.0448174,0.0670224,-0.1110187,0.1231621\Polar=73.2058
 415,-2.4006156,49.883442,-0.0730753,0.1632642,27.8937033\PG=C01 [X(C3H
 7N1O2)]\NImag=1\\0.87677946,0.01298734,0.76112655,0.11255713,-0.087961
 71,0.07662247,-0.45097581,-0.05652956,-0.06369927,0.46761830,-0.055363
 94,-0.08346011,0.00220561,0.06691600,0.07689477,-0.06643107,0.00157419
 ,-0.01753630,0.06623050,0.00083027,0.01864183,-0.17959436,-0.08675392,
 -0.00608065,-0.01057767,-0.03916063,0.00066416,0.74748203,-0.10042882,
 -0.34462643,0.02073432,0.00116591,-0.00122254,-0.00033695,0.03028168,0
 .70467282,-0.00088382,0.01443506,-0.04611029,0.00006440,-0.00519746,-0
 .00252206,0.02459528,-0.02370917,0.16962638,0.00079034,0.00272680,-0.0
 0073814,-0.00006474,-0.00015793,0.00026407,-0.00162702,-0.00372037,-0.
 00022437,0.47877426,-0.00102616,0.00177759,-0.00012319,-0.00027562,-0.
 00048281,0.00024037,-0.00211654,-0.00863957,-0.00102118,-0.04921847,0.
 05400115,0.00012984,0.00041216,0.00105262,-0.00002207,0.00014260,0.000
 75428,0.00127351,0.00001305,-0.00037043,0.01559898,0.01137092,0.007043
 74,0.01446568,-0.01333586,0.00053788,0.00113400,0.00029498,0.00129594,
 -0.14097752,0.06228319,-0.00435876,0.00041593,0.00052623,-0.00033035,0
 .54911202,0.02352552,-0.03688910,0.00378669,0.00090089,0.00244573,0.00
 020644,0.05572802,-0.17644420,0.00897187,0.00015070,-0.00038392,-0.000
 07827,0.05369130,0.54538086,-0.00201662,0.00173399,0.00292308,0.000743
 51,-0.00081879,-0.00096925,-0.01422611,0.01028942,-0.07387905,-0.00002
 345,0.00008577,-0.00059217,-0.00303322,-0.00583755,0.53460088,-0.04027
 400,-0.04022974,0.00631663,0.00314515,0.00125591,0.00182496,-0.3375851
 3,-0.00215237,-0.00852323,-0.02502999,-0.05058006,-0.01234864,-0.01685
 855,0.00958607,0.01102673,0.62942070,-0.04054027,0.00185436,0.00144548
 ,-0.00149021,-0.00581528,0.00227650,-0.03947317,-0.09706920,0.00829905
 ,0.00562151,-0.00744000,0.00065733,0.02667145,0.00363228,-0.00487342,0
 .10595288,0.42100426,0.02220770,0.04722497,0.00442244,-0.00619337,-0.0
 0001471,0.00594394,-0.06122766,-0.03010418,-0.05298083,-0.00234895,-0.
 00806943,-0.00259063,-0.00263290,0.00060438,0.00510088,0.07509392,0.03
 007490,0.17781077,0.00158194,-0.00151841,0.00164107,0.00044815,0.00050
 847,-0.00087038,-0.02084152,0.00123831,-0.01415515,0.00009720,0.000292
 16,-0.00018952,-0.15472362,-0.01762537,-0.12441711,0.00366578,0.001383
 64,-0.00112147,0.17293896,-0.00018194,0.00221281,-0.00123151,-0.000817
 75,-0.00059613,0.00043993,0.02514481,0.00045770,0.02264954,-0.00017200
 ,0.00017069,-0.00010576,-0.01598929,-0.05247206,-0.01559460,-0.0028910
 0,-0.00306540,-0.00024121,0.01332807,0.05456162,0.00049633,0.00039641,
 0.00064200,-0.00024510,0.00094174,-0.00039513,-0.00048839,-0.00083852,
 0.00154710,0.00012751,0.00003338,0.00004550,-0.12477343,-0.01695300,-0
 .18822736,0.00113310,0.00026570,0.00020748,0.13954309,0.01906316,0.205
 65319,-0.00358425,0.00354372,-0.00046120,-0.00015299,0.00012644,-0.000
 09951,0.01401485,0.02019200,-0.00398727,0.00007942,-0.00032523,-0.0000
 0919,-0.13749804,-0.13116303,0.02371543,-0.00002605,0.00189239,0.00135
 646,-0.01144505,-0.01692589,0.00457626,0.14827222,0.00517091,-0.002550
 77,0.00066000,0.00028936,0.00042566,0.00019211,-0.01881095,-0.02464703
 ,0.00473764,-0.00022297,0.00056729,-0.00001996,-0.12327358,-0.23386455
 ,0.03358829,-0.00036780,-0.00177000,-0.00184781,-0.00025998,-0.0010278
 1,0.00081737,0.13605518,0.25775918,-0.00047593,0.00028067,0.00149361,0
 .00004477,0.00005780,-0.00064237,0.00196427,0.00037202,-0.00167370,0.0
 0016817,-0.00028289,-0.00000462,0.02186975,0.03387294,-0.05582034,-0.0
 0010243,0.00093748,0.00069331,-0.01499009,-0.02230241,0.00415409,-0.02
 554573,-0.03711569,0.05630463,0.00103917,-0.00160759,-0.00093726,0.000
 23463,0.00003947,0.00045991,-0.01504002,0.00540427,0.01740648,0.000080
 49,0.00013349,0.00012817,-0.11080768,0.01290917,0.11239533,-0.00033804
 ,0.00319509,0.00064335,0.01098813,-0.00279501,-0.02047055,-0.00891980,
 0.00319556,0.01677520,0.12359080,-0.00061892,0.00121451,0.00185005,-0.
 00004871,-0.00066863,-0.00110549,0.01773997,-0.00628001,-0.02464771,-0
 .00013288,-0.00001776,0.00013371,0.01374936,-0.05093119,-0.02507123,0.
 00057892,-0.00298995,-0.00082405,0.00143245,-0.00010318,-0.00381451,-0
 .01349718,0.00418889,0.02479004,-0.01978057,0.05431027,-0.00037225,0.0
 0019584,0.00070981,0.00013032,-0.00040088,-0.00045896,-0.00048577,0.00
 075328,0.00534734,-0.00005041,-0.00006287,-0.00005205,0.11086850,-0.02
 352183,-0.23282105,-0.00146391,0.00015893,-0.00092371,0.01367314,-0.00
 217692,-0.02305386,0.00121223,-0.00148155,-0.00412130,-0.12406084,0.02
 694557,0.25542950,-0.00248178,-0.00134983,0.00021359,-0.00041516,0.002
 22851,0.00168365,-0.01858302,0.03789365,-0.01414489,0.00282642,0.00456
 351,0.00115449,-0.00226106,-0.00361983,-0.00044236,-0.11008522,0.05958
 230,-0.00862443,-0.00130674,0.00167852,-0.00031157,0.00002597,0.000074
 82,-0.00021793,-0.00102436,0.00075949,0.00001476,0.12506645,0.00302557
 ,0.02109810,-0.00276238,-0.00317998,0.00194606,0.00109286,-0.01317778,
 -0.02879219,0.00385743,0.00178024,0.00331367,-0.00013873,-0.00168220,0
 .00341369,0.00333037,0.09094696,-0.15496048,-0.02121096,0.00161225,-0.
 00133850,0.00075799,-0.00007159,0.00002403,-0.00003450,0.00017100,0.00
 030463,-0.00037854,-0.09543433,0.17942319,-0.01349267,-0.02736851,-0.0
 0044613,0.00312880,-0.00126387,-0.00119802,0.05602306,0.01333975,0.002
 50793,0.00269765,0.00526963,-0.00188077,0.00098653,0.00084313,0.006295
 22,-0.12516061,0.10198063,0.03879025,0.00082910,-0.00074472,-0.0005124
 6,-0.00057257,0.00051411,-0.00044339,-0.00091954,0.00087995,-0.0003208
 7,0.02921130,-0.01936066,-0.00356344,-0.21512689,0.16929271,-0.0489671
 1,-0.00921476,0.02449178,-0.00464966,0.02284492,-0.00644261,0.00117464
 ,0.00022394,-0.00034113,0.00009267,-0.00125132,-0.00347339,-0.00047557
 ,-0.00683918,-0.00319339,0.01239028,-0.00051642,0.00023638,-0.00010520
 ,0.00050610,-0.00075338,0.00002294,-0.00030294,0.00005017,0.00004670,0
 .00226594,0.01119867,-0.01009655,0.20356852,0.17209891,-0.28970636,0.0
 5700592,-0.01067437,0.01125676,-0.00291426,0.02090231,-0.03039831,0.00
 664755,-0.00019194,-0.00013741,-0.00001118,-0.00470131,-0.00202707,0.0
 0143408,0.00222339,-0.00452303,-0.00130324,0.00009860,0.00021608,0.000
 12954,0.00108665,-0.00091029,0.00004617,-0.00007531,0.00033693,-0.0001
 8868,0.00260874,0.00116403,-0.00015163,-0.18349494,0.31319477,-0.04986
 396,0.05630094,-0.03041450,-0.00067832,0.00273854,-0.00197860,0.002546
 00,0.00326193,0.00414070,-0.00008173,-0.00011652,-0.00023658,-0.000591
 26,-0.00092659,0.00359745,-0.00242304,0.00046138,-0.00260036,0.0003168
 3,-0.00049727,0.00007933,0.00015958,-0.00035006,0.00064128,-0.00028602
 ,0.00066917,-0.00003145,-0.00053471,-0.00256959,-0.00226992,0.04998834
 ,-0.06151139,0.03058241,-0.00700730,0.00079615,0.00053663,-0.00025058,
 -0.00165118,0.00062007,-0.02140573,-0.04227148,-0.01512842,-0.45587323
 ,0.10131998,-0.00452128,-0.00034966,-0.00053774,-0.00065136,-0.1307264
 2,-0.09559715,-0.03711583,-0.00064205,-0.00069570,0.00017475,-0.001458
 31,-0.00100138,0.00020299,-0.00014137,0.00022167,0.00032839,0.01484440
 ,0.01146747,0.01852970,0.00012404,0.00048712,-0.00057210,0.60997962,-0
 .00410545,-0.00825502,0.00085654,0.00110718,-0.00008844,-0.00169194,0.
 00194650,0.00244028,-0.00843562,0.04193806,-0.04622491,-0.01084594,0.0
 0114965,-0.00224753,0.00131217,-0.05044476,-0.18277860,-0.03015951,-0.
 00067755,0.00088978,-0.00044115,-0.00047750,0.00137577,-0.00025907,-0.
 00080715,0.00089575,0.00020551,-0.00347021,-0.03724907,-0.01094007,0.0
 0044489,0.00092816,0.00037793,0.01916179,0.28858547,-0.00419725,-0.010
 20528,0.00481035,0.00105943,0.00029393,0.00000799,0.01226748,0.0045973
 3,-0.00070217,-0.01540783,-0.00510112,-0.00383763,0.00037732,-0.000417
 12,-0.00085001,-0.03639356,-0.04758714,-0.04822002,-0.00000332,0.00050
 903,-0.00008818,-0.00030577,0.00019299,-0.00060359,-0.00063824,-0.0001
 7640,0.00016232,0.00998377,0.00414653,0.00731750,-0.00245998,0.0004086
 2,-0.00046140,0.04643951,0.06563282,0.04197917,0.00438780,0.01197818,-
 0.00091931,-0.00092854,0.00047212,-0.00099263,-0.03810980,-0.00344337,
 0.01816511,-0.00069302,-0.00295214,-0.00095662,-0.00040018,-0.00007232
 ,-0.00259519,0.03153097,-0.02400506,0.00757290,-0.00024475,0.00008079,
 0.00034321,0.00018593,-0.00009580,0.00028403,0.00064099,-0.00045377,0.
 00015913,-0.00887184,-0.00665629,0.03883580,0.00371805,-0.00036784,0.0
 0202038,-0.00709340,-0.00576544,-0.01072155,0.01587779,-0.01454275,-0.
 02379613,0.00353417,0.00263686,-0.00063503,-0.00080403,0.04774969,0.01
 054868,-0.00658700,0.00159925,0.00349599,-0.00152993,0.00061607,0.0003
 8706,0.00042150,-0.06387840,0.03392104,0.01587085,0.00018737,0.0000943
 9,-0.00035810,-0.00043596,0.00042963,-0.00036257,0.00001758,-0.0002602
 6,-0.00004785,-0.00551532,0.01165284,-0.06299775,-0.00801575,0.0006057
 3,0.00216153,0.00830044,-0.01827164,-0.01229420,0.03128092,-0.01817232
 ,0.00234257,0.00298127,0.00183087,-0.00056361,0.00048524,0.00035264,-0
 .01682517,0.00162773,-0.00493091,0.00001851,-0.00222289,0.00066875,-0.
 00021600,-0.00055107,0.00064172,0.09102009,-0.09409682,-0.12565352,-0.
 00025618,0.00023273,-0.00005170,-0.00003873,0.00011255,0.00002238,-0.0
 0049600,0.00037090,0.00013429,-0.01798567,0.03327016,-0.04427588,0.003
 03850,0.00040850,-0.00104836,-0.00884303,-0.00561168,0.00048567,-0.051
 19525,0.06299338,0.17182406\\-0.00000292,-0.00000819,0.00000287,-0.000
 00054,0.00000161,-0.00000249,-0.00000239,0.00001297,-0.00000203,-0.000
 00115,-0.00000439,0.00000078,0.00000031,-0.00000105,0.00000592,0.00000
 867,0.00000593,-0.00000621,0.00000009,0.00000282,0.00000172,0.00000107
 ,0.00000135,0.00000266,0.00000128,0.00000023,0.00000220,0.00000400,-0.
 00001222,-0.00000040,-0.00000474,0.00000081,-0.00000577,-0.00000328,-0
 .00000079,0.00000035,-0.00000038,0.00000094,0.00000040\\\@


 BOOKS ARE LIGHTHOUSES ERECTED IN THE GREAT SEA OF TIME.
     -- E.P.WHIPPLE
 Job cpu time:       0 days  0 hours  1 minutes 13.3 seconds.
 File lengths (MBytes):  RWF=     13 Int=      0 D2E=      0 Chk=      2 Scr=      1
 Normal termination of Gaussian 09 at Thu Apr 14 12:05:29 2016.
