 Entering Link 1 = c:\G09w02\l1.exe PID=       252.
  
 Copyright (c) 1988,1990,1992,1993,1995,1998,2003,2009,2010,
            Gaussian, Inc.  All Rights Reserved.
  
 This is part of the Gaussian(R) 09 program.  It is based on
 the Gaussian(R) 03 system (copyright 2003, Gaussian, Inc.),
 the Gaussian(R) 98 system (copyright 1998, Gaussian, Inc.),
 the Gaussian(R) 94 system (copyright 1995, Gaussian, Inc.),
 the Gaussian 92(TM) system (copyright 1992, Gaussian, Inc.),
 the Gaussian 90(TM) system (copyright 1990, Gaussian, Inc.),
 the Gaussian 88(TM) system (copyright 1988, Gaussian, Inc.),
 the Gaussian 86(TM) system (copyright 1986, Carnegie Mellon
 University), and the Gaussian 82(TM) system (copyright 1983,
 Carnegie Mellon University). Gaussian is a federally registered
 trademark of Gaussian, Inc.
  
 This software contains proprietary and confidential information,
 including trade secrets, belonging to Gaussian, Inc.
  
 This software is provided under written license and may be
 used, copied, transmitted, or stored only in accord with that
 written license.
  
 The following legend is applicable only to US Government
 contracts under FAR:
  
                    RESTRICTED RIGHTS LEGEND
  
 Use, reproduction and disclosure by the US Government is
 subject to restrictions as set forth in subparagraphs (a)
 and (c) of the Commercial Computer Software - Restricted
 Rights clause in FAR 52.227-19.
  
 Gaussian, Inc.
 340 Quinnipiac St., Bldg. 40, Wallingford CT 06492
  
  
 ---------------------------------------------------------------
 Warning -- This program may not be used in any manner that
 competes with the business of Gaussian, Inc. or will provide
 assistance to any competitor of Gaussian, Inc.  The licensee
 of this program is prohibited from giving any competitor of
 Gaussian, Inc. access to this program.  By using this program,
 the user acknowledges that Gaussian, Inc. is engaged in the
 business of creating and licensing software in the field of
 computational chemistry and represents and warrants to the
 licensee that it is not a competitor of Gaussian, Inc. and that
 it will not use this program in any manner prohibited above.
 ---------------------------------------------------------------
  

 Cite this work as:
 Gaussian 09, Revision B.01,
 M. J. Frisch, G. W. Trucks, H. B. Schlegel, G. E. Scuseria, 
 M. A. Robb, J. R. Cheeseman, G. Scalmani, V. Barone, B. Mennucci, 
 G. A. Petersson, H. Nakatsuji, M. Caricato, X. Li, H. P. Hratchian, 
 A. F. Izmaylov, J. Bloino, G. Zheng, J. L. Sonnenberg, M. Hada, 
 M. Ehara, K. Toyota, R. Fukuda, J. Hasegawa, M. Ishida, T. Nakajima, 
 Y. Honda, O. Kitao, H. Nakai, T. Vreven, J. A. Montgomery, Jr., 
 J. E. Peralta, F. Ogliaro, M. Bearpark, J. J. Heyd, E. Brothers, 
 K. N. Kudin, V. N. Staroverov, T. Keith, R. Kobayashi, J. Normand, 
 K. Raghavachari, A. Rendell, J. C. Burant, S. S. Iyengar, J. Tomasi, 
 M. Cossi, N. Rega, J. M. Millam, M. Klene, J. E. Knox, J. B. Cross, 
 V. Bakken, C. Adamo, J. Jaramillo, R. Gomperts, R. E. Stratmann, 
 O. Yazyev, A. J. Austin, R. Cammi, C. Pomelli, J. W. Ochterski, 
 R. L. Martin, K. Morokuma, V. G. Zakrzewski, G. A. Voth, 
 P. Salvador, J. J. Dannenberg, S. Dapprich, A. D. Daniels, 
 O. Farkas, J. B. Foresman, J. V. Ortiz, J. Cioslowski, 
 and D. J. Fox, Gaussian, Inc., Wallingford CT, 2010.
 
 ******************************************
 Gaussian 09:  IA32W-G09RevB.01 12-Aug-2010
                08-Apr-2016 
 ******************************************
 %chk=E:\YangJ\Amiano\phe\ts1\s\ts1-p\Phe-S-ts1-p-6-311++gdp-cpcm.chk
 ---------------------------------------------------------
 # opt freq rb3lyp/6-311++g(d,p) scrf=(cpcm,solvent=water)
 ---------------------------------------------------------
 1/14=-1,18=20,19=15,26=3,38=1/1,3;
 2/9=110,12=2,17=6,18=5,40=1/2;
 3/5=4,6=6,7=1111,11=2,16=1,25=1,30=1,70=2101,71=1,72=1,74=-5,116=1/1,2,3;
 4//1;
 5/5=2,38=5,53=1/2;
 6/7=2,8=2,9=2,10=2,28=1/1;
 7//1,2,3,16;
 1/14=-1,18=20,19=15/3(2);
 2/9=110/2;
 99//99;
 2/9=110/2;
 3/5=4,6=6,7=1111,11=2,16=1,25=1,30=1,70=2105,71=1,72=1,74=-5,116=1/1,2,3;
 4/5=5,16=3/1;
 5/5=2,38=5,53=1/2;
 7//1,2,3,16;
 1/14=-1,18=20,19=15/3(-5);
 2/9=110/2;
 6/7=2,8=2,9=2,10=2,19=2,28=1/1;
 99/9=1/99;
 -----------------------------
 Phe-S-opt-freq-ts1-6-311++gdp
 -----------------------------
 Symbolic Z-matrix:
 Charge =  0 Multiplicity = 1
 N                    -2.95046  -1.38636  -0.19917 
 H                    -3.29692  -0.9681   -1.05825 
 C                    -1.69119  -0.76734   0.211 
 H                    -1.40287  -1.18513   1.17695 
 C                    -0.58696  -1.08597  -0.82777 
 C                    -1.81016   0.72822   0.39943 
 H                    -0.57342  -2.17474  -0.92049 
 H                    -0.89392  -0.68035  -1.79574 
 C                     0.78802  -0.57126  -0.46023 
 O                    -2.31848   1.53691  -0.4503 
 C                     1.32503   0.56116  -1.08277 
 C                     1.54949  -1.21847   0.52206 
 H                     0.75507   1.06957  -1.85374 
 C                     2.58762   1.04048  -0.72987 
 C                     2.81011  -0.74272   0.8774 
 H                     1.15574  -2.10539   1.00839 
 H                     2.98797   1.91786  -1.22555 
 C                     3.3331    0.39081   0.25262 
 H                     3.38625  -1.25902   1.63723 
 H                     4.31482   0.76034   0.52661 
 H                    -3.66692  -1.2597    0.50929 
 O                    -1.4318    1.38109   1.42957 
 H                    -2.0149    2.65511  -0.42701 
 

 GradGradGradGradGradGradGradGradGradGradGradGradGradGradGradGradGradGrad
 Berny optimization.
 Initialization pass.
                           ----------------------------
                           !    Initial Parameters    !
                           ! (Angstroms and Degrees)  !
 --------------------------                            --------------------------
 ! Name  Definition              Value          Derivative Info.                !
 --------------------------------------------------------------------------------
 ! R1    R(1,2)                  1.0164         estimate D2E/DX2                !
 ! R2    R(1,3)                  1.4619         estimate D2E/DX2                !
 ! R3    R(1,21)                 1.0155         estimate D2E/DX2                !
 ! R4    R(3,4)                  1.0912         estimate D2E/DX2                !
 ! R5    R(3,5)                  1.5492         estimate D2E/DX2                !
 ! R6    R(3,6)                  1.5121         estimate D2E/DX2                !
 ! R7    R(5,7)                  1.0928         estimate D2E/DX2                !
 ! R8    R(5,8)                  1.0935         estimate D2E/DX2                !
 ! R9    R(5,9)                  1.5135         estimate D2E/DX2                !
 ! R10   R(6,10)                 1.2784         estimate D2E/DX2                !
 ! R11   R(6,22)                 1.2769         estimate D2E/DX2                !
 ! R12   R(9,11)                 1.3994         estimate D2E/DX2                !
 ! R13   R(9,12)                 1.4013         estimate D2E/DX2                !
 ! R14   R(10,23)                1.1589         estimate D2E/DX2                !
 ! R15   R(11,13)                1.0852         estimate D2E/DX2                !
 ! R16   R(11,14)                1.3959         estimate D2E/DX2                !
 ! R17   R(12,15)                1.3935         estimate D2E/DX2                !
 ! R18   R(12,16)                1.0854         estimate D2E/DX2                !
 ! R19   R(14,17)                1.0843         estimate D2E/DX2                !
 ! R20   R(14,18)                1.3939         estimate D2E/DX2                !
 ! R21   R(15,18)                1.396          estimate D2E/DX2                !
 ! R22   R(15,19)                1.0844         estimate D2E/DX2                !
 ! R23   R(18,20)                1.0842         estimate D2E/DX2                !
 ! A1    A(2,1,3)              110.8873         estimate D2E/DX2                !
 ! A2    A(2,1,21)             107.3286         estimate D2E/DX2                !
 ! A3    A(3,1,21)             111.0491         estimate D2E/DX2                !
 ! A4    A(1,3,4)              108.2908         estimate D2E/DX2                !
 ! A5    A(1,3,5)              109.8015         estimate D2E/DX2                !
 ! A6    A(1,3,6)              112.7059         estimate D2E/DX2                !
 ! A7    A(4,3,5)              109.0555         estimate D2E/DX2                !
 ! A8    A(4,3,6)              106.8081         estimate D2E/DX2                !
 ! A9    A(5,3,6)              110.0643         estimate D2E/DX2                !
 ! A10   A(3,5,7)              105.703          estimate D2E/DX2                !
 ! A11   A(3,5,8)              108.4928         estimate D2E/DX2                !
 ! A12   A(3,5,9)              114.5058         estimate D2E/DX2                !
 ! A13   A(7,5,8)              107.3341         estimate D2E/DX2                !
 ! A14   A(7,5,9)              110.376          estimate D2E/DX2                !
 ! A15   A(8,5,9)              110.1113         estimate D2E/DX2                !
 ! A16   A(3,6,10)             125.0372         estimate D2E/DX2                !
 ! A17   A(3,6,22)             125.6558         estimate D2E/DX2                !
 ! A18   A(10,6,22)            109.3048         estimate D2E/DX2                !
 ! A19   A(5,9,11)             121.0513         estimate D2E/DX2                !
 ! A20   A(5,9,12)             120.4539         estimate D2E/DX2                !
 ! A21   A(11,9,12)            118.4936         estimate D2E/DX2                !
 ! A22   A(6,10,23)            119.5266         estimate D2E/DX2                !
 ! A23   A(9,11,13)            119.5773         estimate D2E/DX2                !
 ! A24   A(9,11,14)            120.8316         estimate D2E/DX2                !
 ! A25   A(13,11,14)           119.5901         estimate D2E/DX2                !
 ! A26   A(9,12,15)            120.8419         estimate D2E/DX2                !
 ! A27   A(9,12,16)            119.6262         estimate D2E/DX2                !
 ! A28   A(15,12,16)           119.5308         estimate D2E/DX2                !
 ! A29   A(11,14,17)           119.7519         estimate D2E/DX2                !
 ! A30   A(11,14,18)           120.1253         estimate D2E/DX2                !
 ! A31   A(17,14,18)           120.1224         estimate D2E/DX2                !
 ! A32   A(12,15,18)           120.1335         estimate D2E/DX2                !
 ! A33   A(12,15,19)           119.7879         estimate D2E/DX2                !
 ! A34   A(18,15,19)           120.0778         estimate D2E/DX2                !
 ! A35   A(14,18,15)           119.5731         estimate D2E/DX2                !
 ! A36   A(14,18,20)           120.2346         estimate D2E/DX2                !
 ! A37   A(15,18,20)           120.1917         estimate D2E/DX2                !
 ! D1    D(2,1,3,4)            175.1926         estimate D2E/DX2                !
 ! D2    D(2,1,3,5)            -65.8291         estimate D2E/DX2                !
 ! D3    D(2,1,3,6)             57.2588         estimate D2E/DX2                !
 ! D4    D(21,1,3,4)            55.9533         estimate D2E/DX2                !
 ! D5    D(21,1,3,5)           174.9316         estimate D2E/DX2                !
 ! D6    D(21,1,3,6)           -61.9804         estimate D2E/DX2                !
 ! D7    D(1,3,5,7)            -54.4443         estimate D2E/DX2                !
 ! D8    D(1,3,5,8)             60.4139         estimate D2E/DX2                !
 ! D9    D(1,3,5,9)           -176.1558         estimate D2E/DX2                !
 ! D10   D(4,3,5,7)             64.0628         estimate D2E/DX2                !
 ! D11   D(4,3,5,8)            178.9211         estimate D2E/DX2                !
 ! D12   D(4,3,5,9)            -57.6487         estimate D2E/DX2                !
 ! D13   D(6,3,5,7)           -179.0743         estimate D2E/DX2                !
 ! D14   D(6,3,5,8)            -64.216          estimate D2E/DX2                !
 ! D15   D(6,3,5,9)             59.2142         estimate D2E/DX2                !
 ! D16   D(1,3,6,10)           -50.274          estimate D2E/DX2                !
 ! D17   D(1,3,6,22)           129.1328         estimate D2E/DX2                !
 ! D18   D(4,3,6,10)          -169.0761         estimate D2E/DX2                !
 ! D19   D(4,3,6,22)            10.3306         estimate D2E/DX2                !
 ! D20   D(5,3,6,10)            72.6673         estimate D2E/DX2                !
 ! D21   D(5,3,6,22)          -107.9259         estimate D2E/DX2                !
 ! D22   D(3,5,9,11)          -104.2166         estimate D2E/DX2                !
 ! D23   D(3,5,9,12)            75.3833         estimate D2E/DX2                !
 ! D24   D(7,5,9,11)           136.6655         estimate D2E/DX2                !
 ! D25   D(7,5,9,12)           -43.7346         estimate D2E/DX2                !
 ! D26   D(8,5,9,11)            18.3405         estimate D2E/DX2                !
 ! D27   D(8,5,9,12)          -162.0596         estimate D2E/DX2                !
 ! D28   D(3,6,10,23)         -156.4884         estimate D2E/DX2                !
 ! D29   D(22,6,10,23)          24.0223         estimate D2E/DX2                !
 ! D30   D(5,9,11,13)           -1.0691         estimate D2E/DX2                !
 ! D31   D(5,9,11,14)          179.2946         estimate D2E/DX2                !
 ! D32   D(12,9,11,13)         179.3233         estimate D2E/DX2                !
 ! D33   D(12,9,11,14)          -0.3129         estimate D2E/DX2                !
 ! D34   D(5,9,12,15)         -179.2756         estimate D2E/DX2                !
 ! D35   D(5,9,12,16)            1.1147         estimate D2E/DX2                !
 ! D36   D(11,9,12,15)           0.3344         estimate D2E/DX2                !
 ! D37   D(11,9,12,16)        -179.2753         estimate D2E/DX2                !
 ! D38   D(9,11,14,17)         179.8303         estimate D2E/DX2                !
 ! D39   D(9,11,14,18)           0.0652         estimate D2E/DX2                !
 ! D40   D(13,11,14,17)          0.194          estimate D2E/DX2                !
 ! D41   D(13,11,14,18)       -179.571          estimate D2E/DX2                !
 ! D42   D(9,12,15,18)          -0.108          estimate D2E/DX2                !
 ! D43   D(9,12,15,19)        -179.7761         estimate D2E/DX2                !
 ! D44   D(16,12,15,18)        179.5021         estimate D2E/DX2                !
 ! D45   D(16,12,15,19)         -0.166          estimate D2E/DX2                !
 ! D46   D(11,14,18,15)          0.1675         estimate D2E/DX2                !
 ! D47   D(11,14,18,20)        179.8705         estimate D2E/DX2                !
 ! D48   D(17,14,18,15)       -179.5968         estimate D2E/DX2                !
 ! D49   D(17,14,18,20)          0.1063         estimate D2E/DX2                !
 ! D50   D(12,15,18,14)         -0.1462         estimate D2E/DX2                !
 ! D51   D(12,15,18,20)       -179.8494         estimate D2E/DX2                !
 ! D52   D(19,15,18,14)        179.5209         estimate D2E/DX2                !
 ! D53   D(19,15,18,20)         -0.1823         estimate D2E/DX2                !
 --------------------------------------------------------------------------------
 Trust Radius=3.00D-01 FncErr=1.00D-07 GrdErr=1.00D-06
 Number of steps in this run=    123 maximum allowed number of steps=    138.
 GradGradGradGradGradGradGradGradGradGradGradGradGradGradGradGradGradGrad

                          Input orientation:                          
 ---------------------------------------------------------------------
 Center     Atomic      Atomic             Coordinates (Angstroms)
 Number     Number       Type             X           Y           Z
 ---------------------------------------------------------------------
      1          7           0       -2.950461   -1.386360   -0.199170
      2          1           0       -3.296921   -0.968102   -1.058250
      3          6           0       -1.691193   -0.767337    0.211003
      4          1           0       -1.402873   -1.185130    1.176952
      5          6           0       -0.586960   -1.085966   -0.827769
      6          6           0       -1.810160    0.728216    0.399432
      7          1           0       -0.573416   -2.174736   -0.920493
      8          1           0       -0.893916   -0.680346   -1.795741
      9          6           0        0.788017   -0.571259   -0.460230
     10          8           0       -2.318480    1.536907   -0.450299
     11          6           0        1.325032    0.561155   -1.082767
     12          6           0        1.549491   -1.218465    0.522064
     13          1           0        0.755069    1.069565   -1.853740
     14          6           0        2.587617    1.040477   -0.729866
     15          6           0        2.810113   -0.742723    0.877399
     16          1           0        1.155738   -2.105388    1.008386
     17          1           0        2.987973    1.917860   -1.225550
     18          6           0        3.333101    0.390810    0.252617
     19          1           0        3.386249   -1.259015    1.637234
     20          1           0        4.314820    0.760341    0.526614
     21          1           0       -3.666920   -1.259700    0.509289
     22          8           0       -1.431797    1.381090    1.429566
     23          1           0       -2.014903    2.655107   -0.427007
 ---------------------------------------------------------------------
                    Distance matrix (angstroms):
                    1          2          3          4          5
     1  N    0.000000
     2  H    1.016363   0.000000
     3  C    1.461912   2.056617   0.000000
     4  H    2.080681   2.937796   1.091209   0.000000
     5  C    2.464043   2.722297   1.549162   2.166669   0.000000
     6  C    2.475892   2.685664   1.512064   2.105068   2.508684
     7  H    2.606182   2.982016   2.123789   2.463046   1.092795
     8  H    2.697568   2.530045   2.161074   3.057899   1.093490
     9  C    3.835200   4.147509   2.575943   2.803070   1.513463
    10  O    3.001326   2.757176   2.477973   3.300874   3.165455
    11  C    4.780523   4.868437   3.540670   3.949343   2.536483
    12  C    4.560475   5.103703   3.286687   3.024309   2.530618
    13  H    4.743429   4.604727   3.690741   4.350340   2.738608
    14  C    6.069719   6.226557   4.739371   4.951090   3.822209
    15  C    5.895548   6.410413   4.550434   4.246729   3.816480
    16  H    4.340053   5.038906   3.245184   2.724294   2.729044
    17  H    6.872869   6.917851   5.582881   5.888981   4.686293
    18  C    6.545655   6.893635   5.156216   5.076163   4.326081
    19  H    6.598673   7.212144   5.296820   4.811757   4.678950
    20  H    7.610479   7.964792   6.205288   6.074521   5.410236
    21  H    1.015515   1.636798   2.057886   2.361619   3.362151
    22  O    3.552168   3.897001   2.483530   2.578786   3.449011
    23  H    4.154591   3.894827   3.496422   4.206505   4.024333
                    6          7          8          9         10
     6  C    0.000000
     7  H    3.420361   0.000000
     8  H    2.764477   1.761244   0.000000
     9  C    3.029551   2.153249   2.150439   0.000000
    10  O    1.278442   4.128271   2.959021   3.754302   0.000000
    11  C    3.471923   3.333997   2.640717   1.399392   3.824564
    12  C    3.884824   2.739007   3.410576   1.401292   4.847552
    13  H    3.431283   3.627852   2.405141   2.152965   3.410976
    14  C    4.551183   4.512877   4.027207   2.430835   4.939068
    15  C    4.872272   4.090397   4.568304   2.430540   5.767318
    16  H    4.146889   2.591401   3.754325   2.155366   5.240636
    17  H    5.203643   5.433773   4.705832   3.408993   5.376298
    18  C    5.156407   4.818619   4.817761   2.812682   5.809303
    19  H    5.699466   4.802027   5.517245   3.409278   6.687220
    20  H    6.126385   5.882486   5.882163   3.896840   6.749673
    21  H    2.722395   3.528645   3.652173   4.610898   3.249632
    22  O    1.276941   4.347815   3.865416   3.508642   2.084317
    23  H    2.106615   5.064464   3.775618   4.273980   1.158910
                   11         12         13         14         15
    11  C    0.000000
    12  C    2.406847   0.000000
    13  H    1.085236   3.392732   0.000000
    14  C    1.395854   2.783497   2.149923   0.000000
    15  C    2.783490   1.393471   3.868684   2.410935   0.000000
    16  H    3.392939   1.085441   4.293324   3.868884   2.147317
    17  H    2.150909   3.867806   2.469835   1.084338   3.395987
    18  C    2.417563   2.417361   3.397602   1.393946   1.395982
    19  H    3.867821   2.149169   4.953008   3.395385   1.084361
    20  H    3.401267   3.400403   4.293429   2.154170   2.155550
    21  H    5.547048   5.216590   5.528415   6.778315   6.508051
    22  O    3.818929   4.058242   3.957212   4.575462   4.775905
    23  H    3.996226   5.348850   3.496034   4.886916   6.043799
                   16         17         18         19         20
    16  H    0.000000
    17  H    4.953189   0.000000
    18  C    3.397514   2.153131   0.000000
    19  H    2.467180   4.294961   2.154510   0.000000
    20  H    4.292354   2.484039   1.084159   2.484657   0.000000
    21  H    4.921617   7.575893   7.196552   7.142790   8.233410
    22  O    4.362139   5.183834   5.007007   5.497895   5.850150
    23  H    5.897087   5.119568   5.847228   6.982398   6.675697
                   21         22         23
    21  H    0.000000
    22  O    3.580008   0.000000
    23  H    4.351037   2.325940   0.000000
 Stoichiometry    C9H11NO2
 Framework group  C1[X(C9H11NO2)]
 Deg. of freedom    63
 Full point group                 C1      NOp   1
 Largest Abelian subgroup         C1      NOp   1
 Largest concise Abelian subgroup C1      NOp   1
                         Standard orientation:                         
 ---------------------------------------------------------------------
 Center     Atomic      Atomic             Coordinates (Angstroms)
 Number     Number       Type             X           Y           Z
 ---------------------------------------------------------------------
      1          7           0       -2.945890   -1.392195   -0.232862
      2          1           0       -3.298578   -0.937675   -1.070726
      3          6           0       -1.686448   -0.787313    0.197383
      4          1           0       -1.391301   -1.246297    1.142347
      5          6           0       -0.586983   -1.055750   -0.860456
      6          6           0       -1.809427    0.698020    0.452336
      7          1           0       -0.570268   -2.139307   -1.001256
      8          1           0       -0.900736   -0.608904   -1.807877
      9          6           0        0.788280   -0.552778   -0.478042
     10          8           0       -2.325243    1.541588   -0.358059
     11          6           0        1.317953    0.607963   -1.052868
     12          6           0        1.557440   -1.239952    0.470538
     13          1           0        0.741955    1.147843   -1.797511
     14          6           0        2.580864    1.075822   -0.686028
     15          6           0        2.818415   -0.775784    0.839662
     16          1           0        1.169430   -2.148908    0.919347
     17          1           0        2.975457    1.975685   -1.144647
     18          6           0        3.334045    0.386123    0.262719
     19          1           0        3.400550   -1.323024    1.572797
     20          1           0        4.316026    0.746762    0.547415
     21          1           0       -3.658790   -1.299544    0.484397
     22          8           0       -1.427509    1.306144    1.508226
     23          1           0       -2.025333    2.658764   -0.287051
 ---------------------------------------------------------------------
 Rotational constants (GHZ):      1.7032850      0.5898335      0.5293853
 Standard basis: 6-311++G(d,p) (5D, 7F)
 There are   341 symmetry adapted basis functions of A   symmetry.
 Integral buffers will be    262144 words long.
 Raffenetti 2 integral format.
 Two-electron integral symmetry is turned on.
   341 basis functions,   531 primitive gaussians,   353 cartesian basis functions
    44 alpha electrons       44 beta electrons
       nuclear repulsion energy       679.6562494690 Hartrees.
 NAtoms=   23 NActive=   23 NUniq=   23 SFac= 1.00D+00 NAtFMM=   50 NAOKFM=F Big=F
 ------------------------------------------------------------------------------
 Polarizable Continuum Model (PCM)
 =================================
 Model                : C-PCM.
 Atomic radii         : UFF (Universal Force Field).
 Polarization charges : Total charges.
 Charge compensation  : None.
 Solution method      : Matrix inversion.
 Cavity type          : Scaled VdW (van der Waals Surface) (Alpha=1.100).
 Cavity algorithm     : GePol (No added spheres)
                        Default sphere list used, NSphG=   23.
                        Lebedev-Laikov grids with approx.  5.0 points / Ang**2.
                        Smoothing algorithm: Karplus/York (Gamma=1.0000).
                        Polarization charges: spherical gaussians, with
                                              point-specific exponents (IZeta= 3).
                        Self-potential: point-specific (ISelfS= 7).
                        Self-field    : sphere-specific E.n sum rule (ISelfD= 2).
 1st derivatives      : Analytical E(r).r(x)/FMM algorithm (CHGder, D1EAlg=3).
                        Cavity 1st derivative terms included.
 Solvent              : Water, Eps=  78.355300 Eps(inf)=   1.777849
 ------------------------------------------------------------------------------
 One-electron integrals computed using PRISM.
 NBasis=   341 RedAO= T  NBF=   341
 NBsUse=   340 1.00D-06 NBFU=   340
 Harris functional with IExCor=  402 diagonalized for initial guess.
 ExpMin= 3.60D-02 ExpMax= 8.59D+03 ExpMxC= 1.30D+03 IAcc=3 IRadAn=         0 AccDes= 0.00D+00
 HarFok:  IExCor=  402 AccDes= 0.00D+00 IRadAn=         0 IDoV= 1
 ScaDFX=  1.000000  1.000000  1.000000  1.000000
 FoFCou: FMM=F IPFlag=           0 FMFlag=      100000 FMFlg1=           0
         NFxFlg=           0 DoJE=T BraDBF=F KetDBF=T FulRan=T
         Omega=  0.000000  0.000000  1.000000  0.000000  0.000000 ICntrl=     500 IOpCl=  0
         NMat0=    1 NMatS0=    1 NMatT0=    0 NMatD0=    1 NMtDS0=    0 NMtDT0=    0
         I1Cent=           4 NGrid=           0.
 Petite list used in FoFCou.
 Initial guess orbital symmetries:
       Occupied  (A) (A) (A) (A) (A) (A) (A) (A) (A) (A) (A) (A)
                 (A) (A) (A) (A) (A) (A) (A) (A) (A) (A) (A) (A)
                 (A) (A) (A) (A) (A) (A) (A) (A) (A) (A) (A) (A)
                 (A) (A) (A) (A) (A) (A) (A) (A)
       Virtual   (A) (A) (A) (A) (A) (A) (A) (A) (A) (A) (A) (A)
                 (A) (A) (A) (A) (A) (A) (A) (A) (A) (A) (A) (A)
                 (A) (A) (A) (A) (A) (A) (A) (A) (A) (A) (A) (A)
                 (A) (A) (A) (A) (A) (A) (A) (A) (A) (A) (A) (A)
                 (A) (A) (A) (A) (A) (A) (A) (A) (A) (A) (A) (A)
                 (A) (A) (A) (A) (A) (A) (A) (A) (A) (A) (A) (A)
                 (A) (A) (A) (A) (A) (A) (A) (A) (A) (A) (A) (A)
                 (A) (A) (A) (A) (A) (A) (A) (A) (A) (A) (A) (A)
                 (A) (A) (A) (A) (A) (A) (A) (A) (A) (A) (A) (A)
                 (A) (A) (A) (A) (A) (A) (A) (A) (A) (A) (A) (A)
                 (A) (A) (A) (A) (A) (A) (A) (A) (A) (A) (A) (A)
                 (A) (A) (A) (A) (A) (A) (A) (A) (A) (A) (A) (A)
                 (A) (A) (A) (A) (A) (A) (A) (A) (A) (A) (A) (A)
                 (A) (A) (A) (A) (A) (A) (A) (A) (A) (A) (A) (A)
                 (A) (A) (A) (A) (A) (A) (A) (A) (A) (A) (A) (A)
                 (A) (A) (A) (A) (A) (A) (A) (A) (A) (A) (A) (A)
                 (A) (A) (A) (A) (A) (A) (A) (A) (A) (A) (A) (A)
                 (A) (A) (A) (A) (A) (A) (A) (A) (A) (A) (A) (A)
                 (A) (A) (A) (A) (A) (A) (A) (A) (A) (A) (A) (A)
                 (A) (A) (A) (A) (A) (A) (A) (A) (A) (A) (A) (A)
                 (A) (A) (A) (A) (A) (A) (A) (A) (A) (A) (A) (A)
                 (A) (A) (A) (A) (A) (A) (A) (A) (A) (A) (A) (A)
                 (A) (A) (A) (A) (A) (A) (A) (A) (A) (A) (A) (A)
                 (A) (A) (A) (A) (A) (A) (A) (A) (A) (A) (A) (A)
                 (A) (A) (A) (A) (A) (A) (A) (A)
 The electronic state of the initial guess is 1-A.
 Requested convergence on RMS density matrix=1.00D-08 within 128 cycles.
 Requested convergence on MAX density matrix=1.00D-06.
 Requested convergence on             energy=1.00D-06.
 No special actions if energy rises.
 Error on total polarization charges =  0.01645
 SCF Done:  E(RB3LYP) =  -554.920619824     A.U. after   14 cycles
             Convg  =    0.3952D-08             -V/T =  2.0045

 **********************************************************************

            Population analysis using the SCF density.

 **********************************************************************

 Orbital symmetries:
       Occupied  (A) (A) (A) (A) (A) (A) (A) (A) (A) (A) (A) (A)
                 (A) (A) (A) (A) (A) (A) (A) (A) (A) (A) (A) (A)
                 (A) (A) (A) (A) (A) (A) (A) (A) (A) (A) (A) (A)
                 (A) (A) (A) (A) (A) (A) (A) (A)
       Virtual   (A) (A) (A) (A) (A) (A) (A) (A) (A) (A) (A) (A)
                 (A) (A) (A) (A) (A) (A) (A) (A) (A) (A) (A) (A)
                 (A) (A) (A) (A) (A) (A) (A) (A) (A) (A) (A) (A)
                 (A) (A) (A) (A) (A) (A) (A) (A) (A) (A) (A) (A)
                 (A) (A) (A) (A) (A) (A) (A) (A) (A) (A) (A) (A)
                 (A) (A) (A) (A) (A) (A) (A) (A) (A) (A) (A) (A)
                 (A) (A) (A) (A) (A) (A) (A) (A) (A) (A) (A) (A)
                 (A) (A) (A) (A) (A) (A) (A) (A) (A) (A) (A) (A)
                 (A) (A) (A) (A) (A) (A) (A) (A) (A) (A) (A) (A)
                 (A) (A) (A) (A) (A) (A) (A) (A) (A) (A) (A) (A)
                 (A) (A) (A) (A) (A) (A) (A) (A) (A) (A) (A) (A)
                 (A) (A) (A) (A) (A) (A) (A) (A) (A) (A) (A) (A)
                 (A) (A) (A) (A) (A) (A) (A) (A) (A) (A) (A) (A)
                 (A) (A) (A) (A) (A) (A) (A) (A) (A) (A) (A) (A)
                 (A) (A) (A) (A) (A) (A) (A) (A) (A) (A) (A) (A)
                 (A) (A) (A) (A) (A) (A) (A) (A) (A) (A) (A) (A)
                 (A) (A) (A) (A) (A) (A) (A) (A) (A) (A) (A) (A)
                 (A) (A) (A) (A) (A) (A) (A) (A) (A) (A) (A) (A)
                 (A) (A) (A) (A) (A) (A) (A) (A) (A) (A) (A) (A)
                 (A) (A) (A) (A) (A) (A) (A) (A) (A) (A) (A) (A)
                 (A) (A) (A) (A) (A) (A) (A) (A) (A) (A) (A) (A)
                 (A) (A) (A) (A) (A) (A) (A) (A) (A) (A) (A) (A)
                 (A) (A) (A) (A) (A) (A) (A) (A) (A) (A) (A) (A)
                 (A) (A) (A) (A) (A) (A) (A) (A) (A) (A) (A) (A)
                 (A) (A) (A) (A) (A) (A) (A) (A)
 The electronic state is 1-A.
 Alpha  occ. eigenvalues --  -19.18590 -19.10555 -14.31623 -10.31635 -10.23903
 Alpha  occ. eigenvalues --  -10.19328 -10.19040 -10.18209 -10.18194 -10.18121
 Alpha  occ. eigenvalues --  -10.18105 -10.18051  -1.12386  -0.98160  -0.91601
 Alpha  occ. eigenvalues --   -0.86855  -0.79551  -0.75520  -0.73651  -0.67647
 Alpha  occ. eigenvalues --   -0.62218  -0.61372  -0.59338  -0.53171  -0.52656
 Alpha  occ. eigenvalues --   -0.50172  -0.48616  -0.47416  -0.46719  -0.45945
 Alpha  occ. eigenvalues --   -0.44164  -0.42839  -0.41525  -0.40867  -0.38551
 Alpha  occ. eigenvalues --   -0.37749  -0.36713  -0.35081  -0.34830  -0.31462
 Alpha  occ. eigenvalues --   -0.28832  -0.26597  -0.26442  -0.25394
 Alpha virt. eigenvalues --   -0.04462  -0.02581  -0.02320  -0.01529  -0.00059
 Alpha virt. eigenvalues --    0.00202   0.01216   0.01951   0.02613   0.03620
 Alpha virt. eigenvalues --    0.04088   0.04681   0.05156   0.06208   0.06669
 Alpha virt. eigenvalues --    0.07155   0.07808   0.08396   0.08854   0.09087
 Alpha virt. eigenvalues --    0.10106   0.10528   0.11027   0.11184   0.11649
 Alpha virt. eigenvalues --    0.11960   0.12184   0.12363   0.12630   0.13211
 Alpha virt. eigenvalues --    0.13559   0.13974   0.14337   0.14673   0.15409
 Alpha virt. eigenvalues --    0.15863   0.16419   0.16668   0.16945   0.17806
 Alpha virt. eigenvalues --    0.17976   0.18381   0.18775   0.19016   0.19252
 Alpha virt. eigenvalues --    0.19719   0.20556   0.21006   0.22189   0.22780
 Alpha virt. eigenvalues --    0.23142   0.24110   0.24418   0.24991   0.25413
 Alpha virt. eigenvalues --    0.25490   0.25940   0.26268   0.27053   0.28097
 Alpha virt. eigenvalues --    0.28187   0.28682   0.28977   0.29183   0.30196
 Alpha virt. eigenvalues --    0.30568   0.30863   0.31741   0.32320   0.32761
 Alpha virt. eigenvalues --    0.33777   0.34279   0.35463   0.36010   0.36455
 Alpha virt. eigenvalues --    0.36968   0.38098   0.38538   0.39118   0.40493
 Alpha virt. eigenvalues --    0.42243   0.42745   0.45447   0.47950   0.49440
 Alpha virt. eigenvalues --    0.50971   0.52476   0.53262   0.54665   0.54847
 Alpha virt. eigenvalues --    0.55605   0.56113   0.56692   0.57351   0.58553
 Alpha virt. eigenvalues --    0.58860   0.59162   0.59686   0.61914   0.62887
 Alpha virt. eigenvalues --    0.64763   0.67016   0.67705   0.68581   0.69055
 Alpha virt. eigenvalues --    0.70762   0.71026   0.71484   0.72028   0.72893
 Alpha virt. eigenvalues --    0.73601   0.74153   0.75707   0.75934   0.76785
 Alpha virt. eigenvalues --    0.78642   0.79964   0.82784   0.83786   0.85095
 Alpha virt. eigenvalues --    0.86307   0.87212   0.87523   0.88030   0.90087
 Alpha virt. eigenvalues --    0.90545   0.92242   0.92745   0.94120   0.95143
 Alpha virt. eigenvalues --    0.99826   1.01254   1.02061   1.02856   1.06940
 Alpha virt. eigenvalues --    1.07725   1.08788   1.10015   1.10385   1.13044
 Alpha virt. eigenvalues --    1.14386   1.15308   1.17730   1.18453   1.21555
 Alpha virt. eigenvalues --    1.23448   1.23686   1.27790   1.29772   1.31321
 Alpha virt. eigenvalues --    1.35926   1.37861   1.41349   1.45206   1.48382
 Alpha virt. eigenvalues --    1.48906   1.50193   1.51425   1.52241   1.53020
 Alpha virt. eigenvalues --    1.54221   1.56003   1.56406   1.56840   1.58249
 Alpha virt. eigenvalues --    1.61213   1.61632   1.62216   1.64049   1.65335
 Alpha virt. eigenvalues --    1.65811   1.68113   1.68948   1.71723   1.72264
 Alpha virt. eigenvalues --    1.73838   1.74711   1.75596   1.77292   1.78670
 Alpha virt. eigenvalues --    1.80303   1.82416   1.82749   1.85077   1.85940
 Alpha virt. eigenvalues --    1.88624   1.91547   1.92121   1.92873   1.94390
 Alpha virt. eigenvalues --    1.94941   1.95836   1.96307   1.98433   2.01385
 Alpha virt. eigenvalues --    2.01676   2.02917   2.07705   2.08485   2.12219
 Alpha virt. eigenvalues --    2.13187   2.20460   2.21825   2.25240   2.27606
 Alpha virt. eigenvalues --    2.32368   2.34198   2.39343   2.40306   2.43660
 Alpha virt. eigenvalues --    2.45507   2.46197   2.48436   2.53938   2.55517
 Alpha virt. eigenvalues --    2.57918   2.59238   2.63339   2.63738   2.65384
 Alpha virt. eigenvalues --    2.66520   2.68033   2.69023   2.70761   2.71921
 Alpha virt. eigenvalues --    2.72129   2.74135   2.75473   2.76685   2.79403
 Alpha virt. eigenvalues --    2.79957   2.81104   2.82827   2.84800   2.86028
 Alpha virt. eigenvalues --    2.87067   2.88478   2.90053   2.90814   2.92602
 Alpha virt. eigenvalues --    2.94042   2.95167   2.96480   2.97909   3.01724
 Alpha virt. eigenvalues --    3.01900   3.05610   3.09712   3.12873   3.15344
 Alpha virt. eigenvalues --    3.18672   3.19607   3.22290   3.30106   3.34122
 Alpha virt. eigenvalues --    3.36156   3.37886   3.48555   3.49617   3.53757
 Alpha virt. eigenvalues --    3.55936   3.62507   3.65734   3.71032   3.75914
 Alpha virt. eigenvalues --    3.85176   3.99776   4.03890   4.06865   4.10107
 Alpha virt. eigenvalues --    4.12088   4.15569   4.16087   4.21546   4.35114
 Alpha virt. eigenvalues --    4.72294   4.84047   4.84844   5.00901   5.09640
 Alpha virt. eigenvalues --    5.13525   5.27976   5.54275   5.81751  23.61990
 Alpha virt. eigenvalues --   23.76371  23.80605  23.91507  23.96763  23.97842
 Alpha virt. eigenvalues --   24.07913  24.09237  24.18542  35.60026  49.86821
 Alpha virt. eigenvalues --   50.00101
          Condensed to atoms (all electrons):
              1          2          3          4          5          6
     1  N    6.683952   0.364633  -0.117120  -0.038796  -0.012524   0.005343
     2  H    0.364633   0.431253   0.047095   0.013730  -0.034333  -0.040715
     3  C   -0.117120   0.047095  10.258681   0.564363  -0.957425  -2.296440
     4  H   -0.038796   0.013730   0.564363   0.511745   0.020570  -0.229479
     5  C   -0.012524  -0.034333  -0.957425   0.020570   9.889710  -0.155047
     6  C    0.005343  -0.040715  -2.296440  -0.229479  -0.155047   7.446950
     7  H    0.000575  -0.002576  -0.080100  -0.009035   0.416385  -0.002267
     8  H   -0.004848   0.002242   0.012970   0.015835   0.476587  -0.068893
     9  C    0.041927  -0.020898  -0.883166  -0.059771  -2.030236   0.463934
    10  O   -0.018237   0.004809  -0.193047   0.010469  -0.052187   0.440154
    11  C    0.012843   0.010536   0.284072  -0.038055  -0.473236   0.110263
    12  C   -0.022438  -0.004441  -0.108166   0.020530  -0.572169  -0.074375
    13  H   -0.004105   0.000524   0.038761  -0.000185   0.005666  -0.036093
    14  C   -0.003005   0.000081   0.151030   0.000943  -0.029433  -0.052512
    15  C    0.002513   0.000801  -0.005179  -0.012208  -0.112599   0.017944
    16  H   -0.002542  -0.000191  -0.001921  -0.007327  -0.028962   0.024045
    17  H    0.000079  -0.000065   0.001330   0.000295   0.006994  -0.002564
    18  C    0.002695   0.000250  -0.044597  -0.004405   0.012145   0.097892
    19  H   -0.000076  -0.000023   0.001714   0.000743   0.010892  -0.005326
    20  H    0.000024   0.000000  -0.001528  -0.000087  -0.009035   0.002389
    21  H    0.401950  -0.044024  -0.112140  -0.015522   0.016522   0.049341
    22  O    0.007953  -0.000007  -0.002745   0.010735   0.004334   0.439095
    23  H    0.000943   0.001653  -0.073931  -0.004418   0.022808   0.036150
              7          8          9         10         11         12
     1  N    0.000575  -0.004848   0.041927  -0.018237   0.012843  -0.022438
     2  H   -0.002576   0.002242  -0.020898   0.004809   0.010536  -0.004441
     3  C   -0.080100   0.012970  -0.883166  -0.193047   0.284072  -0.108166
     4  H   -0.009035   0.015835  -0.059771   0.010469  -0.038055   0.020530
     5  C    0.416385   0.476587  -2.030236  -0.052187  -0.473236  -0.572169
     6  C   -0.002267  -0.068893   0.463934   0.440154   0.110263  -0.074375
     7  H    0.497830  -0.027735  -0.034692  -0.003863   0.032836  -0.018682
     8  H   -0.027735   0.523706  -0.148752   0.008380   0.085378  -0.062902
     9  C   -0.034692  -0.148752   9.292155   0.088918  -0.857185   0.368059
    10  O   -0.003863   0.008380   0.088918   7.944356  -0.034803  -0.001541
    11  C    0.032836   0.085378  -0.857185  -0.034803   9.218513  -2.931540
    12  C   -0.018682  -0.062902   0.368059  -0.001541  -2.931540   9.100790
    13  H    0.004678  -0.007628  -0.045403  -0.006555   0.390709   0.010957
    14  C   -0.006860   0.024649  -0.751985  -0.015165   0.670836   0.130091
    15  C    0.017845  -0.029001  -0.389117  -0.003073   0.544358   0.077529
    16  H   -0.005124   0.002257   0.017991   0.001433   0.017171   0.380929
    17  H    0.000110   0.002101   0.009068  -0.000008  -0.060659  -0.000861
    18  C   -0.007803  -0.013686   0.055922  -0.000602  -0.485588  -0.177334
    19  H    0.000831   0.000608   0.008543  -0.000096   0.009900  -0.062264
    20  H   -0.000254  -0.000340   0.031900   0.000052  -0.015895   0.004000
    21  H    0.001198   0.000818   0.009199  -0.003066   0.001670  -0.003996
    22  O   -0.001726   0.001870  -0.005370  -0.233114  -0.023430  -0.012423
    23  H   -0.000407  -0.000099  -0.020712   0.253136   0.021916  -0.007944
             13         14         15         16         17         18
     1  N   -0.004105  -0.003005   0.002513  -0.002542   0.000079   0.002695
     2  H    0.000524   0.000081   0.000801  -0.000191  -0.000065   0.000250
     3  C    0.038761   0.151030  -0.005179  -0.001921   0.001330  -0.044597
     4  H   -0.000185   0.000943  -0.012208  -0.007327   0.000295  -0.004405
     5  C    0.005666  -0.029433  -0.112599  -0.028962   0.006994   0.012145
     6  C   -0.036093  -0.052512   0.017944   0.024045  -0.002564   0.097892
     7  H    0.004678  -0.006860   0.017845  -0.005124   0.000110  -0.007803
     8  H   -0.007628   0.024649  -0.029001   0.002257   0.002101  -0.013686
     9  C   -0.045403  -0.751985  -0.389117   0.017991   0.009068   0.055922
    10  O   -0.006555  -0.015165  -0.003073   0.001433  -0.000008  -0.000602
    11  C    0.390709   0.670836   0.544358   0.017171  -0.060659  -0.485588
    12  C    0.010957   0.130091   0.077529   0.380929  -0.000861  -0.177334
    13  H    0.513255  -0.058262   0.020133  -0.002707  -0.014525   0.003464
    14  C   -0.058262   5.623361  -0.054177   0.007980   0.420260   0.332633
    15  C    0.020133  -0.054177   5.623199  -0.093915   0.006986   0.340848
    16  H   -0.002707   0.007980  -0.093915   0.511602   0.000334   0.008632
    17  H   -0.014525   0.420260   0.006986   0.000334   0.502070  -0.061381
    18  C    0.003464   0.332633   0.340848   0.008632  -0.061381   5.862673
    19  H    0.000683   0.011412   0.418602  -0.013291   0.000287  -0.072646
    20  H    0.000004  -0.072761  -0.084870   0.000551  -0.013786   0.482668
    21  H   -0.000658   0.000325  -0.000581  -0.000067   0.000026   0.000135
    22  O    0.001169   0.013577  -0.010411   0.000468  -0.000142   0.013053
    23  H   -0.001824   0.003605  -0.000581   0.000426   0.000138   0.000486
             19         20         21         22         23
     1  N   -0.000076   0.000024   0.401950   0.007953   0.000943
     2  H   -0.000023   0.000000  -0.044024  -0.000007   0.001653
     3  C    0.001714  -0.001528  -0.112140  -0.002745  -0.073931
     4  H    0.000743  -0.000087  -0.015522   0.010735  -0.004418
     5  C    0.010892  -0.009035   0.016522   0.004334   0.022808
     6  C   -0.005326   0.002389   0.049341   0.439095   0.036150
     7  H    0.000831  -0.000254   0.001198  -0.001726  -0.000407
     8  H    0.000608  -0.000340   0.000818   0.001870  -0.000099
     9  C    0.008543   0.031900   0.009199  -0.005370  -0.020712
    10  O   -0.000096   0.000052  -0.003066  -0.233114   0.253136
    11  C    0.009900  -0.015895   0.001670  -0.023430   0.021916
    12  C   -0.062264   0.004000  -0.003996  -0.012423  -0.007944
    13  H    0.000683   0.000004  -0.000658   0.001169  -0.001824
    14  C    0.011412  -0.072761   0.000325   0.013577   0.003605
    15  C    0.418602  -0.084870  -0.000581  -0.010411  -0.000581
    16  H   -0.013291   0.000551  -0.000067   0.000468   0.000426
    17  H    0.000287  -0.013786   0.000026  -0.000142   0.000138
    18  C   -0.072646   0.482668   0.000135   0.013053   0.000486
    19  H    0.501846  -0.013850   0.000004  -0.000760  -0.000043
    20  H   -0.013850   0.514362   0.000001   0.000095   0.000006
    21  H    0.000004   0.000001   0.421483  -0.001170   0.000615
    22  O   -0.000760   0.000095  -0.001170   8.208004  -0.010183
    23  H   -0.000043   0.000006   0.000615  -0.010183   0.378699
 Mulliken atomic charges:
              1
     1  N   -0.301738
     2  H    0.269667
     3  C   -0.482510
     4  H    0.249332
     5  C   -0.415426
     6  C   -0.169789
     7  H    0.228837
     8  H    0.206485
     9  C    0.859668
    10  O   -0.186350
    11  C   -0.490612
    12  C   -0.031810
    13  H    0.187942
    14  C   -0.346621
    15  C   -0.275048
    16  H    0.182229
    17  H    0.203912
    18  C   -0.345453
    19  H    0.202313
    20  H    0.176351
    21  H    0.277938
    22  O   -0.398874
    23  H    0.399559
 Sum of Mulliken atomic charges =   0.00000
 Mulliken charges with hydrogens summed into heavy atoms:
              1
     1  N    0.245867
     3  C   -0.233178
     5  C    0.019896
     6  C   -0.169789
     9  C    0.859668
    10  O    0.213208
    11  C   -0.302670
    12  C    0.150419
    14  C   -0.142710
    15  C   -0.072735
    18  C   -0.169103
    22  O   -0.398874
 Sum of Mulliken charges with hydrogens summed into heavy atoms =   0.00000
 Electronic spatial extent (au):  <R**2>=           2241.1947
 Charge=              0.0000 electrons
 Dipole moment (field-independent basis, Debye):
    X=             -0.7241    Y=              0.4994    Z=             -2.9543  Tot=              3.0825
 Quadrupole moment (field-independent basis, Debye-Ang):
   XX=            -63.1796   YY=            -66.8101   ZZ=            -76.5251
   XY=             -1.1274   XZ=              4.8253   YZ=            -10.3692
 Traceless Quadrupole moment (field-independent basis, Debye-Ang):
   XX=              5.6587   YY=              2.0282   ZZ=             -7.6868
   XY=             -1.1274   XZ=              4.8253   YZ=            -10.3692
 Octapole moment (field-independent basis, Debye-Ang**2):
  XXX=            -32.0698  YYY=             45.3767  ZZZ=            -12.4293  XYY=             -4.7994
  XXY=             15.7183  XXZ=             12.7204  XZZ=             -4.8762  YZZ=             -8.6880
  YYZ=             -6.2643  XYZ=              3.1801
 Hexadecapole moment (field-independent basis, Debye-Ang**3):
 XXXX=          -1857.7836 YYYY=           -522.5012 ZZZZ=           -373.2305 XXXY=             27.6904
 XXXZ=             33.2999 YYYX=           -101.6098 YYYZ=            -42.3504 ZZZX=             25.7315
 ZZZY=            -22.7247 XXYY=           -442.8493 XXZZ=           -399.6264 YYZZ=           -161.8032
 XXYZ=            -40.3883 YYXZ=              3.9936 ZZXY=             12.0081
 N-N= 6.796562494690D+02 E-N=-2.654223500973D+03  KE= 5.524192659058D+02
 D1PCM: C-PCM CHGder 1st derivatives, ID1Alg=3 FixD1E=F DoIter=F DoCFld=F I1PDM=0.
 Calling FoFJK, ICntrl=      2127 FMM=F ISym2X=0 I1Cent= 0 IOpClX= 0 NMat=1 NMatS=1 NMatT=0.
 ***** Axes restored to original set *****
 -------------------------------------------------------------------
 Center     Atomic                   Forces (Hartrees/Bohr)
 Number     Number              X              Y              Z
 -------------------------------------------------------------------
      1        7          -0.001448666   -0.002460077   -0.001364574
      2        1          -0.000135945   -0.000516844   -0.000084654
      3        6          -0.006865706    0.001029149   -0.009331158
      4        1          -0.000572209    0.003442292    0.000296320
      5        6          -0.000168855    0.000292033   -0.000268020
      6        6           0.040402236    0.079034899    0.103637366
      7        1           0.000024141   -0.000156345   -0.000020027
      8        1           0.000175019   -0.000190572   -0.000198506
      9        6          -0.000063828   -0.000244935   -0.000091931
     10        8          -0.016944127    0.078161502   -0.097730942
     11        6           0.000047253   -0.000148395    0.000068291
     12        6           0.000038021    0.000044718   -0.000185745
     13        1          -0.000002203    0.000014148   -0.000016916
     14        6          -0.000037399   -0.000039096   -0.000030155
     15        6          -0.000005138   -0.000052854   -0.000016713
     16        1           0.000001548   -0.000015043    0.000055119
     17        1           0.000017084    0.000020086   -0.000004178
     18        6           0.000023350    0.000085963    0.000005195
     19        1           0.000012814    0.000007173    0.000012095
     20        1           0.000014048    0.000001360   -0.000011852
     21        1           0.000188357    0.000113124    0.000020080
     22        8           0.007616447   -0.058742230   -0.009604171
     23        1          -0.022316245   -0.099680056    0.014865074
 -------------------------------------------------------------------
 Cartesian Forces:  Max     0.103637366 RMS     0.026643536

 GradGradGradGradGradGradGradGradGradGradGradGradGradGradGradGradGradGrad
 Berny optimization.
 Internal  Forces:  Max     0.101725314 RMS     0.015774103
 Search for a local minimum.
 Step number   1 out of a maximum of  123
 All quantities printed in internal units (Hartrees-Bohrs-Radians)
 Mixed Optimization -- RFO/linear search
 Second derivative matrix not updated -- first step.
 ITU=  0
     Eigenvalues ---    0.00230   0.00588   0.00606   0.00873   0.01140
     Eigenvalues ---    0.01475   0.02092   0.02118   0.02125   0.02142
     Eigenvalues ---    0.02151   0.02157   0.02158   0.02163   0.03300
     Eigenvalues ---    0.03873   0.04131   0.04453   0.05266   0.05437
     Eigenvalues ---    0.06357   0.09491   0.12991   0.16000   0.16000
     Eigenvalues ---    0.16000   0.16000   0.16000   0.16000   0.16000
     Eigenvalues ---    0.16000   0.17196   0.18787   0.22000   0.22000
     Eigenvalues ---    0.22013   0.23473   0.24999   0.25000   0.25000
     Eigenvalues ---    0.27723   0.27925   0.31005   0.31144   0.34412
     Eigenvalues ---    0.34492   0.34673   0.35345   0.35369   0.35472
     Eigenvalues ---    0.35475   0.35497   0.36726   0.41926   0.41974
     Eigenvalues ---    0.44924   0.45061   0.45736   0.46036   0.46430
     Eigenvalues ---    0.46611   0.73554   0.74026
 RFO step:  Lambda=-7.71426305D-02 EMin= 2.30000000D-03
 Linear search not attempted -- first point.
 Maximum step size (   0.300) exceeded in Quadratic search.
    -- Step size scaled by   0.637
 Iteration  1 RMS(Cart)=  0.04162511 RMS(Int)=  0.00132813
 Iteration  2 RMS(Cart)=  0.00165051 RMS(Int)=  0.00000571
 Iteration  3 RMS(Cart)=  0.00000266 RMS(Int)=  0.00000535
 Iteration  4 RMS(Cart)=  0.00000000 RMS(Int)=  0.00000535
 Variable       Old X    -DE/DX   Delta X   Delta X   Delta X     New X
                                 (Linear)    (Quad)   (Total)
    R1        1.92065  -0.00009   0.00000  -0.00011  -0.00011   1.92053
    R2        2.76261   0.00282   0.00000   0.00404   0.00404   2.76665
    R3        1.91904  -0.00011   0.00000  -0.00013  -0.00013   1.91892
    R4        2.06209  -0.00121   0.00000  -0.00181  -0.00181   2.06027
    R5        2.92749   0.00060   0.00000   0.00108   0.00108   2.92857
    R6        2.85739  -0.00051   0.00000  -0.00083  -0.00083   2.85655
    R7        2.06508   0.00016   0.00000   0.00024   0.00024   2.06532
    R8        2.06640   0.00006   0.00000   0.00008   0.00008   2.06648
    R9        2.86003  -0.00012   0.00000  -0.00020  -0.00020   2.85983
   R10        2.41590   0.05708   0.00000   0.04474   0.04474   2.46064
   R11        2.41307  -0.03553   0.00000  -0.02768  -0.02768   2.38539
   R12        2.64447  -0.00008   0.00000  -0.00010  -0.00010   2.64437
   R13        2.64806  -0.00004   0.00000  -0.00005  -0.00005   2.64801
   R14        2.19002  -0.10173   0.00000  -0.18181  -0.18181   2.00821
   R15        2.05080   0.00002   0.00000   0.00003   0.00003   2.05083
   R16        2.63778  -0.00003   0.00000  -0.00004  -0.00004   2.63775
   R17        2.63328   0.00005   0.00000   0.00006   0.00006   2.63334
   R18        2.05119   0.00004   0.00000   0.00005   0.00005   2.05124
   R19        2.04910   0.00002   0.00000   0.00004   0.00004   2.04914
   R20        2.63418  -0.00004   0.00000  -0.00005  -0.00005   2.63413
   R21        2.63802   0.00004   0.00000   0.00005   0.00005   2.63808
   R22        2.04915   0.00001   0.00000   0.00002   0.00002   2.04916
   R23        2.04876   0.00001   0.00000   0.00002   0.00002   2.04878
    A1        1.93535   0.00078   0.00000   0.00225   0.00225   1.93760
    A2        1.87324  -0.00005   0.00000   0.00015   0.00015   1.87339
    A3        1.93817  -0.00039   0.00000  -0.00090  -0.00090   1.93727
    A4        1.89003   0.00046   0.00000   0.00121   0.00122   1.89125
    A5        1.91640  -0.00260   0.00000  -0.00466  -0.00467   1.91173
    A6        1.96709   0.00278   0.00000   0.00799   0.00800   1.97509
    A7        1.90338   0.00142   0.00000   0.00368   0.00368   1.90706
    A8        1.86415  -0.00287   0.00000  -0.01080  -0.01079   1.85336
    A9        1.92098   0.00082   0.00000   0.00244   0.00244   1.92342
   A10        1.84486  -0.00028   0.00000  -0.00069  -0.00069   1.84417
   A11        1.89356   0.00003   0.00000   0.00055   0.00055   1.89411
   A12        1.99850   0.00078   0.00000   0.00179   0.00179   2.00029
   A13        1.87333   0.00002   0.00000  -0.00037  -0.00037   1.87296
   A14        1.92642  -0.00025   0.00000  -0.00075  -0.00075   1.92567
   A15        1.92181  -0.00033   0.00000  -0.00063  -0.00063   1.92118
   A16        2.18231  -0.05829   0.00000  -0.11349  -0.11349   2.06882
   A17        2.19311  -0.02908   0.00000  -0.05662  -0.05662   2.13649
   A18        1.90773   0.08737   0.00000   0.17012   0.17012   2.07785
   A19        2.11274  -0.00013   0.00000  -0.00024  -0.00024   2.11250
   A20        2.10232   0.00019   0.00000   0.00038   0.00038   2.10270
   A21        2.06810  -0.00006   0.00000  -0.00014  -0.00014   2.06796
   A22        2.08613  -0.03505   0.00000  -0.09415  -0.09415   1.99198
   A23        2.08702  -0.00004   0.00000  -0.00006  -0.00006   2.08696
   A24        2.10891   0.00009   0.00000   0.00017   0.00017   2.10908
   A25        2.08724  -0.00006   0.00000  -0.00011  -0.00011   2.08713
   A26        2.10909   0.00002   0.00000   0.00004   0.00004   2.10913
   A27        2.08787   0.00002   0.00000   0.00007   0.00007   2.08794
   A28        2.08621  -0.00004   0.00000  -0.00011  -0.00011   2.08610
   A29        2.09006   0.00001   0.00000   0.00004   0.00004   2.09010
   A30        2.09658   0.00000   0.00000  -0.00001  -0.00001   2.09657
   A31        2.09653  -0.00001   0.00000  -0.00002  -0.00002   2.09651
   A32        2.09672   0.00001   0.00000   0.00004   0.00004   2.09677
   A33        2.09069   0.00001   0.00000   0.00001   0.00001   2.09071
   A34        2.09575  -0.00002   0.00000  -0.00005  -0.00005   2.09570
   A35        2.08694  -0.00005   0.00000  -0.00010  -0.00010   2.08684
   A36        2.09849   0.00002   0.00000   0.00003   0.00003   2.09852
   A37        2.09774   0.00003   0.00000   0.00007   0.00007   2.09781
    D1        3.05769  -0.00049   0.00000  -0.00209  -0.00208   3.05560
    D2       -1.14894   0.00000   0.00000   0.00039   0.00039  -1.14855
    D3        0.99936   0.00111   0.00000   0.00572   0.00572   1.00507
    D4        0.97657  -0.00069   0.00000  -0.00316  -0.00315   0.97342
    D5        3.05313  -0.00019   0.00000  -0.00068  -0.00068   3.05245
    D6       -1.08176   0.00091   0.00000   0.00466   0.00465  -1.07711
    D7       -0.95023   0.00083   0.00000   0.00263   0.00262  -0.94761
    D8        1.05442   0.00072   0.00000   0.00211   0.00211   1.05653
    D9       -3.07450   0.00087   0.00000   0.00297   0.00297  -3.07153
   D10        1.11811   0.00071   0.00000   0.00355   0.00355   1.12165
   D11        3.12276   0.00060   0.00000   0.00303   0.00303   3.12579
   D12       -1.00616   0.00075   0.00000   0.00389   0.00389  -1.00227
   D13       -3.12544  -0.00147   0.00000  -0.00596  -0.00596  -3.13140
   D14       -1.12078  -0.00157   0.00000  -0.00648  -0.00648  -1.12726
   D15        1.03348  -0.00143   0.00000  -0.00562  -0.00562   1.02787
   D16       -0.87745   0.00015   0.00000  -0.00215  -0.00216  -0.87960
   D17        2.25379   0.00055   0.00000   0.00029   0.00027   2.25406
   D18       -2.95094  -0.00017   0.00000  -0.00127  -0.00125  -2.95219
   D19        0.18030   0.00024   0.00000   0.00117   0.00117   0.18148
   D20        1.26828  -0.00065   0.00000  -0.00074  -0.00072   1.26756
   D21       -1.88366  -0.00024   0.00000   0.00170   0.00170  -1.88196
   D22       -1.81892  -0.00016   0.00000  -0.00081  -0.00081  -1.81973
   D23        1.31569  -0.00009   0.00000  -0.00039  -0.00039   1.31530
   D24        2.38526  -0.00014   0.00000  -0.00058  -0.00058   2.38468
   D25       -0.76331  -0.00008   0.00000  -0.00016  -0.00016  -0.76347
   D26        0.32010   0.00020   0.00000   0.00073   0.00073   0.32083
   D27       -2.82847   0.00026   0.00000   0.00115   0.00115  -2.82732
   D28       -2.73124  -0.00684   0.00000  -0.03867  -0.03864  -2.76988
   D29        0.41927  -0.00674   0.00000  -0.03988  -0.03990   0.37937
   D30       -0.01866   0.00004   0.00000   0.00025   0.00025  -0.01841
   D31        3.12928   0.00004   0.00000   0.00028   0.00028   3.12956
   D32        3.12978  -0.00002   0.00000  -0.00017  -0.00017   3.12961
   D33       -0.00546  -0.00002   0.00000  -0.00013  -0.00013  -0.00560
   D34       -3.12895  -0.00004   0.00000  -0.00027  -0.00027  -3.12922
   D35        0.01946  -0.00005   0.00000  -0.00035  -0.00036   0.01910
   D36        0.00584   0.00002   0.00000   0.00014   0.00014   0.00598
   D37       -3.12894   0.00001   0.00000   0.00006   0.00006  -3.12889
   D38        3.13863   0.00000   0.00000   0.00002   0.00002   3.13865
   D39        0.00114   0.00000   0.00000   0.00002   0.00002   0.00116
   D40        0.00339   0.00001   0.00000   0.00006   0.00006   0.00344
   D41       -3.13411   0.00001   0.00000   0.00006   0.00006  -3.13405
   D42       -0.00188  -0.00001   0.00000  -0.00004  -0.00004  -0.00193
   D43       -3.13768  -0.00001   0.00000  -0.00008  -0.00008  -3.13776
   D44        3.13290   0.00001   0.00000   0.00005   0.00005   3.13295
   D45       -0.00290   0.00000   0.00000   0.00001   0.00001  -0.00289
   D46        0.00292   0.00001   0.00000   0.00009   0.00009   0.00301
   D47        3.13933   0.00000   0.00000  -0.00002  -0.00002   3.13931
   D48       -3.13455   0.00001   0.00000   0.00009   0.00009  -3.13447
   D49        0.00185   0.00000   0.00000  -0.00002  -0.00002   0.00183
   D50       -0.00255  -0.00001   0.00000  -0.00008  -0.00008  -0.00263
   D51       -3.13896   0.00000   0.00000   0.00003   0.00003  -3.13893
   D52        3.13323  -0.00001   0.00000  -0.00004  -0.00004   3.13319
   D53       -0.00318   0.00001   0.00000   0.00007   0.00007  -0.00311
         Item               Value     Threshold  Converged?
 Maximum Force            0.101725     0.000450     NO 
 RMS     Force            0.015774     0.000300     NO 
 Maximum Displacement     0.290484     0.001800     NO 
 RMS     Displacement     0.042087     0.001200     NO 
 Predicted change in Energy=-3.708656D-02
 GradGradGradGradGradGradGradGradGradGradGradGradGradGradGradGradGradGrad

                          Input orientation:                          
 ---------------------------------------------------------------------
 Center     Atomic      Atomic             Coordinates (Angstroms)
 Number     Number       Type             X           Y           Z
 ---------------------------------------------------------------------
      1          7           0       -2.953817   -1.356997   -0.195354
      2          1           0       -3.299860   -0.936104   -1.053243
      3          6           0       -1.692445   -0.740792    0.220180
      4          1           0       -1.406775   -1.160283    1.185096
      5          6           0       -0.591386   -1.060393   -0.822506
      6          6           0       -1.799558    0.753039    0.425110
      7          1           0       -0.584705   -2.148905   -0.920360
      8          1           0       -0.897436   -0.648711   -1.788253
      9          6           0        0.788076   -0.556817   -0.456795
     10          8           0       -2.334906    1.473481   -0.518220
     11          6           0        1.330807    0.574539   -1.076174
     12          6           0        1.548480   -1.213437    0.520027
     13          1           0        0.761800    1.090131   -1.843095
     14          6           0        2.597758    1.043829   -0.725523
     15          6           0        2.813503   -0.747774    0.873192
     16          1           0        1.150433   -2.099816    1.003904
     17          1           0        3.002392    1.920629   -1.218800
     18          6           0        3.342117    0.384953    0.251630
     19          1           0        3.388669   -1.271252    1.628847
     20          1           0        4.327241    0.746646    0.523889
     21          1           0       -3.670407   -1.232481    0.513256
     22          8           0       -1.397476    1.322126    1.477655
     23          1           0       -2.067285    2.501389   -0.484789
 ---------------------------------------------------------------------
                    Distance matrix (angstroms):
                    1          2          3          4          5
     1  N    0.000000
     2  H    1.016302   0.000000
     3  C    1.464049   2.059985   0.000000
     4  H    2.082709   2.940100   1.090249   0.000000
     5  C    2.462189   2.721125   1.549732   2.169171   0.000000
     6  C    2.483857   2.699933   1.511622   2.095867   2.510929
     7  H    2.601047   2.976678   2.123841   2.467005   1.092921
     8  H    2.695868   2.528731   2.162018   3.059728   1.093534
     9  C    3.835415   4.148594   2.577814   2.806661   1.513357
    10  O    2.915287   2.650186   2.420949   3.270997   3.090788
    11  C    4.781703   4.870898   3.542694   3.951874   2.536174
    12  C    4.561038   5.104752   3.288905   3.029633   2.530780
    13  H    4.744397   4.607231   3.692249   4.351669   2.738151
    14  C    6.071658   6.229722   4.741842   4.954276   3.822015
    15  C    5.897027   6.412474   4.553025   4.251846   3.816594
    16  H    4.339916   5.038967   3.247017   2.730360   2.729488
    17  H    6.875079   6.921468   5.585277   5.891646   4.686020
    18  C    6.547746   6.896647   5.158983   5.080462   4.326112
    19  H    6.600167   7.214039   5.299382   4.817210   4.679149
    20  H    7.612913   7.968166   6.208167   6.078858   5.410274
    21  H    1.015448   1.636785   2.059123   2.362332   3.360691
    22  O    3.521202   3.888974   2.433903   2.499607   3.408360
    23  H    3.969491   3.695773   3.339045   4.078312   3.870223
                    6          7          8          9         10
     6  C    0.000000
     7  H    3.421613   0.000000
     8  H    2.770867   1.761142   0.000000
     9  C    3.031391   2.152711   2.149925   0.000000
    10  O    1.302115   4.043093   2.860595   3.725440   0.000000
    11  C    3.476335   3.333258   2.639784   1.399341   3.815345
    12  C    3.883993   2.738666   3.410217   1.401265   4.835098
    13  H    3.437869   3.627102   2.404089   2.152895   3.389962
    14  C    4.554657   4.512159   4.026222   2.430891   4.955678
    15  C    4.871709   4.089964   4.567731   2.430572   5.777206
    16  H    4.144422   2.591506   3.754412   2.155409   5.218515
    17  H    5.208112   5.432995   4.704726   3.409045   5.401621
    18  C    5.157752   4.818083   4.816990   2.812814   5.831479
    19  H    5.697758   4.801711   5.516777   3.409311   6.700953
    20  H    6.127599   5.881946   5.881350   3.896979   6.782218
    21  H    2.729494   3.523726   3.650631   4.612548   3.189003
    22  O    1.262292   4.296409   3.847128   3.471190   2.210249
    23  H    1.989050   4.900306   3.604261   4.184077   1.062701
                   11         12         13         14         15
    11  C    0.000000
    12  C    2.406678   0.000000
    13  H    1.085251   3.392586   0.000000
    14  C    1.395835   2.783456   2.149849   0.000000
    15  C    2.783330   1.393503   3.868539   2.410866   0.000000
    16  H    3.392851   1.085470   4.293274   3.868872   2.147302
    17  H    2.150929   3.867784   2.469762   1.084357   3.395951
    18  C    2.417514   2.417441   3.397526   1.393921   1.396010
    19  H    3.867672   2.149214   4.952873   3.395320   1.084371
    20  H    3.401242   3.400508   4.293363   2.154173   2.155623
    21  H    5.550113   5.218927   5.530948   6.782776   6.511957
    22  O    3.811096   4.003097   3.967829   4.570922   4.730983
    23  H    3.950888   5.280469   3.440984   4.893369   6.018577
                   16         17         18         19         20
    16  H    0.000000
    17  H    4.953195   0.000000
    18  C    3.397569   2.153109   0.000000
    19  H    2.467139   4.294928   2.154509   0.000000
    20  H    4.292421   2.484034   1.084167   2.484706   0.000000
    21  H    4.922754   7.580790   7.201392   7.146790   8.238898
    22  O    4.292548   5.194989   4.984493   5.445701   5.832086
    23  H    5.808701   5.155355   5.855190   6.961876   6.707200
                   21         22         23
    21  H    0.000000
    22  O    3.552788   0.000000
    23  H    4.184242   2.385475   0.000000
 Stoichiometry    C9H11NO2
 Framework group  C1[X(C9H11NO2)]
 Deg. of freedom    63
 Full point group                 C1      NOp   1
 Largest Abelian subgroup         C1      NOp   1
 Largest concise Abelian subgroup C1      NOp   1
                         Standard orientation:                         
 ---------------------------------------------------------------------
 Center     Atomic      Atomic             Coordinates (Angstroms)
 Number     Number       Type             X           Y           Z
 ---------------------------------------------------------------------
      1          7           0       -2.957116   -1.345146   -0.259765
      2          1           0       -3.309959   -0.863709   -1.082316
      3          6           0       -1.692634   -0.759583    0.189279
      4          1           0       -1.399322   -1.247389    1.119148
      5          6           0       -0.599735   -1.002291   -0.882323
      6          6           0       -1.798411    0.715487    0.502297
      7          1           0       -0.593621   -2.080900   -1.058516
      8          1           0       -0.913431   -0.522229   -1.813426
      9          6           0        0.782463   -0.525380   -0.492021
     10          8           0       -2.341280    1.501714   -0.382375
     11          6           0        1.320107    0.648125   -1.032372
     12          6           0        1.550632   -1.250200    0.428902
     13          1           0        0.745003    1.217283   -1.755619
     14          6           0        2.589684    1.091841   -0.658684
     15          6           0        2.818301   -0.810284    0.804850
     16          1           0        1.156558   -2.169480    0.850654
     17          1           0        2.990273    2.002251   -1.090555
     18          6           0        3.341812    0.364736    0.262531
     19          1           0        3.399478   -1.386489    1.516244
     20          1           0        4.328976    0.706581    0.552472
     21          1           0       -3.668145   -1.272622    0.461562
     22          8           0       -1.388185    1.207447    1.589988
     23          1           0       -2.073595    2.524731   -0.276952
 ---------------------------------------------------------------------
 Rotational constants (GHZ):      1.7352622      0.5865445      0.5331665
 Standard basis: 6-311++G(d,p) (5D, 7F)
 There are   341 symmetry adapted basis functions of A   symmetry.
 Integral buffers will be    262144 words long.
 Raffenetti 2 integral format.
 Two-electron integral symmetry is turned on.
   341 basis functions,   531 primitive gaussians,   353 cartesian basis functions
    44 alpha electrons       44 beta electrons
       nuclear repulsion energy       680.7159147202 Hartrees.
 NAtoms=   23 NActive=   23 NUniq=   23 SFac= 1.00D+00 NAtFMM=   50 NAOKFM=F Big=F
 ------------------------------------------------------------------------------
 Polarizable Continuum Model (PCM)
 =================================
 Model                : C-PCM.
 Atomic radii         : UFF (Universal Force Field).
 Polarization charges : Total charges.
 Charge compensation  : None.
 Solution method      : Matrix inversion.
 Cavity type          : Scaled VdW (van der Waals Surface) (Alpha=1.100).
 Cavity algorithm     : GePol (No added spheres)
                        Default sphere list used, NSphG=   23.
                        Lebedev-Laikov grids with approx.  5.0 points / Ang**2.
                        Smoothing algorithm: Karplus/York (Gamma=1.0000).
                        Polarization charges: spherical gaussians, with
                                              point-specific exponents (IZeta= 3).
                        Self-potential: point-specific (ISelfS= 7).
                        Self-field    : sphere-specific E.n sum rule (ISelfD= 2).
 1st derivatives      : Analytical E(r).r(x)/FMM algorithm (CHGder, D1EAlg=3).
                        Cavity 1st derivative terms included.
 Solvent              : Water, Eps=  78.355300 Eps(inf)=   1.777849
 ------------------------------------------------------------------------------
 One-electron integrals computed using PRISM.
 NBasis=   341 RedAO= T  NBF=   341
 NBsUse=   340 1.00D-06 NBFU=   340
 Initial guess read from the read-write file.
 B after Tr=     0.000000    0.000000    0.000000
         Rot=    1.000000    0.000000    0.000000    0.000000 Ang=   0.00 deg.
 Initial guess orbital symmetries:
       Occupied  (A) (A) (A) (A) (A) (A) (A) (A) (A) (A) (A) (A)
                 (A) (A) (A) (A) (A) (A) (A) (A) (A) (A) (A) (A)
                 (A) (A) (A) (A) (A) (A) (A) (A) (A) (A) (A) (A)
                 (A) (A) (A) (A) (A) (A) (A) (A)
       Virtual   (A) (A) (A) (A) (A) (A) (A) (A) (A) (A) (A) (A)
                 (A) (A) (A) (A) (A) (A) (A) (A) (A) (A) (A) (A)
                 (A) (A) (A) (A) (A) (A) (A) (A) (A) (A) (A) (A)
                 (A) (A) (A) (A) (A) (A) (A) (A) (A) (A) (A) (A)
                 (A) (A) (A) (A) (A) (A) (A) (A) (A) (A) (A) (A)
                 (A) (A) (A) (A) (A) (A) (A) (A) (A) (A) (A) (A)
                 (A) (A) (A) (A) (A) (A) (A) (A) (A) (A) (A) (A)
                 (A) (A) (A) (A) (A) (A) (A) (A) (A) (A) (A) (A)
                 (A) (A) (A) (A) (A) (A) (A) (A) (A) (A) (A) (A)
                 (A) (A) (A) (A) (A) (A) (A) (A) (A) (A) (A) (A)
                 (A) (A) (A) (A) (A) (A) (A) (A) (A) (A) (A) (A)
                 (A) (A) (A) (A) (A) (A) (A) (A) (A) (A) (A) (A)
                 (A) (A) (A) (A) (A) (A) (A) (A) (A) (A) (A) (A)
                 (A) (A) (A) (A) (A) (A) (A) (A) (A) (A) (A) (A)
                 (A) (A) (A) (A) (A) (A) (A) (A) (A) (A) (A) (A)
                 (A) (A) (A) (A) (A) (A) (A) (A) (A) (A) (A) (A)
                 (A) (A) (A) (A) (A) (A) (A) (A) (A) (A) (A) (A)
                 (A) (A) (A) (A) (A) (A) (A) (A) (A) (A) (A) (A)
                 (A) (A) (A) (A) (A) (A) (A) (A) (A) (A) (A) (A)
                 (A) (A) (A) (A) (A) (A) (A) (A) (A) (A) (A) (A)
                 (A) (A) (A) (A) (A) (A) (A) (A) (A) (A) (A) (A)
                 (A) (A) (A) (A) (A) (A) (A) (A) (A) (A) (A) (A)
                 (A) (A) (A) (A) (A) (A) (A) (A) (A) (A) (A) (A)
                 (A) (A) (A) (A) (A) (A) (A) (A) (A) (A) (A) (A)
                 (A) (A) (A) (A) (A) (A) (A) (A)
 Harris functional with IExCor=  402 diagonalized for initial guess.
 ExpMin= 3.60D-02 ExpMax= 8.59D+03 ExpMxC= 1.30D+03 IAcc=3 IRadAn=         0 AccDes= 0.00D+00
 HarFok:  IExCor=  402 AccDes= 0.00D+00 IRadAn=         0 IDoV= 1
 ScaDFX=  1.000000  1.000000  1.000000  1.000000
 FoFCou: FMM=F IPFlag=           0 FMFlag=      100000 FMFlg1=           0
         NFxFlg=           0 DoJE=T BraDBF=F KetDBF=T FulRan=T
         Omega=  0.000000  0.000000  1.000000  0.000000  0.000000 ICntrl=     500 IOpCl=  0
         NMat0=    1 NMatS0=    1 NMatT0=    0 NMatD0=    1 NMtDS0=    0 NMtDT0=    0
         I1Cent=           4 NGrid=           0.
 Petite list used in FoFCou.
 Requested convergence on RMS density matrix=1.00D-08 within 128 cycles.
 Requested convergence on MAX density matrix=1.00D-06.
 Requested convergence on             energy=1.00D-06.
 No special actions if energy rises.
 Error on total polarization charges =  0.01632
 SCF Done:  E(RB3LYP) =  -554.956582016     A.U. after   12 cycles
             Convg  =    0.6002D-08             -V/T =  2.0045
 D1PCM: C-PCM CHGder 1st derivatives, ID1Alg=3 FixD1E=F DoIter=F DoCFld=F I1PDM=0.
 Calling FoFJK, ICntrl=      2127 FMM=F ISym2X=0 I1Cent= 0 IOpClX= 0 NMat=1 NMatS=1 NMatT=0.
 ***** Axes restored to original set *****
 -------------------------------------------------------------------
 Center     Atomic                   Forces (Hartrees/Bohr)
 Number     Number              X              Y              Z
 -------------------------------------------------------------------
      1        7          -0.000876515   -0.002631021   -0.000918888
      2        1           0.000152176   -0.000122925    0.000114754
      3        6          -0.005555769   -0.001479980   -0.007460646
      4        1          -0.000219868    0.000949665    0.000080345
      5        6          -0.000326197   -0.000534559    0.000260151
      6        6           0.030459369    0.038561758    0.078219456
      7        1           0.000278792   -0.000147432   -0.000209267
      8        1           0.000030276   -0.000058496   -0.000089901
      9        6          -0.000375224   -0.000311270   -0.000172432
     10        8           0.003166182    0.058315916   -0.041028017
     11        6           0.000099987   -0.000076921    0.000105823
     12        6           0.000205571    0.000060680   -0.000098538
     13        1          -0.000010789   -0.000015946    0.000003873
     14        6           0.000001497    0.000015020   -0.000011726
     15        6          -0.000032098   -0.000055836   -0.000008078
     16        1          -0.000033468   -0.000007652    0.000043002
     17        1           0.000026976    0.000031281    0.000002681
     18        6           0.000067384    0.000111573   -0.000013611
     19        1           0.000026622    0.000007366    0.000020398
     20        1           0.000018088    0.000002356   -0.000011216
     21        1           0.000113987    0.000250799   -0.000032665
     22        8          -0.009707562   -0.028529815   -0.037643746
     23        1          -0.017509417   -0.064334562    0.008848247
 -------------------------------------------------------------------
 Cartesian Forces:  Max     0.078219456 RMS     0.017268348

 GradGradGradGradGradGradGradGradGradGradGradGradGradGradGradGradGradGrad
 Berny optimization.
 Using GEDIIS/GDIIS optimizer.
 Internal  Forces:  Max     0.066357190 RMS     0.008746148
 Search for a local minimum.
 Step number   2 out of a maximum of  123
 All quantities printed in internal units (Hartrees-Bohrs-Radians)
 Mixed Optimization -- RFO/linear search
 Update second derivatives using D2CorX and points    1    2
 DE= -3.60D-02 DEPred=-3.71D-02 R= 9.70D-01
 SS=  1.41D+00  RLast= 3.05D-01 DXNew= 5.0454D-01 9.1636D-01
 Trust test= 9.70D-01 RLast= 3.05D-01 DXMaxT set to 5.05D-01
 ITU=  1  0
 Use linear search instead of GDIIS.
     Eigenvalues ---    0.00230   0.00588   0.00606   0.00873   0.01245
     Eigenvalues ---    0.01475   0.02092   0.02118   0.02125   0.02142
     Eigenvalues ---    0.02151   0.02157   0.02158   0.02163   0.03276
     Eigenvalues ---    0.03861   0.04121   0.04417   0.05278   0.05434
     Eigenvalues ---    0.06359   0.09508   0.13002   0.15843   0.16000
     Eigenvalues ---    0.16000   0.16000   0.16000   0.16000   0.16000
     Eigenvalues ---    0.16005   0.17176   0.18833   0.20556   0.22000
     Eigenvalues ---    0.22000   0.22015   0.23474   0.24999   0.25263
     Eigenvalues ---    0.27723   0.30971   0.31005   0.34412   0.34491
     Eigenvalues ---    0.34670   0.35345   0.35369   0.35472   0.35475
     Eigenvalues ---    0.35497   0.36722   0.37447   0.41926   0.41975
     Eigenvalues ---    0.44924   0.45061   0.45736   0.46036   0.46430
     Eigenvalues ---    0.46611   0.69753   0.78653
 RFO step:  Lambda=-1.78422887D-02 EMin= 2.29999973D-03
 Quartic linear search produced a step of  0.85051.
 Iteration  1 RMS(Cart)=  0.03976948 RMS(Int)=  0.01487137
 Iteration  2 RMS(Cart)=  0.01476662 RMS(Int)=  0.00011823
 Iteration  3 RMS(Cart)=  0.00016208 RMS(Int)=  0.00002436
 Iteration  4 RMS(Cart)=  0.00000009 RMS(Int)=  0.00002436
 Variable       Old X    -DE/DX   Delta X   Delta X   Delta X     New X
                                 (Linear)    (Quad)   (Total)
    R1        1.92053  -0.00020  -0.00010  -0.00066  -0.00075   1.91978
    R2        2.76665   0.00181   0.00343   0.00383   0.00726   2.77391
    R3        1.91892  -0.00007  -0.00011  -0.00012  -0.00023   1.91869
    R4        2.06027  -0.00035  -0.00154   0.00041  -0.00113   2.05914
    R5        2.92857   0.00031   0.00092   0.00058   0.00149   2.93006
    R6        2.85655   0.00466  -0.00071   0.02689   0.02618   2.88273
    R7        2.06532   0.00017   0.00020   0.00056   0.00076   2.06609
    R8        2.06648   0.00005   0.00007   0.00014   0.00021   2.06669
    R9        2.85983  -0.00013  -0.00017  -0.00047  -0.00064   2.85920
   R10        2.46064   0.02589   0.03805   0.01473   0.05278   2.51342
   R11        2.38539  -0.04734  -0.02354  -0.08443  -0.10797   2.27741
   R12        2.64437   0.00002  -0.00008   0.00016   0.00008   2.64445
   R13        2.64801   0.00009  -0.00004   0.00041   0.00037   2.64837
   R14        2.00821  -0.06636  -0.15463  -0.18100  -0.33563   1.67258
   R15        2.05083  -0.00001   0.00002  -0.00006  -0.00004   2.05079
   R16        2.63775   0.00004  -0.00003   0.00020   0.00017   2.63791
   R17        2.63334   0.00008   0.00005   0.00025   0.00030   2.63364
   R18        2.05124   0.00004   0.00005   0.00013   0.00017   2.05142
   R19        2.04914   0.00003   0.00003   0.00012   0.00015   2.04929
   R20        2.63413  -0.00005  -0.00004  -0.00015  -0.00019   2.63394
   R21        2.63808   0.00007   0.00004   0.00023   0.00028   2.63835
   R22        2.04916   0.00003   0.00002   0.00010   0.00012   2.04928
   R23        2.04878   0.00001   0.00001   0.00005   0.00006   2.04884
    A1        1.93760  -0.00004   0.00191  -0.00452  -0.00261   1.93499
    A2        1.87339   0.00009   0.00013  -0.00101  -0.00089   1.87249
    A3        1.93727  -0.00031  -0.00077  -0.00275  -0.00352   1.93374
    A4        1.89125   0.00012   0.00104  -0.00530  -0.00426   1.88700
    A5        1.91173  -0.00199  -0.00397  -0.00868  -0.01278   1.89894
    A6        1.97509   0.00195   0.00680   0.01167   0.01851   1.99360
    A7        1.90706   0.00059   0.00313  -0.00411  -0.00103   1.90603
    A8        1.85336  -0.00141  -0.00918  -0.00034  -0.00948   1.84388
    A9        1.92342   0.00076   0.00207   0.00638   0.00847   1.93189
   A10        1.84417   0.00014  -0.00059   0.00457   0.00398   1.84815
   A11        1.89411  -0.00015   0.00047  -0.00210  -0.00162   1.89249
   A12        2.00029   0.00052   0.00152   0.00201   0.00353   2.00382
   A13        1.87296  -0.00001  -0.00031  -0.00084  -0.00116   1.87181
   A14        1.92567  -0.00035  -0.00064  -0.00225  -0.00290   1.92277
   A15        1.92118  -0.00016  -0.00054  -0.00137  -0.00191   1.91927
   A16        2.06882  -0.02174  -0.09652  -0.00293  -0.09946   1.96937
   A17        2.13649   0.00063  -0.04815   0.07688   0.02872   2.16521
   A18        2.07785   0.02112   0.14469  -0.07398   0.07071   2.14855
   A19        2.11250  -0.00012  -0.00020  -0.00051  -0.00071   2.11179
   A20        2.10270   0.00032   0.00033   0.00168   0.00201   2.10471
   A21        2.06796  -0.00019  -0.00012  -0.00117  -0.00129   2.06668
   A22        1.99198  -0.01689  -0.08007  -0.03757  -0.11764   1.87434
[...]
 000247,-0.00046632,-0.00089737,-0.00041811,0.00004107,0.00000583,-0.00
 004856,-0.00190163,0.00014906,0.00501433,-0.00014222,-0.00034626,0.000
 17579,-0.00003827,-0.00006558,-0.00005200,0.00008020,0.00003772,-0.000
 04912,-0.02922730,-0.00778843,-0.00485672,0.00017375,0.00012913,-0.000
 17205,-0.09811189,-0.12897731,-0.00288223,0.00617933,-0.00251159,0.001
 14474,0.01506339,0.00843626,0.00450392,0.14440601,0.53058088,-0.000135
 70,0.00006826,0.00003482,-0.00005262,-0.00000330,0.00001343,-0.0009345
 2,-0.00025412,-0.00027063,0.00018798,-0.00000087,-0.00018285,-0.001574
 83,0.00537212,0.00221802,-0.00024447,-0.00010879,0.00010955,0.00112627
 ,0.00069996,0.00018504,0.00008183,-0.00023871,0.00011957,0.01414718,-0
 .02425850,0.03401989,0.00004028,0.00005130,-0.00003336,-0.04482582,0.0
 2297050,-0.10825525,-0.02940126,0.00079493,-0.02349464,-0.02051534,-0.
 00818579,-0.00173349,0.13487246,-0.24312087,0.41515095,0.00012097,-0.0
 0014735,0.00007900,0.00009271,0.00001783,-0.00000362,0.00016242,-0.000
 37218,0.00080516,-0.00031966,0.00002534,0.00036982,0.00368501,0.002008
 52,-0.00368220,0.00036780,0.00017498,-0.00054020,0.00011164,-0.0010654
 2,0.00035300,-0.00056160,-0.00016132,0.00033004,-0.03036520,0.03832332
 ,-0.05265231,-0.00011603,-0.00014758,0.00020583,-0.03874537,-0.0314800
 1,0.00655842,-0.28664604,-0.09948967,-0.04672198,-0.00062470,-0.000507
 50,0.00067290,0.05366147,0.00500942,0.02219295,0.59168658,-0.00002843,
 -0.00007546,0.00025679,0.00002158,0.00001920,-0.00000590,-0.00072306,-
 0.00046952,0.00021329,-0.00013159,-0.00007353,0.00020374,0.00088410,0.
 00078442,0.00494890,0.00031602,0.00011490,-0.00027779,0.00016294,-0.00
 008128,0.00002530,0.00122416,0.00052272,0.00069465,0.00523299,0.044369
 61,-0.02863349,-0.00002977,-0.00010319,0.00010091,-0.03218662,-0.03163
 357,0.00251034,-0.05439235,-0.12884042,0.02301555,-0.00032906,-0.00074
 980,-0.00045609,0.03771318,-0.02291744,0.04663957,0.10076385,0.4993144
 6,-0.00025922,-0.00006870,0.00034362,0.00009293,0.00000524,-0.00000004
 ,-0.00035295,-0.00015976,-0.00066172,-0.00017008,-0.00001103,0.0001770
 1,-0.00289009,0.00469220,0.00050585,-0.00001823,-0.00009201,-0.0001368
 0,0.00046582,0.00031953,0.00002601,-0.00066266,-0.00003671,-0.00011510
 ,-0.02492627,-0.00887191,-0.00032934,-0.00001176,-0.00000995,0.0000510
 8,0.00745354,0.00304382,-0.00404705,-0.08378005,-0.00305212,-0.1080909
 6,0.00052152,-0.00057825,-0.00028723,-0.00454637,0.02794260,-0.0179936
 8,0.17851254,-0.23830240,0.43257234,0.00010865,-0.00004454,0.00010826,
 0.00003648,-0.00000057,0.00000399,-0.00029271,0.00018282,-0.00025362,-
 0.00042566,0.00024597,0.00015211,-0.00007738,0.00121780,0.00120170,0.0
 0007190,0.00020628,0.00005385,0.00020863,0.00002549,-0.00014229,0.0002
 0974,-0.00010803,0.00014472,0.00942118,0.01381413,-0.00775465,0.000018
 02,-0.00012496,0.00003542,-0.00038362,0.00034713,-0.00443107,-0.091483
 55,-0.08586498,0.03788519,0.00041254,0.00073714,-0.00044541,-0.0008394
 9,0.00039390,-0.00020283,-0.00644069,-0.02422600,0.01409131,0.09301775
 ,0.00011373,0.00006279,-0.00030450,-0.00006600,-0.00001117,0.00000176,
 0.00033760,0.00009588,0.00041410,0.00034724,-0.00001415,-0.00023323,0.
 00033671,-0.00040816,-0.00205082,-0.00005366,-0.00001866,0.00001726,0.
 00038401,-0.00002358,0.00024892,-0.00014599,0.00009430,-0.00001056,-0.
 00760951,-0.00881712,0.00549027,0.00000568,0.00007214,-0.00003720,0.00
 095685,0.00241825,0.00406842,-0.08610688,-0.23298286,0.10860472,-0.000
 34115,-0.00044841,0.00037082,0.00053931,-0.00002643,-0.00055437,-0.001
 96188,-0.00472623,0.00568090,0.09530108,0.24296152,0.00005846,0.000016
 21,-0.00006162,-0.00000500,0.00000439,-0.00001132,-0.00006042,0.000027
 69,0.00007521,0.00010696,0.00001428,0.00001741,0.00237828,-0.00085940,
 -0.00083847,0.00009282,0.00019051,0.00005399,-0.00041584,-0.00076161,-
 0.00006923,-0.00003936,-0.00029824,0.00000746,0.00850526,0.01787251,-0
 .00597639,0.00000336,-0.00008265,0.00001232,-0.00477778,0.00402494,0.0
 0080879,0.03837655,0.10840217,-0.10230627,0.00046078,0.00092985,-0.000
 33279,-0.00035302,-0.00061944,-0.00077366,-0.00398065,-0.00714379,0.00
 696347,-0.03864106,-0.12092967,0.10050043,-0.00017090,-0.00000748,0.00
 010645,0.00001467,-0.00000471,0.00000037,0.00004370,-0.00013933,-0.000
 20451,0.00000682,-0.00000039,0.00001447,-0.00003203,-0.00095019,0.0006
 9845,0.00000871,-0.00018852,-0.00005775,-0.00034712,-0.00014609,-0.000
 03649,0.00002679,0.00006967,-0.00000132,-0.00316490,-0.00233773,-0.003
 99475,-0.00003060,0.00007025,-0.00000589,-0.00627973,-0.02381937,0.014
 15025,-0.00087260,0.00051994,-0.00033007,0.00034623,0.00158703,0.00129
 864,-0.09371651,-0.08854138,0.04084149,-0.00006816,0.00019658,-0.00442
 165,-0.00008941,0.00019097,0.00041777,0.09396153,-0.00013870,-0.000008
 14,0.00004959,0.00000433,0.00000326,0.00000155,0.00000713,-0.00003975,
 -0.00012400,0.00000319,-0.00000674,-0.00000552,0.00026222,-0.00022660,
 0.00045029,0.00003694,-0.00015791,-0.00003548,-0.00010700,-0.00007243,
 0.00001004,-0.00001297,0.00000999,-0.00003890,-0.00312366,0.00336820,0
 .00156014,-0.00001888,0.00005825,-0.00001504,-0.00184585,-0.00449949,0
 .00554715,0.00042413,0.00002270,-0.00067181,0.00105250,-0.00087492,-0.
 00210678,-0.08854143,-0.23167081,0.11058173,0.00082058,0.00258653,0.00
 444168,0.00019218,-0.00045207,-0.00042422,0.09736222,0.24091430,-0.000
 02657,0.00000641,-0.00001724,-0.00000549,0.00000314,-0.00000031,-0.000
 03413,0.00001706,-0.00000681,-0.00000280,-0.00000784,-0.00001292,-0.00
 002671,-0.00024685,0.00027939,-0.00000301,0.00000449,0.00003389,0.0000
 0937,-0.00003242,0.00000132,0.00002642,0.00000104,-0.00003693,-0.00373
 822,0.00165320,0.00387499,0.00002256,-0.00000059,-0.00001649,-0.004010
 76,-0.00694316,0.00692477,-0.00032984,-0.00060713,-0.00078134,0.001725
 19,-0.00181812,-0.00163616,0.04084254,0.11071105,-0.10555253,-0.004951
 98,0.00410895,0.00113538,0.00041657,-0.00040554,-0.00051730,-0.0414511
 4,-0.12275296,0.10362187,-0.00035789,-0.00003656,0.00024174,0.00002314
 ,-0.00000310,0.00000709,0.00025241,-0.00010213,-0.00070702,0.00004685,
 -0.00003401,0.00005724,-0.00075623,0.00002498,0.00091842,0.00011654,-0
 .00060591,-0.00014552,-0.00015142,0.00002750,-0.00012268,0.00003235,-0
 .00006179,0.00003725,0.00004813,0.00693181,-0.00218343,-0.00007802,0.0
 0020144,-0.00003001,-0.02996010,0.00527156,-0.02604565,-0.01276525,-0.
 03011851,0.01293638,-0.00303334,-0.00380649,-0.00284452,-0.17610220,0.
 05856546,-0.11304430,-0.14646919,-0.09873740,0.03345930,-0.00337955,-0
 .00324409,-0.00359714,0.01000046,-0.00723730,0.00973709,0.63741758,-0.
 00018197,0.00009726,-0.00011135,-0.00006124,-0.00001354,0.00001273,0.0
 0000958,0.00040945,-0.00047628,0.00028889,-0.00000567,-0.00030359,-0.0
 0047565,-0.00163370,0.00026395,-0.00033653,-0.00036718,0.00031034,-0.0
 0036446,0.00048319,-0.00016155,-0.00012628,-0.00004869,-0.00033352,0.0
 0769328,-0.04037196,0.03231074,0.00004097,0.00018713,-0.00011900,0.037
 83962,0.04396075,-0.00790423,-0.06273931,-0.00814426,-0.02367638,-0.00
 442669,0.00248371,0.00144765,0.01413346,-0.15182587,0.08107458,-0.0539
 1188,-0.23718233,0.11068646,-0.00254026,0.00336736,0.00187227,0.014628
 87,-0.00772232,0.01774895,0.14639139,0.48530747,0.00000709,-0.00010264
 ,0.00014110,0.00005488,0.00001797,-0.00000312,0.00026011,-0.00025764,0
 .00023224,-0.00019110,0.00001803,0.00024385,0.00045878,0.00036965,-0.0
 0082256,0.00035202,-0.00004855,-0.00037491,0.00000324,-0.00043603,-0.0
 0005670,0.00000821,-0.00003518,0.00026499,-0.00212983,0.03204704,-0.03
 402289,-0.00014216,-0.00002789,0.00011153,-0.05302223,-0.02714382,-0.0
 0083557,0.03949253,-0.00443101,0.03427679,-0.00234024,0.00189059,0.004
 43886,-0.07623588,0.10628449,-0.19555761,-0.00304016,0.08551330,-0.135
 43889,-0.00414771,0.00146211,0.00397920,-0.00846776,0.00525558,-0.0055
 1849,0.16869973,-0.20422849,0.39928277,-0.00013873,-0.00001091,0.00008
 126,0.00002466,-0.00000266,-0.00000248,0.00008213,-0.00004044,-0.00016
 129,-0.00000549,0.00000610,0.00001173,-0.00018429,0.00088593,-0.000939
 98,-0.00000142,-0.00020405,-0.00005744,0.00004034,-0.00002283,0.000044
 86,-0.00048446,-0.00007147,-0.00010402,-0.00276528,-0.00441253,-0.0022
 1670,-0.00002368,0.00007778,-0.00000607,-0.00062445,-0.00048801,0.0006
 1345,-0.01070151,0.01523907,-0.02046841,-0.00013702,0.00036464,0.00022
 690,0.00103715,-0.00371213,-0.00045469,-0.13306382,0.06590733,-0.10826
 857,0.00034993,0.00106592,0.00176302,0.00032345,-0.00038679,0.00044242
 ,0.00988425,-0.00701186,0.00933573,0.13641236,-0.00000441,-0.00001172,
 0.00000782,0.00000784,-0.00000178,0.00000528,0.00003573,-0.00000927,-0
 .00002720,0.00000268,-0.00000044,0.00002188,-0.00018426,0.00037656,-0.
 00029939,0.00001227,0.00000231,0.00000002,0.00004262,-0.00002959,0.000
 01361,-0.00006456,-0.00005436,-0.00008591,-0.00399403,0.00253599,0.001
 88744,0.00000602,-0.00000501,-0.00000538,-0.00050870,-0.00072948,-0.00
 054305,-0.00687099,0.00842421,-0.00785152,0.00036704,-0.00030741,-0.00
 040617,-0.00431957,-0.00108019,0.00429242,0.06594128,-0.11650706,0.101
 90249,0.00160511,-0.00084125,-0.00189142,0.00070651,-0.00048675,0.0009
 2883,0.01510340,-0.00757644,0.01760268,-0.06886848,0.11678003,-0.00009
 479,-0.00001829,0.00004511,0.00000944,-0.00000083,0.00000734,0.0000560
 8,-0.00002525,-0.00011897,0.00002775,-0.00000441,0.00000787,0.00012570
 ,0.00041623,-0.00007354,0.00004016,-0.00013539,-0.00003307,-0.00002658
 ,-0.00005269,0.00000718,-0.00006785,-0.00005691,-0.00008332,-0.0029389
 1,0.00177563,0.00452899,-0.00001910,0.00004680,-0.00001423,0.00050519,
 -0.00060853,-0.00023732,-0.00243372,0.00458426,-0.00159272,0.00023300,
 -0.00042246,-0.00058803,0.00009271,0.00461032,0.00350459,-0.10839727,0
 .10174142,-0.18171645,0.00135341,-0.00216475,-0.00176232,-0.00045331,0
 .00026921,-0.00036939,-0.00858094,0.00520204,-0.00562547,0.11910603,-0
 .11323018,0.18563247,-0.00008666,-0.00001006,0.00004344,0.00000663,0.0
 0000005,0.00000106,0.00001503,-0.00005133,-0.00005149,0.00000094,0.000
 00164,0.00000207,-0.00020891,0.00023323,0.00030667,0.00003065,-0.00011
 636,-0.00005320,-0.00000174,0.00002080,-0.00001171,-0.00000927,0.00000
 363,0.00000981,0.00032972,0.00047217,0.00032895,-0.00002658,0.00004372
 ,0.00000183,0.00135897,0.00071753,-0.00404505,0.00213811,-0.00310675,-
 0.00030994,-0.00063194,-0.00041355,-0.00013588,-0.01072572,-0.00716681
 ,-0.00208610,-0.00654973,-0.00158474,-0.00424991,-0.00044456,-0.000093
 00,-0.00027095,0.00007628,0.00128149,0.00137041,-0.28469159,-0.0888198
 7,-0.06892745,0.00000069,0.00098853,0.00148897,0.29944285,-0.00000352,
 0.00000336,-0.00002625,-0.00000376,-0.00000200,0.00000050,0.00005846,0
 .00005141,-0.00000196,0.00003352,-0.00000404,-0.00003046,0.00036428,-0
 .00019928,-0.00045877,-0.00001199,-0.00002724,0.00000322,-0.00001423,-
 0.00005745,0.00006459,-0.00009555,0.00002908,-0.00006747,0.00040157,-0
 .00094564,0.00022645,-0.00000194,0.00001589,-0.00000822,0.00012143,0.0
 0146597,0.00496569,-0.00248148,-0.00118339,0.00537714,0.00067040,0.000
 30431,0.00029536,0.01480915,0.00854628,0.00409909,-0.02365995,-0.00413
 344,-0.00751297,-0.00121509,-0.00034594,-0.00029834,0.00069305,-0.0008
 1895,-0.00236508,-0.08880451,-0.08168289,-0.01367798,0.00158613,-0.000
 47473,-0.00198660,0.09754944,0.07943669,0.00000815,-0.00000375,-0.0000
 1942,0.00000090,-0.00000033,-0.00000023,0.00005507,0.00004167,0.000003
 82,-0.00000544,0.00000256,-0.00000283,0.00046195,-0.00047505,-0.000371
 75,0.00001064,0.00001546,-0.00004464,-0.00009033,-0.00014172,0.0000631
 5,0.00001950,0.00005013,-0.00000470,0.00019699,0.00021671,-0.00101229,
 -0.00002604,-0.00000591,0.00002205,-0.00348141,0.00534449,0.00095677,-
 0.00078035,0.00502968,0.00257401,-0.00105353,-0.00033748,-0.00015365,-
 0.02028985,-0.00838737,-0.00147048,0.01380998,0.00492914,0.00697276,0.
 00062081,0.00032370,0.00025017,0.00185242,-0.00202515,-0.00140485,-0.0
 6888262,-0.01365060,-0.06476586,0.00100295,-0.00232617,-0.00154822,0.0
 7655895,0.01139506,0.05994057,-0.23513879,0.02618482,0.17832497,0.0102
 3536,-0.00023745,-0.01091737,-0.02110554,0.00715387,0.02298283,0.00086
 373,0.00070710,-0.00019930,-0.00533843,-0.00321856,-0.00347064,0.00076
 385,-0.00026788,0.00051514,0.00034024,-0.00010993,-0.00040806,0.000269
 73,-0.00015345,-0.00005436,-0.00030934,0.00061020,0.00169271,0.0000523
 2,0.00012718,-0.00004337,-0.00035307,0.00001074,-0.00020747,-0.0001728
 3,-0.00016497,0.00003299,-0.00000180,0.00002387,0.00006371,0.00001446,
 -0.00014597,-0.00006455,0.00004331,-0.00001538,-0.00009094,0.00000892,
 0.00006322,0.00001741,-0.00004724,-0.00003372,-0.00000667,-0.00010760,
 -0.00004262,0.00000416,-0.00003908,-0.00000130,-0.00002315,-0.00002345
 ,0.00000384,0.00000597,0.25045925,0.05994961,-0.02222807,-0.05952688,-
 0.01235248,-0.00115017,0.01404922,-0.01583407,-0.00506752,0.01011027,0
 .00065594,0.00034662,-0.00022603,-0.00018979,-0.00063635,-0.00081956,-
 0.00162236,-0.00053294,0.00124274,-0.00020241,0.00047536,0.00022299,0.
 00003559,-0.00008328,-0.00023366,-0.00025155,0.00078027,-0.00019153,0.
 00023160,0.00023678,-0.00013445,0.00019038,0.00002439,0.00011351,0.000
 01525,0.00001626,-0.00000261,-0.00001469,-0.00000483,0.00001205,0.0000
 4888,0.00004956,-0.00003601,-0.00002253,-0.00007828,-0.00002240,-0.000
 02919,0.00000735,0.00002164,0.00002408,0.00001267,0.00000504,0.0000017
 7,0.00004086,-0.00002033,0.00001072,-0.00000349,0.00000173,0.00000353,
 0.00000460,0.00000654,-0.03063804,0.02690991,0.17799674,-0.02609445,-0
 .24462969,0.02535257,-0.00830880,-0.02247862,-0.01198075,-0.00041356,0
 .01040281,0.00015952,0.00033335,0.00050068,-0.00185875,-0.00093624,-0.
 00006321,-0.00071571,0.00086542,0.00105303,-0.00003656,0.00000775,-0.0
 0019004,-0.00017935,-0.00010805,0.00033759,-0.00041328,0.00010578,0.00
 073264,-0.00004008,-0.00014370,-0.00006363,-0.00012395,-0.00005399,-0.
 00007901,0.00002850,-0.00001130,-0.00000143,-0.00000316,0.00001041,0.0
 0001839,0.00004841,-0.00003552,-0.00003839,0.00001455,-0.00004568,0.00
 000027,0.00000212,0.00002661,0.00001398,-0.00001627,-0.00001136,0.0000
 0676,-0.00007407,-0.00001022,-0.00002533,-0.00000778,0.00000461,-0.000
 00955,-0.00000890,0.00000179,0.00000168,-0.18838401,0.03503422,0.25506
 688,0.00104872,0.00493410,0.00215477,0.00012355,0.00006784,-0.00006223
 ,0.02329936,-0.00444648,-0.00901267,-0.00014607,0.00005496,0.00064828,
 -0.00277179,-0.00491404,0.00085816,-0.10256480,-0.05921218,-0.11358801
 ,0.00114246,-0.00023895,-0.00120663,-0.00003328,0.00013601,0.00008800,
 -0.00111184,0.00039392,0.00061780,0.01233842,0.00187832,-0.04533381,0.
 00001843,0.00048572,0.00000405,0.00017147,0.00015132,0.00049475,-0.000
 01740,-0.00005710,0.00005490,0.00014315,0.00005736,0.00007308,0.000010
 63,-0.00005254,0.00003157,-0.00000516,-0.00001249,-0.00004491,0.000008
 72,-0.00000174,-0.00000264,0.00002108,0.00003616,-0.00005831,0.0000113
 0,-0.00000095,-0.00000514,-0.00000328,-0.00000031,0.00000049,-0.000408
 36,0.00000030,0.00022818,0.07253444,-0.00256359,-0.00917854,-0.0032099
 4,-0.00011366,0.00011752,0.00048419,-0.00459950,-0.00854214,-0.0390775
 8,-0.00084394,0.00286685,-0.00038162,-0.00284040,-0.00578207,0.0012025
 5,-0.05488956,-0.25663451,-0.23463108,0.00192405,-0.00103818,-0.001749
 62,0.00015864,0.00009342,-0.00051528,-0.00169759,-0.00069771,-0.000729
 34,0.00240463,0.03765842,0.01040628,0.00027351,0.00008564,0.00036912,0
 .00056220,0.00024703,0.00006504,-0.00005892,-0.00005296,-0.00002909,0.
 00015470,0.00010584,0.00009967,-0.00012598,-0.00012547,0.00002265,-0.0
 0011545,0.00002328,-0.00006218,0.00009607,0.00006781,-0.00001268,0.000
 29456,0.00022309,-0.00001155,0.00009614,-0.00000146,0.00006446,0.00005
 575,0.00001641,0.00000315,0.00024864,0.00098164,-0.00027117,0.06455835
 ,0.23594393,-0.00133496,-0.00763198,-0.00083341,0.00075962,0.00119713,
 0.00119111,-0.00865098,-0.00887019,-0.01150079,0.00043791,-0.00101431,
 0.00187258,-0.00129348,-0.00097599,0.00163497,-0.11065992,-0.25531867,
 -0.51040593,0.00091072,-0.00053579,-0.00048034,-0.00006912,0.00007277,
 0.00042354,-0.00084147,-0.00032852,-0.00049207,-0.04460127,0.00731716,
 -0.10530957,0.00022530,0.00014785,0.00003438,0.00029916,0.00015932,0.0
 0015603,-0.00009455,-0.00009322,0.00012765,0.00000924,-0.00000721,0.00
 001266,0.00004804,-0.00003045,0.00006103,-0.00005158,-0.00001145,-0.00
 003676,0.00005521,0.00004030,-0.00000727,0.00015008,0.00004678,0.00005
 922,0.00005338,-0.00000273,0.00003472,0.00003487,0.00000554,0.00001193
 ,0.00014834,0.00037875,-0.00060358,0.16141106,0.27337724,0.62282068,0.
 00073809,0.00014430,0.00083501,0.00024308,0.00028655,0.00030659,0.0022
 7425,0.00027230,-0.00397661,0.00020650,0.00069270,0.00002772,0.0002193
 7,-0.00066395,-0.00014135,0.00069790,0.02026676,0.00135214,0.00008520,
 0.00000594,-0.00021552,0.00000192,-0.00002970,-0.00005559,-0.00001004,
 0.00001006,0.00002610,-0.01793562,0.01473664,-0.00630312,0.00002106,-0
 .00004033,-0.00005765,-0.00001460,0.00000950,-0.00005371,-0.00001763,0
 .00000352,0.00009774,-0.00004297,-0.00002753,-0.00002648,0.00002764,0.
 00001422,0.00002022,-0.00000199,-0.00000767,0.00000547,0.00000183,0.00
 000111,-0.00000260,0.00000959,-0.00002359,0.00002634,0.00000297,-0.000
 00176,0.00000233,0.00000355,0.00000104,0.00000481,-0.00000565,-0.00001
 055,0.00001202,-0.00380976,-0.00297865,0.00305440,0.01730530,0.0000726
 4,0.00130527,-0.00009131,-0.00019388,-0.00012461,-0.00028419,0.0018029
 3,0.00156086,0.00399999,0.00015136,-0.00068239,-0.00022061,-0.00003922
 ,0.00027327,-0.00003037,0.00624118,-0.03361676,0.00458497,-0.00015163,
 0.00009904,-0.00012413,0.00003619,-0.00002692,-0.00023162,0.00005952,-
 0.00000384,0.00004965,0.02862854,-0.45624309,-0.08933902,-0.00004083,0
 .00001726,0.00005266,0.00000945,-0.00001822,0.00005293,0.00004099,0.00
 002646,-0.00008123,0.00004608,0.00003205,0.00001720,-0.00003186,-0.000
 01482,-0.00001935,0.00000005,0.00001318,-0.00000550,-0.00001006,-0.000
 00683,0.00000423,-0.00002209,0.00001459,-0.00004034,-0.00000759,0.0000
 0131,-0.00000581,-0.00000905,0.00000100,-0.00000476,-0.00010418,-0.000
 10134,0.00005410,-0.00381760,0.00362217,-0.00792233,-0.03266092,0.4838
 7238,-0.00010156,-0.00070883,0.00003024,0.00041564,0.00033385,0.000102
 35,-0.00320050,0.00175679,-0.00437204,-0.00018684,0.00119806,0.0002634
 3,0.00001470,0.00008751,-0.00024611,-0.00383103,0.04597257,0.00966386,
 0.00002421,-0.00006353,0.00018306,-0.00014614,0.00005301,0.00036962,-0
 .00002693,-0.00007812,0.00003419,-0.00083361,-0.13275060,-0.07087198,0
 .00002096,0.00000146,-0.00000086,0.00004091,0.00004484,-0.00001741,-0.
 00001645,-0.00001047,0.00001294,-0.00001318,-0.00001357,-0.00001196,0.
 00001815,-0.00000626,0.00000845,0.00000077,-0.00000749,0.00000371,0.00
 000539,0.00000394,-0.00000033,0.00001356,-0.00000126,0.00001685,0.0000
 0570,0.00000203,0.00000434,0.00000356,-0.00000033,0.00000199,0.0000816
 9,0.00001475,0.00004780,0.00264925,-0.00541320,0.00122922,0.00506176,0
 .08958484,0.06354862||-0.00000923,-0.00000370,-0.00000021,-0.00000400,
 0.00000571,0.00000065,0.00002013,-0.00000436,0.00000566,-0.00000322,0.
 00000961,0.00000578,-0.00001212,0.00000034,0.00000780,-0.00000601,0.00
 001872,-0.00002306,-0.00000243,-0.00000256,0.00000534,-0.00000130,-0.0
 0000351,0.00000295,0.00000079,0.00000032,0.00000051,0.00000981,-0.0000
 0713,0.00000493,-0.00000043,-0.00001142,-0.00000485,-0.00000109,0.0000
 0176,0.00000816,0.00000192,-0.00000824,-0.00000427,0.00000582,-0.00000
 770,-0.00000348,-0.00000381,-0.00000377,0.00000250,-0.00000288,0.00000
 278,0.00000904,0.00000371,-0.00001056,-0.00000905,0.00000093,-0.000002
 02,-0.00000449,-0.00000216,0.00000099,0.00000493,0.00000171,-0.0000059
 2,-0.00000337,-0.00000336,0.00001288,0.00000623,0.00000493,0.00000827,
 0.00000347,0.00000226,0.00000952,-0.00001515|||@


 Life may have no meaning.  Or even worse, it may have a
 meaning of which I disapprove.
                                 -- Ashleigh Brilliant
 Job cpu time:  0 days  2 hours 19 minutes 56.0 seconds.
 File lengths (MBytes):  RWF=    287 Int=      0 D2E=      0 Chk=     14 Scr=      1
 Normal termination of Gaussian 09 at Fri Apr 08 16:55:49 2016.
