 Entering Gaussian System, Link 0=g09
 Input=Ala-S-opt-freq-tsb1-6-31g.com
 Output=Ala-S-opt-freq-tsb1-6-31g.log
 Initial command:
 /usr/local/gau/g09/l1.exe "/tmp/Gau-1936.inp" -scrdir="/tmp/"
 Entering Link 1 = /usr/local/gau/g09/l1.exe PID=      1938.
  
 Copyright (c) 1988,1990,1992,1993,1995,1998,2003,2009,2013,
            Gaussian, Inc.  All Rights Reserved.
  
 This is part of the Gaussian(R) 09 program.  It is based on
 the Gaussian(R) 03 system (copyright 2003, Gaussian, Inc.),
 the Gaussian(R) 98 system (copyright 1998, Gaussian, Inc.),
 the Gaussian(R) 94 system (copyright 1995, Gaussian, Inc.),
 the Gaussian 92(TM) system (copyright 1992, Gaussian, Inc.),
 the Gaussian 90(TM) system (copyright 1990, Gaussian, Inc.),
 the Gaussian 88(TM) system (copyright 1988, Gaussian, Inc.),
 the Gaussian 86(TM) system (copyright 1986, Carnegie Mellon
 University), and the Gaussian 82(TM) system (copyright 1983,
 Carnegie Mellon University). Gaussian is a federally registered
 trademark of Gaussian, Inc.
  
 This software contains proprietary and confidential information,
 including trade secrets, belonging to Gaussian, Inc.
  
 This software is provided under written license and may be
 used, copied, transmitted, or stored only in accord with that
 written license.
  
 The following legend is applicable only to US Government
 contracts under FAR:
  
                    RESTRICTED RIGHTS LEGEND
  
 Use, reproduction and disclosure by the US Government is
 subject to restrictions as set forth in subparagraphs (a)
 and (c) of the Commercial Computer Software - Restricted
 Rights clause in FAR 52.227-19.
  
 Gaussian, Inc.
 340 Quinnipiac St., Bldg. 40, Wallingford CT 06492
  
  
 ---------------------------------------------------------------
 Warning -- This program may not be used in any manner that
 competes with the business of Gaussian, Inc. or will provide
 assistance to any competitor of Gaussian, Inc.  The licensee
 of this program is prohibited from giving any competitor of
 Gaussian, Inc. access to this program.  By using this program,
 the user acknowledges that Gaussian, Inc. is engaged in the
 business of creating and licensing software in the field of
 computational chemistry and represents and warrants to the
 licensee that it is not a competitor of Gaussian, Inc. and that
 it will not use this program in any manner prohibited above.
 ---------------------------------------------------------------
  

 Cite this work as:
 Gaussian 09, Revision D.01,
 M. J. Frisch, G. W. Trucks, H. B. Schlegel, G. E. Scuseria, 
 M. A. Robb, J. R. Cheeseman, G. Scalmani, V. Barone, B. Mennucci, 
 G. A. Petersson, H. Nakatsuji, M. Caricato, X. Li, H. P. Hratchian, 
 A. F. Izmaylov, J. Bloino, G. Zheng, J. L. Sonnenberg, M. Hada, 
 M. Ehara, K. Toyota, R. Fukuda, J. Hasegawa, M. Ishida, T. Nakajima, 
 Y. Honda, O. Kitao, H. Nakai, T. Vreven, J. A. Montgomery, Jr., 
 J. E. Peralta, F. Ogliaro, M. Bearpark, J. J. Heyd, E. Brothers, 
 K. N. Kudin, V. N. Staroverov, T. Keith, R. Kobayashi, J. Normand, 
 K. Raghavachari, A. Rendell, J. C. Burant, S. S. Iyengar, J. Tomasi, 
 M. Cossi, N. Rega, J. M. Millam, M. Klene, J. E. Knox, J. B. Cross, 
 V. Bakken, C. Adamo, J. Jaramillo, R. Gomperts, R. E. Stratmann, 
 O. Yazyev, A. J. Austin, R. Cammi, C. Pomelli, J. W. Ochterski, 
 R. L. Martin, K. Morokuma, V. G. Zakrzewski, G. A. Voth, 
 P. Salvador, J. J. Dannenberg, S. Dapprich, A. D. Daniels, 
 O. Farkas, J. B. Foresman, J. V. Ortiz, J. Cioslowski, 
 and D. J. Fox, Gaussian, Inc., Wallingford CT, 2013.
 
 ******************************************
 Gaussian 09:  ES64L-G09RevD.01 24-Apr-2013
                12-Apr-2016 
 ******************************************
 %chk=Ala-S-opt-freq-tsb1-6-31g.chk
 -----------------------------------------------
 # opt=(calcfc,ts) freq rb3lyp/6-31g iop(1/11=1)
 -----------------------------------------------
 1/5=1,10=4,11=1,14=-1,18=20,26=3,38=1/1,3;
 2/9=110,12=2,17=6,18=5,40=1/2;
 3/5=1,6=6,11=2,16=1,25=1,30=1,71=2,74=-5,116=1,140=1/1,2,3;
 4//1;
 5/5=2,38=5/2;
 8/6=4,10=90,11=11/1;
 11/6=1,8=1,9=11,15=111,16=1/1,2,10;
 10/6=1,13=1/2;
 6/7=2,8=2,9=2,10=2,28=1/1;
 7/10=1,18=20,25=1/1,2,3,16;
 1/5=1,10=4,11=1,14=-1,18=20,26=3/3(2);
 2/9=110/2;
 99//99;
 2/9=110/2;
 3/5=1,6=6,11=2,16=1,25=1,30=1,71=1,74=-5,116=1/1,2,3;
 4/5=5,16=3,69=1/1;
 5/5=2,38=5/2;
 7//1,2,3,16;
 1/5=1,11=1,14=-1,18=20,26=3/3(-5);
 2/9=110/2;
 6/7=2,8=2,9=2,10=2,19=2,28=1/1;
 99/9=1/99;
 ------------------------
 Ala-S-opt-freq-tsb16-31g
 ------------------------
 Symbolic Z-matrix:
 Charge =  0 Multiplicity = 1
 N                    -1.47991  -1.20198  -0.42557 
 H                    -1.25717  -1.77433   0.38319 
 C                    -0.71879   0.0421   -0.39319 
 H                     0.30641  -1.34185  -0.59729 
 C                    -1.26271   1.1242    0.56785 
 C                     0.71033  -0.28453   0.00624 
 H                    -1.27259   0.7546    1.5969 
 H                    -0.66205   2.03639   0.52472 
 H                    -2.28729   1.37969   0.28488 
 O                     1.04285  -1.21424   0.69753 
 H                    -2.4769   -1.0189   -0.42882 
 O                     1.58908   0.63097  -0.46395 
 H                     2.46523   0.38828  -0.1276 
 

 GradGradGradGradGradGradGradGradGradGradGradGradGradGradGradGradGradGrad
 Berny optimization.
 Initialization pass.
                           ----------------------------
                           !    Initial Parameters    !
                           ! (Angstroms and Degrees)  !
 --------------------------                            --------------------------
 ! Name  Definition              Value          Derivative Info.                !
 --------------------------------------------------------------------------------
 ! R1    R(1,2)                  1.0155         calculate D2E/DX2 analytically  !
 ! R2    R(1,3)                  1.4588         calculate D2E/DX2 analytically  !
 ! R3    R(1,11)                 1.0137         calculate D2E/DX2 analytically  !
 ! R4    R(3,5)                  1.5461         calculate D2E/DX2 analytically  !
 ! R5    R(3,6)                  1.5194         calculate D2E/DX2 analytically  !
 ! R6    R(4,6)                  1.2827         calculate D2E/DX2 analytically  !
 ! R7    R(5,7)                  1.0935         calculate D2E/DX2 analytically  !
 ! R8    R(5,8)                  1.093          calculate D2E/DX2 analytically  !
 ! R9    R(5,9)                  1.0932         calculate D2E/DX2 analytically  !
 ! R10   R(6,10)                 1.2053         calculate D2E/DX2 analytically  !
 ! R11   R(6,12)                 1.3533         calculate D2E/DX2 analytically  !
 ! R12   R(12,13)                0.9694         calculate D2E/DX2 analytically  !
 ! A1    A(2,1,3)              110.397          calculate D2E/DX2 analytically  !
 ! A2    A(2,1,11)             108.6676         calculate D2E/DX2 analytically  !
 ! A3    A(3,1,11)             111.0515         calculate D2E/DX2 analytically  !
 ! A4    A(1,3,5)              115.2856         calculate D2E/DX2 analytically  !
 ! A5    A(1,3,6)              108.2548         calculate D2E/DX2 analytically  !
 ! A6    A(5,3,6)              108.5388         calculate D2E/DX2 analytically  !
 ! A7    A(3,5,7)              110.5846         calculate D2E/DX2 analytically  !
 ! A8    A(3,5,8)              111.4838         calculate D2E/DX2 analytically  !
 ! A9    A(3,5,9)              109.4138         calculate D2E/DX2 analytically  !
 ! A10   A(7,5,8)              108.9163         calculate D2E/DX2 analytically  !
 ! A11   A(7,5,9)              108.308          calculate D2E/DX2 analytically  !
 ! A12   A(8,5,9)              108.0458         calculate D2E/DX2 analytically  !
 ! A13   A(3,6,4)               75.9557         calculate D2E/DX2 analytically  !
 ! A14   A(3,6,10)             125.1745         calculate D2E/DX2 analytically  !
 ! A15   A(3,6,12)             111.962          calculate D2E/DX2 analytically  !
 ! A16   A(4,6,10)              73.7948         calculate D2E/DX2 analytically  !
 ! A17   A(4,6,12)             126.7717         calculate D2E/DX2 analytically  !
 ! A18   A(10,6,12)            122.815          calculate D2E/DX2 analytically  !
 ! A19   A(6,12,13)            107.2766         calculate D2E/DX2 analytically  !
 ! D1    D(2,1,3,5)            -78.2711         calculate D2E/DX2 analytically  !
 ! D2    D(2,1,3,6)             43.4703         calculate D2E/DX2 analytically  !
 ! D3    D(11,1,3,5)            42.328          calculate D2E/DX2 analytically  !
 ! D4    D(11,1,3,6)           164.0694         calculate D2E/DX2 analytically  !
 ! D5    D(1,3,5,7)             60.0762         calculate D2E/DX2 analytically  !
 ! D6    D(1,3,5,8)           -178.5935         calculate D2E/DX2 analytically  !
 ! D7    D(1,3,5,9)            -59.1421         calculate D2E/DX2 analytically  !
 ! D8    D(6,3,5,7)            -61.5121         calculate D2E/DX2 analytically  !
 ! D9    D(6,3,5,8)             59.8182         calculate D2E/DX2 analytically  !
 ! D10   D(6,3,5,9)            179.2696         calculate D2E/DX2 analytically  !
 ! D11   D(1,3,6,4)             29.5195         calculate D2E/DX2 analytically  !
 ! D12   D(1,3,6,10)           -28.5941         calculate D2E/DX2 analytically  !
 ! D13   D(1,3,6,12)           153.8859         calculate D2E/DX2 analytically  !
 ! D14   D(5,3,6,4)            155.3221         calculate D2E/DX2 analytically  !
 ! D15   D(5,3,6,10)            97.2085         calculate D2E/DX2 analytically  !
 ! D16   D(5,3,6,12)           -80.3115         calculate D2E/DX2 analytically  !
 ! D17   D(3,6,12,13)          176.6707         calculate D2E/DX2 analytically  !
 ! D18   D(4,6,12,13)          -94.7786         calculate D2E/DX2 analytically  !
 ! D19   D(10,6,12,13)          -0.9173         calculate D2E/DX2 analytically  !
 --------------------------------------------------------------------------------
 Trust Radius=3.00D-01 FncErr=1.00D-07 GrdErr=1.00D-06
 Number of steps in this run=     60 maximum allowed number of steps=    100.
 Search for a saddle point of order  1.
 GradGradGradGradGradGradGradGradGradGradGradGradGradGradGradGradGradGrad

                          Input orientation:                          
 ---------------------------------------------------------------------
 Center     Atomic      Atomic             Coordinates (Angstroms)
 Number     Number       Type             X           Y           Z
 ---------------------------------------------------------------------
      1          7           0       -1.479913   -1.201980   -0.425570
      2          1           0       -1.257168   -1.774325    0.383194
      3          6           0       -0.718795    0.042100   -0.393186
      4          1           0        0.306410   -1.341851   -0.597286
      5          6           0       -1.262708    1.124198    0.567851
      6          6           0        0.710326   -0.284531    0.006241
      7          1           0       -1.272587    0.754601    1.596903
      8          1           0       -0.662050    2.036387    0.524715
      9          1           0       -2.287291    1.379689    0.284878
     10          8           0        1.042847   -1.214236    0.697528
     11          1           0       -2.476896   -1.018904   -0.428823
     12          8           0        1.589080    0.630966   -0.463946
     13          1           0        2.465230    0.388278   -0.127602
 ---------------------------------------------------------------------
                    Distance matrix (angstroms):
                    1          2          3          4          5
     1  N    0.000000
     2  H    1.015526   0.000000
     3  C    1.458796   2.047440   0.000000
     4  H    1.800000   1.895561   1.734365   0.000000
     5  C    2.538733   2.904404   1.546082   3.146597   0.000000
     6  C    2.413570   2.496520   1.519413   1.282699   2.488531
     7  H    2.821629   2.805137   2.185131   3.420937   1.093457
     8  H    3.472602   3.859497   2.196120   3.689077   1.093041
     9  H    2.796714   3.319431   2.170045   3.861642   1.093215
    10  O    2.761488   2.388006   2.423101   1.495048   3.286438
    11  H    1.013658   1.648566   2.053757   2.807039   2.657160
    12  O    3.574896   3.821544   2.382867   2.356910   3.072552
    13  H    4.264019   4.335206   3.213781   2.806145   3.862998
                    6          7          8          9         10
     6  C    0.000000
     7  H    2.746260   0.000000
     8  H    2.745704   1.779134   0.000000
     9  H    3.439909   1.772504   1.769232   0.000000
    10  O    1.205321   3.169610   3.674655   4.241291   0.000000
    11  H    3.299541   2.949448   3.679362   2.509695   3.700731
    12  O    1.353299   3.528671   2.832004   4.018405   2.247702
    13  H    1.884217   4.132721   3.594671   4.872319   2.296098
                   11         12         13
    11  H    0.000000
    12  O    4.388105   0.000000
    13  H    5.147378   0.969362   0.000000
 Stoichiometry    C3H7NO2
 Framework group  C1[X(C3H7NO2)]
 Deg. of freedom    33
 Full point group                 C1      NOp   1
 Largest Abelian subgroup         C1      NOp   1
 Largest concise Abelian subgroup C1      NOp   1
                         Standard orientation:                         
 ---------------------------------------------------------------------
 Center     Atomic      Atomic             Coordinates (Angstroms)
 Number     Number       Type             X           Y           Z
 ---------------------------------------------------------------------
      1          7           0       -1.425548   -1.074979   -0.429066
      2          1           0       -1.215015   -1.604894    0.411267
      3          6           0       -0.667956    0.171539   -0.447233
      4          1           0        0.363711   -1.217735   -0.563865
      5          6           0       -1.230339    1.299231    0.448538
      6          6           0        0.755049   -0.129917   -0.008144
      7          1           0       -1.256543    0.982233    1.494709
      8          1           0       -0.631155    2.209952    0.369137
      9          1           0       -2.250643    1.536817    0.136044
     10          8           0        1.078130   -1.022338    0.734824
     11          1           0       -2.422759   -0.895451   -0.458108
     12          8           0        1.639411    0.763343   -0.509551
     13          1           0        2.510382    0.540779   -0.146869
 ---------------------------------------------------------------------
 Rotational constants (GHZ):      5.0689164      3.0762969      2.3204220
 Standard basis: 6-31G (6D, 7F)
 There are    68 symmetry adapted cartesian basis functions of A   symmetry.
 There are    68 symmetry adapted basis functions of A   symmetry.
    68 basis functions,   160 primitive gaussians,    68 cartesian basis functions
    24 alpha electrons       24 beta electrons
       nuclear repulsion energy       250.4518267466 Hartrees.
 NAtoms=   13 NActive=   13 NUniq=   13 SFac= 1.00D+00 NAtFMM=   60 NAOKFM=F Big=F
 Integral buffers will be    131072 words long.
 Raffenetti 2 integral format.
 Two-electron integral symmetry is turned on.
 One-electron integrals computed using PRISM.
 NBasis=    68 RedAO= T EigKep=  4.03D-03  NBF=    68
 NBsUse=    68 1.00D-06 EigRej= -1.00D+00 NBFU=    68
 ExpMin= 1.61D-01 ExpMax= 5.48D+03 ExpMxC= 8.25D+02 IAcc=1 IRadAn=         1 AccDes= 0.00D+00
 Harris functional with IExCor=  402 and IRadAn=       1 diagonalized for initial guess.
 HarFok:  IExCor=  402 AccDes= 0.00D+00 IRadAn=         1 IDoV= 1 UseB2=F ITyADJ=14
 ICtDFT=  3500011 ScaDFX=  1.000000  1.000000  1.000000  1.000000
 FoFCou: FMM=F IPFlag=           0 FMFlag=      100000 FMFlg1=           0
         NFxFlg=           0 DoJE=T BraDBF=F KetDBF=T FulRan=T
         wScrn=  0.000000 ICntrl=     500 IOpCl=  0 I1Cent=   200000004 NGrid=           0
         NMat0=    1 NMatS0=      1 NMatT0=    0 NMatD0=    1 NMtDS0=    0 NMtDT0=    0
 Petite list used in FoFCou.
 Keep R1 ints in memory in canonical form, NReq=3676491.
 Requested convergence on RMS density matrix=1.00D-08 within 128 cycles.
 Requested convergence on MAX density matrix=1.00D-06.
 Requested convergence on             energy=1.00D-06.
 No special actions if energy rises.
 Integral accuracy reduced to 1.0D-05 until final iterations.
 EnCoef did     3 forward-backward iterations
 Problem detected with inexpensive integrals.
 Switching to full accuracy and repeating last cycle.
 EnCoef did   100 forward-backward iterations
 EnCoef did     3 forward-backward iterations
 EnCoef did     2 forward-backward iterations
 EnCoef did     4 forward-backward iterations
 EnCoef did     4 forward-backward iterations
 SCF Done:  E(RB3LYP) =  -323.365027392     A.U. after   20 cycles
            NFock= 20  Conv=0.96D-08     -V/T= 2.0037
 DoSCS=F DFT=T ScalE2(SS,OS)=  1.000000  1.000000
 Range of M.O.s used for correlation:     1    68
 NBasis=    68 NAE=    24 NBE=    24 NFC=     0 NFV=     0
 NROrb=     68 NOA=    24 NOB=    24 NVA=    44 NVB=    44

 **** Warning!!: The smallest alpha delta epsilon is  0.58696179D-01

 Symmetrizing basis deriv contribution to polar:
 IMax=3 JMax=2 DiffMx= 0.00D+00
 G2DrvN: will do    14 centers at a time, making    1 passes.
 Calling FoFCou, ICntrl=  3107 FMM=F I1Cent=   0 AccDes= 0.00D+00.
 End of G2Drv F.D. properties file   721 does not exist.
 End of G2Drv F.D. properties file   722 does not exist.
 End of G2Drv F.D. properties file   788 does not exist.
          IDoAtm=1111111111111
          Differentiating once with respect to nuclear coordinates.
 Keep R1 ints in memory in canonical form, NReq=3645290.
          There are    42 degrees of freedom in the 1st order CPHF.  IDoFFX=6 NUNeed=     0.
     36 vectors produced by pass  0 Test12= 2.51D-15 2.38D-09 XBig12= 2.52D-01 3.76D-01.
 AX will form    36 AO Fock derivatives at one time.
     36 vectors produced by pass  1 Test12= 2.51D-15 2.38D-09 XBig12= 1.00D-01 6.94D-02.
     36 vectors produced by pass  2 Test12= 2.51D-15 2.38D-09 XBig12= 5.81D-04 4.89D-03.
     36 vectors produced by pass  3 Test12= 2.51D-15 2.38D-09 XBig12= 8.83D-07 1.47D-04.
     36 vectors produced by pass  4 Test12= 2.51D-15 2.38D-09 XBig12= 6.89D-10 4.19D-06.
     19 vectors produced by pass  5 Test12= 2.51D-15 2.38D-09 XBig12= 5.12D-13 1.16D-07.
 InvSVY:  IOpt=1 It=  1 EMax= 2.11D-15
 Solved reduced A of dimension   199 with    36 vectors.
 End of Minotr F.D. properties file   721 does not exist.
 End of Minotr F.D. properties file   722 does not exist.
 End of Minotr F.D. properties file   788 does not exist.

 **********************************************************************

            Population analysis using the SCF density.

 **********************************************************************

 Orbital symmetries:
       Occupied  (A) (A) (A) (A) (A) (A) (A) (A) (A) (A) (A) (A)
                 (A) (A) (A) (A) (A) (A) (A) (A) (A) (A) (A) (A)
       Virtual   (A) (A) (A) (A) (A) (A) (A) (A) (A) (A) (A) (A)
                 (A) (A) (A) (A) (A) (A) (A) (A) (A) (A) (A) (A)
                 (A) (A) (A) (A) (A) (A) (A) (A) (A) (A) (A) (A)
                 (A) (A) (A) (A) (A) (A) (A) (A)
 The electronic state is 1-A.
 Alpha  occ. eigenvalues --  -19.18930 -19.18459 -14.32573 -10.32493 -10.22112
 Alpha  occ. eigenvalues --  -10.19009  -1.16871  -1.06716  -0.91291  -0.75145
 Alpha  occ. eigenvalues --   -0.69240  -0.60352  -0.54073  -0.51414  -0.50020
 Alpha  occ. eigenvalues --   -0.46622  -0.41939  -0.41368  -0.40772  -0.37784
 Alpha  occ. eigenvalues --   -0.34779  -0.31708  -0.27253  -0.16412
 Alpha virt. eigenvalues --   -0.10542   0.03452   0.07034   0.09838   0.13975
 Alpha virt. eigenvalues --    0.14203   0.16924   0.17854   0.22693   0.24493
 Alpha virt. eigenvalues --    0.26492   0.30272   0.37781   0.53488   0.55325
 Alpha virt. eigenvalues --    0.57015   0.57419   0.62252   0.63721   0.68323
 Alpha virt. eigenvalues --    0.71102   0.71754   0.76573   0.78135   0.81259
 Alpha virt. eigenvalues --    0.83997   0.86824   0.91149   0.92174   0.93952
 Alpha virt. eigenvalues --    0.95377   0.96582   0.99405   1.00460   1.03775
 Alpha virt. eigenvalues --    1.07060   1.07862   1.12948   1.24616   1.33781
 Alpha virt. eigenvalues --    1.48057   1.64080   1.79828   1.95418
          Condensed to atoms (all electrons):
               1          2          3          4          5          6
     1  N    7.115786   0.260167   0.211364   0.011371  -0.086121  -0.093605
     2  H    0.260167   0.523086  -0.084464   0.019302   0.012114  -0.004643
     3  C    0.211364  -0.084464   5.552956  -0.064635   0.345115   0.301763
     4  H    0.011371   0.019302  -0.064635   0.480438   0.012099   0.104223
     5  C   -0.086121   0.012114   0.345115   0.012099   5.127211  -0.055815
     6  C   -0.093605  -0.004643   0.301763   0.104223  -0.055815   5.323625
     7  H    0.001542   0.007103  -0.091977   0.002350   0.375056  -0.013877
     8  H    0.005678   0.000000  -0.024764  -0.000480   0.345496  -0.003150
     9  H   -0.003134  -0.001813  -0.031402  -0.000579   0.362990   0.004848
    10  O    0.000859   0.011003  -0.137238   0.054307   0.003381   0.188287
    11  H    0.323909  -0.027784  -0.031841   0.000596  -0.001111   0.007840
    12  O    0.003963   0.000066  -0.104406  -0.018473  -0.003212   0.097527
    13  H   -0.000327   0.000022   0.009010   0.000652  -0.000262  -0.013542
               7          8          9         10         11         12
     1  N    0.001542   0.005678  -0.003134   0.000859   0.323909   0.003963
     2  H    0.007103   0.000000  -0.001813   0.011003  -0.027784   0.000066
     3  C   -0.091977  -0.024764  -0.031402  -0.137238  -0.031841  -0.104406
     4  H    0.002350  -0.000480  -0.000579   0.054307   0.000596  -0.018473
     5  C    0.375056   0.345496   0.362990   0.003381  -0.001111  -0.003212
     6  C   -0.013877  -0.003150   0.004848   0.188287   0.007840   0.097527
     7  H    0.660215  -0.025013  -0.055001   0.005261   0.000624  -0.000108
     8  H   -0.025013   0.556348  -0.026175   0.000068  -0.000035   0.004403
     9  H   -0.055001  -0.026175   0.605683  -0.000189   0.003505   0.000009
    10  O    0.005261   0.000068  -0.000189   8.390654   0.000011  -0.107430
    11  H    0.000624  -0.000035   0.003505   0.000011   0.421401  -0.000099
    12  O   -0.000108   0.004403   0.000009  -0.107430  -0.000099   8.411161
    13  H    0.000052  -0.000136   0.000008   0.002788   0.000008   0.224159
              13
     1  N   -0.000327
     2  H    0.000022
     3  C    0.009010
     4  H    0.000652
     5  C   -0.000262
     6  C   -0.013542
     7  H    0.000052
     8  H   -0.000136
     9  H    0.000008
    10  O    0.002788
    11  H    0.000008
    12  O    0.224159
    13  H    0.407335
 Mulliken charges:
               1
     1  N   -0.751451
     2  H    0.285842
     3  C    0.150521
     4  H    0.398830
     5  C   -0.436939
     6  C    0.156523
     7  H    0.133776
     8  H    0.167758
     9  H    0.141251
    10  O   -0.411762
    11  H    0.302977
    12  O   -0.507560
    13  H    0.370235
 Sum of Mulliken charges =   0.00000
 Mulliken charges with hydrogens summed into heavy atoms:
               1
     1  N   -0.162632
     3  C    0.150521
     5  C    0.005846
     6  C    0.555352
    10  O   -0.411762
    12  O   -0.137325
 APT charges:
               1
     1  N   -1.146093
     2  H    0.376456
     3  C    0.261122
     4  H    0.357879
     5  C   -1.261370
     6  C   -0.104717
     7  H    0.314689
     8  H    0.373774
     9  H    0.470678
    10  O   -0.292286
    11  H    0.640440
    12  O   -0.654622
    13  H    0.664052
 Sum of APT charges =   0.00000
 APT charges with hydrogens summed into heavy atoms:
               1
     1  N   -0.129198
     3  C    0.261122
     5  C   -0.102230
     6  C    0.253162
    10  O   -0.292286
    12  O    0.009430
 Electronic spatial extent (au):  <R**2>=            577.2452
 Charge=              0.0000 electrons
 Dipole moment (field-independent basis, Debye):
    X=             -0.1944    Y=              0.1524    Z=              1.4623  Tot=              1.4830
 Quadrupole moment (field-independent basis, Debye-Ang):
   XX=            -28.1376   YY=            -38.8785   ZZ=            -41.2233
   XY=              0.9710   XZ=             -2.1539   YZ=              1.9910
 Traceless Quadrupole moment (field-independent basis, Debye-Ang):
   XX=              7.9422   YY=             -2.7987   ZZ=             -5.1435
   XY=              0.9710   XZ=             -2.1539   YZ=              1.9910
 Octapole moment (field-independent basis, Debye-Ang**2):
  XXX=             14.0268  YYY=             -0.5873  ZZZ=              5.4119  XYY=             -0.1830
  XXY=              0.7780  XXZ=              0.8656  XZZ=              2.8955  YZZ=              0.6457
  YYZ=              2.8760  XYZ=              7.0079
 Hexadecapole moment (field-independent basis, Debye-Ang**3):
 XXXX=           -281.1180 YYYY=           -237.4652 ZZZZ=            -99.3784 XXXY=             26.1034
 XXXZ=              3.8332 YYYX=              4.0956 YYYZ=             -5.6751 ZZZX=             -2.9042
 ZZZY=             -3.6242 XXYY=           -106.5502 XXZZ=            -85.2567 YYZZ=            -60.9672
 XXYZ=              1.0871 YYXZ=             -7.0267 ZZXY=             -0.0979
 N-N= 2.504518267466D+02 E-N=-1.258078167025D+03  KE= 3.221710146752D+02
  Exact polarizability:   0.000   0.000   0.000   0.000   0.000   0.000
 Approx polarizability: 148.077 -43.503 100.282  42.675 -29.133  70.404
 Calling FoFJK, ICntrl=    100147 FMM=F ISym2X=0 I1Cent= 0 IOpClX= 0 NMat=1 NMatS=1 NMatT=0.
 ***** Axes restored to original set *****
 -------------------------------------------------------------------
 Center     Atomic                   Forces (Hartrees/Bohr)
 Number     Number              X              Y              Z
 -------------------------------------------------------------------
      1        7          -0.005415528    0.003366630    0.012286928
      2        1          -0.005494015   -0.011008726    0.015965729
      3        6           0.036418309   -0.004838257    0.044966103
      4        1           0.008843604   -0.004084092   -0.025290274
      5        6          -0.002320467    0.014305630   -0.034744164
      6        6          -0.113863093    0.134262644   -0.114676680
      7        1           0.002435574   -0.006429447    0.005241749
      8        1          -0.000527502    0.001067223    0.001219129
      9        1          -0.002040815    0.004304867    0.001057348
     10        8           0.055647935   -0.150196450    0.098818556
     11        1          -0.003686860   -0.005086934   -0.010013832
     12        8           0.013642771    0.019811212    0.001422026
     13        1           0.016360085    0.004525700    0.003747382
 -------------------------------------------------------------------
 Cartesian Forces:  Max     0.150196450 RMS     0.047178885
 FormGI is forming the generalized inverse of G from B-inverse, IUseBI=4.

 GradGradGradGradGradGradGradGradGradGradGradGradGradGradGradGradGradGrad
 Berny optimization.
 Internal  Forces:  Max     0.187875847 RMS     0.029235472
 Search for a saddle point.
 Step number   1 out of a maximum of   60
 All quantities printed in internal units (Hartrees-Bohrs-Radians)
 Swapping is turned off.
 Second derivative matrix not updated -- analytic derivatives used.
 ITU=  0
     Eigenvalues ---   -0.30593  -0.10807  -0.00701   0.00378   0.00648
     Eigenvalues ---    0.01172   0.02755   0.04385   0.05251   0.06119
     Eigenvalues ---    0.06442   0.07475   0.10565   0.11860   0.13534
     Eigenvalues ---    0.14292   0.15848   0.16645   0.17588   0.19670
     Eigenvalues ---    0.21510   0.23019   0.29009   0.30492   0.33689
     Eigenvalues ---    0.34556   0.35153   0.39002   0.44608   0.46473
     Eigenvalues ---    0.47711   0.52220   1.01253
 Eigenvectors required to have negative eigenvalues:
                          R6        A13       A5        D12       A17
   1                    0.33039  -0.30355  -0.29156   0.27162   0.27148
                          D14       D15       D11       R5        A6
   1                   -0.25096   0.24857  -0.22790  -0.20448   0.20098
 RFO step:  Lambda0=5.414252587D-05 Lambda=-1.08585089D-01.
 Linear search not attempted -- option 19 set.
 Maximum step size (   0.300) exceeded in Quadratic search.
    -- Step size scaled by   0.426
 Iteration  1 RMS(Cart)=  0.07190638 RMS(Int)=  0.00453609
 Iteration  2 RMS(Cart)=  0.00503193 RMS(Int)=  0.00165642
 Iteration  3 RMS(Cart)=  0.00001463 RMS(Int)=  0.00165638
 Iteration  4 RMS(Cart)=  0.00000006 RMS(Int)=  0.00165638
 Variable       Old X    -DE/DX   Delta X   Delta X   Delta X     New X
                                 (Linear)    (Quad)   (Total)
    R1        1.91907   0.01771   0.00000   0.00361   0.00361   1.92268
    R2        2.75672   0.01807   0.00000  -0.01231  -0.01231   2.74441
    R3        1.91554   0.00273   0.00000   0.00009   0.00009   1.91563
    R4        2.92167  -0.00679   0.00000  -0.01059  -0.01059   2.91108
    R5        2.87127  -0.02860   0.00000  -0.09753  -0.09753   2.77375
    R6        2.42395   0.01248   0.00000  -0.00677  -0.00677   2.41718
    R7        2.06633   0.00709   0.00000   0.00324   0.00324   2.06957
    R8        2.06555   0.00055   0.00000   0.00050   0.00050   2.06605
    R9        2.06588   0.00265   0.00000   0.00274   0.00274   2.06862
   R10        2.27773   0.18788   0.00000   0.10581   0.10581   2.38354
   R11        2.55737   0.03416   0.00000   0.02102   0.02102   2.57839
   R12        1.83183   0.01495   0.00000   0.00856   0.00856   1.84039
    A1        1.92679   0.00920   0.00000   0.02779   0.02763   1.95442
    A2        1.89661  -0.00477   0.00000   0.00654   0.00625   1.90286
    A3        1.93821   0.00880   0.00000   0.00246   0.00230   1.94051
    A4        2.01211  -0.00599   0.00000  -0.01525  -0.01747   1.99464
    A5        1.88940  -0.00647   0.00000   0.03180   0.03125   1.92065
    A6        1.89436   0.02280   0.00000   0.05761   0.05721   1.95157
    A7        1.93007  -0.00873   0.00000  -0.01590  -0.01588   1.91419
    A8        1.94576   0.00247   0.00000   0.00212   0.00207   1.94783
    A9        1.90963   0.00675   0.00000   0.02036   0.02036   1.92999
   A10        1.90095   0.00134   0.00000   0.00168   0.00165   1.90260
   A11        1.89033   0.00136   0.00000  -0.00337  -0.00329   1.88704
   A12        1.88575  -0.00310   0.00000  -0.00487  -0.00495   1.88080
   A13        1.32568   0.00844   0.00000   0.15337   0.14881   1.47448
   A14        2.18471  -0.00117   0.00000  -0.01667  -0.01594   2.16876
   A15        1.95411   0.00707   0.00000   0.02905   0.02731   1.98142
   A16        1.28796   0.00296   0.00000  -0.18608  -0.18575   1.10222
   A17        2.21258  -0.00705   0.00000   0.03856   0.03087   2.24345
   A18        2.14353  -0.00623   0.00000  -0.01188  -0.01102   2.13251
   A19        1.87233   0.01525   0.00000   0.01865   0.01865   1.89098
    D1       -1.36609  -0.00553   0.00000  -0.09015  -0.08987  -1.45596
    D2        0.75870   0.01508   0.00000  -0.00157  -0.00207   0.75663
    D3        0.73876   0.00042   0.00000  -0.06177  -0.06127   0.67749
    D4        2.86355   0.02103   0.00000   0.02681   0.02653   2.89008
    D5        1.04853   0.00309   0.00000   0.03113   0.03090   1.07943
    D6       -3.11704   0.00045   0.00000   0.02374   0.02354  -3.09351
    D7       -1.03222   0.00254   0.00000   0.03226   0.03214  -1.00008
    D8       -1.07359  -0.00174   0.00000  -0.04362  -0.04347  -1.11706
    D9        1.04402  -0.00438   0.00000  -0.05101  -0.05084   0.99318
   D10        3.12885  -0.00229   0.00000  -0.04249  -0.04224   3.08661
   D11        0.51521   0.02240   0.00000  -0.00835  -0.01239   0.50282
   D12       -0.49906   0.00901   0.00000   0.09365   0.09320  -0.40586
   D13        2.68582   0.01728   0.00000   0.08114   0.08315   2.76897
   D14        2.71088   0.02556   0.00000   0.03085   0.02845   2.73933
   D15        1.69661   0.01217   0.00000   0.13284   0.13405   1.83066
   D16       -1.40170   0.02044   0.00000   0.12033   0.12400  -1.27770
   D17        3.08349  -0.00893   0.00000  -0.06800  -0.06981   3.01368
   D18       -1.65420   0.00459   0.00000   0.16859   0.16984  -1.48435
   D19       -0.01601  -0.00103   0.00000  -0.08000  -0.07945  -0.09546
         Item               Value     Threshold  Converged?
 Maximum Force            0.187876     0.000450     NO 
 RMS     Force            0.029235     0.000300     NO 
 Maximum Displacement     0.236909     0.001800     NO 
 RMS     Displacement     0.071548     0.001200     NO 
 Predicted change in Energy=-3.825469D-02
 GradGradGradGradGradGradGradGradGradGradGradGradGradGradGradGradGradGrad

                          Input orientation:                          
 ---------------------------------------------------------------------
 Center     Atomic      Atomic             Coordinates (Angstroms)
 Number     Number       Type             X           Y           Z
 ---------------------------------------------------------------------
      1          7           0       -1.502103   -1.184479   -0.386664
      2          1           0       -1.283946   -1.799518    0.393920
      3          6           0       -0.706703    0.030330   -0.360280
      4          1           0        0.431777   -1.411919   -0.591084
      5          6           0       -1.268827    1.135941    0.553348
      6          6           0        0.688623   -0.288868   -0.035274
      7          1           0       -1.293990    0.781003    1.589101
      8          1           0       -0.664356    2.045563    0.503175
      9          1           0       -2.290076    1.396922    0.257999
     10          8           0        1.054571   -1.326537    0.581364
     11          1           0       -2.493536   -0.973516   -0.374091
     12          8           0        1.573254    0.672197   -0.429527
     13          1           0        2.451803    0.443272   -0.077088
 ---------------------------------------------------------------------
                    Distance matrix (angstroms):
                    1          2          3          4          5
     1  N    0.000000
     2  H    1.017436   0.000000
     3  C    1.452280   2.061643   0.000000
     4  H    1.957909   2.015979   1.851888   0.000000
     5  C    2.514436   2.939824   1.540479   3.270072   0.000000
     6  C    2.392671   2.521368   1.467805   1.279116   2.491620
     7  H    2.794652   2.843879   2.169909   3.541241   1.095171
     8  H    3.453520   3.896213   2.192832   3.788547   1.093304
     9  H    2.774910   3.353804   2.181035   4.002376   1.094665
    10  O    2.737488   2.393221   2.414512   1.330337   3.385670
    11  H    1.013708   1.653852   2.049554   2.965930   2.609572
    12  O    3.592618   3.866656   2.369597   2.381724   3.042783
    13  H    4.287048   4.382668   3.197949   2.790417   3.836708
                    6          7          8          9         10
     6  C    0.000000
     7  H    2.777404   0.000000
     8  H    2.751372   1.781793   0.000000
     9  H    3.435192   1.772958   1.767431   0.000000
    10  O    1.261315   3.312552   3.785747   4.325328   0.000000
    11  H    3.272564   2.893333   3.637353   2.461689   3.691420
    12  O    1.364424   3.508246   2.786210   3.990393   2.299102
    13  H    1.909602   4.113540   3.551688   4.848417   2.349051
                   11         12         13
    11  H    0.000000
    12  O    4.387508   0.000000
    13  H    5.152851   0.973893   0.000000
 Stoichiometry    C3H7NO2
 Framework group  C1[X(C3H7NO2)]
 Deg. of freedom    33
 Full point group                 C1      NOp   1
 Largest Abelian subgroup         C1      NOp   1
 Largest concise Abelian subgroup C1      NOp   1
                         Standard orientation:                         
 ---------------------------------------------------------------------
 Center     Atomic      Atomic             Coordinates (Angstroms)
 Number     Number       Type             X           Y           Z
 ---------------------------------------------------------------------
      1          7           0       -1.406916   -1.086698   -0.406167
      2          1           0       -1.195251   -1.657361    0.409135
      3          6           0       -0.650485    0.153012   -0.413149
      4          1           0        0.538626   -1.261000   -0.539939
      5          6           0       -1.275489    1.281300    0.429118
      6          6           0        0.742782   -0.105587   -0.030548
      7          1           0       -1.323124    0.974369    1.479319
      8          1           0       -0.697951    2.206596    0.354347
      9          1           0       -2.294219    1.495207    0.090406
     10          8           0        1.120366   -1.101077    0.645725
     11          1           0       -2.404253   -0.907426   -0.434155
     12          8           0        1.609718    0.864068   -0.442674
     13          1           0        2.483063    0.680228   -0.052879
 ---------------------------------------------------------------------
 Rotational constants (GHZ):      5.0018590      3.1430740      2.2618240
 Standard basis: 6-31G (6D, 7F)
 There are    68 symmetry adapted cartesian basis functions of A   symmetry.
 There are    68 symmetry adapted basis functions of A   symmetry.
    68 basis functions,   160 primitive gaussians,    68 cartesian basis functions
    24 alpha electrons       24 beta electrons
       nuclear repulsion energy       249.5596685364 Hartrees.
 NAtoms=   13 NActive=   13 NUniq=   13 SFac= 1.00D+00 NAtFMM=   60 NAOKFM=F Big=F
 Integral buffers will be    131072 words long.
 Raffenetti 2 integral format.
 Two-electron integral symmetry is turned on.
 One-electron integrals computed using PRISM.
 NBasis=    68 RedAO= T EigKep=  4.00D-03  NBF=    68
 NBsUse=    68 1.00D-06 EigRej= -1.00D+00 NBFU=    68
 Initial guess from the checkpoint file:  "Ala-S-opt-freq-tsb1-6-31g.chk"
 B after Tr=     0.000000    0.000000    0.000000
         Rot=    0.999826   -0.013888    0.000997   -0.012385 Ang=  -2.14 deg.
 ExpMin= 1.61D-01 ExpMax= 5.48D+03 ExpMxC= 8.25D+02 IAcc=1 IRadAn=         1 AccDes= 0.00D+00
 Harris functional with IExCor=  402 and IRadAn=       1 diagonalized for initial guess.
 HarFok:  IExCor=  402 AccDes= 0.00D+00 IRadAn=         1 IDoV= 1 UseB2=F ITyADJ=14
 ICtDFT=  3500011 ScaDFX=  1.000000  1.000000  1.000000  1.000000
 FoFCou: FMM=F IPFlag=           0 FMFlag=      100000 FMFlg1=           0
         NFxFlg=           0 DoJE=T BraDBF=F KetDBF=T FulRan=T
         wScrn=  0.000000 ICntrl=     500 IOpCl=  0 I1Cent=   200000004 NGrid=           0
         NMat0=    1 NMatS0=      1 NMatT0=    0 NMatD0=    1 NMtDS0=    0 NMtDT0=    0
 Petite list used in FoFCou.
 Keep R1 ints in memory in canonical form, NReq=3676491.
 Requested convergence on RMS density matrix=1.00D-08 within 128 cycles.
 Requested convergence on MAX density matrix=1.00D-06.
 Requested convergence on             energy=1.00D-06.
 No special actions if energy rises.
 Integral accuracy reduced to 1.0D-05 until final iterations.
 Initial convergence to 1.0D-05 achieved.  Increase integral accuracy.
 SCF Done:  E(RB3LYP) =  -323.403777333     A.U. after   16 cycles
            NFock= 16  Conv=0.71D-08     -V/T= 2.0042
 Calling FoFJK, ICntrl=      2127 FMM=F ISym2X=0 I1Cent= 0 IOpClX= 0 NMat=1 NMatS=1 NMatT=0.
 ***** Axes restored to original set *****
 -------------------------------------------------------------------
 Center     Atomic                   Forces (Hartrees/Bohr)
 Number     Number              X              Y              Z
 -------------------------------------------------------------------
      1        7          -0.004820781    0.004664783    0.010858606
      2        1          -0.003504473   -0.008735611    0.008835280
      3        6           0.032667715   -0.011726986    0.046132123
      4        1           0.017956230   -0.025304298    0.002421070
      5        6          -0.001516830    0.014282425   -0.031436129
      6        6          -0.096848416    0.135268441   -0.075730068
      7        1           0.001003514   -0.003893506    0.003543886
      8        1          -0.000146252    0.000607307    0.001411661
      9        1          -0.001347981    0.003041807    0.000473584
     10        8           0.033631223   -0.119485847    0.028871568
     11        1          -0.002430836   -0.003706618   -0.008003614
     12        8           0.014938839    0.010629709    0.009316299
     13        1           0.010418046    0.004358394    0.003305735
 -------------------------------------------------------------------
 Cartesian Forces:  Max     0.135268441 RMS     0.037949622

 GradGradGradGradGradGradGradGradGradGradGradGradGradGradGradGradGradGrad
 Berny optimization.
 FormGI is forming the generalized inverse of G from B-inverse, IUseBI=4.
 Internal  Forces:  Max     0.122171252 RMS     0.020833325
 Search for a saddle point.
 Step number   2 out of a maximum of   60
 All quantities printed in internal units (Hartrees-Bohrs-Radians)
 Swapping is turned off.
 Update second derivatives using D2CorX and points    1    2
 ITU=  0  0
     Eigenvalues ---   -0.31718  -0.11171  -0.00940   0.00380   0.00653
     Eigenvalues ---    0.01658   0.02770   0.04420   0.05245   0.06076
     Eigenvalues ---    0.06443   0.07311   0.10832   0.11864   0.13572
     Eigenvalues ---    0.14288   0.15901   0.16633   0.17580   0.19563
     Eigenvalues ---    0.21437   0.23035   0.29006   0.30416   0.33689
     Eigenvalues ---    0.34557   0.35153   0.38989   0.44604   0.46472
     Eigenvalues ---    0.47664   0.52205   1.00951
 Eigenvectors required to have negative eigenvalues:
                          R6        D12       A17       D15       A5
   1                    0.32695   0.29677   0.28712   0.28298  -0.27386
                          A13       A16       D14       D11       R5
   1                   -0.25394  -0.25328  -0.24984  -0.23605  -0.22345
 RFO step:  Lambda0=2.148000103D-03 Lambda=-1.29282223D-01.
 Linear search not attempted -- option 19 set.
 Maximum step size (   0.300) exceeded in Quadratic search.
    -- Step size scaled by   0.475
 Iteration  1 RMS(Cart)=  0.08976906 RMS(Int)=  0.00683981
 Iteration  2 RMS(Cart)=  0.00668059 RMS(Int)=  0.00189240
 Iteration  3 RMS(Cart)=  0.00001435 RMS(Int)=  0.00189235
 Iteration  4 RMS(Cart)=  0.00000008 RMS(Int)=  0.00189235
 Variable       Old X    -DE/DX   Delta X   Delta X   Delta X     New X
                                 (Linear)    (Quad)   (Total)
    R1        1.92268   0.01130   0.00000  -0.00105  -0.00105   1.92163
    R2        2.74441   0.01218   0.00000  -0.03876  -0.03876   2.70566
    R3        1.91563   0.00151   0.00000  -0.00006  -0.00006   1.91557
    R4        2.91108  -0.00461   0.00000  -0.00134  -0.00134   2.90975
    R5        2.77375  -0.02716   0.00000  -0.04895  -0.04895   2.72480
    R6        2.41718   0.01756   0.00000  -0.01463  -0.01463   2.40255
    R7        2.06957   0.00459   0.00000  -0.00008  -0.00008   2.06950
    R8        2.06605   0.00036   0.00000  -0.00021  -0.00021   2.06583
    R9        2.06862   0.00185   0.00000   0.00215   0.00215   2.07077
   R10        2.38354   0.12217   0.00000   0.09514   0.09514   2.47868
   R11        2.57839   0.02335   0.00000   0.01903   0.01903   2.59742
   R12        1.84039   0.00957   0.00000   0.00530   0.00530   1.84569
    A1        1.95442   0.00828   0.00000   0.03543   0.03527   1.98969
    A2        1.90286  -0.00317   0.00000   0.01432   0.01403   1.91689
    A3        1.94051   0.00651   0.00000  -0.00833  -0.00850   1.93201
    A4        1.99464  -0.00353   0.00000  -0.01487  -0.01659   1.97805
    A5        1.92065  -0.00490   0.00000   0.07484   0.07475   1.99540
    A6        1.95157   0.01923   0.00000   0.00640   0.00551   1.95708
    A7        1.91419  -0.00516   0.00000  -0.01798  -0.01796   1.89623
    A8        1.94783   0.00182   0.00000   0.00241   0.00236   1.95019
    A9        1.92999   0.00432   0.00000   0.01624   0.01624   1.94623
   A10        1.90260   0.00045   0.00000   0.00297   0.00295   1.90555
   A11        1.88704   0.00064   0.00000  -0.00062  -0.00055   1.88649
   A12        1.88080  -0.00205   0.00000  -0.00290  -0.00297   1.87784
   A13        1.47448   0.01876   0.00000   0.17966   0.17784   1.65232
   A14        2.16876  -0.00510   0.00000  -0.01415  -0.01352   2.15525
   A15        1.98142   0.00842   0.00000   0.01522   0.01399   1.99541
   A16        1.10222  -0.02431   0.00000  -0.18348  -0.18360   0.91862
   A17        2.24345  -0.00011   0.00000  -0.02315  -0.03193   2.21152
   A18        2.13251  -0.00327   0.00000  -0.00079  -0.00029   2.13222
   A19        1.89098   0.01136   0.00000   0.01441   0.01441   1.90539
    D1       -1.45596  -0.00776   0.00000  -0.12566  -0.12588  -1.58184
    D2        0.75663   0.01137   0.00000  -0.06623  -0.06623   0.69039
    D3        0.67749  -0.00126   0.00000  -0.08791  -0.08791   0.58958
    D4        2.89008   0.01787   0.00000  -0.02848  -0.02827   2.86182
    D5        1.07943   0.00331   0.00000   0.04232   0.04184   1.12128
    D6       -3.09351   0.00158   0.00000   0.03549   0.03504  -3.05847
    D7       -1.00008   0.00310   0.00000   0.04435   0.04397  -0.95611
    D8       -1.11706  -0.00334   0.00000  -0.05340  -0.05300  -1.17006
    D9        0.99318  -0.00507   0.00000  -0.06023  -0.05980   0.93338
   D10        3.08661  -0.00355   0.00000  -0.05136  -0.05087   3.03574
   D11        0.50282   0.00402   0.00000   0.00683   0.00150   0.50432
   D12       -0.40586   0.01650   0.00000   0.08119   0.08181  -0.32404
   D13        2.76897   0.01502   0.00000   0.07199   0.07480   2.84377
   D14        2.73933   0.01039   0.00000   0.05158   0.04752   2.78685
   D15        1.83066   0.02287   0.00000   0.12594   0.12783   1.95849
   D16       -1.27770   0.02139   0.00000   0.11675   0.12082  -1.15689
   D17        3.01368  -0.01268   0.00000  -0.07692  -0.07633   2.93735
   D18       -1.48435   0.02156   0.00000   0.17780   0.17454  -1.30981
   D19       -0.09546  -0.01407   0.00000  -0.08561  -0.08295  -0.17841
         Item               Value     Threshold  Converged?
 Maximum Force            0.122171     0.000450     NO 
 RMS     Force            0.020833     0.000300     NO 
 Maximum Displacement     0.382310     0.001800     NO 
 RMS     Displacement     0.089367     0.001200     NO 
 Predicted change in Energy=-4.187759D-02
 GradGradGradGradGradGradGradGradGradGradGradGradGradGradGradGradGradGrad

                          Input orientation:                          
 ---------------------------------------------------------------------
 Center     Atomic      Atomic             Coordinates (Angstroms)
 Number     Number       Type             X           Y           Z
 ---------------------------------------------------------------------
      1          7           0       -1.565823   -1.164158   -0.358630
      2          1           0       -1.349700   -1.847237    0.362992
      3          6           0       -0.717200   -0.011105   -0.341971
      4          1           0        0.634087   -1.467140   -0.561153
      5          6           0       -1.259984    1.133032    0.533949
      6          6           0        0.668466   -0.297348   -0.064361
      7          1           0       -1.285543    0.794915    1.575263
      8          1           0       -0.636878    2.028391    0.462257
      9          1           0       -2.278243    1.413946    0.242362
     10          8           0        1.079800   -1.411267    0.492816
     11          1           0       -2.540357   -0.892690   -0.294358
     12          8           0        1.534714    0.714374   -0.403874
     13          1           0        2.413150    0.526676   -0.020391
 ---------------------------------------------------------------------
                    Distance matrix (angstroms):
                    1          2          3          4          5
     1  N    0.000000
     2  H    1.016880   0.000000
     3  C    1.431771   2.066013   0.000000
     4  H    2.229892   2.221244   1.998513   0.000000
     5  C    2.483408   2.986517   1.539773   3.398182   0.000000
     6  C    2.414540   2.580268   1.441900   1.271376   2.474446
     7  H    2.767032   2.907695   2.156031   3.655974   1.095131
     8  H    3.424786   3.941886   2.193805   3.857649   1.093191
     9  H    2.741415   3.392943   2.192960   4.174681   1.095805
    10  O    2.790223   2.471719   2.426217   1.145702   3.456839
    11  H    1.013677   1.661606   2.025675   3.237015   2.535547
    12  O    3.625501   3.933163   2.366700   2.365347   2.977435
    13  H    4.336537   4.465589   3.192446   2.726315   3.763890
                    6          7          8          9         10
     6  C    0.000000
     7  H    2.774807   0.000000
     8  H    2.718513   1.783538   0.000000
     9  H    3.421360   1.773494   1.766345   0.000000
    10  O    1.311661   3.410832   3.844367   4.395567   0.000000
    11  H    3.271678   2.813903   3.567690   2.382718   3.740869
    12  O    1.374494   3.446348   2.681909   3.930097   2.351456
    13  H    1.929992   4.037126   3.433768   4.781784   2.407660
                   11         12         13
    11  H    0.000000
    12  O    4.381877   0.000000
    13  H    5.160125   0.976698   0.000000
 Stoichiometry    C3H7NO2
 Framework group  C1[X(C3H7NO2)]
 Deg. of freedom    33
 Full point group                 C1      NOp   1
 Largest Abelian subgroup         C1      NOp   1
 Largest concise Abelian subgroup C1      NOp   1
                         Standard orientation:                         
 ---------------------------------------------------------------------
 Center     Atomic      Atomic             Coordinates (Angstroms)
 Number     Number       Type             X           Y           Z
 ---------------------------------------------------------------------
      1          7           0       -1.446781   -1.073303   -0.379791
      2          1           0       -1.228539   -1.713674    0.379381
      3          6           0       -0.648640    0.115348   -0.386652
      4          1           0        0.769857   -1.288500   -0.492150
      5          6           0       -1.270700    1.272312    0.416701
      6          6           0        0.736807   -0.097483   -0.048548
      7          1           0       -1.319950    0.979822    1.470900
      8          1           0       -0.683653    2.190001    0.325648
      9          1           0       -2.288577    1.495267    0.077573
     10          8           0        1.174095   -1.166604    0.572916
     11          1           0       -2.433577   -0.842115   -0.361703
     12          8           0        1.571484    0.935117   -0.403914
     13          1           0        2.442477    0.803155    0.017862
 ---------------------------------------------------------------------
 Rotational constants (GHZ):      4.9487835      3.1653332      2.2077981
 Standard basis: 6-31G (6D, 7F)
 There are    68 symmetry adapted cartesian basis functions of A   symmetry.
 There are    68 symmetry adapted basis functions of A   symmetry.
    68 basis functions,   160 primitive gaussians,    68 cartesian basis functions
    24 alpha electrons       24 beta electrons
       nuclear repulsion energy       248.6195058604 Hartrees.
 NAtoms=   13 NActive=   13 NUniq=   13 SFac= 1.00D+00 NAtFMM=   60 NAOKFM=F Big=F
 Integral buffers will be    131072 words long.
 Raffenetti 2 integral format.
 Two-electron integral symmetry is turned on.
 One-electron integrals computed using PRISM.
 NBasis=    68 RedAO= T EigKep=  4.13D-03  NBF=    68
 NBsUse=    68 1.00D-06 EigRej= -1.00D+00 NBFU=    68
 Initial guess from the checkpoint file:  "Ala-S-opt-freq-tsb1-6-31g.chk"
 B after Tr=     0.000000    0.000000    0.000000
         Rot=    0.999934   -0.009571   -0.004340   -0.004748 Ang=  -1.32 deg.
 ExpMin= 1.61D-01 ExpMax= 5.48D+03 ExpMxC= 8.25D+02 IAcc=1 IRadAn=         1 AccDes= 0.00D+00
 Harris functional with IExCor=  402 and IRadAn=       1 diagonalized for initial guess.
 HarFok:  IExCor=  402 AccDes= 0.00D+00 IRadAn=         1 IDoV= 1 UseB2=F ITyADJ=14
 ICtDFT=  3500011 ScaDFX=  1.000000  1.000000  1.000000  1.000000
 FoFCou: FMM=F IPFlag=           0 FMFlag=      100000 FMFlg1=           0
         NFxFlg=           0 DoJE=T BraDBF=F KetDBF=T FulRan=T
         wScrn=  0.000000 ICntrl=     500 IOpCl=  0 I1Cent=   200000004 NGrid=           0
         NMat0=    1 NMatS0=      1 NMatT0=    0 NMatD0=    1 NMtDS0=    0 NMtDT0=    0
 Petite list used in FoFCou.
 Keep R1 ints in memory in canonical form, NReq=3676491.
 Requested convergence on RMS density matrix=1.00D-08 within 128 cycles.
 Requested convergence on MAX density matrix=1.00D-06.
 Requested convergence on             energy=1.00D-06.
 No special actions if energy rises.
 Integral accuracy reduced to 1.0D-05 until final iterations.
 Initial convergence to 1.0D-05 achieved.  Increase integral accuracy.
 SCF Done:  E(RB3LYP) =  -323.440879899     A.U. after   15 cycles
            NFock= 15  Conv=0.69D-08     -V/T= 2.0044
 Calling FoFJK, ICntrl=      2127 FMM=F ISym2X=0 I1Cent= 0 IOpClX= 0 NMat=1 NMatS=1 NMatT=0.
 ***** Axes restored to original set *****
 -------------------------------------------------------------------
 Center     Atomic                   Forces (Hartrees/Bohr)
 Number     Number              X              Y              Z
 -------------------------------------------------------------------
      1        7          -0.004211451    0.003554993    0.009497053
      2        1          -0.000538609   -0.008459025    0.003001145
      3        6           0.038303099   -0.010656181    0.047210994
      4        1           0.019107960   -0.057890503    0.005209716
      5        6          -0.001447910    0.014925628   -0.029323837
      6        6          -0.095056410    0.138409945   -0.039978262
      7        1          -0.000147893   -0.001928326    0.002763875
      8        1           0.000003051    0.000111039    0.001526817
      9        1          -0.001012452    0.002072226   -0.000239614
     10        8           0.024788591   -0.083723713   -0.008901527
     11        1          -0.002124274   -0.004149985   -0.005921762
     12        8           0.016240628    0.003235040    0.011817779
     13        1           0.006095669    0.004498862    0.003337623
 -------------------------------------------------------------------
 Cartesian Forces:  Max     0.138409945 RMS     0.034675156

 GradGradGradGradGradGradGradGradGradGradGradGradGradGradGradGradGradGrad
 Berny optimization.
 FormGI is forming the generalized inverse of G from B-inverse, IUseBI=4.
 Internal  Forces:  Max     0.075094394 RMS     0.017811873
 Search for a saddle point.
 Step number   3 out of a maximum of   60
 All quantities printed in internal units (Hartrees-Bohrs-Radians)
 Swapping is turned off.
 Update second derivatives using D2CorX and points    2    3
 ITU=  0  0  0
     Eigenvalues ---   -0.30615  -0.04130  -0.02963   0.00380   0.00651
     Eigenvalues ---    0.01421   0.03362   0.04374   0.05585   0.06146
     Eigenvalues ---    0.06444   0.07727   0.11670   0.12692   0.14079
     Eigenvalues ---    0.14586   0.16192   0.16976   0.17697   0.19241
     Eigenvalues ---    0.21357   0.22996   0.28985   0.30240   0.33688
     Eigenvalues ---    0.34555   0.35152   0.38966   0.44598   0.46472
     Eigenvalues ---    0.47617   0.52179   1.00726
 Eigenvectors required to have negative eigenvalues:
                          A16       D15       D12       R6        A17
   1                   -0.38446   0.33422   0.32425   0.29365   0.26841
                          D11       D14       D19       R5        A5
   1                   -0.25670  -0.24673  -0.24239  -0.23281  -0.21999
 RFO step:  Lambda0=1.550681809D-02 Lambda=-8.26618980D-02.
 Linear search not attempted -- option 19 set.
 Maximum step size (   0.300) exceeded in Quadratic search.
    -- Step size scaled by   0.385
 Iteration  1 RMS(Cart)=  0.08964413 RMS(Int)=  0.00996107
 Iteration  2 RMS(Cart)=  0.01238486 RMS(Int)=  0.00242793
 Iteration  3 RMS(Cart)=  0.00024243 RMS(Int)=  0.00242032
 Iteration  4 RMS(Cart)=  0.00000223 RMS(Int)=  0.00242032
 Iteration  5 RMS(Cart)=  0.00000002 RMS(Int)=  0.00242032
 Variable       Old X    -DE/DX   Delta X   Delta X   Delta X     New X
                                 (Linear)    (Quad)   (Total)
    R1        1.92163   0.00770   0.00000   0.00139   0.00139   1.92302
    R2        2.70566   0.01129   0.00000  -0.05184  -0.05184   2.65382
    R3        1.91557   0.00055   0.00000   0.00117   0.00117   1.91675
    R4        2.90975  -0.00218   0.00000  -0.00171  -0.00171   2.90803
    R5        2.72480  -0.03408   0.00000  -0.02758  -0.02758   2.69721
    R6        2.40255   0.05071   0.00000   0.08867   0.08867   2.49123
    R7        2.06950   0.00323   0.00000   0.00158   0.00158   2.07108
    R8        2.06583  -0.00001   0.00000  -0.00083  -0.00083   2.06500
    R9        2.07077   0.00154   0.00000   0.00104   0.00104   2.07181
   R10        2.47868   0.07509   0.00000   0.06290   0.06290   2.54158
   R11        2.59742   0.01603   0.00000   0.01926   0.01926   2.61667
   R12        1.84569   0.00593   0.00000   0.00266   0.00266   1.84835
    A1        1.98969   0.00701   0.00000   0.01243   0.01228   2.00196
    A2        1.91689  -0.00234   0.00000   0.01399   0.01373   1.93062
    A3        1.93201   0.00776   0.00000   0.00710   0.00694   1.93895
    A4        1.97805   0.00189   0.00000   0.00660   0.00608   1.98413
    A5        1.99540  -0.01174   0.00000   0.06796   0.06801   2.06341
    A6        1.95708   0.01998   0.00000  -0.02477  -0.02587   1.93121
    A7        1.89623  -0.00197   0.00000  -0.02741  -0.02739   1.86884
    A8        1.95019   0.00132   0.00000   0.00336   0.00326   1.95344
    A9        1.94623   0.00204   0.00000   0.02020   0.02019   1.96642
   A10        1.90555  -0.00031   0.00000   0.00241   0.00233   1.90788
   A11        1.88649   0.00007   0.00000   0.00314   0.00327   1.88976
   A12        1.87784  -0.00119   0.00000  -0.00150  -0.00162   1.87622
   A13        1.65232   0.01679   0.00000   0.22335   0.22595   1.87827
   A14        2.15525  -0.00390   0.00000   0.01529   0.01400   2.16925
   A15        1.99541   0.01194   0.00000   0.00106  -0.00181   1.99360
   A16        0.91862  -0.03309   0.00000  -0.07736  -0.07314   0.84547
   A17        2.21152   0.00065   0.00000  -0.10119  -0.10848   2.10305
   A18        2.13222  -0.00785   0.00000  -0.01895  -0.02018   2.11204
   A19        1.90539   0.00856   0.00000   0.00812   0.00812   1.91351
    D1       -1.58184  -0.01216   0.00000  -0.08135  -0.08213  -1.66397
    D2        0.69039   0.00748   0.00000  -0.04661  -0.04602   0.64438
    D3        0.58958  -0.00374   0.00000  -0.04754  -0.04813   0.54145
    D4        2.86182   0.01590   0.00000  -0.01280  -0.01202   2.84980
    D5        1.12128   0.00122   0.00000   0.04725   0.04682   1.16810
    D6       -3.05847   0.00037   0.00000   0.03422   0.03386  -3.02461
    D7       -0.95611   0.00117   0.00000   0.04865   0.04841  -0.90771
    D8       -1.17006  -0.00237   0.00000  -0.03264  -0.03238  -1.20244
    D9        0.93338  -0.00323   0.00000  -0.04567  -0.04534   0.88803
   D10        3.03574  -0.00243   0.00000  -0.03124  -0.03079   3.00494
   D11        0.50432  -0.00833   0.00000  -0.02312  -0.02983   0.47449
   D12       -0.32404   0.01885   0.00000  -0.09893  -0.09597  -0.42002
   D13        2.84377   0.01093   0.00000   0.01133   0.01508   2.85884
   D14        2.78685   0.00243   0.00000   0.02588   0.01917   2.80603
   D15        1.95849   0.02961   0.00000  -0.04993  -0.04697   1.91152
   D16       -1.15689   0.02169   0.00000   0.06033   0.06408  -1.09280
   D17        2.93735  -0.01235   0.00000  -0.12768  -0.12364   2.81371
   D18       -1.30981   0.02653   0.00000   0.12537   0.11891  -1.19090
   D19       -0.17841  -0.02021   0.00000  -0.01961  -0.01718  -0.19559
         Item               Value     Threshold  Converged?
 Maximum Force            0.075094     0.000450     NO 
 RMS     Force            0.017812     0.000300     NO 
 Maximum Displacement     0.468808     0.001800     NO 
 RMS     Displacement     0.097231     0.001200     NO 
 Predicted change in Energy=-2.247510D-02
 GradGradGradGradGradGradGradGradGradGradGradGradGradGradGradGradGradGrad

                          Input orientation:                          
 ---------------------------------------------------------------------
 Center     Atomic      Atomic             Coordinates (Angstroms)
 Number     Number       Type             X           Y           Z
 ---------------------------------------------------------------------
      1          7           0       -1.639760   -1.138941   -0.366445
      2          1           0       -1.430907   -1.875763    0.303644
      3          6           0       -0.750724   -0.052166   -0.339840
      4          1           0        0.882169   -1.539846   -0.525651
      5          6           0       -1.235468    1.121841    0.528974
      6          6           0        0.631693   -0.316592   -0.102773
      7          1           0       -1.232767    0.775354    1.568724
      8          1           0       -0.583495    1.993949    0.436953
      9          1           0       -2.252880    1.442692    0.276147
     10          8           0        1.096131   -1.404362    0.537490
     11          1           0       -2.599969   -0.827582   -0.267175
     12          8           0        1.475638    0.729056   -0.437026
     13          1           0        2.336829    0.612748    0.011877
 ---------------------------------------------------------------------
                    Distance matrix (angstroms):
                    1          2          3          4          5
     1  N    0.000000
     2  H    1.017617   0.000000
     3  C    1.404341   2.049933   0.000000
     4  H    2.558554   2.480099   2.216768   0.000000
     5  C    2.465028   3.012408   1.538865   3.561067   0.000000
     6  C    2.430078   2.617347   1.427305   1.318300   2.440181
     7  H    2.752280   2.944165   2.135362   3.770877   1.095966
     8  H    3.402373   3.963653   2.194985   3.944932   1.092753
     9  H    2.730140   3.418850   2.206923   4.400789   1.096354
    10  O    2.893553   2.581245   2.451330   1.092888   3.437751
    11  H    1.014298   1.670696   2.006554   3.563625   2.509176
    12  O    3.633194   3.972616   2.361449   2.346908   2.904743
    13  H    4.361743   4.524782   3.177861   2.653042   3.645253
                    6          7          8          9         10
     6  C    0.000000
     7  H    2.731750   0.000000
     8  H    2.665817   1.785339   0.000000
     9  H    3.399914   1.776718   1.765387   0.000000
    10  O    1.344948   3.352368   3.792066   4.403395   0.000000
    11  H    3.275939   2.794489   3.538785   2.360045   3.826398
    12  O    1.384684   3.370554   2.569790   3.862607   2.375959
    13  H    1.945330   3.897721   3.258327   4.671624   2.425764
                   11         12         13
    11  H    0.000000
    12  O    4.366068   0.000000
    13  H    5.150184   0.978107   0.000000
 Stoichiometry    C3H7NO2
 Framework group  C1[X(C3H7NO2)]
 Deg. of freedom    33
 Full point group                 C1      NOp   1
 Largest Abelian subgroup         C1      NOp   1
 Largest concise Abelian subgroup C1      NOp   1
                         Standard orientation:                         
 ---------------------------------------------------------------------
 Center     Atomic      Atomic             Coordinates (Angstroms)
 Number     Number       Type             X           Y           Z
 ---------------------------------------------------------------------
      1          7           0       -1.514653   -1.029359   -0.389366
      2          1           0       -1.300405   -1.738181    0.308641
      3          6           0       -0.662804    0.086997   -0.372840
      4          1           0        1.022507   -1.349877   -0.468657
      5          6           0       -1.209666    1.269734    0.445807
      6          6           0        0.720439   -0.123527   -0.090850
      7          1           0       -1.224421    0.955076    1.495528
      8          1           0       -0.584336    2.160092    0.344154
      9          1           0       -2.229653    1.548421    0.156059
     10          8           0        1.202369   -1.175247    0.595090
     11          1           0       -2.486936   -0.747603   -0.325490
     12          8           0        1.538587    0.939335   -0.434803
     13          1           0        2.390358    0.865648    0.040327
 ---------------------------------------------------------------------
 Rotational constants (GHZ):      4.9274925      3.1343660      2.2106826
 Standard basis: 6-31G (6D, 7F)
 There are    68 symmetry adapted cartesian basis functions of A   symmetry.
 There are    68 symmetry adapted basis functions of A   symmetry.
    68 basis functions,   160 primitive gaussians,    68 cartesian basis functions
    24 alpha electrons       24 beta electrons
       nuclear repulsion energy       247.9628208742 Hartrees.
 NAtoms=   13 NActive=   13 NUniq=   13 SFac= 1.00D+00 NAtFMM=   60 NAOKFM=F Big=F
 Integral buffers will be    131072 words long.
 Raffenetti 2 integral format.
 Two-electron integral symmetry is turned on.
 One-electron integrals computed using PRISM.
 NBasis=    68 RedAO= T EigKep=  4.52D-03  NBF=    68
 NBsUse=    68 1.00D-06 EigRej= -1.00D+00 NBFU=    68
 Initial guess from the checkpoint file:  "Ala-S-opt-freq-tsb1-6-31g.chk"
 B after Tr=     0.000000    0.000000    0.000000
         Rot=    0.999958   -0.002593   -0.007309    0.004877 Ang=  -1.05 deg.
 ExpMin= 1.61D-01 ExpMax= 5.48D+03 ExpMxC= 8.25D+02 IAcc=1 IRadAn=         1 AccDes= 0.00D+00
 Harris functional with IExCor=  402 and IRadAn=       1 diagonalized for initial guess.
 HarFok:  IExCor=  402 AccDes= 0.00D+00 IRadAn=         1 IDoV= 1 UseB2=F ITyADJ=14
 ICtDFT=  3500011 ScaDFX=  1.000000  1.000000  1.000000  1.000000
 FoFCou: FMM=F IPFlag=           0 FMFlag=      100000 FMFlg1=           0
         NFxFlg=           0 DoJE=T BraDBF=F KetDBF=T FulRan=T
         wScrn=  0.000000 ICntrl=     500 IOpCl=  0 I1Cent=   200000004 NGrid=           0
         NMat0=    1 NMatS0=      1 NMatT0=    0 NMatD0=    1 NMtDS0=    0 NMtDT0=    0
 Petite list used in FoFCou.
 Keep R1 ints in memory in canonical form, NReq=3676491.
 Requested convergence on RMS density matrix=1.00D-08 within 128 cycles.
 Requested convergence on MAX density matrix=1.00D-06.
 Requested convergence on             energy=1.00D-06.
 No special actions if energy rises.
 Integral accuracy reduced to 1.0D-05 until final iterations.
 Initial convergence to 1.0D-05 achieved.  Increase integral accuracy.
 SCF Done:  E(RB3LYP) =  -323.457798741     A.U. after   14 cycles
            NFock= 14  Conv=0.84D-08     -V/T= 2.0045
 Calling FoFJK, ICntrl=      2127 FMM=F ISym2X=0 I1Cent= 0 IOpClX= 0 NMat=1 NMatS=1 NMatT=0.
 ***** Axes restored to original set *****
 -------------------------------------------------------------------
 Center     Atomic                   Forces (Hartrees/Bohr)
 Number     Number              X              Y              Z
 -------------------------------------------------------------------
      1        7          -0.008005437   -0.003449095    0.012258057
      2        1          -0.000103497   -0.009053117   -0.001049963
      3        6           0.046075926   -0.002263879    0.041312877
      4        1           0.019967276   -0.054221187    0.009410236
      5        6          -0.003405552    0.015772798   -0.027627384
      6        6          -0.094698294    0.114248972   -0.032459608
      7        1          -0.001147113   -0.000358896    0.002685427
      8        1           0.000051624   -0.000440580    0.001480029
      9        1          -0.001056744    0.001256175   -0.000619520
     10        8           0.025139654   -0.062209234   -0.015765524
     11        1          -0.001582304   -0.004818953   -0.004721206
     12        8           0.014902587    0.001183202    0.011280789
     13        1           0.003861874    0.004353794    0.003815790
 -------------------------------------------------------------------
 Cartesian Forces:  Max     0.114248972 RMS     0.030751732

 GradGradGradGradGradGradGradGradGradGradGradGradGradGradGradGradGradGrad
 Berny optimization.
 FormGI is forming the generalized inverse of G from B-inverse, IUseBI=4.
 Internal  Forces:  Max     0.051490549 RMS     0.016272083
 Search for a saddle point.
 Step number   4 out of a maximum of   60
 All quantities printed in internal units (Hartrees-Bohrs-Radians)
 Swapping is turned off.
 Update second derivatives using D2CorX and points    3    4
 ITU=  0  0  0  0
     Eigenvalues ---   -0.26750  -0.03310   0.00164   0.00384   0.00630
     Eigenvalues ---    0.01973   0.03760   0.04341   0.05910   0.06355
     Eigenvalues ---    0.06442   0.08000   0.11678   0.12907   0.14096
     Eigenvalues ---    0.14613   0.16118   0.16968   0.17722   0.18413
     Eigenvalues ---    0.21297   0.23111   0.28823   0.29896   0.33688
     Eigenvalues ---    0.34556   0.35152   0.39088   0.44614   0.46476
     Eigenvalues ---    0.47527   0.52149   1.00597
 Eigenvectors required to have negative eigenvalues:
                          A16       R6        D15       D11       D12
   1                   -0.46806   0.33996   0.31156  -0.30122   0.27485
                          D14       D18       D19       R5        A17
   1                   -0.26451   0.25125  -0.25067  -0.23736   0.18490
 RFO step:  Lambda0=2.492324798D-02 Lambda=-6.55368493D-02.
 Linear search not attempted -- option 19 set.
 Maximum step size (   0.300) exceeded in Quadratic search.
    -- Step size scaled by   0.635
 Iteration  1 RMS(Cart)=  0.08764915 RMS(Int)=  0.01231877
 Iteration  2 RMS(Cart)=  0.01513416 RMS(Int)=  0.00123101
 Iteration  3 RMS(Cart)=  0.00029560 RMS(Int)=  0.00119686
 Iteration  4 RMS(Cart)=  0.00000022 RMS(Int)=  0.00119686
 Variable       Old X    -DE/DX   Delta X   Delta X   Delta X     New X
                                 (Linear)    (Quad)   (Total)
    R1        1.92302   0.00584   0.00000  -0.00569  -0.00569   1.91733
    R2        2.65382   0.01942   0.00000   0.00350   0.00350   2.65732
    R3        1.91675  -0.00044   0.00000  -0.00203  -0.00203   1.91472
    R4        2.90803   0.00054   0.00000  -0.01553  -0.01553   2.89250
    R5        2.69721  -0.03442   0.00000  -0.06860  -0.06860   2.62862
    R6        2.49123   0.05109   0.00000   0.10621   0.10621   2.59744
    R7        2.07108   0.00266   0.00000  -0.00136  -0.00136   2.06972
    R8        2.06500  -0.00044   0.00000  -0.00255  -0.00255   2.06246
    R9        2.07181   0.00149   0.00000   0.00098   0.00098   2.07279
   R10        2.54158   0.05149   0.00000   0.04189   0.04189   2.58347
   R11        2.61667   0.01197   0.00000   0.03746   0.03746   2.65413
   R12        1.84835   0.00463   0.00000  -0.00018  -0.00018   1.84818
    A1        2.00196   0.00818   0.00000   0.01620   0.01539   2.01735
    A2        1.93062  -0.00279   0.00000   0.03517   0.03394   1.96456
    A3        1.93895   0.00849   0.00000   0.02147   0.02064   1.95959
    A4        1.98413   0.00295   0.00000  -0.00481  -0.00898   1.97515
    A5        2.06341  -0.01872   0.00000   0.03333   0.03065   2.09406
    A6        1.93121   0.02457   0.00000   0.06937   0.06721   1.99841
    A7        1.86884   0.00095   0.00000  -0.04403  -0.04400   1.82484
    A8        1.95344   0.00076   0.00000   0.00615   0.00593   1.95937
    A9        1.96642   0.00025   0.00000   0.02318   0.02313   1.98955
   A10        1.90788  -0.00090   0.00000   0.00495   0.00479   1.91267
   A11        1.88976  -0.00069   0.00000   0.00793   0.00814   1.89790
   A12        1.87622  -0.00045   0.00000   0.00187   0.00162   1.87784
   A13        1.87827   0.00790   0.00000   0.08419   0.08303   1.96130
   A14        2.16925   0.00083   0.00000   0.03167   0.03028   2.19953
   A15        1.99360   0.01315   0.00000   0.01941   0.01862   2.01222
   A16        0.84547  -0.03103   0.00000   0.14015   0.13980   0.98528
   A17        2.10305   0.00159   0.00000  -0.16032  -0.15898   1.94407
   A18        2.11204  -0.01259   0.00000  -0.06126  -0.06192   2.05012
   A19        1.91351   0.00621   0.00000  -0.00989  -0.00989   1.90363
    D1       -1.66397  -0.01597   0.00000  -0.19591  -0.19548  -1.85944
    D2        0.64438   0.00562   0.00000  -0.05661  -0.05787   0.58650
    D3        0.54145  -0.00585   0.00000  -0.11608  -0.11481   0.42664
    D4        2.84980   0.01574   0.00000   0.02322   0.02279   2.87259
    D5        1.16810  -0.00085   0.00000   0.05809   0.05792   1.22601
    D6       -3.02461  -0.00090   0.00000   0.03959   0.03954  -2.98507
    D7       -0.90771  -0.00076   0.00000   0.06335   0.06350  -0.84421
    D8       -1.20244  -0.00115   0.00000  -0.05688  -0.05701  -1.25945
    D9        0.88803  -0.00120   0.00000  -0.07538  -0.07538   0.81266
   D10        3.00494  -0.00106   0.00000  -0.05163  -0.05142   2.95352
   D11        0.47449  -0.01271   0.00000   0.18848   0.18861   0.66310
   D12       -0.42002   0.02032   0.00000  -0.03000  -0.03253  -0.45255
   D13        2.85884   0.00975   0.00000   0.05876   0.05747   2.91631
   D14        2.80603  -0.00047   0.00000   0.29177   0.29437   3.10040
   D15        1.91152   0.03256   0.00000   0.07329   0.07322   1.98474
   D16       -1.09280   0.02200   0.00000   0.16205   0.16323  -0.92958
   D17        2.81371  -0.00841   0.00000  -0.02996  -0.02953   2.78418
   D18       -1.19090   0.02120   0.00000  -0.04876  -0.04645  -1.23735
   D19       -0.19559  -0.01968   0.00000   0.04778   0.04503  -0.15056
         Item               Value     Threshold  Converged?
 Maximum Force            0.051491     0.000450     NO 
 RMS     Force            0.016272     0.000300     NO 
 Maximum Displacement     0.432266     0.001800     NO 
 RMS     Displacement     0.095855     0.001200     NO 
 Predicted change in Energy=-2.113074D-02
 GradGradGradGradGradGradGradGradGradGradGradGradGradGradGradGradGradGrad

                          Input orientation:                          
 ---------------------------------------------------------------------
 Center     Atomic      Atomic             Coordinates (Angstroms)
 Number     Number       Type             X           Y           Z
 ---------------------------------------------------------------------
      1          7           0       -1.672230   -1.135005   -0.293791
      2          1           0       -1.451942   -1.927901    0.299689
      3          6           0       -0.744387   -0.078751   -0.265222
      4          1           0        1.005950   -1.484718   -0.754396
      5          6           0       -1.250914    1.147250    0.498473
      6          6           0        0.609454   -0.347295   -0.092337
      7          1           0       -1.260848    0.833227    1.547690
      8          1           0       -0.591812    2.009158    0.380730
      9          1           0       -2.262650    1.462457    0.215344
     10          8           0        1.138567   -1.440836    0.534727
     11          1           0       -2.625211   -0.812459   -0.173730
     12          8           0        1.473213    0.727718   -0.358608
     13          1           0        2.329299    0.567545    0.086332
 ---------------------------------------------------------------------
                    Distance matrix (angstroms):
                    1          2          3          4          5
     1  N    0.000000
     2  H    1.014608   0.000000
     3  C    1.406194   2.058912   0.000000
     4  H    2.739910   2.710857   2.297764   0.000000
     5  C    2.452321   3.088120   1.530646   3.686512   0.000000
     6  C    2.422221   2.627043   1.391004   1.374505   2.458391
     7  H    2.726577   3.036092   2.094059   3.976285   1.095247
     8  H    3.392351   4.030736   2.190867   4.006061   1.091405
     9  H    2.711941   3.486960   2.216165   4.506660   1.096872
    10  O    2.946278   2.646359   2.457786   1.296669   3.522658
    11  H    1.013224   1.686683   2.020940   3.738240   2.486164
    12  O    3.656194   4.005272   2.361539   2.295617   2.886427
    13  H    4.365249   4.535478   3.160512   2.582607   3.650183
                    6          7          8          9         10
     6  C    0.000000
     7  H    2.753425   0.000000
     8  H    2.686951   1.786679   0.000000
     9  H    3.408644   1.781764   1.765767   0.000000
    10  O    1.367114   3.457549   3.862692   4.483235   0.000000
    11  H    3.268954   2.744641   3.521884   2.336252   3.881082
    12  O    1.404505   3.334695   2.540283   3.850446   2.369106
    13  H    1.956201   3.885268   3.270750   4.680118   2.377497
                   11         12         13
    11  H    0.000000
    12  O    4.382170   0.000000
    13  H    5.149681   0.978013   0.000000
 Stoichiometry    C3H7NO2
 Framework group  C1[X(C3H7NO2)]
 Deg. of freedom    33
 Full point group                 C1      NOp   1
 Largest Abelian subgroup         C1      NOp   1
 Largest concise Abelian subgroup C1      NOp   1
                         Standard orientation:                         
 ---------------------------------------------------------------------
 Center     Atomic      Atomic             Coordinates (Angstroms)
 Number     Number       Type             X           Y           Z
 ---------------------------------------------------------------------
      1          7           0       -1.510999   -1.070704   -0.341354
      2          1           0       -1.252205   -1.830034    0.279833
      3          6           0       -0.658820    0.047672   -0.321191
      4          1           0        1.195826   -1.246426   -0.727783
      5          6           0       -1.267719    1.255916    0.394537
      6          6           0        0.705351   -0.121652   -0.108445
      7          1           0       -1.283100    0.970553    1.451843
      8          1           0       -0.666465    2.157897    0.267700
      9          1           0       -2.291066    1.492479    0.078424
     10          8           0        1.291893   -1.158489    0.562329
     11          1           0       -2.486630   -0.811808   -0.253372
     12          8           0        1.499922    1.002990   -0.384982
     13          1           0        2.353239    0.914640    0.084650
 ---------------------------------------------------------------------
 Rotational constants (GHZ):      4.9472976      3.1153292      2.1565896
 Standard basis: 6-31G (6D, 7F)
 There are    68 symmetry adapted cartesian basis functions of A   symmetry.
 There are    68 symmetry adapted basis functions of A   symmetry.
    68 basis functions,   160 primitive gaussians,    68 cartesian basis functions
    24 alpha electrons       24 beta electrons
       nuclear repulsion energy       246.5189641831 Hartrees.
 NAtoms=   13 NActive=   13 NUniq=   13 SFac= 1.00D+00 NAtFMM=   60 NAOKFM=F Big=F
 Integral buffers will be    131072 words long.
 Raffenetti 2 integral format.
 Two-electron integral symmetry is turned on.
 One-electron integrals computed using PRISM.
 NBasis=    68 RedAO= T EigKep=  4.69D-03  NBF=    68
[...]
 Vib (V=0)    2  0.186456D+01          0.270576          0.623025
 Vib (V=0)    3  0.151145D+01          0.179395          0.413073
 Vib (V=0)    4  0.144085D+01          0.158619          0.365234
 Vib (V=0)    5  0.127485D+01          0.105460          0.242830
 Vib (V=0)    6  0.118604D+01          0.074099          0.170619
 Vib (V=0)    7  0.113104D+01          0.053477          0.123135
 Vib (V=0)    8  0.111153D+01          0.045921          0.105736
 Vib (V=0)    9  0.107656D+01          0.032037          0.073768
 Vib (V=0)   10  0.105419D+01          0.022918          0.052772
 Electronic      0.100000D+01          0.000000          0.000000
 Translational   0.330285D+08          7.518889         17.312882
 Rotational      0.154698D+06          5.189486         11.949233
 ***** Axes restored to original set *****
 -------------------------------------------------------------------
 Center     Atomic                   Forces (Hartrees/Bohr)
 Number     Number              X              Y              Z
 -------------------------------------------------------------------
      1        7           0.000007222   -0.000007034    0.000023265
      2        1          -0.000008599   -0.000001744   -0.000007273
      3        6           0.000021055   -0.000003932   -0.000044314
      4        1           0.000009170   -0.000012659   -0.000003085
      5        6          -0.000003165    0.000024143    0.000011701
      6        6           0.000003281   -0.000075328    0.000034192
      7        1           0.000002369    0.000002315    0.000003992
      8        1           0.000003488   -0.000002619    0.000003260
      9        1           0.000001191   -0.000002587    0.000003207
     10        8          -0.000036692    0.000088399   -0.000012505
     11        1          -0.000002604   -0.000001193   -0.000007235
     12        8           0.000002483   -0.000002968   -0.000013783
     13        1           0.000000801   -0.000004793    0.000008577
 -------------------------------------------------------------------
 Cartesian Forces:  Max     0.000088399 RMS     0.000023087
 FormGI is forming the generalized inverse of G from B-inverse, IUseBI=4.

 GradGradGradGradGradGradGradGradGradGradGradGradGradGradGradGradGradGrad
 Berny optimization.
 Internal  Forces:  Max     0.000096175 RMS     0.000015179
 Search for a saddle point.
 Step number   1 out of a maximum of    2
 All quantities printed in internal units (Hartrees-Bohrs-Radians)
 Swapping is turned off.
 Second derivative matrix not updated -- analytic derivatives used.
 ITU=  0
     Eigenvalues ---   -0.13486   0.00049   0.00210   0.00856   0.01269
     Eigenvalues ---    0.02019   0.02612   0.03420   0.06153   0.06203
     Eigenvalues ---    0.07214   0.10733   0.12743   0.13045   0.14206
     Eigenvalues ---    0.14651   0.15277   0.15540   0.20412   0.20925
     Eigenvalues ---    0.22494   0.23999   0.30004   0.33104   0.33421
     Eigenvalues ---    0.35241   0.35840   0.38159   0.45785   0.48625
     Eigenvalues ---    0.48980   0.49174   0.54821
 Eigenvectors required to have negative eigenvalues:
                          A16       R6        D18       D19       D11
   1                    0.52982  -0.38443  -0.33114   0.30007   0.29068
                          D14       D15       D12       A13       R5
   1                    0.28400  -0.26285  -0.25616  -0.11988   0.11876
 Angle between quadratic step and forces=  79.21 degrees.
 Linear search not attempted -- option 19 set.
 Iteration  1 RMS(Cart)=  0.00086457 RMS(Int)=  0.00000091
 Iteration  2 RMS(Cart)=  0.00000091 RMS(Int)=  0.00000005
 Variable       Old X    -DE/DX   Delta X   Delta X   Delta X     New X
                                 (Linear)    (Quad)   (Total)
    R1        1.91355   0.00000   0.00000  -0.00002  -0.00002   1.91353
    R2        2.56972   0.00001   0.00000   0.00005   0.00005   2.56977
    R3        1.90053   0.00000   0.00000   0.00001   0.00001   1.90054
    R4        2.82741   0.00002   0.00000   0.00005   0.00005   2.82746
    R5        2.64001  -0.00002   0.00000  -0.00006  -0.00006   2.63995
    R6        2.30323   0.00001   0.00000   0.00001   0.00001   2.30324
    R7        2.07691   0.00000   0.00000  -0.00002  -0.00002   2.07689
    R8        2.07579   0.00000   0.00000   0.00001   0.00001   2.07580
    R9        2.06008   0.00000   0.00000  -0.00001  -0.00001   2.06007
   R10        2.78080  -0.00010   0.00000  -0.00045  -0.00045   2.78035
   R11        2.66653   0.00000   0.00000   0.00007   0.00007   2.66661
   R12        1.84665   0.00000   0.00000   0.00001   0.00001   1.84666
    A1        2.04118   0.00000   0.00000   0.00008   0.00008   2.04126
    A2        2.10325   0.00000   0.00000  -0.00010  -0.00010   2.10315
    A3        2.13835   0.00000   0.00000  -0.00001  -0.00001   2.13834
    A4        2.09473   0.00000   0.00000  -0.00001  -0.00001   2.09472
    A5        2.03669  -0.00001   0.00000   0.00002   0.00002   2.03672
    A6        2.15088   0.00001   0.00000   0.00001   0.00001   2.15089
    A7        1.95086   0.00000   0.00000   0.00004   0.00004   1.95091
    A8        1.92429   0.00000   0.00000  -0.00010  -0.00010   1.92418
    A9        1.92534   0.00000   0.00000   0.00002   0.00002   1.92536
   A10        1.87442   0.00000   0.00000   0.00002   0.00002   1.87445
   A11        1.90040   0.00000   0.00000   0.00004   0.00004   1.90043
   A12        1.88668   0.00000   0.00000  -0.00002  -0.00002   1.88666
   A13        1.92994   0.00001   0.00000  -0.00004  -0.00004   1.92990
   A14        2.08722   0.00000   0.00000   0.00019   0.00019   2.08741
   A15        2.05674   0.00000   0.00000   0.00005   0.00005   2.05679
   A16        1.02866  -0.00001   0.00000   0.00015   0.00015   1.02882
   A17        2.07668  -0.00001   0.00000  -0.00029  -0.00029   2.07639
   A18        2.04448   0.00000   0.00000  -0.00009  -0.00009   2.04439
   A19        1.87741   0.00000   0.00000  -0.00014  -0.00014   1.87726
    D1       -3.00443   0.00000   0.00000   0.00019   0.00019  -3.00424
    D2        0.18088  -0.00001   0.00000  -0.00038  -0.00038   0.18049
    D3        0.16755   0.00001   0.00000   0.00131   0.00131   0.16886
    D4       -2.93033   0.00000   0.00000   0.00074   0.00074  -2.92959
    D5       -0.92145   0.00000   0.00000   0.00111   0.00111  -0.92034
    D6        1.16211   0.00000   0.00000   0.00110   0.00110   1.16321
    D7       -3.03856   0.00000   0.00000   0.00102   0.00102  -3.03753
    D8        2.17345   0.00001   0.00000   0.00172   0.00172   2.17517
    D9       -2.02619   0.00000   0.00000   0.00171   0.00171  -2.02447
   D10        0.05634   0.00000   0.00000   0.00163   0.00163   0.05797
   D11        1.00370   0.00000   0.00000   0.00027   0.00027   1.00397
   D12       -0.13298   0.00001   0.00000   0.00008   0.00008  -0.13290
   D13       -2.80814   0.00000   0.00000  -0.00022  -0.00022  -2.80836
   D14       -2.09263  -0.00001   0.00000  -0.00032  -0.00032  -2.09296
   D15        3.05387   0.00000   0.00000  -0.00051  -0.00051   3.05336
   D16        0.37871  -0.00001   0.00000  -0.00081  -0.00081   0.37790
   D17        3.03639  -0.00001   0.00000  -0.00225  -0.00225   3.03414
   D18       -0.83246   0.00000   0.00000  -0.00267  -0.00267  -0.83512
   D19        0.34977  -0.00001   0.00000  -0.00261  -0.00261   0.34716
         Item               Value     Threshold  Converged?
 Maximum Force            0.000096     0.000450     YES
 RMS     Force            0.000015     0.000300     YES
 Maximum Displacement     0.002846     0.001800     NO 
 RMS     Displacement     0.000865     0.001200     YES
 Predicted change in Energy=-5.951033D-08
 GradGradGradGradGradGradGradGradGradGradGradGradGradGradGradGradGradGrad


 Test job not archived.
 1\1\GINC-KALI\Freq\RB3LYP\6-31G\C3H7N1O2\ROOT\12-Apr-2016\0\\#N Geom=A
 llCheck Guess=TCheck SCRF=Check Test GenChk RB3LYP/6-31G Freq\\Ala-S-o
 pt-freq-tsb16-31g\\0,1\N,-1.4837136934,-1.1943460393,0.5634799168\H,-1
 .0178583668,-2.0934297183,0.5631683088\C,-0.7244616525,-0.1067075808,0
 .2639231986\H,0.5058590445,-1.0383561157,-1.2369005951\C,-1.2942597955
 ,1.2684909037,0.4148442232\C,0.5588203534,-0.3538812446,-0.2298250897\
 H,-2.2491257156,1.3750241268,-0.1188222638\H,-1.4840304673,1.487293906
 3,1.4744338279\H,-0.5932549873,2.0123138774,0.0357139622\O,1.080521812
 6,-1.7297883455,-0.2410047582\H,-2.4693505463,-1.1300966964,0.75284685
 71\O,1.5034839656,0.6921838869,-0.1629376731\H,2.3638591684,0.33168909
 94,-0.4540204447\\Version=ES64L-G09RevD.01\State=1-A\HF=-323.513536\RM
 SD=3.189e-09\RMSF=2.309e-05\ZeroPoint=0.1013233\Thermal=0.1085859\Dipo
 le=-1.3363159,0.3501084,-0.0487933\DipoleDeriv=-0.7908329,-0.1332569,0
 .1713406,-0.7971345,-0.4998542,0.2981318,0.1182436,0.0042056,-0.827051
 1,0.1530035,0.0755034,0.0638633,0.0426067,0.2053263,-0.0131215,0.09767
 49,-0.0279981,0.3457961,0.8880361,-0.0768434,-0.4664101,0.6025763,0.41
 63205,-0.2370509,-0.5469666,-0.0196173,0.4234666,0.3176513,-0.2327394,
 -0.1012595,-0.7048298,0.4887489,0.3106505,-0.055484,-0.0355448,0.15157
 83,0.0998933,0.027197,0.0393434,-0.0931191,-0.0647156,0.0286054,0.1090
 789,-0.0676544,0.0627661,0.5495666,0.3518094,0.0729775,0.8481938,0.443
 8489,-0.0938105,1.1395233,-0.2591293,-0.4548878,-0.1368585,0.066703,-0
 .0801695,0.0191095,0.0280418,-0.027941,-0.1100251,0.0201989,0.0453331,
 0.0539981,0.0512217,0.0501463,0.060443,0.0230981,-0.02568,0.0622696,-0
 .0539547,-0.1045106,0.0605759,-0.0754625,0.0301219,-0.0249765,0.026321
 1,0.0208281,0.0280748,0.0518149,0.0887584,-0.8634365,0.2181845,0.20510
 07,0.4988954,-0.9041602,-0.345679,-0.591454,0.3074627,-0.1293111,0.185
 5321,0.0301275,0.0329693,0.0157797,0.2152307,0.0303586,-0.0242923,0.03
 22237,0.4022171,-0.8250945,-0.3527348,-0.0452091,-0.6482027,-0.6232964
 ,0.1497084,-0.2916743,0.1117216,-0.3655153,0.3079654,0.0502906,0.02718
 51,0.1806583,0.2450902,-0.0949999,0.0650312,-0.0637288,0.3613604\Polar
 =66.3335398,-6.4206145,51.9928805,-13.4634231,3.3451931,32.6589156\PG=
 C01 [X(C3H7N1O2)]\NImag=1\\0.84705844,-0.04293367,0.76850199,-0.176790
 44,-0.07453214,0.09904315,-0.15176307,0.14793181,0.01304714,0.13758859
 ,0.15077084,-0.36370552,0.00521792,-0.15440361,0.39132576,0.01211028,0
 .00572260,-0.01976216,-0.00844089,-0.00777324,0.01840799,-0.21098207,-
 0.10531584,0.05119654,0.02306175,0.00979130,-0.00285781,0.70829482,-0.
 11602382,-0.29760891,0.05250839,-0.01720400,-0.03122289,0.00723938,0.0
 1372526,0.69523714,0.05432656,0.04110737,-0.06181500,-0.00447431,0.001
 82883,0.00475389,-0.16553037,-0.01392971,0.21831298,0.00312318,0.00621
 442,-0.00026816,0.00306382,-0.00072642,0.00103251,-0.02325544,0.005757
 04,0.02266850,0.02170519,-0.01855476,-0.02208199,0.00924338,-0.0073553
 8,0.00249595,0.00442232,0.05021294,-0.00109962,-0.02804476,0.04211328,
 -0.03514182,0.00178640,-0.00055607,0.00137224,0.00135032,0.00010615,-0
 .00228222,-0.00770064,0.00376324,-0.00809926,0.01790642,0.05414979,0.1
 8298054,0.01279829,-0.02331260,-0.00289991,-0.00271532,-0.00376224,0.0
 0122283,-0.11597553,0.04913863,0.01421124,-0.00098676,0.00103574,0.000
 26050,0.56643732,0.01211454,-0.03676316,-0.00194574,-0.00336234,-0.000
 26051,0.00018165,0.04215593,-0.20073337,-0.00921295,-0.00001116,0.0002
 1426,-0.00053200,0.04349440,0.52301977,-0.00445612,0.00865000,0.004461
 99,0.00189670,0.00272055,0.00329407,0.00463651,-0.00794717,-0.07464090
 ,-0.00186595,0.00065016,0.00140196,-0.01350940,-0.02060526,0.53965741,
 -0.03792093,-0.01257247,0.02049257,-0.00357417,0.00138166,-0.00186027,
 -0.32680417,0.04305359,0.08915658,0.02117120,-0.05161097,0.01436737,-0
 .00404767,0.01147117,0.01319727,0.66374971,-0.02711179,0.01555159,0.00
 976999,-0.00262948,-0.00431124,0.00187129,0.01829740,-0.09944659,0.002
 40457,-0.05256846,0.05604403,-0.09291997,0.02535341,-0.00487808,-0.016
 66031,0.05233854,0.38417042,0.04600649,0.04829487,-0.01159608,0.011990
 97,-0.00476476,-0.00608701,0.02796392,-0.03345305,-0.06134794,-0.04129
 908,0.03951673,-0.13747289,0.00172141,-0.00308411,0.00082877,-0.084376
 52,0.00408311,0.18007020,0.00174465,-0.00116755,0.00088648,-0.00031481
 ,0.00026844,0.00033871,-0.01494929,0.00427221,-0.00271539,-0.00013767,
 0.00010372,-0.00016233,-0.23641785,0.01521444,-0.10767107,0.00267975,0
 .00002574,-0.00198752,0.26164839,-0.00047073,0.00258995,-0.00141547,0.
 00018024,0.00012370,-0.00064722,0.03495054,-0.00713961,0.01435324,0.00
 021657,0.00002678,0.00022910,0.01719073,-0.05125633,0.01239122,-0.0040
 9794,-0.00240998,0.00130689,-0.02332654,0.05567827,0.00017918,0.000769
 43,0.00009972,0.00006949,0.00006844,-0.00003091,0.00636186,-0.00255355
 ,0.00324765,0.00028806,-0.00047894,-0.00009106,-0.10825204,0.01174661,
 -0.10771404,0.00015480,-0.00010345,0.00053763,0.12021205,-0.01074910,0
 .11580224,0.00031941,-0.00126669,-0.00040198,-0.00028594,0.00000531,-0
 .00003619,-0.00448147,0.00549077,0.01479719,0.00037730,-0.00015770,-0.
 00048623,-0.05234044,0.00627881,0.04224261,-0.00005519,0.00241376,0.00
 022856,0.00418684,-0.00544504,-0.03032894,0.05607503,0.00022423,0.0015
 9641,0.00208146,0.00041394,0.00029152,0.00062730,0.00830882,-0.0106016
 3,-0.03292226,-0.00044639,-0.00014021,0.00063914,0.00651925,-0.0561398
 4,-0.04706974,-0.00045033,-0.00365288,-0.00094838,-0.00074844,0.000853
 50,0.00202670,-0.01188707,0.06234820,-0.00017455,0.00075494,0.00105097
 ,0.00010512,-0.00019430,-0.00000246,0.00338597,-0.00161581,-0.00088754
 ,0.00004186,-0.00004105,0.00027332,0.04113246,-0.04504392,-0.28609644,
 -0.00170209,-0.00043169,-0.00054815,0.00347787,-0.00260056,-0.01720963
 ,-0.04694842,0.05288735,0.31492097,-0.00145434,0.00322479,0.00084184,0
 .00055223,0.00071686,0.00013231,0.01055431,0.01102096,-0.00651666,0.00
 012801,-0.00046591,-0.00006601,-0.16674369,-0.12540715,0.06373270,0.00
 058167,0.00160385,0.00099300,-0.01741222,-0.01926295,0.01123459,-0.002
 87242,-0.00293490,0.00029219,0.17853922,0.00488329,-0.00450116,-0.0011
 2482,-0.00115651,-0.00089797,-0.00006252,-0.02424020,-0.02325602,0.013
 22658,0.00002045,0.00054271,0.00013869,-0.11810165,-0.17667803,0.06459
 968,-0.00148670,-0.00196748,-0.00181720,0.00326126,0.00285835,-0.00138
 325,0.00492609,0.00503992,-0.00312329,0.13144787,0.19633463,0.00080580
 ,-0.00093984,0.00131359,0.00001788,-0.00026349,0.00058427,-0.00314951,
 -0.00469210,0.00039643,0.00015659,-0.00025832,-0.00003270,0.06229830,0
 .06781644,-0.08375572,0.00009571,0.00033092,0.00027638,-0.01228251,-0.
 01299110,0.00623308,0.02185760,0.02303343,-0.01101726,-0.06995072,-0.0
 7160617,0.08745983,-0.00689245,-0.00398159,0.00161049,0.00117091,0.002
 32790,-0.00220574,0.00181701,0.03285012,-0.01132044,-0.00996823,-0.022
 09107,-0.02241940,-0.00170377,-0.00186955,0.00300456,-0.10023942,0.079
 06554,0.03745612,-0.00040386,0.00112050,-0.00011856,-0.00093065,0.0012
 9354,0.00018669,-0.00022353,0.00028690,-0.00028332,0.09022565,0.007615
 00,0.02057484,-0.00465249,0.00932314,-0.00173451,-0.00569743,-0.015938
 86,-0.03382950,0.01125843,0.01007518,0.01448437,0.03739820,0.00082034,
 0.00413001,0.00317966,0.06461130,-0.18853243,-0.05115162,0.00158932,-0
 .00203722,0.00024755,0.00029517,0.00001715,-0.00048162,-0.00004304,-0.
 00000080,0.00004749,-0.07671821,0.21895703,-0.01697185,-0.02287962,0.0
 0447688,-0.01067411,0.00141210,0.00172308,0.05720137,-0.01195098,-0.01
 286530,0.01177870,-0.06404363,-0.04601581,0.00392051,0.00119420,0.0050
 0459,-0.04787501,0.09796460,0.06281384,0.00065992,-0.00140422,-0.00071
 428,-0.00046503,0.00068749,-0.00012188,-0.00051467,0.00058326,-0.00016
 667,-0.01123973,0.00848655,-0.00854408,-0.44882866,0.03277459,0.087820
 40,-0.00627250,-0.00705109,0.00117615,-0.01713805,0.00472791,0.0040596
 7,-0.00063873,0.00222370,-0.00000770,0.00178107,0.00105534,-0.00036807
 ,0.00181762,-0.00254605,-0.00471723,0.00001274,-0.00076787,-0.00019059
 ,0.00018659,-0.00061494,-0.00021157,-0.00009138,0.00044918,-0.00011482
 ,0.00084486,-0.00232050,0.00196084,0.46823742,0.03399818,-0.07834626,0
 .00297139,0.02786725,0.00726324,-0.00622178,-0.03495047,0.00666420,0.0
 0698267,0.00057747,-0.00131402,0.00036671,0.00017348,0.00216056,-0.000
 94651,-0.00040343,-0.00543728,0.00110462,0.00062123,-0.00053864,0.0008
 0854,-0.00028993,-0.00056322,-0.00035056,0.00024578,0.00029751,0.00000
 145,0.00198213,0.00207651,-0.00257610,-0.02813631,0.06803081,0.0851185
 0,0.00337428,-0.02481925,-0.00262728,0.00086212,-0.00091976,0.00415948
 ,-0.00176579,-0.00384343,-0.00079336,-0.00142133,0.00074090,0.00037034
 ,-0.00032483,-0.00132948,0.00369764,0.00233596,0.00688327,-0.00086003,
 0.00091552,-0.00001888,-0.00003900,-0.00103948,-0.00051591,-0.00023128
 ,0.00010409,-0.00057727,0.00127480,0.00165368,-0.00258450,-0.09075808,
 -0.00288498,0.02690009,-0.00825156,-0.00245289,0.00509900,-0.00055839,
 0.00091525,-0.00039968,-0.02736346,-0.03197978,-0.00885026,-0.01341824
 ,0.00248958,-0.00504177,-0.00038914,-0.00108446,-0.00053071,-0.1815698
 2,-0.10643153,-0.00174618,-0.00073259,-0.00011084,0.00028268,-0.000268
 78,0.00043177,0.00053112,-0.00156727,-0.00020136,0.00045918,0.02116412
 ,-0.00057895,0.01073322,0.00007721,-0.00149208,0.00013026,0.57939790,-
 0.00367463,-0.00715761,0.00153694,0.00079776,0.00063384,0.00029090,0.0
 0659555,0.01002887,-0.00701400,-0.00871953,-0.01774367,-0.00146461,0.0
 0110186,-0.00232222,0.00105789,-0.05813897,-0.14659332,-0.00665211,-0.
 00040946,0.00110814,-0.00030666,-0.00044836,0.00096596,0.00032124,0.00
 013051,0.00155513,-0.00026927,-0.01986593,-0.03587475,-0.01050565,0.00
 048890,0.00008703,-0.00204542,-0.02994485,0.29116856,-0.00212635,-0.00
 919961,0.00495284,-0.00223698,0.00072299,0.00051565,0.02241359,0.01330
 546,-0.00235325,-0.00890149,-0.01174459,0.00628512,0.00015874,-0.00020
 812,-0.00074232,-0.00307291,-0.00816626,-0.03364499,0.00031823,0.00061
 249,-0.00021553,-0.00053016,-0.00015027,0.00021820,0.00008266,0.000426
 71,-0.00067451,0.00516364,0.00041213,-0.00033077,0.00109808,0.00057302
 ,-0.00049075,-0.12571051,0.07762146,0.07008045,0.00104912,0.00285770,-
 0.00063396,0.00004691,-0.00023419,-0.00021220,-0.00277841,-0.00482890,
 0.00018768,-0.00116362,0.00205683,0.00021305,0.00030348,-0.00004997,-0
 .00030904,-0.03578859,0.01218907,0.00776606,0.00009592,-0.00017667,0.0
 0010741,0.00008972,-0.00010948,-0.00011667,0.00000941,-0.00008861,0.00
 008983,0.00513934,0.00127010,0.00148584,0.00001182,-0.00019330,0.00055
 803,-0.36651997,0.11208715,0.11334346,0.39950486,-0.00083669,0.0013498
 2,0.00034119,-0.00040280,-0.00000136,0.00004677,-0.00359236,-0.0069920
 7,-0.00003802,-0.00250245,0.00371324,-0.00131837,0.00034864,-0.0004930
 7,-0.00002017,-0.04409544,0.00146325,0.00756501,0.00029561,0.00014309,
 -0.00009232,0.00008488,-0.00001486,-0.00008074,-0.00027666,0.00067320,
 -0.00020943,0.00559973,0.00176931,0.00303200,-0.00028288,-0.00038044,0
 .00023615,0.17044014,-0.09585596,-0.06420540,-0.12477972,0.09462584,0.
 00018610,-0.00056623,0.00122110,-0.00002405,0.00005669,-0.00019443,0.0
 0191909,0.00109170,-0.00085834,-0.00074461,-0.00194976,0.00093986,-0.0
 0063498,0.00001802,-0.00036989,-0.00227514,-0.00047875,-0.00071304,-0.
 00021442,-0.00000077,0.00007402,0.00010998,0.00014727,-0.00006418,-0.0
 0002995,0.00003824,-0.00003946,-0.00110911,-0.00070054,-0.00267510,0.0
 0025292,0.00017151,0.00057497,0.12504366,-0.05257071,-0.04360013,-0.12
 247949,0.05474332,0.04570463\\-0.00000722,0.00000703,-0.00002327,0.000
 00860,0.00000174,0.00000727,-0.00002106,0.00000393,0.00004431,-0.00000
 917,0.00001266,0.00000308,0.00000317,-0.00002414,-0.00001170,-0.000003
 28,0.00007533,-0.00003419,-0.00000237,-0.00000231,-0.00000399,-0.00000
 349,0.00000262,-0.00000326,-0.00000119,0.00000259,-0.00000321,0.000036
 69,-0.00008840,0.00001251,0.00000260,0.00000119,0.00000723,-0.00000248
 ,0.00000297,0.00001378,-0.00000080,0.00000479,-0.00000858\\\@


 QUANTUM MECHANICS IS BOHRING -- M.S. GORDON
 Job cpu time:       0 days  0 hours  1 minutes  7.1 seconds.
 File lengths (MBytes):  RWF=     12 Int=      0 D2E=      0 Chk=      2 Scr=      1
 Normal termination of Gaussian 09 at Tue Apr 12 08:30:55 2016.
