 Entering Gaussian System, Link 0=g09
 Input=Ala-S-opt-freq-tsa3-6-31g.com
 Output=Ala-S-opt-freq-tsa3-6-31g.log
 Initial command:
 /usr/local/gau/g09/l1.exe "/tmp/Gau-3435.inp" -scrdir="/tmp/"
 Entering Link 1 = /usr/local/gau/g09/l1.exe PID=      3437.
  
 Copyright (c) 1988,1990,1992,1993,1995,1998,2003,2009,2013,
            Gaussian, Inc.  All Rights Reserved.
  
 This is part of the Gaussian(R) 09 program.  It is based on
 the Gaussian(R) 03 system (copyright 2003, Gaussian, Inc.),
 the Gaussian(R) 98 system (copyright 1998, Gaussian, Inc.),
 the Gaussian(R) 94 system (copyright 1995, Gaussian, Inc.),
 the Gaussian 92(TM) system (copyright 1992, Gaussian, Inc.),
 the Gaussian 90(TM) system (copyright 1990, Gaussian, Inc.),
 the Gaussian 88(TM) system (copyright 1988, Gaussian, Inc.),
 the Gaussian 86(TM) system (copyright 1986, Carnegie Mellon
 University), and the Gaussian 82(TM) system (copyright 1983,
 Carnegie Mellon University). Gaussian is a federally registered
 trademark of Gaussian, Inc.
  
 This software contains proprietary and confidential information,
 including trade secrets, belonging to Gaussian, Inc.
  
 This software is provided under written license and may be
 used, copied, transmitted, or stored only in accord with that
 written license.
  
 The following legend is applicable only to US Government
 contracts under FAR:
  
                    RESTRICTED RIGHTS LEGEND
  
 Use, reproduction and disclosure by the US Government is
 subject to restrictions as set forth in subparagraphs (a)
 and (c) of the Commercial Computer Software - Restricted
 Rights clause in FAR 52.227-19.
  
 Gaussian, Inc.
 340 Quinnipiac St., Bldg. 40, Wallingford CT 06492
  
  
 ---------------------------------------------------------------
 Warning -- This program may not be used in any manner that
 competes with the business of Gaussian, Inc. or will provide
 assistance to any competitor of Gaussian, Inc.  The licensee
 of this program is prohibited from giving any competitor of
 Gaussian, Inc. access to this program.  By using this program,
 the user acknowledges that Gaussian, Inc. is engaged in the
 business of creating and licensing software in the field of
 computational chemistry and represents and warrants to the
 licensee that it is not a competitor of Gaussian, Inc. and that
 it will not use this program in any manner prohibited above.
 ---------------------------------------------------------------
  

 Cite this work as:
 Gaussian 09, Revision D.01,
 M. J. Frisch, G. W. Trucks, H. B. Schlegel, G. E. Scuseria, 
 M. A. Robb, J. R. Cheeseman, G. Scalmani, V. Barone, B. Mennucci, 
 G. A. Petersson, H. Nakatsuji, M. Caricato, X. Li, H. P. Hratchian, 
 A. F. Izmaylov, J. Bloino, G. Zheng, J. L. Sonnenberg, M. Hada, 
 M. Ehara, K. Toyota, R. Fukuda, J. Hasegawa, M. Ishida, T. Nakajima, 
 Y. Honda, O. Kitao, H. Nakai, T. Vreven, J. A. Montgomery, Jr., 
 J. E. Peralta, F. Ogliaro, M. Bearpark, J. J. Heyd, E. Brothers, 
 K. N. Kudin, V. N. Staroverov, T. Keith, R. Kobayashi, J. Normand, 
 K. Raghavachari, A. Rendell, J. C. Burant, S. S. Iyengar, J. Tomasi, 
 M. Cossi, N. Rega, J. M. Millam, M. Klene, J. E. Knox, J. B. Cross, 
 V. Bakken, C. Adamo, J. Jaramillo, R. Gomperts, R. E. Stratmann, 
 O. Yazyev, A. J. Austin, R. Cammi, C. Pomelli, J. W. Ochterski, 
 R. L. Martin, K. Morokuma, V. G. Zakrzewski, G. A. Voth, 
 P. Salvador, J. J. Dannenberg, S. Dapprich, A. D. Daniels, 
 O. Farkas, J. B. Foresman, J. V. Ortiz, J. Cioslowski, 
 and D. J. Fox, Gaussian, Inc., Wallingford CT, 2013.
 
 ******************************************
 Gaussian 09:  ES64L-G09RevD.01 24-Apr-2013
                14-Apr-2016 
 ******************************************
 %chk=Ala-S-opt-freq-tsa3-6-31g.chk
 ------------------------------------------------
 #p opt=(calcfc,ts) freq rb3lyp/6-31g iop(1/11=1)
 ------------------------------------------------
 1/5=1,10=4,11=1,14=-1,18=20,26=3,38=1/1,3;
 2/9=110,12=2,17=6,18=5,40=1/2;
 3/5=1,6=6,11=2,16=1,25=1,30=1,71=2,74=-5,116=1,140=1/1,2,3;
 4//1;
 5/5=2,38=5/2;
 8/6=4,10=90,11=11/1;
 11/6=1,8=1,9=11,15=111,16=1/1,2,10;
 10/6=1,13=1/2;
 6/7=2,8=2,9=2,10=2,28=1/1;
 7/10=1,18=20,25=1/1,2,3,16;
 1/5=1,10=4,11=1,14=-1,18=20,26=3/3(2);
 2/9=110/2;
 99//99;
 2/9=110/2;
 3/5=1,6=6,11=2,16=1,25=1,30=1,71=1,74=-5,116=1/1,2,3;
 4/5=5,16=3,69=1/1;
 5/5=2,38=5/2;
 7//1,2,3,16;
 1/5=1,11=1,14=-1,18=20,26=3/3(-5);
 2/9=110/2;
 6/7=2,8=2,9=2,10=2,19=2,28=1/1;
 99/9=1/99;
 Leave Link    1 at Thu Apr 14 10:50:43 2016, MaxMem=           0 cpu:         0.0
 (Enter /usr/local/gau/g09/l101.exe)
 -------------------------
 Ala-S-opt-freq-tsa3-6-31g
 -------------------------
 Symbolic Z-matrix:
 Charge =  0 Multiplicity = 1
 N                     1.03682   1.37146   0.03676 
 H                     2.03405   1.44739  -0.04571 
 C                     0.41888   0.12304   0.01152 
 H                    -0.14497  -1.21251  -0.01811 
 C                     1.32691  -1.07504   0.00384 
 C                    -0.92216   0.01654   0.00505 
 H                     1.97243  -1.07795   0.8925 
 H                     0.74564  -1.99755   0.00086 
 H                     1.98213  -1.06799  -0.87869 
 O                    -1.73144   1.16775  -0.08626 
 H                     0.47448   2.19925  -0.05997 
 O                    -1.61241  -1.19899   0.10915 
 H                    -2.34447   1.2159    0.67868 
 
 Add virtual bond connecting atoms H8         and H4         Dist= 2.24D+00.
 NAtoms=     13 NQM=       13 NQMF=       0 NMMI=      0 NMMIF=      0
                NMic=       0 NMicF=      0.
                    Isotopes and Nuclear Properties:
 (Nuclear quadrupole moments (NQMom) in fm**2, nuclear magnetic moments (NMagM)
  in nuclear magnetons)

  Atom         1           2           3           4           5           6           7           8           9          10
 IAtWgt=          14           1          12           1          12          12           1           1           1          16
 AtmWgt=  14.0030740   1.0078250  12.0000000   1.0078250  12.0000000  12.0000000   1.0078250   1.0078250   1.0078250  15.9949146
 NucSpn=           2           1           0           1           0           0           1           1           1           0
 AtZEff=   0.0000000   0.0000000   0.0000000   0.0000000   0.0000000   0.0000000   0.0000000   0.0000000   0.0000000   0.0000000
 NQMom=    2.0440000   0.0000000   0.0000000   0.0000000   0.0000000   0.0000000   0.0000000   0.0000000   0.0000000   0.0000000
 NMagM=    0.4037610   2.7928460   0.0000000   2.7928460   0.0000000   0.0000000   2.7928460   2.7928460   2.7928460   0.0000000
 AtZNuc=   7.0000000   1.0000000   6.0000000   1.0000000   6.0000000   6.0000000   1.0000000   1.0000000   1.0000000   8.0000000

  Atom        11          12          13
 IAtWgt=           1          16           1
 AtmWgt=   1.0078250  15.9949146   1.0078250
 NucSpn=           1           0           1
 AtZEff=   0.0000000   0.0000000   0.0000000
 NQMom=    0.0000000   0.0000000   0.0000000
 NMagM=    2.7928460   0.0000000   2.7928460
 AtZNuc=   1.0000000   8.0000000   1.0000000
 Leave Link  101 at Thu Apr 14 10:50:44 2016, MaxMem=    33554432 cpu:         0.3
 (Enter /usr/local/gau/g09/l103.exe)

 GradGradGradGradGradGradGradGradGradGradGradGradGradGradGradGradGradGrad
 Berny optimization.
 Initialization pass.
                           ----------------------------
                           !    Initial Parameters    !
                           ! (Angstroms and Degrees)  !
 --------------------------                            --------------------------
 ! Name  Definition              Value          Derivative Info.                !
 --------------------------------------------------------------------------------
 ! R1    R(1,2)                  1.0035         calculate D2E/DX2 analytically  !
 ! R2    R(1,3)                  1.3932         calculate D2E/DX2 analytically  !
 ! R3    R(1,11)                 1.0054         calculate D2E/DX2 analytically  !
 ! R4    R(3,5)                  1.5033         calculate D2E/DX2 analytically  !
 ! R5    R(3,6)                  1.3453         calculate D2E/DX2 analytically  !
 ! R6    R(4,8)                  1.1874         calculate D2E/DX2 analytically  !
 ! R7    R(5,7)                  1.0984         calculate D2E/DX2 analytically  !
 ! R8    R(5,8)                  1.0904         calculate D2E/DX2 analytically  !
 ! R9    R(5,9)                  1.0992         calculate D2E/DX2 analytically  !
 ! R10   R(6,10)                 1.4102         calculate D2E/DX2 analytically  !
 ! R11   R(6,12)                 1.4017         calculate D2E/DX2 analytically  !
 ! R12   R(10,13)                0.9815         calculate D2E/DX2 analytically  !
 ! A1    A(2,1,3)              120.4689         calculate D2E/DX2 analytically  !
 ! A2    A(2,1,11)             119.0538         calculate D2E/DX2 analytically  !
 ! A3    A(3,1,11)             119.2059         calculate D2E/DX2 analytically  !
 ! A4    A(1,3,5)              116.508          calculate D2E/DX2 analytically  !
 ! A5    A(1,3,6)              120.8748         calculate D2E/DX2 analytically  !
 ! A6    A(5,3,6)              122.6153         calculate D2E/DX2 analytically  !
 ! A7    A(3,5,7)              110.6686         calculate D2E/DX2 analytically  !
 ! A8    A(3,5,8)              110.6273         calculate D2E/DX2 analytically  !
 ! A9    A(3,5,9)              111.0413         calculate D2E/DX2 analytically  !
 ! A10   A(7,5,8)              108.2564         calculate D2E/DX2 analytically  !
 ! A11   A(7,5,9)              107.4144         calculate D2E/DX2 analytically  !
 ! A12   A(8,5,9)              108.7238         calculate D2E/DX2 analytically  !
 ! A13   A(3,6,10)             120.5154         calculate D2E/DX2 analytically  !
 ! A14   A(3,6,12)             123.9986         calculate D2E/DX2 analytically  !
 ! A15   A(10,6,12)            115.4764         calculate D2E/DX2 analytically  !
 ! A16   A(4,8,5)               80.8236         calculate D2E/DX2 analytically  !
 ! A17   A(6,10,13)            110.368          calculate D2E/DX2 analytically  !
 ! D1    D(2,1,3,5)              6.2762         calculate D2E/DX2 analytically  !
 ! D2    D(2,1,3,6)           -174.2135         calculate D2E/DX2 analytically  !
 ! D3    D(11,1,3,5)           173.2777         calculate D2E/DX2 analytically  !
 ! D4    D(11,1,3,6)            -7.2119         calculate D2E/DX2 analytically  !
 ! D5    D(1,3,5,7)             59.0596         calculate D2E/DX2 analytically  !
 ! D6    D(1,3,5,8)            179.0434         calculate D2E/DX2 analytically  !
 ! D7    D(1,3,5,9)            -60.1392         calculate D2E/DX2 analytically  !
 ! D8    D(6,3,5,7)           -120.4415         calculate D2E/DX2 analytically  !
 ! D9    D(6,3,5,8)             -0.4577         calculate D2E/DX2 analytically  !
 ! D10   D(6,3,5,9)            120.3597         calculate D2E/DX2 analytically  !
 ! D11   D(1,3,6,10)             5.1914         calculate D2E/DX2 analytically  !
 ! D12   D(1,3,6,12)          -173.6291         calculate D2E/DX2 analytically  !
 ! D13   D(5,3,6,10)          -175.3288         calculate D2E/DX2 analytically  !
 ! D14   D(5,3,6,12)             5.8507         calculate D2E/DX2 analytically  !
 ! D15   D(3,5,8,4)              1.2064         calculate D2E/DX2 analytically  !
 ! D16   D(7,5,8,4)            122.6259         calculate D2E/DX2 analytically  !
 ! D17   D(9,5,8,4)           -120.9788         calculate D2E/DX2 analytically  !
 ! D18   D(3,6,10,13)         -122.8659         calculate D2E/DX2 analytically  !
 ! D19   D(12,6,10,13)          56.051          calculate D2E/DX2 analytically  !
 --------------------------------------------------------------------------------
 Trust Radius=3.00D-01 FncErr=1.00D-07 GrdErr=1.00D-06
 Number of steps in this run=     58 maximum allowed number of steps=    100.
 Search for a saddle point of order  1.
 GradGradGradGradGradGradGradGradGradGradGradGradGradGradGradGradGradGrad

 Leave Link  103 at Thu Apr 14 10:50:44 2016, MaxMem=    33554432 cpu:         0.0
 (Enter /usr/local/gau/g09/l202.exe)
                          Input orientation:                          
 ---------------------------------------------------------------------
 Center     Atomic      Atomic             Coordinates (Angstroms)
 Number     Number       Type             X           Y           Z
 ---------------------------------------------------------------------
      1          7           0        1.036823    1.371462    0.036756
      2          1           0        2.034053    1.447388   -0.045708
      3          6           0        0.418882    0.123042    0.011522
      4          1           0       -0.144975   -1.212506   -0.018107
      5          6           0        1.326908   -1.075042    0.003842
      6          6           0       -0.922160    0.016544    0.005045
      7          1           0        1.972425   -1.077954    0.892498
      8          1           0        0.745641   -1.997550    0.000862
      9          1           0        1.982133   -1.067992   -0.878687
     10          8           0       -1.731441    1.167751   -0.086257
     11          1           0        0.474475    2.199246   -0.059966
     12          8           0       -1.612408   -1.198987    0.109151
     13          1           0       -2.344469    1.215900    0.678682
 ---------------------------------------------------------------------
                    Distance matrix (angstroms):
                    1          2          3          4          5
     1  N    0.000000
     2  H    1.003510   0.000000
     3  C    1.393212   2.089484   0.000000
     4  H    2.841926   3.438598   1.450000   0.000000
     5  C    2.463862   2.620145   1.503321   1.478451   0.000000
     6  C    2.382105   3.284674   1.345280   1.454344   2.499974
     7  H    2.758131   2.694695   2.152210   2.308828   1.098367
     8  H    3.381762   3.678284   2.145646   1.187372   1.090367
     9  H    2.771747   2.650224   2.157496   2.299146   1.099194
    10  O    2.778474   3.776081   2.392669   2.861318   3.793644
    11  H    1.005394   1.731409   2.078178   3.467783   3.384032
    12  O    3.692001   4.508210   2.425579   1.473003   2.943812
    13  H    3.445200   4.444073   3.045579   3.349693   4.379821
                    6          7          8          9         10
     6  C    0.000000
     7  H    3.219335   0.000000
     8  H    2.614986   1.773604   0.000000
     9  H    3.223681   1.771240   1.779493   0.000000
    10  O    1.410159   4.440695   4.020281   4.406487   0.000000
    11  H    2.592104   3.727074   4.205987   3.690282   2.435311
    12  O    1.401712   3.671418   2.491952   3.730108   2.377772
    13  H    1.978688   4.893164   4.509377   5.134301   0.981455
                   11         12         13
    11  H    0.000000
    12  O    3.991449   0.000000
    13  H    3.075551   2.586882   0.000000
 Stoichiometry    C3H7NO2
 Framework group  C1[X(C3H7NO2)]
 Deg. of freedom    33
 Full point group                 C1      NOp   1
 Largest Abelian subgroup         C1      NOp   1
 Largest concise Abelian subgroup C1      NOp   1
                         Standard orientation:                         
 ---------------------------------------------------------------------
 Center     Atomic      Atomic             Coordinates (Angstroms)
 Number     Number       Type             X           Y           Z
 ---------------------------------------------------------------------
      1          7           0        1.098444    1.425495    0.057935
      2          1           0        2.083439    1.606397   -0.006049
      3          6           0        0.614631    0.120289   -0.000381
      4          1           0        0.193760   -1.265840   -0.063735
      5          6           0        1.642755   -0.976411   -0.014097
      6          6           0       -0.707718   -0.125039   -0.031753
      7          1           0        2.271502   -0.929648    0.885292
      8          1           0        1.161058   -1.954161   -0.043663
      9          1           0        2.306970   -0.883817   -0.884999
     10          8           0       -1.631254    0.937275   -0.116142
     11          1           0        0.454303    2.192009   -0.033472
     12          8           0       -1.268829   -1.407615    0.038585
     13          1           0       -2.257486    0.906279    0.638925
 ---------------------------------------------------------------------
 Rotational constants (GHZ):      4.8932767      3.3232360      2.0150494
 Leave Link  202 at Thu Apr 14 10:50:44 2016, MaxMem=    33554432 cpu:         0.0
 (Enter /usr/local/gau/g09/l301.exe)
 Standard basis: 6-31G (6D, 7F)
 Ernie: Thresh=  0.10000D-02 Tol=  0.10000D-05 Strict=F.
 There are    68 symmetry adapted cartesian basis functions of A   symmetry.
 There are    68 symmetry adapted basis functions of A   symmetry.
    68 basis functions,   160 primitive gaussians,    68 cartesian basis functions
    24 alpha electrons       24 beta electrons
       nuclear repulsion energy       247.6081610626 Hartrees.
 IExCor=  402 DFT=T Ex+Corr=B3LYP ExCW=0 ScaHFX=  0.200000
 ScaDFX=  0.800000  0.720000  1.000000  0.810000 ScalE2=  1.000000  1.000000
 IRadAn=      0 IRanWt=     -1 IRanGd=            0 ICorTp=0 IEmpDi=  4
 NAtoms=   13 NActive=   13 NUniq=   13 SFac= 1.00D+00 NAtFMM=   60 NAOKFM=F Big=F
 Integral buffers will be    131072 words long.
 Raffenetti 2 integral format.
 Two-electron integral symmetry is turned on.
 Leave Link  301 at Thu Apr 14 10:50:44 2016, MaxMem=    33554432 cpu:         0.0
 (Enter /usr/local/gau/g09/l302.exe)
 NPDir=0 NMtPBC=     1 NCelOv=     1 NCel=       1 NClECP=     1 NCelD=      1
         NCelK=      1 NCelE2=     1 NClLst=     1 CellRange=     0.0.
 One-electron integrals computed using PRISM.
 NBasis=    68 RedAO= T EigKep=  2.65D-03  NBF=    68
 NBsUse=    68 1.00D-06 EigRej= -1.00D+00 NBFU=    68
 Precomputing XC quadrature grid using
 IXCGrd= 4 IRadAn=           0 IRanWt=          -1 IRanGd=           0 AccXCQ= 0.00D+00.
 Generated NRdTot=       0 NPtTot=           0 NUsed=           0 NTot=          32
 NSgBfM=    68    68    68    68    68 MxSgAt=    13 MxSgA2=    13.
 Leave Link  302 at Thu Apr 14 10:50:45 2016, MaxMem=    33554432 cpu:         0.2
 (Enter /usr/local/gau/g09/l303.exe)
 DipDrv:  MaxL=1.
 Leave Link  303 at Thu Apr 14 10:50:45 2016, MaxMem=    33554432 cpu:         0.0
 (Enter /usr/local/gau/g09/l401.exe)
 ExpMin= 1.61D-01 ExpMax= 5.48D+03 ExpMxC= 8.25D+02 IAcc=1 IRadAn=         1 AccDes= 0.00D+00
 Harris functional with IExCor=  402 and IRadAn=       1 diagonalized for initial guess.
 HarFok:  IExCor=  402 AccDes= 0.00D+00 IRadAn=         1 IDoV= 1 UseB2=F ITyADJ=14
 ICtDFT=  3500011 ScaDFX=  1.000000  1.000000  1.000000  1.000000
 FoFCou: FMM=F IPFlag=           0 FMFlag=      100000 FMFlg1=           0
         NFxFlg=           0 DoJE=T BraDBF=F KetDBF=T FulRan=T
         wScrn=  0.000000 ICntrl=     500 IOpCl=  0 I1Cent=   200000004 NGrid=           0
         NMat0=    1 NMatS0=      1 NMatT0=    0 NMatD0=    1 NMtDS0=    0 NMtDT0=    0
 Petite list used in FoFCou.
 Harris En= -323.491620945916    
 JPrj=0 DoOrth=F DoCkMO=F.
 Leave Link  401 at Thu Apr 14 10:50:46 2016, MaxMem=    33554432 cpu:         0.5
 (Enter /usr/local/gau/g09/l502.exe)
 Closed shell SCF:
 Using DIIS extrapolation, IDIIS=  1040.
 Integral symmetry usage will be decided dynamically.
 Keep R1 ints in memory in canonical form, NReq=3676491.
 IVT=       33364 IEndB=       33364 NGot=    33554432 MDV=    30768038
 LenX=    30768038 LenY=    30762973
 Requested convergence on RMS density matrix=1.00D-08 within 128 cycles.
 Requested convergence on MAX density matrix=1.00D-06.
 Requested convergence on             energy=1.00D-06.
 No special actions if energy rises.
 FoFCou: FMM=F IPFlag=           0 FMFlag=           0 FMFlg1=           0
         NFxFlg=           0 DoJE=F BraDBF=F KetDBF=F FulRan=T
         wScrn=  0.000000 ICntrl=     600 IOpCl=  0 I1Cent=           0 NGrid=           0
         NMat0=    1 NMatS0=   2346 NMatT0=    0 NMatD0=    1 NMtDS0=    0 NMtDT0=    0
 Symmetry not used in FoFCou.
 Integral accuracy reduced to 1.0D-05 until final iterations.

 Cycle   1  Pass 0  IDiag  1:
 E= -323.244618805811    
 DIIS: error= 3.56D-02 at cycle   1 NSaved=   1.
 NSaved= 1 IEnMin= 1 EnMin= -323.244618805811     IErMin= 1 ErrMin= 3.56D-02
 ErrMax= 3.56D-02  0.00D+00 EMaxC= 1.00D-01 BMatC= 2.10D-01 BMatP= 2.10D-01
 IDIUse=3 WtCom= 6.44D-01 WtEn= 3.56D-01
 Coeff-Com:  0.100D+01
 Coeff-En:   0.100D+01
 Coeff:      0.100D+01
 Gap=     0.163 Goal=   None    Shift=    0.000
 GapD=    0.163 DampG=1.000 DampE=0.500 DampFc=0.5000 IDamp=-1.
 Damping current iteration by 5.00D-01
 RMSDP=2.07D-02 MaxDP=4.05D-01              OVMax= 2.44D-01

 Cycle   2  Pass 0  IDiag  1:
 E= -323.292189049469     Delta-E=       -0.047570243658 Rises=F Damp=T
 DIIS: error= 1.62D-02 at cycle   2 NSaved=   2.
 NSaved= 2 IEnMin= 2 EnMin= -323.292189049469     IErMin= 2 ErrMin= 1.62D-02
 ErrMax= 1.62D-02  0.00D+00 EMaxC= 1.00D-01 BMatC= 3.29D-02 BMatP= 2.10D-01
 IDIUse=3 WtCom= 8.38D-01 WtEn= 1.62D-01
 Coeff-Com:  0.238D+00 0.762D+00
 Coeff-En:   0.366D+00 0.634D+00
 Coeff:      0.259D+00 0.741D+00
 Gap=     0.200 Goal=   None    Shift=    0.000
 RMSDP=5.97D-03 MaxDP=1.23D-01 DE=-4.76D-02 OVMax= 1.91D-01

 Cycle   3  Pass 0  IDiag  1:
 E= -323.400602441047     Delta-E=       -0.108413391577 Rises=F Damp=F
 DIIS: error= 2.33D-02 at cycle   3 NSaved=   3.
 NSaved= 3 IEnMin= 3 EnMin= -323.400602441047     IErMin= 2 ErrMin= 1.62D-02
 ErrMax= 2.33D-02  0.00D+00 EMaxC= 1.00D-01 BMatC= 3.72D-02 BMatP= 3.29D-02
 IDIUse=2 WtCom= 0.00D+00 WtEn= 1.00D+00
 Coeff-En:   0.000D+00 0.000D+00 0.100D+01
 Coeff:      0.000D+00 0.000D+00 0.100D+01
 Gap=     0.207 Goal=   None    Shift=    0.000
 RMSDP=1.26D-02 MaxDP=1.78D-01 DE=-1.08D-01 OVMax= 2.72D-01

 Cycle   4  Pass 0  IDiag  1:
 E= -323.151057935924     Delta-E=        0.249544505123 Rises=F Damp=F
 DIIS: error= 8.53D-02 at cycle   4 NSaved=   4.
 NSaved= 4 IEnMin= 3 EnMin= -323.400602441047     IErMin= 2 ErrMin= 1.62D-02
 ErrMax= 8.53D-02  0.00D+00 EMaxC= 1.00D-01 BMatC= 3.20D-01 BMatP= 3.29D-02
 IDIUse=2 WtCom= 0.00D+00 WtEn= 1.00D+00
 Coeff-En:   0.000D+00 0.000D+00 0.834D+00 0.166D+00
 Coeff:      0.000D+00 0.000D+00 0.834D+00 0.166D+00
 Gap=     0.199 Goal=   None    Shift=    0.000
 RMSDP=7.18D-03 MaxDP=1.15D-01 DE= 2.50D-01 OVMax= 1.46D-01

 Cycle   5  Pass 0  IDiag  1:
 E= -323.410901714038     Delta-E=       -0.259843778114 Rises=F Damp=F
 DIIS: error= 2.36D-02 at cycle   5 NSaved=   5.
 NSaved= 5 IEnMin= 5 EnMin= -323.410901714038     IErMin= 2 ErrMin= 1.62D-02
 ErrMax= 2.36D-02  0.00D+00 EMaxC= 1.00D-01 BMatC= 2.70D-02 BMatP= 3.29D-02
 IDIUse=3 WtCom= 7.64D-01 WtEn= 2.36D-01
 Coeff-Com: -0.885D-03 0.469D-01 0.355D+00-0.941D-01 0.693D+00
 Coeff-En:   0.000D+00 0.000D+00 0.437D+00 0.000D+00 0.563D+00
 Coeff:     -0.676D-03 0.358D-01 0.374D+00-0.719D-01 0.662D+00
 Gap=     0.187 Goal=   None    Shift=    0.000
 RMSDP=2.69D-03 MaxDP=3.26D-02 DE=-2.60D-01 OVMax= 5.63D-02

 Cycle   6  Pass 0  IDiag  1:
 E= -323.435266881840     Delta-E=       -0.024365167802 Rises=F Damp=F
 DIIS: error= 1.39D-03 at cycle   6 NSaved=   6.
 NSaved= 6 IEnMin= 6 EnMin= -323.435266881840     IErMin= 6 ErrMin= 1.39D-03
 ErrMax= 1.39D-03  0.00D+00 EMaxC= 1.00D-01 BMatC= 6.19D-05 BMatP= 2.70D-02
 IDIUse=3 WtCom= 9.86D-01 WtEn= 1.39D-02
 Coeff-Com: -0.409D-02 0.107D-01 0.189D+00-0.508D-01 0.391D+00 0.464D+00
 Coeff-En:   0.000D+00 0.000D+00 0.000D+00 0.000D+00 0.000D+00 0.100D+01
 Coeff:     -0.403D-02 0.105D-01 0.186D+00-0.501D-01 0.386D+00 0.472D+00
 Gap=     0.185 Goal=   None    Shift=    0.000
 RMSDP=2.03D-04 MaxDP=3.32D-03 DE=-2.44D-02 OVMax= 5.68D-03

 Cycle   7  Pass 0  IDiag  1:
 E= -323.435320567878     Delta-E=       -0.000053686038 Rises=F Damp=F
 DIIS: error= 7.00D-04 at cycle   7 NSaved=   7.
 NSaved= 7 IEnMin= 7 EnMin= -323.435320567878     IErMin= 7 ErrMin= 7.00D-04
 ErrMax= 7.00D-04  0.00D+00 EMaxC= 1.00D-01 BMatC= 1.12D-05 BMatP= 6.19D-05
 IDIUse=3 WtCom= 9.93D-01 WtEn= 7.00D-03
 Coeff-Com: -0.603D-03 0.779D-03 0.367D-01-0.120D-01 0.773D-01 0.245D+00
 Coeff-Com:  0.653D+00
 Coeff-En:   0.000D+00 0.000D+00 0.000D+00 0.000D+00 0.000D+00 0.179D+00
 Coeff-En:   0.821D+00
 Coeff:     -0.599D-03 0.773D-03 0.365D-01-0.120D-01 0.767D-01 0.244D+00
 Coeff:      0.654D+00
 Gap=     0.185 Goal=   None    Shift=    0.000
 RMSDP=6.58D-05 MaxDP=9.19D-04 DE=-5.37D-05 OVMax= 2.01D-03

 Cycle   8  Pass 0  IDiag  1:
 E= -323.435332220022     Delta-E=       -0.000011652145 Rises=F Damp=F
 DIIS: error= 7.87D-05 at cycle   8 NSaved=   8.
 NSaved= 8 IEnMin= 8 EnMin= -323.435332220022     IErMin= 8 ErrMin= 7.87D-05
 ErrMax= 7.87D-05  0.00D+00 EMaxC= 1.00D-01 BMatC= 3.96D-07 BMatP= 1.12D-05
 IDIUse=1 WtCom= 1.00D+00 WtEn= 0.00D+00
 Coeff-Com:  0.156D-03-0.855D-03 0.442D-02-0.190D-02 0.793D-02 0.963D-01
 Coeff-Com:  0.346D+00 0.548D+00
 Coeff:      0.156D-03-0.855D-03 0.442D-02-0.190D-02 0.793D-02 0.963D-01
 Coeff:      0.346D+00 0.548D+00
 Gap=     0.185 Goal=   None    Shift=    0.000
 RMSDP=1.25D-05 MaxDP=1.61D-04 DE=-1.17D-05 OVMax= 1.40D-04

 Cycle   9  Pass 0  IDiag  1:
 E= -323.435332601096     Delta-E=       -0.000000381074 Rises=F Damp=F
 DIIS: error= 1.14D-05 at cycle   9 NSaved=   9.
 NSaved= 9 IEnMin= 9 EnMin= -323.435332601096     IErMin= 9 ErrMin= 1.14D-05
 ErrMax= 1.14D-05  0.00D+00 EMaxC= 1.00D-01 BMatC= 1.22D-08 BMatP= 3.96D-07
 IDIUse=1 WtCom= 1.00D+00 WtEn= 0.00D+00
 Coeff-Com:  0.699D-04-0.599D-03 0.235D-03-0.123D-03-0.498D-04 0.244D-01
 Coeff-Com:  0.104D+00 0.195D+00 0.677D+00
 Coeff:      0.699D-04-0.599D-03 0.235D-03-0.123D-03-0.498D-04 0.244D-01
 Coeff:      0.104D+00 0.195D+00 0.677D+00
 Gap=     0.185 Goal=   None    Shift=    0.000
 RMSDP=2.85D-06 MaxDP=2.36D-05 DE=-3.81D-07 OVMax= 2.43D-05

 Initial convergence to 1.0D-05 achieved.  Increase integral accuracy.
 Cycle  10  Pass 1  IDiag  1:
 E= -323.435312631809     Delta-E=        0.000019969287 Rises=F Damp=F
 DIIS: error= 1.09D-05 at cycle   1 NSaved=   1.
 NSaved= 1 IEnMin= 1 EnMin= -323.435312631809     IErMin= 1 ErrMin= 1.09D-05
 ErrMax= 1.09D-05  0.00D+00 EMaxC= 1.00D-01 BMatC= 1.08D-08 BMatP= 1.08D-08
 IDIUse=1 WtCom= 1.00D+00 WtEn= 0.00D+00
 Coeff-Com:  0.100D+01
 Coeff:      0.100D+01
 Gap=     0.185 Goal=   None    Shift=    0.000
 RMSDP=2.85D-06 MaxDP=2.36D-05 DE= 2.00D-05 OVMax= 5.57D-05

 Cycle  11  Pass 1  IDiag  1:
 E= -323.435312648228     Delta-E=       -0.000000016418 Rises=F Damp=F
 DIIS: error= 6.53D-06 at cycle   2 NSaved=   2.
 NSaved= 2 IEnMin= 2 EnMin= -323.435312648228     IErMin= 2 ErrMin= 6.53D-06
 ErrMax= 6.53D-06  0.00D+00 EMaxC= 1.00D-01 BMatC= 3.50D-09 BMatP= 1.08D-08
 IDIUse=1 WtCom= 1.00D+00 WtEn= 0.00D+00
 Coeff-Com:  0.296D+00 0.704D+00
 Coeff:      0.296D+00 0.704D+00
 Gap=     0.185 Goal=   None    Shift=    0.000
 RMSDP=1.44D-06 MaxDP=1.62D-05 DE=-1.64D-08 OVMax= 1.61D-05

 Cycle  12  Pass 1  IDiag  1:
 E= -323.435312649214     Delta-E=       -0.000000000986 Rises=F Damp=F
 DIIS: error= 5.44D-06 at cycle   3 NSaved=   3.
 NSaved= 3 IEnMin= 3 EnMin= -323.435312649214     IErMin= 3 ErrMin= 5.44D-06
 ErrMax= 5.44D-06  0.00D+00 EMaxC= 1.00D-01 BMatC= 2.41D-09 BMatP= 3.50D-09
 IDIUse=1 WtCom= 1.00D+00 WtEn= 0.00D+00
 Coeff-Com: -0.155D-01 0.454D+00 0.562D+00
 Coeff:     -0.155D-01 0.454D+00 0.562D+00
 Gap=     0.185 Goal=   None    Shift=    0.000
 RMSDP=1.04D-06 MaxDP=1.55D-05 DE=-9.86D-10 OVMax= 1.59D-05

 Cycle  13  Pass 1  IDiag  1:
 E= -323.435312650877     Delta-E=       -0.000000001664 Rises=F Damp=F
 DIIS: error= 3.33D-06 at cycle   4 NSaved=   4.
 NSaved= 4 IEnMin= 4 EnMin= -323.435312650877     IErMin= 4 ErrMin= 3.33D-06
 ErrMax= 3.33D-06  0.00D+00 EMaxC= 1.00D-01 BMatC= 3.98D-10 BMatP= 2.41D-09
 IDIUse=1 WtCom= 1.00D+00 WtEn= 0.00D+00
 Coeff-Com: -0.207D-01 0.285D+00 0.399D+00 0.336D+00
 Coeff:     -0.207D-01 0.285D+00 0.399D+00 0.336D+00
 Gap=     0.185 Goal=   None    Shift=    0.000
 RMSDP=3.82D-07 MaxDP=5.29D-06 DE=-1.66D-09 OVMax= 9.16D-06

 Cycle  14  Pass 1  IDiag  1:
 E= -323.435312651243     Delta-E=       -0.000000000366 Rises=F Damp=F
 DIIS: error= 4.58D-07 at cycle   5 NSaved=   5.
 NSaved= 5 IEnMin= 5 EnMin= -323.435312651243     IErMin= 5 ErrMin= 4.58D-07
 ErrMax= 4.58D-07  0.00D+00 EMaxC= 1.00D-01 BMatC= 1.38D-11 BMatP= 3.98D-10
 IDIUse=1 WtCom= 1.00D+00 WtEn= 0.00D+00
 Coeff-Com: -0.115D-01 0.126D+00 0.190D+00 0.192D+00 0.504D+00
 Coeff:     -0.115D-01 0.126D+00 0.190D+00 0.192D+00 0.504D+00
 Gap=     0.185 Goal=   None    Shift=    0.000
 RMSDP=6.22D-08 MaxDP=6.77D-07 DE=-3.66D-10 OVMax= 8.37D-07

 Cycle  15  Pass 1  IDiag  1:
 E= -323.435312651253     Delta-E=       -0.000000000010 Rises=F Damp=F
 DIIS: error= 1.24D-07 at cycle   6 NSaved=   6.
 NSaved= 6 IEnMin= 6 EnMin= -323.435312651253     IErMin= 6 ErrMin= 1.24D-07
 ErrMax= 1.24D-07  0.00D+00 EMaxC= 1.00D-01 BMatC= 1.12D-12 BMatP= 1.38D-11
 IDIUse=1 WtCom= 1.00D+00 WtEn= 0.00D+00
 Coeff-Com: -0.139D-02 0.297D-02 0.138D-01 0.212D-01 0.235D+00 0.729D+00
 Coeff:     -0.139D-02 0.297D-02 0.138D-01 0.212D-01 0.235D+00 0.729D+00
 Gap=     0.185 Goal=   None    Shift=    0.000
 RMSDP=2.48D-08 MaxDP=1.99D-07 DE=-1.05D-11 OVMax= 4.44D-07

 Cycle  16  Pass 1  IDiag  1:
 E= -323.435312651255     Delta-E=       -0.000000000002 Rises=F Damp=F
 DIIS: error= 3.66D-08 at cycle   7 NSaved=   7.
 NSaved= 7 IEnMin= 7 EnMin= -323.435312651255     IErMin= 7 ErrMin= 3.66D-08
 ErrMax= 3.66D-08  0.00D+00 EMaxC= 1.00D-01 BMatC= 1.10D-13 BMatP= 1.12D-12
 IDIUse=1 WtCom= 1.00D+00 WtEn= 0.00D+00
 Coeff-Com:  0.624D-05-0.458D-02-0.257D-02 0.428D-02 0.832D-01 0.354D+00
 Coeff-Com:  0.566D+00
 Coeff:      0.624D-05-0.458D-02-0.257D-02 0.428D-02 0.832D-01 0.354D+00
 Coeff:      0.566D+00
 Gap=     0.185 Goal=   None    Shift=    0.000
 RMSDP=7.67D-09 MaxDP=1.04D-07 DE=-2.05D-12 OVMax= 1.63D-07

 SCF Done:  E(RB3LYP) =  -323.435312651     A.U. after   16 cycles
            NFock= 16  Conv=0.77D-08     -V/T= 2.0049
 KE= 3.218513086648D+02 PE=-1.252859642660D+03 EE= 3.599648602818D+02
 Leave Link  502 at Thu Apr 14 10:51:15 2016, MaxMem=    33554432 cpu:        12.0
 (Enter /usr/local/gau/g09/l801.exe)
 DoSCS=F DFT=T ScalE2(SS,OS)=  1.000000  1.000000
 Range of M.O.s used for correlation:     1    68
 NBasis=    68 NAE=    24 NBE=    24 NFC=     0 NFV=     0
 NROrb=     68 NOA=    24 NOB=    24 NVA=    44 NVB=    44
 Leave Link  801 at Thu Apr 14 10:51:15 2016, MaxMem=    33554432 cpu:         0.0
 (Enter /usr/local/gau/g09/l1101.exe)
 Using compressed storage, NAtomX=    13.
 Will process     14 centers per pass.
 Leave Link 1101 at Thu Apr 14 10:51:15 2016, MaxMem=    33554432 cpu:         0.1
 (Enter /usr/local/gau/g09/l1102.exe)
 Symmetrizing basis deriv contribution to polar:
 IMax=3 JMax=2 DiffMx= 0.00D+00
 Leave Link 1102 at Thu Apr 14 10:51:15 2016, MaxMem=    33554432 cpu:         0.0
 (Enter /usr/local/gau/g09/l1110.exe)
 Forming Gx(P) for the SCF density, NAtomX=    13.
 Integral derivatives from FoFJK, PRISM(SPDF).
 Do as many integral derivatives as possible in FoFJK.
 G2DrvN: MDV=      33554224.
 G2DrvN: will do    14 centers at a time, making    1 passes.
 Calling FoFCou, ICntrl=  3107 FMM=F I1Cent=   0 AccDes= 0.00D+00.
 FoFJK:  IHMeth= 1 ICntrl=    3107 DoSepK=F KAlg= 0 I1Cent=   0 FoldK=F
 IRaf=         0 NMat=   1 IRICut=       1 DoRegI=T DoRafI=F ISym2E= 0.
 FoFCou: FMM=F IPFlag=           0 FMFlag=      100000 FMFlg1=           0
         NFxFlg=           0 DoJE=F BraDBF=F KetDBF=F FulRan=T
         wScrn=  0.000000 ICntrl=    3107 IOpCl=  0 I1Cent=           0 NGrid=           0
         NMat0=    1 NMatS0=      1 NMatT0=    0 NMatD0=    1 NMtDS0=    0 NMtDT0=    0
 Symmetry not used in FoFCou.
 End of G2Drv F.D. properties file   721 does not exist.
 End of G2Drv F.D. properties file   722 does not exist.
 End of G2Drv F.D. properties file   788 does not exist.
 Leave Link 1110 at Thu Apr 14 10:52:03 2016, MaxMem=    33554432 cpu:        23.9
 (Enter /usr/local/gau/g09/l1002.exe)
 Minotr:  Closed shell wavefunction.
          IDoAtm=1111111111111
          Direct CPHF calculation.
          Differentiating once with respect to nuclear coordinates.
          Requested convergence is 1.0D-08 RMS, and 1.0D-07 maximum.
          Secondary convergence is 1.0D-12 RMS, and 1.0D-12 maximum.
          NewPWx=T KeepS1=F KeepF1=F KeepIn=T MapXYZ=F SortEE=F KeepMc=T.
          MDV=      33554230 using IRadAn=       2.
 Generate precomputed XC quadrature information.
 Keep R1 ints in memory in canonical form, NReq=3645297.
 FoFCou: FMM=F IPFlag=           0 FMFlag=           0 FMFlg1=           0
         NFxFlg=           0 DoJE=F BraDBF=F KetDBF=F FulRan=T
         wScrn=  0.000000 ICntrl=     600 IOpCl=  0 I1Cent=           0 NGrid=           0
         NMat0=    1 NMatS0=   2346 NMatT0=    0 NMatD0=    1 NMtDS0=    0 NMtDT0=    0
 Symmetry not used in FoFCou.
          Solving linear equations simultaneously, MaxMat=       0.
          There are    42 degrees of freedom in the 1st order CPHF.  IDoFFX=6 NUNeed=     0.
     36 vectors produced by pass  0 Test12= 2.51D-15 2.38D-09 XBig12= 1.57D-01 1.28D-01.
 AX will form    36 AO Fock derivatives at one time.
     36 vectors produced by pass  1 Test12= 2.51D-15 2.38D-09 XBig12= 3.28D-02 3.93D-02.
     36 vectors produced by pass  2 Test12= 2.51D-15 2.38D-09 XBig12= 2.10D-04 2.53D-03.
     36 vectors produced by pass  3 Test12= 2.51D-15 2.38D-09 XBig12= 2.92D-07 6.37D-05.
     36 vectors produced by pass  4 Test12= 2.51D-15 2.38D-09 XBig12= 2.36D-10 2.07D-06.
     18 vectors produced by pass  5 Test12= 2.51D-15 2.38D-09 XBig12= 1.24D-13 5.64D-08.
 InvSVY:  IOpt=1 It=  1 EMax= 3.00D-15
 Solved reduced A of dimension   198 with    36 vectors.
 End of Minotr F.D. properties file   721 does not exist.
 End of Minotr F.D. properties file   722 does not exist.
 End of Minotr F.D. properties file   788 does not exist.
 Leave Link 1002 at Thu Apr 14 10:52:42 2016, MaxMem=    33554432 cpu:        15.7
 (Enter /usr/local/gau/g09/l601.exe)
 Copying SCF densities to generalized density rwf, IOpCl= 0 IROHF=0.

 **********************************************************************

            Population analysis using the SCF density.

 **********************************************************************

 Orbital symmetries:
       Occupied  (A) (A) (A) (A) (A) (A) (A) (A) (A) (A) (A) (A)
                 (A) (A) (A) (A) (A) (A) (A) (A) (A) (A) (A) (A)
       Virtual   (A) (A) (A) (A) (A) (A) (A) (A) (A) (A) (A) (A)
                 (A) (A) (A) (A) (A) (A) (A) (A) (A) (A) (A) (A)
                 (A) (A) (A) (A) (A) (A) (A) (A) (A) (A) (A) (A)
                 (A) (A) (A) (A) (A) (A) (A) (A)
 The electronic state is 1-A.
 Alpha  occ. eigenvalues --  -19.15365 -19.12521 -14.32238 -10.27093 -10.24042
 Alpha  occ. eigenvalues --  -10.22707  -1.05091  -0.97453  -0.91095  -0.82221
 Alpha  occ. eigenvalues --   -0.71167  -0.57892  -0.57230  -0.51981  -0.47673
 Alpha  occ. eigenvalues --   -0.47087  -0.43906  -0.42361  -0.39077  -0.33933
 Alpha  occ. eigenvalues --   -0.30325  -0.28943  -0.27535  -0.16107
 Alpha virt. eigenvalues --    0.02435   0.05199   0.06515   0.09377   0.11660
 Alpha virt. eigenvalues --    0.12880   0.14482   0.15270   0.19917   0.23134
 Alpha virt. eigenvalues --    0.30074   0.37771   0.45435   0.50525   0.53286
 Alpha virt. eigenvalues --    0.57497   0.62032   0.62591   0.62668   0.68024
 Alpha virt. eigenvalues --    0.72656   0.75944   0.78038   0.80552   0.82569
 Alpha virt. eigenvalues --    0.84826   0.86531   0.88556   0.91883   0.92514
 Alpha virt. eigenvalues --    0.93928   0.96130   1.00758   1.06182   1.08658
 Alpha virt. eigenvalues --    1.12323   1.15597   1.22509   1.28495   1.36573
 Alpha virt. eigenvalues --    1.52899   1.58442   1.81407   1.99971
          Condensed to atoms (all electrons):
               1          2          3          4          5          6
     1  N    7.007856   0.327433   0.184521   0.007329  -0.055188  -0.018293
     2  H    0.327433   0.424802  -0.025831  -0.000442  -0.005689   0.004832
     3  C    0.184521  -0.025831   5.642699  -0.189630   0.385174   0.287292
     4  H    0.007329  -0.000442  -0.189630   0.735479  -0.058241  -0.017938
     5  C   -0.055188  -0.005689   0.385174  -0.058241   5.418538  -0.151494
     6  C   -0.018293   0.004832   0.287292  -0.017938  -0.151494   5.051473
     7  H    0.002118   0.000207  -0.045386  -0.002002   0.341938   0.005617
     8  H    0.003424   0.000030  -0.052766   0.034141   0.340849  -0.011448
     9  H    0.001422   0.001654  -0.041908   0.000089   0.338527   0.001180
    10  O   -0.001337   0.000301  -0.127412   0.018190   0.000812   0.248659
    11  H    0.333323  -0.024727  -0.030967  -0.000500   0.004603  -0.006925
    12  O    0.002881  -0.000045  -0.144144   0.189875  -0.034572   0.264375
    13  H    0.000713  -0.000007   0.003014  -0.000897  -0.000184  -0.036045
               7          8          9         10         11         12
     1  N    0.002118   0.003424   0.001422  -0.001337   0.333323   0.002881
     2  H    0.000207   0.000030   0.001654   0.000301  -0.024727  -0.000045
     3  C   -0.045386  -0.052766  -0.041908  -0.127412  -0.030967  -0.144144
     4  H   -0.002002   0.034141   0.000089   0.018190  -0.000500   0.189875
     5  C    0.341938   0.340849   0.338527   0.000812   0.004603  -0.034572
     6  C    0.005617  -0.011448   0.001180   0.248659  -0.006925   0.264375
     7  H    0.551458  -0.016606  -0.045023   0.000040  -0.000073   0.000915
     8  H   -0.016606   0.474355  -0.015653  -0.000067  -0.000172  -0.007384
     9  H   -0.045023  -0.015653   0.556907  -0.000006  -0.000075   0.000803
    10  O    0.000040  -0.000067  -0.000006   8.303492   0.014382  -0.078014
    11  H   -0.000073  -0.000172  -0.000075   0.014382   0.383570   0.000214
    12  O    0.000915  -0.007384   0.000803  -0.078014   0.000214   8.342925
    13  H    0.000038   0.000001  -0.000016   0.237615  -0.000753   0.003588
              13
     1  N    0.000713
     2  H   -0.000007
     3  C    0.003014
     4  H   -0.000897
     5  C   -0.000184
     6  C   -0.036045
     7  H    0.000038
     8  H    0.000001
     9  H   -0.000016
    10  O    0.237615
    11  H   -0.000753
    12  O    0.003588
    13  H    0.417929
 Mulliken charges:
               1
     1  N   -0.796202
     2  H    0.297482
     3  C    0.155343
     4  H    0.284547
     5  C   -0.525075
     6  C    0.378716
     7  H    0.206758
     8  H    0.251297
     9  H    0.202099
    10  O   -0.616654
    11  H    0.328100
    12  O   -0.541416
    13  H    0.375005
 Sum of Mulliken charges =   0.00000
 Mulliken charges with hydrogens summed into heavy atoms:
               1
     1  N   -0.170620
     3  C    0.439890
     5  C    0.135080
     6  C    0.378716
    10  O   -0.241650
    12  O   -0.541416
 APT charges:
               1
     1  N   -1.336165
     2  H    0.694654
     3  C    0.199022
     4  H    0.142907
     5  C   -1.201959
     6  C    0.086272
     7  H    0.470449
     8  H    0.402833
     9  H    0.469634
    10  O   -0.777930
    11  H    0.547564
    12  O   -0.354287
    13  H    0.657006
 Sum of APT charges =   0.00000
 APT charges with hydrogens summed into heavy atoms:
               1
     1  N   -0.093948
     3  C    0.341929
     5  C    0.140957
     6  C    0.086272
    10  O   -0.120923
    12  O   -0.354287
 Electronic spatial extent (au):  <R**2>=            599.5413
 Charge=              0.0000 electrons
 Dipole moment (field-independent basis, Debye):
    X=              4.3149    Y=              0.9717    Z=              1.0518  Tot=              4.5464
 Quadrupole moment (field-independent basis, Debye-Ang):
   XX=            -31.3306   YY=            -35.9333   ZZ=            -37.8812
   XY=             -5.1831   XZ=             -4.0853   YZ=              1.2361
 Traceless Quadrupole moment (field-independent basis, Debye-Ang):
   XX=              3.7178   YY=             -0.8849   ZZ=             -2.8328
   XY=             -5.1831   XZ=             -4.0853   YZ=              1.2361
 Octapole moment (field-independent basis, Debye-Ang**2):
  XXX=              2.0602  YYY=             13.9619  ZZZ=              0.7236  XYY=             11.4737
  XXY=             10.2805  XXZ=              7.9148  XZZ=             -3.7244  YZZ=             -0.2468
  YYZ=              0.1599  XYZ=             -4.4561
 Hexadecapole moment (field-independent basis, Debye-Ang**3):
 XXXX=           -343.4553 YYYY=           -259.1041 ZZZZ=            -42.7061 XXXY=             -6.1758
 XXXZ=            -20.1769 YYYX=             -4.8540 YYYZ=              0.0912 ZZZX=             -3.0200
 ZZZY=              0.1342 XXYY=           -112.5925 XXZZ=            -69.8110 YYZZ=            -57.9719
 XXYZ=              6.9637 YYXZ=             -4.8534 ZZXY=             -4.8896
 N-N= 2.476081610626D+02 E-N=-1.252859640254D+03  KE= 3.218513086648D+02
  Exact polarizability:   0.000   0.000   0.000   0.000   0.000   0.000
 Approx polarizability: 121.349  14.425  69.440  -2.416  -0.705  31.821
 No NMR shielding tensors so no spin-rotation constants.
 Leave Link  601 at Thu Apr 14 10:52:43 2016, MaxMem=    33554432 cpu:         0.1
 (Enter /usr/local/gau/g09/l701.exe)
 Compute integral second derivatives.
 ... and contract with generalized density number  0.
 Leave Link  701 at Thu Apr 14 10:52:43 2016, MaxMem=    33554432 cpu:         0.1
 (Enter /usr/local/gau/g09/l702.exe)
 L702 exits ... SP integral derivatives will be done elsewhere.
 Leave Link  702 at Thu Apr 14 10:52:43 2016, MaxMem=    33554432 cpu:         0.0
 (Enter /usr/local/gau/g09/l703.exe)
 Compute integral second derivatives, UseDBF=F ICtDFT=           0.
 Integral derivatives from FoFJK, PRISM(SPDF).
 Calling FoFJK, ICntrl=    100147 FMM=F ISym2X=0 I1Cent= 0 IOpClX= 0 NMat=1 NMatS=1 NMatT=0.
 FoFJK:  IHMeth= 1 ICntrl=  100147 DoSepK=F KAlg= 0 I1Cent=   0 FoldK=F
 IRaf=         0 NMat=   1 IRICut=       1 DoRegI=T DoRafI=F ISym2E= 0.
 FoFCou: FMM=F IPFlag=           0 FMFlag=      100000 FMFlg1=         800
         NFxFlg=           0 DoJE=F BraDBF=F KetDBF=F FulRan=T
         wScrn=  0.000000 ICntrl=  100147 IOpCl=  0 I1Cent=           0 NGrid=           0
         NMat0=    1 NMatS0=      1 NMatT0=    0 NMatD0=    1 NMtDS0=    0 NMtDT0=    0
 Symmetry not used in FoFCou.
 Leave Link  703 at Thu Apr 14 10:53:44 2016, MaxMem=    33554432 cpu:        24.8
 (Enter /usr/local/gau/g09/l716.exe)
 Dipole        = 1.69762945D+00 3.82307763D-01 4.13827176D-01
 Polarizability= 0.00000000D+00 0.00000000D+00 0.00000000D+00
                 0.00000000D+00 0.00000000D+00 0.00000000D+00
 ***** Axes restored to original set *****
 -------------------------------------------------------------------
 Center     Atomic                   Forces (Hartrees/Bohr)
 Number     Number              X              Y              Z
 -------------------------------------------------------------------
      1        7           0.013613745    0.007778590    0.000467823
      2        1          -0.000230289    0.001507642   -0.001409013
      3        6           0.008227994    0.052119702   -0.000436612
      4        1          -0.072480825   -0.064010486    0.005029835
      5        6           0.023461581    0.008698464    0.000199651
      6        6          -0.057895751    0.018515534    0.005601723
      7        1          -0.005453495   -0.003091347    0.002247130
      8        1           0.010600137   -0.024305366   -0.000190537
      9        1          -0.005633082   -0.003277850   -0.001985437
     10        8           0.013433200    0.002282034    0.001976568
     11        1          -0.001101932   -0.002044732   -0.000469379
     12        8           0.074522809    0.009568864   -0.008434230
     13        1          -0.001064092   -0.003741048   -0.002597523
 -------------------------------------------------------------------
 Cartesian Forces:  Max     0.074522809 RMS     0.024542180
 Force constants in Cartesian coordinates: 
                1             2             3             4             5 
      1  0.868292D+00
      2 -0.327560D-01  0.760336D+00
      3 -0.123117D-01 -0.446892D-01  0.729751D-02
      4 -0.471862D+00 -0.262357D-01  0.313859D-01  0.489137D+00
      5 -0.228656D-01 -0.742077D-01  0.545320D-02  0.310417D-01  0.723278D-01
      6  0.440855D-01  0.554003D-02  0.438587D-02 -0.364534D-01 -0.460168D-02
      7 -0.168951D+00 -0.968361D-01  0.303172D-02 -0.981925D-02 -0.372017D-01
      8 -0.100506D+00 -0.296534D+00  0.706017D-02  0.534938D-02 -0.393490D-02
      9 -0.324042D-02 -0.322251D-02 -0.149571D-01  0.133175D-02  0.286840D-02
     10 -0.181530D-01 -0.881978D-02 -0.223088D-02  0.199895D-03 -0.230774D-02
     11 -0.118632D-02 -0.281149D-02  0.261518D-04 -0.429504D-03  0.212203D-02
     12 -0.330464D-03 -0.964681D-03 -0.807630D-02  0.160567D-03  0.362907D-03
     13  0.126238D-01 -0.143659D-01  0.811671D-03  0.124379D-02 -0.552612D-03
     14  0.290759D-01 -0.373159D-01  0.696792D-04  0.109656D-02  0.221554D-02
     15  0.477351D-03  0.894508D-03  0.420728D-02 -0.229284D-03  0.114792D-04
     16 -0.185470D-01 -0.142752D-02  0.780711D-04  0.334633D-03  0.957525D-03
     17 -0.496121D-01 -0.871116D-02 -0.359396D-03 -0.460489D-03 -0.696377D-02
     18 -0.257050D-02 -0.440827D-02  0.997378D-02  0.649479D-03  0.133322D-03
     19  0.261124D-02 -0.425559D-03  0.256623D-02  0.376759D-03  0.435536D-03
     20 -0.104724D-02  0.292236D-02 -0.176144D-02 -0.424211D-03 -0.616464D-03
     21  0.734566D-03  0.474691D-03 -0.477835D-03 -0.530516D-04  0.658086D-03
     22 -0.423607D-02  0.254605D-02 -0.577176D-04 -0.134156D-03  0.594060D-03
     23  0.740414D-02 -0.757460D-03  0.494051D-03  0.286107D-03  0.480018D-03
     24  0.218994D-03 -0.477871D-04  0.122270D-02 -0.100822D-03 -0.140489D-04
     25  0.258013D-02 -0.618130D-03 -0.226040D-02  0.413222D-03  0.653457D-03
     26 -0.431831D-03  0.321076D-02  0.151138D-02 -0.864836D-03 -0.588479D-03
     27 -0.726874D-03 -0.551092D-03 -0.415317D-03  0.961837D-04 -0.777966D-03
     28 -0.363752D-03 -0.352025D-02 -0.544653D-03  0.118659D-03  0.124772D-02
     29 -0.514126D-03  0.832245D-02  0.266033D-02 -0.101645D-02  0.116219D-02
     30  0.590928D-03 -0.180066D-02 -0.270659D-02  0.298544D-03  0.381108D-03
     31 -0.198724D+00  0.185530D+00 -0.199185D-01 -0.107008D-01  0.294197D-01
     32  0.183543D+00 -0.340552D+00  0.330609D-01 -0.920181D-02  0.839793D-02
     33 -0.276044D-01  0.461297D-01 -0.791357D-02  0.342011D-02 -0.411274D-02
     34 -0.535397D-02 -0.408418D-02 -0.165232D-03  0.797848D-03 -0.137939D-02
     35 -0.104380D-01 -0.141030D-01 -0.203470D-02  0.100373D-02 -0.487425D-03
     36  0.569641D-03  0.135047D-02  0.798131D-02 -0.334088D-03 -0.278159D-03
     37  0.843535D-04  0.101336D-02 -0.384475D-03 -0.105056D-03 -0.426442D-04
     38 -0.665078D-03  0.200757D-03 -0.149118D-02 -0.144419D-03  0.932006D-04
     39  0.107304D-03  0.129478D-02 -0.521782D-03 -0.171907D-03 -0.839146D-04
                6             7             8             9            10 
      6  0.706263D-03
      7 -0.140464D-02  0.853572D+00
      8 -0.192032D-02  0.860064D-01  0.684333D+00
      9 -0.563391D-02 -0.640850D-02 -0.468748D-02  0.826687D-01
     10  0.406959D-03  0.239951D-01 -0.328456D-01  0.379647D-02 -0.438687D-01
     11  0.175509D-03 -0.197998D-01 -0.384642D-01 -0.229214D-02 -0.506647D-01
     12 -0.782937D-03  0.186750D-02 -0.125964D-03  0.219037D-01  0.466741D-02
     13 -0.737586D-04 -0.130134D+00  0.674897D-01 -0.200570D-02 -0.214711D-01
     14  0.340555D-03  0.310391D-01 -0.169119D+00 -0.626480D-03 -0.805293D-02
     15  0.335417D-02 -0.211448D-03 -0.122760D-02 -0.612068D-01  0.119045D-02
     16 -0.142471D-02 -0.516072D+00 -0.547826D-01  0.256533D-02  0.289456D-01
     17 -0.630034D-03 -0.128533D-01 -0.103639D+00  0.157045D-02  0.110663D+00
     18 -0.234215D-02  0.850753D-02  0.515089D-02 -0.351465D-01 -0.510906D-02
     19 -0.326201D-03 -0.220794D-01  0.557611D-02 -0.156715D-01  0.644252D-02
     20  0.881575D-03  0.255430D-01 -0.149715D-02  0.232546D-01  0.317814D-02
     21 -0.580347D-03 -0.147831D-02  0.144652D-02  0.693112D-02 -0.360809D-02
     22 -0.176836D-03  0.211668D-01  0.218727D-01  0.439511D-03 -0.251723D-02
     23  0.122557D-04 -0.209209D-01 -0.269794D-01 -0.102034D-02  0.308564D-01
     24 -0.714010D-03  0.149182D-03  0.281262D-03 -0.446856D-02 -0.507666D-03
     25  0.269163D-03 -0.222535D-01  0.577942D-02  0.148504D-01  0.590547D-02
     26 -0.602939D-03  0.261804D-01 -0.154559D-02 -0.229321D-01  0.310838D-02
     27 -0.453903D-03  0.179371D-02 -0.157678D-02  0.638055D-02  0.332417D-02
     28 -0.634461D-03 -0.259754D-01  0.449996D-01 -0.279070D-02 -0.681837D-02
     29 -0.453573D-03  0.625483D-02 -0.198009D-01  0.711692D-03 -0.816168D-02
     30 -0.265325D-03  0.245919D-03  0.101752D-04  0.398139D-02 -0.201649D-02
     31 -0.497389D-02  0.115627D-01 -0.161772D-01  0.188294D-02  0.132671D-02
     32 -0.167660D-04  0.174761D-01 -0.229829D-01  0.317127D-02  0.231698D-02
     33 -0.489214D-03 -0.656257D-03 -0.468675D-02 -0.146153D-02  0.692685D-03
     34  0.380097D-03 -0.155728D-01 -0.345651D-01  0.330997D-02  0.252184D-01
     35  0.110794D-02 -0.317530D-02  0.403634D-02  0.368398D-02 -0.424684D-01
     36  0.293599D-02 -0.213751D-02 -0.411572D-04  0.186212D-02 -0.347426D-02
     37  0.326112D-03  0.561255D-03  0.180344D-02  0.194043D-02  0.794739D-03
     38  0.167446D-03 -0.171276D-02 -0.387241D-02 -0.479330D-03  0.319825D-02
     39 -0.120497D-03 -0.329889D-02  0.317030D-03 -0.853268D-03  0.286829D-02
               11            12            13            14            15 
     11  0.652143D-01
     12  0.947717D-02 -0.358775D-01
     13 -0.114847D-01 -0.103042D-02  0.555418D+00
     14  0.459576D-01  0.536057D-03  0.600539D-01  0.496327D+00
     15 -0.786550D-03  0.378880D-02  0.451544D-03 -0.116022D-02  0.528002D+00
     16  0.471355D-01  0.318246D-02 -0.413296D-01  0.828302D-02 -0.198811D-02
     17 -0.173444D-01 -0.948530D-02  0.197751D-01  0.769694D-02  0.221289D-02
     18 -0.402465D-02  0.316616D-01  0.177718D-02 -0.224517D-03 -0.862563D-02
     19  0.501029D-04  0.410321D-03 -0.131238D+00 -0.714585D-02 -0.119425D+00
     20 -0.601664D-02 -0.780472D-03 -0.501440D-02 -0.442528D-01 -0.756709D-03
     21  0.794648D-03  0.263257D-02 -0.117463D+00 -0.337631D-02 -0.223303D+00
     22  0.139815D-02 -0.135078D-02 -0.111070D+00 -0.100932D+00 -0.397043D-03
     23 -0.174304D-01  0.466580D-03 -0.120736D+00 -0.250140D+00 -0.910851D-03
     24 -0.143980D-04  0.865753D-02 -0.456741D-04 -0.552332D-04 -0.351971D-01
     25  0.176707D-03 -0.122030D-03 -0.132661D+00 -0.897081D-02  0.118855D+00
     26 -0.567938D-02  0.646968D-03 -0.645544D-02 -0.452138D-01  0.229174D-02
     27 -0.790742D-03  0.238295D-02  0.117252D+00  0.579620D-02 -0.219847D+00
     28 -0.398514D-02  0.955205D-03  0.162475D-02 -0.372097D-02  0.188816D-02
     29 -0.798252D-02  0.252265D-02 -0.169996D-03  0.246410D-02 -0.281112D-02
     30  0.358089D-02 -0.330130D-02  0.285693D-02  0.962494D-04  0.119703D-01
     31  0.159005D-02  0.127655D-03 -0.179836D-02 -0.439434D-02  0.175314D-03
     32  0.710760D-03  0.317678D-03 -0.373569D-02 -0.338550D-02  0.340582D-04
     33  0.154464D-03 -0.485490D-03 -0.240776D-03 -0.922983D-03 -0.154977D-03
     34  0.375836D-01 -0.830948D-02  0.281475D-04  0.372661D-02  0.140265D-02
     35 -0.208965D-01 -0.226523D-02  0.158483D-01 -0.563294D-02  0.168450D-03
     36 -0.603155D-02 -0.231202D-01 -0.396119D-04 -0.561429D-03 -0.324973D-02
     37 -0.383907D-03 -0.227942D-03 -0.123567D-02 -0.579902D-04 -0.218945D-02
     38  0.262077D-02 -0.708375D-03 -0.652071D-03  0.398362D-03  0.203993D-02
     39 -0.268807D-03  0.616619D-03 -0.225025D-02  0.884394D-04  0.262546D-03
               16            17            18            19            20 
     16  0.828908D+00
     17 -0.187725D-01  0.515881D+00
     18 -0.278613D-01 -0.103409D-01  0.946011D-01
     19  0.161457D-02  0.156421D-02 -0.317833D-02  0.143259D+00
     20 -0.271941D-02 -0.505627D-02  0.245609D-02 -0.259466D-02  0.498856D-01
     21  0.352525D-02  0.405999D-03 -0.113699D-02  0.130778D+00  0.135464D-02
     22 -0.705734D-03 -0.914945D-02  0.614591D-03 -0.921952D-02 -0.181744D-01
     23 -0.720133D-02 -0.532617D-02  0.900153D-03  0.114475D-02  0.104507D-02
     24 -0.165502D-04 -0.428703D-03 -0.165874D-03 -0.125708D-01 -0.240681D-01
     25  0.249052D-02  0.294272D-03  0.370616D-02  0.111200D-01  0.587288D-03
     26 -0.328638D-02 -0.545220D-02 -0.209000D-02  0.341395D-03  0.140921D-02
     27 -0.352338D-02 -0.460820D-03 -0.707550D-03  0.161221D-01  0.145754D-02
     28 -0.140970D+00  0.833878D-01 -0.395845D-02 -0.688222D-03  0.748079D-03
     29  0.617202D-01 -0.161964D+00  0.289320D-01  0.100868D-02  0.966189D-04
     30  0.258984D-01 -0.817382D-02 -0.570918D-01  0.134153D-02 -0.236543D-02
     31  0.306013D-02 -0.541870D-02 -0.826144D-03 -0.213814D-03  0.215868D-03
     32  0.147390D-02 -0.313226D-02  0.109762D-03 -0.245420D-03  0.190050D-03
     33 -0.347322D-03  0.788146D-03  0.413715D-02  0.114374D-03 -0.155906D-03
     34 -0.122435D+00 -0.125226D+00  0.943716D-02 -0.180362D-02 -0.911581D-03
     35 -0.674920D-01 -0.197169D+00  0.105476D-01  0.194685D-03  0.234453D-02
     36  0.618478D-02  0.163515D-01 -0.389634D-01  0.511311D-04  0.652360D-03
     37 -0.252938D-01  0.580882D-02  0.188117D-01 -0.180857D-03  0.613558D-03
     38  0.361115D-01 -0.881965D-02 -0.271414D-01  0.960222D-04 -0.454182D-03
     39 -0.627294D-02  0.854998D-02  0.380619D-02 -0.211310D-03 -0.168716D-03
               21            22            23            24            25 
     21  0.239864D+00
     22  0.223458D-02  0.126282D+00
     23  0.102205D-02  0.113345D+00  0.289828D+00
     24 -0.302393D-03  0.595190D-03  0.225633D-03  0.301212D-01
     25 -0.156134D-01 -0.913977D-02  0.124262D-02  0.122397D-01  0.145180D+00
     26 -0.106983D-02 -0.178911D-01  0.111099D-02  0.238256D-01 -0.857155D-03
     27 -0.233148D-01 -0.256147D-02 -0.970559D-03 -0.629913D-04 -0.130594D+00
     28 -0.230103D-03  0.795637D-03  0.785553D-03 -0.813775D-04 -0.128026D-02
     29  0.332843D-03  0.130764D-02  0.165651D-02  0.649400D-04  0.206532D-02
     30 -0.492599D-03 -0.515160D-03  0.440340D-03  0.146718D-03 -0.138728D-02
     31  0.331282D-04  0.117928D-02 -0.118071D-02 -0.611677D-04 -0.199561D-03
     32  0.550227D-04  0.884433D-03 -0.975502D-03  0.267074D-04 -0.157701D-03
     33  0.218890D-03  0.186751D-03 -0.286820D-03  0.101724D-02 -0.115302D-03
     34  0.915552D-03 -0.124952D-01 -0.490162D-02  0.995754D-04 -0.257223D-02
     35 -0.203570D-02  0.470166D-02  0.796830D-02  0.231170D-03  0.180640D-03
     36 -0.185239D-03  0.102685D-02  0.157935D-03 -0.289467D-03  0.261414D-03
     37  0.225155D-03  0.931563D-04 -0.123796D-03  0.813669D-04  0.417763D-03
     38 -0.626636D-04 -0.502580D-03 -0.480260D-03 -0.270677D-04 -0.375933D-03
     39  0.146970D-03 -0.384620D-04 -0.530434D-03  0.349859D-04 -0.899536D-04
               26            27            28            29            30 
     26  0.505542D-01
     27 -0.359629D-02  0.236011D+00
     28  0.203881D-02  0.322258D-03  0.334322D+00
     29 -0.612552D-03 -0.375125D-03 -0.123620D+00  0.249922D+00
     30  0.222079D-02 -0.180104D-04 -0.224132D+00 -0.148433D-01  0.320703D+00
     31  0.310030D-03 -0.559548D-04 -0.693431D-03  0.378230D-02  0.321659D-03
     32  0.208719D-03 -0.328557D-04  0.194726D-02  0.156757D-02  0.287109D-03
     33  0.783631D-04  0.216608D-03 -0.889089D-04 -0.186948D-02 -0.251184D-02
     34 -0.163031D-02 -0.131072D-02  0.177307D-01  0.269841D-01 -0.347971D-02
     35  0.250202D-02  0.195731D-02 -0.651461D-02 -0.473765D-01  0.511430D-02
     36 -0.453837D-03  0.787922D-05 -0.791788D-03  0.344828D-02  0.847742D-02
     37 -0.561999D-03 -0.138209D-03 -0.177802D+00  0.303589D-01  0.199977D+00
     38  0.960936D-04 -0.788179D-04  0.620589D-02 -0.274553D-01  0.150523D-01
     39  0.170115D-03 -0.179165D-03  0.230087D+00 -0.183201D-01 -0.278892D+00
               31            32            33            34            35 
     31  0.196769D+00
     32 -0.194181D+00  0.357926D+00
     33  0.231993D-01 -0.364917D-01  0.902670D-02
     34 -0.164683D-02 -0.476491D-04  0.222091D-03  0.116545D+00
     35 -0.625044D-04  0.135542D-02  0.485794D-03  0.109557D+00  0.266995D+00
     36  0.392132D-04 -0.387894D-03 -0.169903D-02 -0.808524D-03 -0.164512D-01
     37  0.789861D-04 -0.720054D-04  0.121761D-02  0.156019D-02 -0.133536D-02
     38  0.566793D-03  0.672295D-03  0.889938D-03 -0.510530D-02  0.463894D-03
     39  0.564627D-04 -0.133289D-03  0.990636D-04 -0.169342D-02 -0.509642D-03
               36            37            38            39 
     36  0.471568D-01
     37 -0.547255D-03  0.201027D+00
     38  0.224468D-02 -0.370204D-01  0.365364D-01
     39 -0.914431D-03 -0.219092D+00  0.959459D-02  0.276514D+00
 FormGI is forming the generalized inverse of G from B-inverse, IUseBI=4.
 Leave Link  716 at Thu Apr 14 10:53:44 2016, MaxMem=    33554432 cpu:         0.0
 (Enter /usr/local/gau/g09/l103.exe)

 GradGradGradGradGradGradGradGradGradGradGradGradGradGradGradGradGradGrad
 Berny optimization.
 Red2BG is reusing G-inverse.
 Internal  Forces:  Max     0.215220149 RMS     0.047979570
 Search for a saddle point.
 Step number   1 out of a maximum of   58
 All quantities printed in internal units (Hartrees-Bohrs-Radians)
 Swapping is turned off.
 Second derivative matrix not updated -- analytic derivatives used.
 ITU=  0
     Eigenvalues ---   -0.57986  -0.06661  -0.00563  -0.00279   0.00111
     Eigenvalues ---    0.00574   0.01204   0.02344   0.02527   0.05894
     Eigenvalues ---    0.06527   0.08230   0.09271   0.11397   0.12760
     Eigenvalues ---    0.13405   0.14555   0.16155   0.20435   0.22463
     Eigenvalues ---    0.23901   0.28866   0.32567   0.32657   0.33350
     Eigenvalues ---    0.34228   0.37380   0.46579   0.46653   0.49057
     Eigenvalues ---    0.49776   0.59086   1.58240
 Eigenvectors required to have negative eigenvalues:
                          A16       A14       R6        A13       A6
   1                    0.74590  -0.35807   0.29022   0.22604  -0.18421
                          R5        A8        R8        A15       R4
   1                   -0.16691   0.14262   0.13756   0.13244  -0.11530
 Eigenvalue     2 is  -6.66D-02 should be greater than     0.000000 Eigenvector:
                          D15       D16       D17       D12       D14
   1                    0.64891   0.45937   0.45384  -0.19584  -0.16900
                          A9        D9        A7        D6        D19
   1                    0.13714  -0.13069  -0.12030  -0.10502   0.08914
 Eigenvalue     3 is  -5.63D-03 should be greater than     0.000000 Eigenvector:
                          D1        D2        D6        D7        D5
   1                   -0.66777  -0.57306   0.22429   0.19408   0.19361
                          D12       D9        D10       D8        D13
   1                   -0.16578   0.12780   0.09759   0.09712   0.09008
 Eigenvalue     4 is  -2.79D-03 should be greater than     0.000000 Eigenvector:
                          D9        D6        D10       D1        D8
   1                   -0.35595  -0.32576  -0.30649  -0.30426  -0.29601
                          D19       D7        D2        D5        D14
   1                   -0.28179  -0.27630  -0.27477  -0.26582   0.20677
 RFO step:  Lambda0=1.067885814D-01 Lambda=-8.91743179D-02.
 Linear search not attempted -- option 19 set.
 Maximum step size (   0.300) exceeded in Quadratic search.
    -- Step size scaled by   0.408
 Iteration  1 RMS(Cart)=  0.07708566 RMS(Int)=  0.00996538
 Iteration  2 RMS(Cart)=  0.01060335 RMS(Int)=  0.00053834
 Iteration  3 RMS(Cart)=  0.00018566 RMS(Int)=  0.00052707
 Iteration  4 RMS(Cart)=  0.00000008 RMS(Int)=  0.00052707
 ITry= 1 IFail=0 DXMaxC= 2.86D-01 DCOld= 1.00D+10 DXMaxT= 3.00D-01 DXLimC= 3.00D+00 Rises=F
 Variable       Old X    -DE/DX   Delta X   Delta X   Delta X     New X
                                 (Linear)    (Quad)   (Total)
    R1        1.89636   0.00000   0.00000   0.00017   0.00017   1.89653
    R2        2.63279   0.01191   0.00000   0.01286   0.01286   2.64565
    R3        1.89992  -0.00102   0.00000   0.00014   0.00014   1.90006
    R4        2.84087   0.03860   0.00000   0.06572   0.06572   2.90659
    R5        2.54221  -0.03100   0.00000   0.01365   0.01365   2.55586
    R6        2.24381   0.01196   0.00000  -0.20322  -0.20322   2.04059
    R7        2.07561  -0.00138   0.00000  -0.00013  -0.00013   2.07548
    R8        2.06050   0.10770   0.00000   0.04631   0.04631   2.10680
    R9        2.07718  -0.00178   0.00000  -0.00777  -0.00777   2.06941
   R10        2.66481  -0.00825   0.00000   0.00201   0.00201   2.66682
   R11        2.64885  -0.04562   0.00000  -0.07224  -0.07224   2.57661
   R12        1.85468  -0.00154   0.00000  -0.00160  -0.00160   1.85309
    A1        2.10258   0.00301   0.00000   0.00533   0.00395   2.10653
    A2        2.07788   0.00033   0.00000  -0.00256  -0.00402   2.07386
    A3        2.08053  -0.00367   0.00000  -0.02203  -0.02342   2.05712
    A4        2.03345   0.01637   0.00000   0.00110   0.00109   2.03453
    A5        2.10966   0.03027   0.00000   0.05110   0.05108   2.16075
    A6        2.14004  -0.04663   0.00000  -0.05228  -0.05229   2.08776
    A7        1.93153  -0.03161   0.00000  -0.06185  -0.06136   1.87017
    A8        1.93081   0.14434   0.00000   0.04141   0.04054   1.97135
    A9        1.93804  -0.03643   0.00000   0.04161   0.04104   1.97907
   A10        1.88943  -0.04971   0.00000  -0.04607  -0.04602   1.84341
   A11        1.87473   0.01373   0.00000   0.03111   0.03165   1.90638
   A12        1.89759  -0.04523   0.00000  -0.00809  -0.00976   1.88783
   A13        2.10339   0.03889   0.00000  -0.03108  -0.03108   2.07231
   A14        2.16418  -0.09845   0.00000  -0.00144  -0.00145   2.16274
   A15        2.01544   0.05968   0.00000   0.03265   0.03264   2.04808
   A16        1.41064   0.21522   0.00000  -0.12924  -0.12924   1.28139
   A17        1.92628  -0.00344   0.00000  -0.00794  -0.00794   1.91835
    D1        0.10954   0.00104   0.00000   0.10689   0.10686   0.21640
    D2       -3.04060   0.00151   0.00000   0.09714   0.09677  -2.94383
    D3        3.02427  -0.00061   0.00000   0.00958   0.00995   3.03422
    D4       -0.12587  -0.00014   0.00000  -0.00017  -0.00014  -0.12601
    D5        1.03078  -0.01513   0.00000  -0.03124  -0.03135   0.99944
    D6        3.12490  -0.00378   0.00000  -0.10223  -0.10274   3.02216
    D7       -1.04963   0.01185   0.00000  -0.05682  -0.05580  -1.10542
    D8       -2.10210  -0.01602   0.00000  -0.02187  -0.02224  -2.12434
    D9       -0.00799  -0.00467   0.00000  -0.09286  -0.09363  -0.10162
   D10        2.10067   0.01096   0.00000  -0.04744  -0.04669   2.05398
   D11        0.09061  -0.00194   0.00000  -0.01430  -0.01430   0.07631
   D12       -3.03040  -0.00957   0.00000  -0.02278  -0.02274  -3.05314
   D13       -3.06006  -0.00111   0.00000  -0.02435  -0.02439  -3.08446
   D14        0.10211  -0.00873   0.00000  -0.03283  -0.03283   0.06928
   D15        0.02105  -0.00461   0.00000   0.22855   0.22856   0.24962
   D16        2.14023   0.01343   0.00000   0.14819   0.14800   2.28823
   D17       -2.11148  -0.02153   0.00000   0.15572   0.15589  -1.95559
   D18       -2.14441  -0.00608   0.00000  -0.04154  -0.04158  -2.18600
   D19        0.97827  -0.00087   0.00000  -0.03407  -0.03403   0.94424
         Item               Value     Threshold  Converged?
 Maximum Force            0.215220     0.000450     NO 
 RMS     Force            0.047980     0.000300     NO 
 Maximum Displacement     0.285647     0.001800     NO 
 RMS     Displacement     0.078911     0.001200     NO 
 Predicted change in Energy=-2.934027D-04
 Lowest energy point so far.  Saving SCF results.
 GradGradGradGradGradGradGradGradGradGradGradGradGradGradGradGradGradGrad

 Leave Link  103 at Thu Apr 14 10:53:44 2016, MaxMem=    33554432 cpu:         0.0
 (Enter /usr/local/gau/g09/l202.exe)
                          Input orientation:                          
 ---------------------------------------------------------------------
 Center     Atomic      Atomic             Coordinates (Angstroms)
 Number     Number       Type             X           Y           Z
 ---------------------------------------------------------------------
      1          7           0        1.055524    1.403086    0.060356
      2          1           0        2.043448    1.467005   -0.104370
      3          6           0        0.402530    0.165403    0.017997
      4          1           0        0.006183   -1.259919   -0.142691
      5          6           0        1.298208   -1.084938    0.005313
      6          6           0       -0.942558    0.024241    0.009522
      7          1           0        1.930984   -1.039201    0.901839
      8          1           0        0.720568   -2.034388    0.093716
      9          1           0        1.935336   -1.154369   -0.882636
     10          8           0       -1.745975    1.182952   -0.049264
     11          1           0        0.494984    2.233345   -0.025866
     12          8           0       -1.581657   -1.178746    0.068349
     13          1           0       -2.381682    1.186828    0.697367
 ---------------------------------------------------------------------
                    Distance matrix (angstroms):
                    1          2          3          4          5
     1  N    0.000000
     2  H    1.003601   0.000000
     3  C    1.400019   2.098035   0.000000
     4  H    2.869484   3.404120   1.488105   0.000000
     5  C    2.500437   2.660794   1.538100   1.312193   0.000000
     6  C    2.428194   3.318248   1.352502   1.603853   2.500265
     7  H    2.727506   2.702993   2.137386   2.201049   1.098296
     8  H    3.453915   3.748199   2.223952   1.079831   1.114871
     9  H    2.864241   2.736601   2.214143   2.068886   1.095083
    10  O    2.812271   3.800454   2.378235   3.007724   3.796492
    11  H    1.005470   1.729503   2.070472   3.529231   3.414256
    12  O    3.690615   4.491238   2.397139   1.603859   2.882082
    13  H    3.502419   4.505892   3.042481   3.520536   4.379663
                    6          7          8          9         10
     6  C    0.000000
     7  H    3.191297   0.000000
     8  H    2.647834   1.763112   0.000000
     9  H    3.235326   1.788192   1.789792   0.000000
    10  O    1.411221   4.400294   4.056544   4.439552   0.000000
    11  H    2.635891   3.692193   4.275363   3.779586   2.475029
    12  O    1.363483   3.612870   2.456218   3.643379   2.370327
    13  H    1.973783   4.857582   4.512713   5.158901   0.980611
                   11         12         13
    11  H    0.000000
    12  O    3.995457   0.000000
    13  H    3.145389   2.575198   0.000000
 Stoichiometry    C3H7NO2
 Framework group  C1[X(C3H7NO2)]
 Deg. of freedom    33
 Full point group                 C1      NOp   1
 RotChk:  IX=0 Diff= 3.41D-02
 Largest Abelian subgroup         C1      NOp   1
 Largest concise Abelian subgroup C1      NOp   1
                         Standard orientation:                         
 ---------------------------------------------------------------------
 Center     Atomic      Atomic             Coordinates (Angstroms)
 Number     Number       Type             X           Y           Z
 ---------------------------------------------------------------------
      1          7           0        1.093969    1.464136    0.051600
      2          1           0        2.069376    1.646479   -0.098555
      3          6           0        0.594992    0.157086   -0.000308
      4          1           0        0.375038   -1.305233   -0.166739
      5          6           0        1.634402   -0.976659    0.000278
      6          6           0       -0.723148   -0.144523   -0.028594
      7          1           0        2.243920   -0.856823    0.906027
      8          1           0        1.173705   -1.988740    0.080212
      9          1           0        2.288184   -0.967577   -0.878183
     10          8           0       -1.658927    0.909454   -0.099277
     11          1           0        0.439121    2.221243   -0.042919
     12          8           0       -1.213979   -1.415633    0.020877
     13          1           0       -2.301359    0.835704    0.637906
 ---------------------------------------------------------------------
 Rotational constants (GHZ):      4.8178123      3.3483368      2.0108160
 Leave Link  202 at Thu Apr 14 10:53:44 2016, MaxMem=    33554432 cpu:         0.0
 (Enter /usr/local/gau/g09/l301.exe)
 Standard basis: 6-31G (6D, 7F)
 Ernie: Thresh=  0.10000D-02 Tol=  0.10000D-05 Strict=F.
 There are    68 symmetry adapted cartesian basis functions of A   symmetry.
 There are    68 symmetry adapted basis functions of A   symmetry.
    68 basis functions,   160 primitive gaussians,    68 cartesian basis functions
    24 alpha electrons       24 beta electrons
       nuclear repulsion energy       247.1628690916 Hartrees.
 IExCor=  402 DFT=T Ex+Corr=B3LYP ExCW=0 ScaHFX=  0.200000
 ScaDFX=  0.800000  0.720000  1.000000  0.810000 ScalE2=  1.000000  1.000000
 IRadAn=      0 IRanWt=     -1 IRanGd=            0 ICorTp=0 IEmpDi=  4
 NAtoms=   13 NActive=   13 NUniq=   13 SFac= 1.00D+00 NAtFMM=   60 NAOKFM=F Big=F
 Integral buffers will be    131072 words long.
 Raffenetti 2 integral format.
 Two-electron integral symmetry is turned on.
 Leave Link  301 at Thu Apr 14 10:53:44 2016, MaxMem=    33554432 cpu:         0.0
 (Enter /usr/local/gau/g09/l302.exe)
 NPDir=0 NMtPBC=     1 NCelOv=     1 NCel=       1 NClECP=     1 NCelD=      1
         NCelK=      1 NCelE2=     1 NClLst=     1 CellRange=     0.0.
 One-electron integrals computed using PRISM.
 NBasis=    68 RedAO= T EigKep=  2.94D-03  NBF=    68
 NBsUse=    68 1.00D-06 EigRej= -1.00D+00 NBFU=    68
 Precomputing XC quadrature grid using
 IXCGrd= 4 IRadAn=           0 IRanWt=          -1 IRanGd=           0 AccXCQ= 0.00D+00.
 Generated NRdTot=       0 NPtTot=           0 NUsed=           0 NTot=          32
 NSgBfM=    68    68    68    68    68 MxSgAt=    13 MxSgA2=    13.
 Leave Link  302 at Thu Apr 14 10:53:45 2016, MaxMem=    33554432 cpu:         0.2
 (Enter /usr/local/gau/g09/l303.exe)
 DipDrv:  MaxL=1.
 Leave Link  303 at Thu Apr 14 10:53:45 2016, MaxMem=    33554432 cpu:         0.0
 (Enter /usr/local/gau/g09/l401.exe)
 Initial guess from the checkpoint file:  "Ala-S-opt-freq-tsa3-6-31g.chk"
 B after Tr=     0.000000    0.000000    0.000000
         Rot=    0.999967    0.002215    0.000196   -0.007875 Ang=   0.94 deg.
 Guess basis will be translated and rotated to current coordinates.
 JPrj=2 DoOrth=T DoCkMO=T.
 Generating alternative initial guess.
 ExpMin= 1.61D-01 ExpMax= 5.48D+03 ExpMxC= 8.25D+02 IAcc=1 IRadAn=         1 AccDes= 0.00D+00
 Harris functional with IExCor=  402 and IRadAn=       1 diagonalized for initial guess.
 HarFok:  IExCor=  402 AccDes= 0.00D+00 IRadAn=         1 IDoV= 1 UseB2=F ITyADJ=14
 ICtDFT=  3500011 ScaDFX=  1.000000  1.000000  1.000000  1.000000
 FoFCou: FMM=F IPFlag=           0 FMFlag=      100000 FMFlg1=           0
         NFxFlg=           0 DoJE=T BraDBF=F KetDBF=T FulRan=T
         wScrn=  0.000000 ICntrl=     500 IOpCl=  0 I1Cent=   200000004 NGrid=           0
         NMat0=    1 NMatS0=      1 NMatT0=    0 NMatD0=    1 NMtDS0=    0 NMtDT0=    0
 Petite list used in FoFCou.
 Harris En= -323.498175122786    
 Leave Link  401 at Thu Apr 14 10:53:46 2016, MaxMem=    33554432 cpu:         0.5
 (Enter /usr/local/gau/g09/l502.exe)
 Closed shell SCF:
 Using DIIS extrapolation, IDIIS=  1040.
 Integral symmetry usage will be decided dynamically.
 Keep R1 ints in memory in canonical form, NReq=3676491.
 IVT=       33364 IEndB=       33364 NGot=    33554432 MDV=    30768038
 LenX=    30768038 LenY=    30762973
 Requested convergence on RMS density matrix=1.00D-08 within 128 cycles.
 Requested convergence on MAX density matrix=1.00D-06.
 Requested convergence on             energy=1.00D-06.
 No special actions if energy rises.
 FoFCou: FMM=F IPFlag=           0 FMFlag=           0 FMFlg1=           0
         NFxFlg=           0 DoJE=F BraDBF=F KetDBF=F FulRan=T
         wScrn=  0.000000 ICntrl=     600 IOpCl=  0 I1Cent=           0 NGrid=           0
         NMat0=    1 NMatS0=   2346 NMatT0=    0 NMatD0=    1 NMtDS0=    0 NMtDT0=    0
 Symmetry not used in FoFCou.
 Integral accuracy reduced to 1.0D-05 until final iterations.

 Cycle   1  Pass 0  IDiag  1:
 E= -323.416474197108    
 DIIS: error= 8.74D-03 at cycle   1 NSaved=   1.
 NSaved= 1 IEnMin= 1 EnMin= -323.416474197108     IErMin= 1 ErrMin= 8.74D-03
 ErrMax= 8.74D-03  0.00D+00 EMaxC= 1.00D-01 BMatC= 7.89D-03 BMatP= 7.89D-03
 IDIUse=3 WtCom= 9.13D-01 WtEn= 8.74D-02
 Coeff-Com:  0.100D+01
 Coeff-En:   0.100D+01
 Coeff:      0.100D+01
 Gap=     0.565 Goal=   None    Shift=    0.000
 GapD=    0.565 DampG=2.000 DampE=1.000 DampFc=2.0000 IDamp=-1.
 RMSDP=3.74D-03 MaxDP=2.79D-02              OVMax= 4.64D-02

 Cycle   2  Pass 0  IDiag  1:
 E= -323.432232787465     Delta-E=       -0.015758590358 Rises=F Damp=F
 DIIS: error= 2.87D-03 at cycle   2 NSaved=   2.
 NSaved= 2 IEnMin= 2 EnMin= -323.432232787465     IErMin= 2 ErrMin= 2.87D-03
 ErrMax= 2.87D-03  0.00D+00 EMaxC= 1.00D-01 BMatC= 7.22D-04 BMatP= 7.89D-03
 IDIUse=3 WtCom= 9.71D-01 WtEn= 2.87D-02
 Coeff-Com:  0.702D-01 0.930D+00
 Coeff-En:   0.000D+00 0.100D+01
 Coeff:      0.682D-01 0.932D+00
 Gap=     0.180 Goal=   None    Shift=    0.000
 RMSDP=1.44D-03 MaxDP=2.33D-02 DE=-1.58D-02 OVMax= 2.52D-02

 Cycle   3  Pass 0  IDiag  1:
 E= -323.431180435006     Delta-E=        0.001052352459 Rises=F Damp=F
 DIIS: error= 8.23D-03 at cycle   3 NSaved=   3.
 NSaved= 3 IEnMin= 2 EnMin= -323.432232787465     IErMin= 2 ErrMin= 2.87D-03
 ErrMax= 8.23D-03  0.00D+00 EMaxC= 1.00D-01 BMatC= 1.83D-03 BMatP= 7.22D-04
 IDIUse=3 WtCom= 9.93D-02 WtEn= 9.01D-01
 Coeff-Com: -0.322D-01 0.638D+00 0.394D+00
 Coeff-En:   0.000D+00 0.667D+00 0.333D+00
 Coeff:     -0.319D-02 0.665D+00 0.339D+00
 Gap=     0.178 Goal=   None    Shift=    0.000
 RMSDP=8.82D-04 MaxDP=1.16D-02 DE= 1.05D-03 OVMax= 2.41D-02

 Cycle   4  Pass 0  IDiag  1:
 E= -323.433070098698     Delta-E=       -0.001889663691 Rises=F Damp=F
 DIIS: error= 7.85D-04 at cycle   4 NSaved=   4.
 NSaved= 4 IEnMin= 4 EnMin= -323.433070098698     IErMin= 4 ErrMin= 7.85D-04
 ErrMax= 7.85D-04  0.00D+00 EMaxC= 1.00D-01 BMatC= 8.80D-05 BMatP= 7.22D-04
 IDIUse=3 WtCom= 9.92D-01 WtEn= 7.85D-03
 Coeff-Com: -0.276D-01 0.360D+00 0.223D+00 0.444D+00
 Coeff-En:   0.000D+00 0.000D+00 0.000D+00 0.100D+01
 Coeff:     -0.274D-01 0.357D+00 0.222D+00 0.449D+00
 Gap=     0.177 Goal=   None    Shift=    0.000
 RMSDP=2.03D-04 MaxDP=2.46D-03 DE=-1.89D-03 OVMax= 2.27D-03

 Cycle   5  Pass 0  IDiag  1:
 E= -323.433149966516     Delta-E=       -0.000079867818 Rises=F Damp=F
 DIIS: error= 2.26D-04 at cycle   5 NSaved=   5.
 NSaved= 5 IEnMin= 5 EnMin= -323.433149966516     IErMin= 5 ErrMin= 2.26D-04
 ErrMax= 2.26D-04  0.00D+00 EMaxC= 1.00D-01 BMatC= 6.37D-06 BMatP= 8.80D-05
 IDIUse=3 WtCom= 9.98D-01 WtEn= 2.26D-03
 Coeff-Com: -0.111D-01 0.100D+00 0.729D-01 0.225D+00 0.613D+00
 Coeff-En:   0.000D+00 0.000D+00 0.000D+00 0.000D+00 0.100D+01
 Coeff:     -0.110D-01 0.100D+00 0.727D-01 0.225D+00 0.613D+00
 Gap=     0.177 Goal=   None    Shift=    0.000
 RMSDP=5.86D-05 MaxDP=5.87D-04 DE=-7.99D-05 OVMax= 7.54D-04

 Cycle   6  Pass 0  IDiag  1:
 E= -323.433154944567     Delta-E=       -0.000004978051 Rises=F Damp=F
 DIIS: error= 1.07D-04 at cycle   6 NSaved=   6.
 NSaved= 6 IEnMin= 6 EnMin= -323.433154944567     IErMin= 6 ErrMin= 1.07D-04
 ErrMax= 1.07D-04  0.00D+00 EMaxC= 1.00D-01 BMatC= 1.22D-06 BMatP= 6.37D-06
 IDIUse=3 WtCom= 9.99D-01 WtEn= 1.07D-03
 Coeff-Com: -0.839D-03-0.663D-02 0.410D-02 0.473D-01 0.342D+00 0.614D+00
 Coeff-En:   0.000D+00 0.000D+00 0.000D+00 0.000D+00 0.793D-01 0.921D+00
 Coeff:     -0.838D-03-0.662D-02 0.410D-02 0.473D-01 0.341D+00 0.615D+00
 Gap=     0.177 Goal=   None    Shift=    0.000
 RMSDP=3.02D-05 MaxDP=4.48D-04 DE=-4.98D-06 OVMax= 5.27D-04

 Cycle   7  Pass 0  IDiag  1:
 E= -323.433156171843     Delta-E=       -0.000001227276 Rises=F Damp=F
 DIIS: error= 2.58D-05 at cycle   7 NSaved=   7.
 NSaved= 7 IEnMin= 7 EnMin= -323.433156171843     IErMin= 7 ErrMin= 2.58D-05
 ErrMax= 2.58D-05  0.00D+00 EMaxC= 1.00D-01 BMatC= 8.61D-08 BMatP= 1.22D-06
 IDIUse=1 WtCom= 1.00D+00 WtEn= 0.00D+00
 Coeff-Com:  0.667D-03-0.115D-01-0.437D-02-0.624D-02 0.553D-01 0.261D+00
 Coeff-Com:  0.705D+00
 Coeff:      0.667D-03-0.115D-01-0.437D-02-0.624D-02 0.553D-01 0.261D+00
 Coeff:      0.705D+00
 Gap=     0.177 Goal=   None    Shift=    0.000
 RMSDP=8.49D-06 MaxDP=1.13D-04 DE=-1.23D-06 OVMax= 1.28D-04

 Initial convergence to 1.0D-05 achieved.  Increase integral accuracy.
 Cycle   8  Pass 1  IDiag  1:
 E= -323.433179129333     Delta-E=       -0.000022957491 Rises=F Damp=F
 DIIS: error= 1.37D-05 at cycle   1 NSaved=   1.
 NSaved= 1 IEnMin= 1 EnMin= -323.433179129333     IErMin= 1 ErrMin= 1.37D-05
 ErrMax= 1.37D-05  0.00D+00 EMaxC= 1.00D-01 BMatC= 2.05D-08 BMatP= 2.05D-08
 IDIUse=1 WtCom= 1.00D+00 WtEn= 0.00D+00
 Coeff-Com:  0.100D+01
 Coeff:      0.100D+01
 Gap=     0.177 Goal=   None    Shift=    0.000
 RMSDP=8.49D-06 MaxDP=1.13D-04 DE=-2.30D-05 OVMax= 8.12D-05

 Cycle   9  Pass 1  IDiag  1:
 E= -323.433179149143     Delta-E=       -0.000000019810 Rises=F Damp=F
 DIIS: error= 1.47D-05 at cycle   2 NSaved=   2.
 NSaved= 2 IEnMin= 2 EnMin= -323.433179149143     IErMin= 1 ErrMin= 1.37D-05
 ErrMax= 1.47D-05  0.00D+00 EMaxC= 1.00D-01 BMatC= 1.36D-08 BMatP= 2.05D-08
 IDIUse=1 WtCom= 1.00D+00 WtEn= 0.00D+00
 Coeff-Com:  0.432D+00 0.568D+00
 Coeff:      0.432D+00 0.568D+00
 Gap=     0.177 Goal=   None    Shift=    0.000
 RMSDP=2.91D-06 MaxDP=4.60D-05 DE=-1.98D-08 OVMax= 8.11D-05

 Cycle  10  Pass 1  IDiag  1:
 E= -323.433179156087     Delta-E=       -0.000000006944 Rises=F Damp=F
 DIIS: error= 1.30D-05 at cycle   3 NSaved=   3.
 NSaved= 3 IEnMin= 3 EnMin= -323.433179156087     IErMin= 3 ErrMin= 1.30D-05
 ErrMax= 1.30D-05  0.00D+00 EMaxC= 1.00D-01 BMatC= 6.38D-09 BMatP= 1.36D-08
 IDIUse=1 WtCom= 1.00D+00 WtEn= 0.00D+00
 Coeff-Com:  0.671D-01 0.397D+00 0.536D+00
 Coeff:      0.671D-01 0.397D+00 0.536D+00
 Gap=     0.177 Goal=   None    Shift=    0.000
 RMSDP=2.08D-06 MaxDP=3.16D-05 DE=-6.94D-09 OVMax= 4.58D-05

 Cycle  11  Pass 1  IDiag  1:
 E= -323.433179160657     Delta-E=       -0.000000004570 Rises=F Damp=F
 DIIS: error= 5.65D-06 at cycle   4 NSaved=   4.
 NSaved= 4 IEnMin= 4 EnMin= -323.433179160657     IErMin= 4 ErrMin= 5.65D-06
 ErrMax= 5.65D-06  0.00D+00 EMaxC= 1.00D-01 BMatC= 1.79D-09 BMatP= 6.38D-09
 IDIUse=1 WtCom= 1.00D+00 WtEn= 0.00D+00
 Coeff-Com: -0.151D-01 0.220D+00 0.398D+00 0.397D+00
 Coeff:     -0.151D-01 0.220D+00 0.398D+00 0.397D+00
 Gap=     0.177 Goal=   None    Shift=    0.000
 RMSDP=8.33D-07 MaxDP=1.38D-05 DE=-4.57D-09 OVMax= 1.37D-05

 Cycle  12  Pass 1  IDiag  1:
 E= -323.433179162129     Delta-E=       -0.000000001472 Rises=F Damp=F
 DIIS: error= 5.19D-07 at cycle   5 NSaved=   5.
 NSaved= 5 IEnMin= 5 EnMin= -323.433179162129     IErMin= 5 ErrMin= 5.19D-07
 ErrMax= 5.19D-07  0.00D+00 EMaxC= 1.00D-01 BMatC= 3.53D-11 BMatP= 1.79D-09
 IDIUse=1 WtCom= 1.00D+00 WtEn= 0.00D+00
 Coeff-Com: -0.115D-01 0.932D-01 0.173D+00 0.208D+00 0.537D+00
 Coeff:     -0.115D-01 0.932D-01 0.173D+00 0.208D+00 0.537D+00
 Gap=     0.177 Goal=   None    Shift=    0.000
 RMSDP=1.33D-07 MaxDP=1.54D-06 DE=-1.47D-09 OVMax= 1.43D-06

 Cycle  13  Pass 1  IDiag  1:
 E= -323.433179162160     Delta-E=       -0.000000000031 Rises=F Damp=F
 DIIS: error= 1.14D-07 at cycle   6 NSaved=   6.
[...]
     26  0.170719D+00
     27  0.150760D+00  0.230178D+00
     28  0.959261D-03 -0.124537D-02  0.619515D+00
     29 -0.723702D-03  0.973451D-03  0.315943D-01  0.302073D+00
     30 -0.317869D-03  0.313258D-03 -0.707164D-01  0.613661D-01  0.493401D-01
     31 -0.274500D-03 -0.123279D-03 -0.113907D-02  0.225594D-02  0.152622D-02
     32 -0.129563D-02  0.261057D-03  0.673053D-03  0.624196D-03  0.110479D-02
     33  0.325286D-04  0.799003D-03  0.331361D-03  0.117560D-02 -0.144276D-02
     34 -0.837693D-03  0.762574D-03  0.234268D-01  0.212519D-01 -0.447126D-02
     35  0.555679D-02 -0.573254D-02 -0.114864D-01 -0.641652D-01 -0.396815D-02
     36 -0.221175D-02  0.420085D-02  0.645509D-03 -0.182168D-01  0.494047D-02
     37 -0.478109D-04  0.101387D-03 -0.421842D+00 -0.101656D+00  0.264222D-01
     38 -0.828280D-04  0.105075D-03 -0.157127D+00 -0.803542D-01 -0.247583D-03
     39  0.150701D-03 -0.750557D-04  0.125113D-01 -0.746853D-02 -0.106423D-01
               31            32            33            34            35 
     31  0.233343D+00
     32 -0.178387D+00  0.266268D+00
     33 -0.101395D+00  0.115614D+00  0.647441D-01
     34 -0.242309D-03 -0.141563D-03  0.618699D-03  0.202630D+00
     35  0.789612D-03 -0.464789D-03 -0.561922D-03  0.154317D+00  0.389923D+00
     36  0.547746D-03  0.641300D-03 -0.409649D-03  0.267065D-01  0.627268D-01
     37  0.376457D-03  0.113186D-04  0.235651D-03  0.463121D-02 -0.227580D-02
     38  0.868731D-03  0.956379D-03  0.637716D-03 -0.493851D-02  0.369876D-02
     39  0.674459D-03  0.290684D-03  0.159259D-03 -0.652633D-03 -0.316338D-03
               36            37            38            39 
     36  0.522670D-01
     37 -0.232781D-02  0.451800D+00
     38  0.940606D-03  0.112370D+00  0.770895D-01
     39 -0.184719D-02 -0.290106D-01  0.566021D-02  0.126752D-01
 FormGI is forming the generalized inverse of G from B-inverse, IUseBI=4.
 Leave Link  716 at Thu Apr 14 11:22:11 2016, MaxMem=    33554432 cpu:         0.0
 (Enter /usr/local/gau/g09/l103.exe)

 GradGradGradGradGradGradGradGradGradGradGradGradGradGradGradGradGradGrad
 Berny optimization.
 Red2BG is reusing G-inverse.
 Internal  Forces:  Max     0.000160355 RMS     0.000050414
 Search for a saddle point.
 Step number   1 out of a maximum of    2
 All quantities printed in internal units (Hartrees-Bohrs-Radians)
 Swapping is turned off.
 Second derivative matrix not updated -- analytic derivatives used.
 ITU=  0
     Eigenvalues ---   -0.34960   0.00381   0.00938   0.00983   0.01099
     Eigenvalues ---    0.01827   0.02138   0.03139   0.03867   0.04489
     Eigenvalues ---    0.05959   0.08444   0.09886   0.11194   0.11954
     Eigenvalues ---    0.13210   0.14199   0.14926   0.19770   0.21908
     Eigenvalues ---    0.25895   0.31455   0.35704   0.36008   0.36513
     Eigenvalues ---    0.43089   0.48158   0.48760   0.48948   0.49428
     Eigenvalues ---    0.50223   0.73686   0.89924
 Eigenvectors required to have negative eigenvalues:
                          R6        R8        A16       R11       A8
   1                    0.52350  -0.43543  -0.39118   0.27926  -0.18358
                          R5        A6        D9        A10       D12
   1                   -0.17947  -0.16159   0.15960   0.14441   0.14196
 Angle between quadratic step and forces=  83.16 degrees.
 Linear search not attempted -- option 19 set.
 Iteration  1 RMS(Cart)=  0.00068333 RMS(Int)=  0.00000059
 Iteration  2 RMS(Cart)=  0.00000061 RMS(Int)=  0.00000002
 ITry= 1 IFail=0 DXMaxC= 2.61D-03 DCOld= 1.00D+10 DXMaxT= 3.00D-01 DXLimC= 3.00D+00 Rises=F
 Variable       Old X    -DE/DX   Delta X   Delta X   Delta X     New X
                                 (Linear)    (Quad)   (Total)
    R1        1.89757   0.00000   0.00000  -0.00002  -0.00002   1.89755
    R2        2.62236  -0.00001   0.00000  -0.00005  -0.00005   2.62232
    R3        1.90291  -0.00001   0.00000  -0.00003  -0.00003   1.90288
    R4        2.69572  -0.00008   0.00000  -0.00017  -0.00017   2.69555
    R5        2.64748  -0.00009   0.00000  -0.00005  -0.00005   2.64743
    R6        1.86391   0.00005   0.00000  -0.00045  -0.00045   1.86345
    R7        2.05833   0.00000   0.00000   0.00003   0.00003   2.05836
    R8        2.77023  -0.00007   0.00000   0.00035   0.00035   2.77058
    R9        2.05442   0.00000   0.00000  -0.00003  -0.00003   2.05439
   R10        2.63575   0.00001   0.00000   0.00000   0.00000   2.63575
   R11        2.46651   0.00004   0.00000  -0.00010  -0.00010   2.46641
   R12        1.84776   0.00000   0.00000  -0.00001  -0.00001   1.84775
    A1        2.10740   0.00000   0.00000   0.00001   0.00001   2.10741
    A2        2.06446   0.00000   0.00000   0.00012   0.00012   2.06458
    A3        2.07134  -0.00001   0.00000   0.00001   0.00001   2.07135
    A4        2.14736   0.00008   0.00000  -0.00003  -0.00003   2.14734
    A5        2.09639   0.00008   0.00000  -0.00006  -0.00006   2.09633
    A6        1.98077  -0.00016   0.00000   0.00004   0.00004   1.98081
    A7        2.04988   0.00003   0.00000  -0.00012  -0.00012   2.04977
    A8        1.79656  -0.00014   0.00000   0.00012   0.00012   1.79668
    A9        2.06012   0.00001   0.00000   0.00033   0.00033   2.06045
   A10        1.89935   0.00005   0.00000  -0.00023  -0.00023   1.89912
   A11        1.99329  -0.00001   0.00000   0.00008   0.00008   1.99337
   A12        1.57582   0.00003   0.00000  -0.00033  -0.00033   1.57549
   A13        2.03923   0.00008   0.00000   0.00003   0.00003   2.03926
   A14        2.10053  -0.00011   0.00000  -0.00009  -0.00009   2.10044
   A15        2.09699   0.00003   0.00000   0.00011   0.00011   2.09710
   A16        2.08963  -0.00009   0.00000   0.00017   0.00017   2.08980
   A17        1.91300   0.00001   0.00000   0.00010   0.00010   1.91310
    D1        0.72146   0.00002   0.00000  -0.00226  -0.00226   0.71920
    D2       -2.80514  -0.00004   0.00000  -0.00240  -0.00240  -2.80754
    D3       -2.72523   0.00001   0.00000  -0.00172  -0.00172  -2.72695
    D4        0.03135  -0.00005   0.00000  -0.00187  -0.00187   0.02949
    D5        0.01321   0.00003   0.00000   0.00036   0.00036   0.01357
    D6        2.09883   0.00002   0.00000   0.00009   0.00009   2.09892
    D7       -2.48506  -0.00002   0.00000  -0.00012  -0.00012  -2.48518
    D8       -2.76629   0.00004   0.00000   0.00052   0.00052  -2.76577
    D9       -0.68067   0.00003   0.00000   0.00024   0.00024  -0.68042
   D10        1.01863  -0.00001   0.00000   0.00003   0.00003   1.01866
   D11        0.03849   0.00000   0.00000  -0.00004  -0.00004   0.03844
   D12       -2.78100   0.00000   0.00000  -0.00026  -0.00026  -2.78125
   D13        2.82965   0.00000   0.00000  -0.00018  -0.00018   2.82947
   D14        0.01016  -0.00001   0.00000  -0.00040  -0.00040   0.00977
   D15        0.82341  -0.00002   0.00000  -0.00081  -0.00081   0.82260
   D16        3.01048  -0.00004   0.00000  -0.00100  -0.00100   3.00947
   D17       -1.25195  -0.00003   0.00000  -0.00109  -0.00109  -1.25304
   D18       -3.02644   0.00000   0.00000  -0.00121  -0.00121  -3.02765
   D19       -0.20627  -0.00002   0.00000  -0.00103  -0.00103  -0.20730
         Item               Value     Threshold  Converged?
 Maximum Force            0.000160     0.000450     YES
 RMS     Force            0.000050     0.000300     YES
 Maximum Displacement     0.002609     0.001800     NO 
 RMS     Displacement     0.000683     0.001200     YES
 Predicted change in Energy=-1.022632D-07
 GradGradGradGradGradGradGradGradGradGradGradGradGradGradGradGradGradGrad

 Leave Link  103 at Thu Apr 14 11:22:11 2016, MaxMem=    33554432 cpu:         0.0
 (Enter /usr/local/gau/g09/l9999.exe)

 Test job not archived.
 1\1\GINC-KALI\Freq\RB3LYP\6-31G\C3H7N1O2\ROOT\14-Apr-2016\0\\#P Geom=A
 llCheck Guess=TCheck SCRF=Check Test GenChk RB3LYP/6-31G Freq\\Ala-S-o
 pt-freq-tsa3-6-31g\\0,1\N,1.1044398533,1.5236807418,0.2637368309\H,2.0
 362147891,1.8132244638,0.0265080035\C,0.5984368325,0.3157579895,-0.195
 1559463\H,-0.3772387594,-1.8673982101,0.5136037519\C,1.3662182968,-0.8
 860052871,-0.2300762859\C,-0.7849585303,0.0953593112,-0.2151937786\H,2
 .3911948374,-0.8377847637,0.1353085018\H,0.5990416976,-1.7906857405,0.
 6313101871\H,1.2243648036,-1.5587202745,-1.0722386541\O,-1.596996111,1
 .1520108243,0.1964905054\H,0.4606985592,2.219258124,0.6039852979\O,-1.
 2586851142,-1.1203526133,-0.2502487566\H,-2.5268396645,0.8529542147,0.
 2416042629\\Version=ES64L-G09RevD.01\State=1-A\HF=-323.5223754\RMSD=1.
 207e-09\RMSF=3.190e-05\ZeroPoint=0.0982198\Thermal=0.1045794\Dipole=0.
 6148817,0.5900432,0.0957981\DipoleDeriv=-0.3402497,-0.3635022,-0.19789
 42,-0.3169694,-1.0329527,0.072253,-0.3980724,-0.2534741,-0.7876529,0.1
 832085,0.0352858,0.0793203,-0.0226755,0.1359539,-0.0702288,0.1210599,0
 .0214955,0.3501455,-0.2701055,0.9088613,0.0158445,0.4795365,0.7484938,
 0.2120559,0.4521432,0.3219268,0.0777239,0.2412947,0.2668982,-0.1006599
 ,-0.0499048,-0.3295988,0.1041262,0.1036326,0.4389758,-0.0210626,0.1734
 284,0.2613018,-0.0364661,-0.2246779,0.4119684,-0.2372068,0.0050574,-0.
 26563,0.1989969,1.1524903,-1.0130734,-0.0669978,-0.3288138,0.6071898,0
 .2654555,-0.6237045,0.1732457,0.198933,-0.101529,0.0331744,-0.0610949,
 -0.0730084,0.1194796,-0.0388655,0.0044229,-0.0491028,0.0897471,0.01471
 23,-0.3844154,0.1775655,0.1514372,-0.3052715,0.1174452,-0.0763148,0.20
 01475,-0.137367,0.0491081,-0.0374847,-0.0014357,0.0289736,0.0318755,-0
 .0197856,-0.0106532,-0.0331179,-0.0290407,-0.8314388,0.5714881,0.05600
 1,0.7066817,-0.7978927,-0.0039658,0.4050615,-0.1507172,-0.4838947,0.15
 66448,-0.0184682,0.0393691,0.0004389,0.225509,-0.0654275,0.0186575,-0.
 0490247,0.3878309,-0.7121673,-0.1697307,0.0800416,-0.1864873,-0.079420
 4,-0.3132343,0.0177749,-0.3326062,-0.2372158,0.2846032,-0.0903351,0.01
 64067,-0.1645308,0.2646662,-0.0226214,-0.0190652,-0.0221185,0.3928563\
 Polar=64.3060942,-1.8916969,65.2050123,0.5821224,0.1790087,25.6857264\
 PG=C01 [X(C3H7N1O2)]\NImag=1\\0.81349718,0.03998015,0.67984962,-0.1863
 6705,0.20467694,0.15554999,-0.41241634,-0.10550842,0.10450574,0.430400
 94,-0.11320387,-0.09538689,0.00433025,0.11787647,0.09454729,0.12114125
 ,0.00893946,-0.03933102,-0.10895651,-0.00706575,0.04141013,-0.14697807
 ,-0.08017496,-0.01656625,-0.00805934,-0.02941701,-0.02010096,0.6828814
 8,-0.07028332,-0.28409247,-0.08127317,-0.00065668,-0.00781225,-0.00652
 405,0.02284003,0.71765394,-0.02031875,-0.08831695,-0.06516354,0.001455
 67,0.00875924,0.00001757,0.01966197,0.12798828,0.18518930,0.00221315,-
 0.00151043,-0.00237568,0.00056167,0.00063218,-0.00013953,-0.04928850,0
 .01588599,0.00165017,0.01709500,-0.00658811,-0.00656905,-0.00497096,0.
 00127886,-0.00136567,0.00166234,0.03099184,-0.00633707,0.00925108,0.04
 257940,0.05080469,0.00612873,0.00604245,0.00499710,-0.00129598,0.00112
 074,-0.00156772,-0.03138492,0.00543585,-0.00521550,-0.03558191,0.01836
 196,0.01414970,0.01288517,-0.01027012,0.00120121,0.00137433,-0.0014015
 4,0.00001650,-0.18065045,0.12208179,-0.00729230,-0.02801618,0.00572435
 ,-0.00727395,0.59301197,0.02381487,-0.03708786,-0.00893884,0.00129507,
 0.00337186,-0.00015263,0.05904785,-0.23141777,-0.03152767,-0.07621921,
 0.01403118,-0.02533635,-0.11553451,0.45519164,0.00819746,-0.01577236,0
 .00195216,-0.00020980,-0.00040510,-0.00047227,0.01202557,-0.03190860,-
 0.06787459,0.04951883,-0.00811214,0.01234185,0.14177826,0.22569330,0.3
 6218299,-0.02647928,-0.01443023,-0.00335736,0.00179887,0.00010851,0.00
 151351,-0.29645263,-0.06374787,-0.01791159,0.05788500,-0.03381578,0.03
 997568,-0.02562474,0.06961610,-0.02635824,0.70921541,-0.04812034,-0.01
 652490,-0.00248296,0.00033646,-0.00631788,-0.00250701,0.00356247,-0.09
 964796,-0.01972547,0.05392208,-0.06181570,0.03976585,0.03485564,0.0395
 9182,-0.01236696,0.03540349,0.65383731,-0.02299640,-0.02131505,-0.0074
 1138,0.00213501,-0.00170182,0.00147036,0.04188377,-0.00208365,-0.05969
 734,-0.00610839,0.02048941,-0.00066523,0.00290485,0.01077615,0.0013412
 7,-0.05233732,0.05352244,0.17968593,0.00285566,-0.00096201,0.00244860,
 -0.00020228,0.00106470,-0.00036513,-0.01495169,-0.00696574,-0.00642395
 ,-0.00108452,0.00131582,-0.00092474,-0.30152091,-0.00518895,-0.0959327
 6,0.00131105,0.00224880,-0.00367055,0.32014404,-0.00065438,0.00248223,
 0.00182745,-0.00033283,-0.00094173,0.00056092,0.02791926,0.00534290,0.
 00735101,-0.00038859,0.00162018,-0.00181460,-0.01419312,-0.05345292,-0
 .01063827,0.00299036,-0.00480710,-0.00279328,0.00811380,0.05005361,-0.
 00133004,0.00114181,-0.00334485,0.00041089,0.00016219,0.00078305,0.004
 73714,-0.00335777,0.00362250,-0.00196036,-0.00169080,0.00109739,-0.092
 37750,-0.00930138,-0.07921339,-0.00140625,-0.00020685,0.00431692,0.103
 20450,0.01174644,0.07458400,-0.00610425,-0.00150164,-0.00206998,0.0000
 5865,-0.00129102,0.00091754,0.04919955,-0.01829693,0.00395581,0.010655
 59,-0.02869903,0.02939193,-0.00178229,0.06496446,-0.03808505,-0.054505
 41,-0.04235380,-0.00140043,-0.00389314,-0.00458200,0.00858233,0.044462
 00,-0.00233457,0.00081618,-0.00059014,-0.00018467,-0.00070542,0.000312
 52,0.02549826,-0.02857210,0.01596115,0.02967322,-0.02084265,0.00338389
 ,0.01252830,0.01753605,-0.02750130,-0.02274516,-0.02108154,0.00929369,
 -0.00033676,-0.00050542,0.00107088,-0.03962188,0.03261855,0.00191404,-
 0.00071254,-0.00028851,0.00012301,0.00034971,-0.00004893,-0.01708280,0
 .01000961,-0.00272277,-0.02636094,-0.00394682,-0.02023644,-0.00509498,
 -0.02677580,-0.00983937,0.01308926,0.01152830,-0.00013780,-0.00189842,
 -0.00291842,0.00219877,0.03131622,0.00661892,0.04662735,-0.00117752,0.
 00232237,0.00014638,-0.00002561,0.00029190,-0.00016755,0.00944644,0.00
 616694,0.01291437,0.00536164,-0.00187385,0.00715730,-0.05640734,-0.013
 13825,-0.04182904,-0.00436995,-0.00149105,0.00084021,-0.00128487,-0.01
 834321,-0.02303963,-0.00887100,-0.00265020,0.01265059,0.05608034,0.005
 12565,0.00032289,-0.00237828,-0.00011516,0.00051101,-0.00039382,-0.001
 11424,-0.02294894,-0.01920161,0.00528411,-0.00015541,0.00527825,-0.020
 24752,-0.14761112,-0.14552543,-0.00509609,-0.00450838,0.00133897,0.001
 21326,0.00075079,-0.00001139,-0.00943317,-0.00053479,0.01248003,0.0245
 8390,0.17071934,-0.00011443,-0.00116377,0.00199385,-0.00003123,0.00015
 218,-0.00041787,-0.00833067,0.00989379,0.00336593,-0.00828485,0.002502
 01,-0.00570450,-0.03840244,-0.15986820,-0.21047666,0.00536400,0.003315
 57,-0.00104008,0.00138143,-0.00450823,-0.00390722,0.01306872,0.0033099
 1,-0.01922919,0.03585416,0.15075968,0.23017769,0.00003854,-0.00147122,
 -0.00165232,-0.00015063,0.00147285,-0.00066214,-0.04181631,0.04456585,
 0.02221826,-0.00941879,0.00524004,-0.00491470,-0.00479859,-0.01418607,
 0.00277700,-0.17123250,0.09274054,0.04396373,-0.00128732,0.00126343,0.
 00000620,0.00796242,0.00576122,-0.00326238,0.00074286,0.00095926,-0.00
 124537,0.61951477,-0.00059921,0.00780497,0.00510596,-0.00112183,0.0006
 9578,-0.00034839,0.00594217,-0.00866983,-0.01103161,-0.00152900,0.0015
 6537,-0.00571444,-0.00422073,0.00526702,-0.00042304,0.04723490,-0.1618
 8630,-0.02767070,0.00049109,0.00103910,-0.00058808,0.00078305,-0.00327
 057,0.00284048,-0.00042662,-0.00072370,0.00097345,0.03159432,0.3020733
 4,0.00352145,0.00771186,0.00523905,-0.00125360,0.00070837,-0.00061995,
 0.00001601,-0.01461331,-0.00442414,0.00628707,-0.00061604,0.00228564,-
 0.00175370,0.00436967,0.00242506,0.04207931,-0.04920757,-0.05212749,0.
 00069847,-0.00002847,0.00004927,-0.00172026,-0.00626181,0.00466373,-0.
 00063553,-0.00031787,0.00031326,-0.07071642,0.06136612,0.04934013,-0.2
 3472865,0.16958962,0.10052204,-0.01262355,0.02503126,0.00835334,0.0135
 8863,-0.01144147,-0.00590265,-0.00037470,-0.00068817,0.00078414,-0.001
 07611,-0.00362673,-0.00039202,0.00220723,-0.00467076,-0.00428182,0.000
 12332,0.00011633,0.00007066,0.00022438,0.00043676,-0.00038397,0.000321
 83,-0.00027450,-0.00012328,-0.00113907,0.00225594,0.00152622,0.2333425
 4,0.16878026,-0.25279187,-0.11201771,-0.01240320,0.01139997,0.00709149
 ,0.01999215,-0.02179927,-0.00738123,-0.00017575,0.00076600,-0.00075973
 ,-0.00301840,-0.00232599,-0.00416732,0.00379231,-0.00171836,-0.0006922
 9,-0.00007170,0.00021620,0.00017008,0.00041664,0.00016502,-0.00015506,
 0.00053150,-0.00129563,0.00026106,0.00067305,0.00062420,0.00110479,-0.
 17838661,0.26626816,0.09217415,-0.10074039,-0.05773771,0.00253952,-0.0
 0527092,-0.00279153,0.00536094,-0.01097594,-0.00418351,-0.00122897,0.0
 0041823,-0.00004003,-0.00127152,-0.00015417,0.00185866,0.00180998,-0.0
 0138997,0.00008782,0.00010225,0.00016868,-0.00038985,0.00109830,0.0010
 4662,-0.00065386,-0.00037550,0.00003253,0.00079900,0.00033136,0.001175
 60,-0.00144276,-0.10139487,0.11561394,0.06474414,-0.00474520,0.0020896
 0,0.00273887,-0.00060198,-0.00121851,-0.00149334,-0.01878765,-0.041750
 06,-0.00514389,-0.00551892,-0.01567557,-0.00167828,-0.00632807,0.00905
 957,-0.01147070,-0.15682504,-0.11447476,-0.00360680,-0.00034285,-0.002
 37657,0.00331201,-0.03752225,-0.00530500,-0.00562172,0.00022652,-0.000
 83769,0.00076257,0.02342683,0.02125187,-0.00447126,-0.00024231,-0.0001
 4156,0.00061870,0.20262972,0.00538373,0.00171959,-0.00299776,-0.000325
 50,0.00173257,-0.00168348,-0.08809022,-0.00543201,0.01028584,-0.070438
 78,0.02957065,-0.04698928,-0.00743039,-0.06519745,0.03195879,-0.064693
 09,-0.32075690,-0.03363433,-0.00093437,-0.00137131,0.00061943,0.081116
 68,0.02518647,-0.00970708,0.00406728,0.00555679,-0.00573254,-0.0114863
 6,-0.06416518,-0.00396815,0.00078961,-0.00046479,-0.00056192,0.1543172
 0,0.38992281,-0.00128763,-0.00088536,0.00406723,0.00053986,-0.00130779
 ,0.00146856,0.01213368,0.00000379,0.01521441,0.02574306,-0.03356160,-0
 .00137219,0.00673678,0.02256328,-0.01602221,-0.02147056,-0.02449464,-0
 .06313007,0.00099549,0.00121753,0.00035898,-0.04556648,-0.00741536,0.0
 0026382,-0.00339613,-0.00221175,0.00420085,0.00064551,-0.01821683,0.00
 494047,0.00054775,0.00064130,-0.00040965,0.02670647,0.06272682,0.05226
 701,0.00113961,0.00184730,0.00082580,-0.00011472,0.00005409,-0.0000569
 8,0.00186855,0.00160147,0.00113686,-0.00007044,0.00021018,-0.00038332,
 -0.00106677,0.00009579,-0.00001951,-0.03692802,-0.01195876,0.00267414,
 0.00013350,0.00046751,-0.00020994,0.00011576,-0.00071951,0.00061209,-0
 .00004333,-0.00004781,0.00010139,-0.42184220,-0.10165593,0.02642224,0.
 00037646,0.00001132,0.00023565,0.00463121,-0.00227580,-0.00232781,0.45
 180041,-0.00130086,-0.00054245,-0.00029078,-0.00013857,0.00027135,0.00
 010838,0.00300240,-0.00626716,-0.00241207,0.00228476,-0.00127252,0.001
 22541,0.00112626,0.00210354,-0.00083157,0.04538256,0.00563589,-0.00552
 953,0.00001206,-0.00042653,0.00024546,-0.00150136,-0.00080979,0.000388
 67,-0.00004071,-0.00008283,0.00010507,-0.15712691,-0.08035420,-0.00024
 758,0.00086873,0.00095638,0.00063772,-0.00493851,0.00369876,0.00094061
 ,0.11237016,0.07708954,-0.00066278,0.00039390,-0.00052238,0.00003742,0
 .00016868,0.00009962,-0.00235350,-0.00259484,0.00187170,-0.00115851,0.
 00021333,-0.00007006,0.00082879,-0.00134735,0.00179649,0.01900959,0.00
 424927,-0.00269293,0.00038480,-0.00017077,-0.00015557,0.00051135,0.000
 77104,-0.00059680,-0.00011963,0.00015070,-0.00007506,0.01251128,-0.007
 46853,-0.01064227,0.00067446,0.00029068,0.00015926,-0.00065263,-0.0003
 1634,-0.00184719,-0.02901062,0.00566021,0.01267518\\-0.00000461,0.0000
 0739,-0.00001948,-0.00000158,0.00000882,-0.00001393,0.00003542,0.00002
 270,0.00003097,0.00005392,-0.00006745,0.00000770,0.00007387,0.00000018
 ,0.00001660,-0.00007703,-0.00004096,-0.00005132,0.00000535,-0.00000273
 ,-0.00002799,-0.00005762,0.00000387,0.00004378,-0.00001225,0.00001181,
 -0.00000714,0.00001852,0.00001247,-0.00001572,0.00000039,-0.00000098,0
 .00002338,-0.00003938,0.00005616,-0.00000036,0.00000500,-0.00001127,0.
 00001351\\\@


 SILVERMAN'S PARADOX - IF MURPHY'S LAW CAN GO WRONG, IT WILL.
 Job cpu time:       0 days  0 hours  1 minutes 12.3 seconds.
 File lengths (MBytes):  RWF=     12 Int=      0 D2E=      0 Chk=      2 Scr=      1
 Normal termination of Gaussian 09 at Thu Apr 14 11:22:11 2016.
