 Entering Gaussian System, Link 0=g09
 Input=Ala-S-opt-freq-tsa3-6-31g.com
 Output=Ala-S-opt-freq-tsa3-6-31g.log
 Initial command:
 /usr/local/gau/g09/l1.exe "/tmp/Gau-2930.inp" -scrdir="/tmp/"
 Entering Link 1 = /usr/local/gau/g09/l1.exe PID=      2932.
  
 Copyright (c) 1988,1990,1992,1993,1995,1998,2003,2009,2013,
            Gaussian, Inc.  All Rights Reserved.
  
 This is part of the Gaussian(R) 09 program.  It is based on
 the Gaussian(R) 03 system (copyright 2003, Gaussian, Inc.),
 the Gaussian(R) 98 system (copyright 1998, Gaussian, Inc.),
 the Gaussian(R) 94 system (copyright 1995, Gaussian, Inc.),
 the Gaussian 92(TM) system (copyright 1992, Gaussian, Inc.),
 the Gaussian 90(TM) system (copyright 1990, Gaussian, Inc.),
 the Gaussian 88(TM) system (copyright 1988, Gaussian, Inc.),
 the Gaussian 86(TM) system (copyright 1986, Carnegie Mellon
 University), and the Gaussian 82(TM) system (copyright 1983,
 Carnegie Mellon University). Gaussian is a federally registered
 trademark of Gaussian, Inc.
  
 This software contains proprietary and confidential information,
 including trade secrets, belonging to Gaussian, Inc.
  
 This software is provided under written license and may be
 used, copied, transmitted, or stored only in accord with that
 written license.
  
 The following legend is applicable only to US Government
 contracts under FAR:
  
                    RESTRICTED RIGHTS LEGEND
  
 Use, reproduction and disclosure by the US Government is
 subject to restrictions as set forth in subparagraphs (a)
 and (c) of the Commercial Computer Software - Restricted
 Rights clause in FAR 52.227-19.
  
 Gaussian, Inc.
 340 Quinnipiac St., Bldg. 40, Wallingford CT 06492
  
  
 ---------------------------------------------------------------
 Warning -- This program may not be used in any manner that
 competes with the business of Gaussian, Inc. or will provide
 assistance to any competitor of Gaussian, Inc.  The licensee
 of this program is prohibited from giving any competitor of
 Gaussian, Inc. access to this program.  By using this program,
 the user acknowledges that Gaussian, Inc. is engaged in the
 business of creating and licensing software in the field of
 computational chemistry and represents and warrants to the
 licensee that it is not a competitor of Gaussian, Inc. and that
 it will not use this program in any manner prohibited above.
 ---------------------------------------------------------------
  

 Cite this work as:
 Gaussian 09, Revision D.01,
 M. J. Frisch, G. W. Trucks, H. B. Schlegel, G. E. Scuseria, 
 M. A. Robb, J. R. Cheeseman, G. Scalmani, V. Barone, B. Mennucci, 
 G. A. Petersson, H. Nakatsuji, M. Caricato, X. Li, H. P. Hratchian, 
 A. F. Izmaylov, J. Bloino, G. Zheng, J. L. Sonnenberg, M. Hada, 
 M. Ehara, K. Toyota, R. Fukuda, J. Hasegawa, M. Ishida, T. Nakajima, 
 Y. Honda, O. Kitao, H. Nakai, T. Vreven, J. A. Montgomery, Jr., 
 J. E. Peralta, F. Ogliaro, M. Bearpark, J. J. Heyd, E. Brothers, 
 K. N. Kudin, V. N. Staroverov, T. Keith, R. Kobayashi, J. Normand, 
 K. Raghavachari, A. Rendell, J. C. Burant, S. S. Iyengar, J. Tomasi, 
 M. Cossi, N. Rega, J. M. Millam, M. Klene, J. E. Knox, J. B. Cross, 
 V. Bakken, C. Adamo, J. Jaramillo, R. Gomperts, R. E. Stratmann, 
 O. Yazyev, A. J. Austin, R. Cammi, C. Pomelli, J. W. Ochterski, 
 R. L. Martin, K. Morokuma, V. G. Zakrzewski, G. A. Voth, 
 P. Salvador, J. J. Dannenberg, S. Dapprich, A. D. Daniels, 
 O. Farkas, J. B. Foresman, J. V. Ortiz, J. Cioslowski, 
 and D. J. Fox, Gaussian, Inc., Wallingford CT, 2013.
 
 ******************************************
 Gaussian 09:  ES64L-G09RevD.01 24-Apr-2013
                13-Apr-2016 
 ******************************************
 %chk=Ala-S-opt-freq-tsa3-6-31g.chk
 ------------------------------------------------
 #p opt=(calcfc,ts) freq rb3lyp/6-31g iop(1/11=1)
 ------------------------------------------------
 1/5=1,10=4,11=1,14=-1,18=20,26=3,38=1/1,3;
 2/9=110,12=2,17=6,18=5,40=1/2;
 3/5=1,6=6,11=2,16=1,25=1,30=1,71=2,74=-5,116=1,140=1/1,2,3;
 4//1;
 5/5=2,38=5/2;
 8/6=4,10=90,11=11/1;
 11/6=1,8=1,9=11,15=111,16=1/1,2,10;
 10/6=1,13=1/2;
 6/7=2,8=2,9=2,10=2,28=1/1;
 7/10=1,18=20,25=1/1,2,3,16;
 1/5=1,10=4,11=1,14=-1,18=20,26=3/3(2);
 2/9=110/2;
 99//99;
 2/9=110/2;
 3/5=1,6=6,11=2,16=1,25=1,30=1,71=1,74=-5,116=1/1,2,3;
 4/5=5,16=3,69=1/1;
 5/5=2,38=5/2;
 7//1,2,3,16;
 1/5=1,11=1,14=-1,18=20,26=3/3(-5);
 2/9=110/2;
 6/7=2,8=2,9=2,10=2,19=2,28=1/1;
 99/9=1/99;
 Leave Link    1 at Wed Apr 13 23:16:38 2016, MaxMem=           0 cpu:         0.0
 (Enter /usr/local/gau/g09/l101.exe)
 -------------------------
 Ala-S-opt-freq-tsa3-6-31g
 -------------------------
 Symbolic Z-matrix:
 Charge =  0 Multiplicity = 1
 N                     1.42318   1.18339  -0.00375 
 H                     2.42041   1.25932  -0.08622 
 C                     0.80524  -0.06503  -0.02899 
 H                    -1.92229  -1.55938  -0.73536 
 C                     1.71327  -1.26311  -0.03667 
 C                    -0.69003  -0.18377  -0.03621 
 H                     2.35878  -1.26602   0.85199 
 H                     1.132    -2.18562  -0.03965 
 H                     2.36849  -1.25606  -0.9192 
 O                    -1.49931   0.96743  -0.12751 
 H                     0.86083   2.01118  -0.10047 
 O                    -1.38028  -1.39931   0.0679 
 H                    -0.13828   1.00683   0.71274 
 
 Add virtual bond connecting atoms H13        and C3         Dist= 3.04D+00.
 Add virtual bond connecting atoms H13        and C6         Dist= 2.86D+00.
 Add virtual bond connecting atoms H13        and O10        Dist= 3.02D+00.
 Add virtual bond connecting atoms H13        and H11        Dist= 3.09D+00.
 NAtoms=     13 NQM=       13 NQMF=       0 NMMI=      0 NMMIF=      0
                NMic=       0 NMicF=      0.
                    Isotopes and Nuclear Properties:
 (Nuclear quadrupole moments (NQMom) in fm**2, nuclear magnetic moments (NMagM)
  in nuclear magnetons)

  Atom         1           2           3           4           5           6           7           8           9          10
 IAtWgt=          14           1          12           1          12          12           1           1           1          16
 AtmWgt=  14.0030740   1.0078250  12.0000000   1.0078250  12.0000000  12.0000000   1.0078250   1.0078250   1.0078250  15.9949146
 NucSpn=           2           1           0           1           0           0           1           1           1           0
 AtZEff=   0.0000000   0.0000000   0.0000000   0.0000000   0.0000000   0.0000000   0.0000000   0.0000000   0.0000000   0.0000000
 NQMom=    2.0440000   0.0000000   0.0000000   0.0000000   0.0000000   0.0000000   0.0000000   0.0000000   0.0000000   0.0000000
 NMagM=    0.4037610   2.7928460   0.0000000   2.7928460   0.0000000   0.0000000   2.7928460   2.7928460   2.7928460   0.0000000
 AtZNuc=   7.0000000   1.0000000   6.0000000   1.0000000   6.0000000   6.0000000   1.0000000   1.0000000   1.0000000   8.0000000

  Atom        11          12          13
 IAtWgt=           1          16           1
 AtmWgt=   1.0078250  15.9949146   1.0078250
 NucSpn=           1           0           1
 AtZEff=   0.0000000   0.0000000   0.0000000
 NQMom=    0.0000000   0.0000000   0.0000000
 NMagM=    2.7928460   0.0000000   2.7928460
 AtZNuc=   1.0000000   8.0000000   1.0000000
 Leave Link  101 at Wed Apr 13 23:16:39 2016, MaxMem=    33554432 cpu:         0.3
 (Enter /usr/local/gau/g09/l103.exe)

 GradGradGradGradGradGradGradGradGradGradGradGradGradGradGradGradGradGrad
 Berny optimization.
 Initialization pass.
                           ----------------------------
                           !    Initial Parameters    !
                           ! (Angstroms and Degrees)  !
 --------------------------                            --------------------------
 ! Name  Definition              Value          Derivative Info.                !
 --------------------------------------------------------------------------------
 ! R1    R(1,2)                  1.0035         calculate D2E/DX2 analytically  !
 ! R2    R(1,3)                  1.3932         calculate D2E/DX2 analytically  !
 ! R3    R(1,11)                 1.0054         calculate D2E/DX2 analytically  !
 ! R4    R(3,5)                  1.5033         calculate D2E/DX2 analytically  !
 ! R5    R(3,6)                  1.5            calculate D2E/DX2 analytically  !
 ! R6    R(3,13)                 1.6091         calculate D2E/DX2 analytically  !
 ! R7    R(4,12)                 0.9822         calculate D2E/DX2 analytically  !
 ! R8    R(5,7)                  1.0984         calculate D2E/DX2 analytically  !
 ! R9    R(5,8)                  1.0904         calculate D2E/DX2 analytically  !
 ! R10   R(5,9)                  1.0992         calculate D2E/DX2 analytically  !
 ! R11   R(6,10)                 1.4102         calculate D2E/DX2 analytically  !
 ! R12   R(6,12)                 1.4017         calculate D2E/DX2 analytically  !
 ! R13   R(6,13)                 1.5109         calculate D2E/DX2 analytically  !
 ! R14   R(10,13)                1.6            calculate D2E/DX2 analytically  !
 ! R15   R(11,13)                1.6335         calculate D2E/DX2 analytically  !
 ! A1    A(2,1,3)              120.4689         calculate D2E/DX2 analytically  !
 ! A2    A(2,1,11)             119.0538         calculate D2E/DX2 analytically  !
 ! A3    A(3,1,11)             119.2059         calculate D2E/DX2 analytically  !
 ! A4    A(1,3,5)              116.508          calculate D2E/DX2 analytically  !
 ! A5    A(1,3,6)              120.8748         calculate D2E/DX2 analytically  !
 ! A6    A(1,3,13)              69.8082         calculate D2E/DX2 analytically  !
 ! A7    A(5,3,6)              122.6153         calculate D2E/DX2 analytically  !
 ! A8    A(5,3,13)             152.5466         calculate D2E/DX2 analytically  !
 ! A9    A(3,5,7)              110.6686         calculate D2E/DX2 analytically  !
 ! A10   A(3,5,8)              110.6273         calculate D2E/DX2 analytically  !
 ! A11   A(3,5,9)              111.0413         calculate D2E/DX2 analytically  !
 ! A12   A(7,5,8)              108.2564         calculate D2E/DX2 analytically  !
 ! A13   A(7,5,9)              107.4144         calculate D2E/DX2 analytically  !
 ! A14   A(8,5,9)              108.7238         calculate D2E/DX2 analytically  !
 ! A15   A(3,6,10)             120.5154         calculate D2E/DX2 analytically  !
 ! A16   A(3,6,12)             123.9986         calculate D2E/DX2 analytically  !
 ! A17   A(10,6,12)            115.4764         calculate D2E/DX2 analytically  !
 ! A18   A(12,6,13)            145.7246         calculate D2E/DX2 analytically  !
 ! A19   A(1,11,13)             77.7595         calculate D2E/DX2 analytically  !
 ! A20   A(4,12,6)             110.6311         calculate D2E/DX2 analytically  !
 ! A21   A(3,13,10)            103.9048         calculate D2E/DX2 analytically  !
 ! A22   A(3,13,11)             79.7138         calculate D2E/DX2 analytically  !
 ! A23   A(6,13,11)            117.457          calculate D2E/DX2 analytically  !
 ! A24   A(10,13,11)           105.9016         calculate D2E/DX2 analytically  !
 ! D1    D(2,1,3,5)              6.2762         calculate D2E/DX2 analytically  !
 ! D2    D(2,1,3,6)           -174.2135         calculate D2E/DX2 analytically  !
 ! D3    D(2,1,3,13)           157.1022         calculate D2E/DX2 analytically  !
 ! D4    D(11,1,3,5)           173.2777         calculate D2E/DX2 analytically  !
 ! D5    D(11,1,3,6)            -7.2119         calculate D2E/DX2 analytically  !
 ! D6    D(11,1,3,13)          -35.8963         calculate D2E/DX2 analytically  !
 ! D7    D(2,1,11,13)         -159.1238         calculate D2E/DX2 analytically  !
 ! D8    D(3,1,11,13)           33.6892         calculate D2E/DX2 analytically  !
 ! D9    D(1,3,5,7)             59.0596         calculate D2E/DX2 analytically  !
 ! D10   D(1,3,5,8)            179.0434         calculate D2E/DX2 analytically  !
 ! D11   D(1,3,5,9)            -60.1392         calculate D2E/DX2 analytically  !
 ! D12   D(6,3,5,7)           -120.4415         calculate D2E/DX2 analytically  !
 ! D13   D(6,3,5,8)             -0.4577         calculate D2E/DX2 analytically  !
 ! D14   D(6,3,5,9)            120.3597         calculate D2E/DX2 analytically  !
 ! D15   D(13,3,5,7)           -38.0271         calculate D2E/DX2 analytically  !
 ! D16   D(13,3,5,8)            81.9567         calculate D2E/DX2 analytically  !
 ! D17   D(13,3,5,9)          -157.2259         calculate D2E/DX2 analytically  !
 ! D18   D(1,3,6,10)             5.1914         calculate D2E/DX2 analytically  !
 ! D19   D(1,3,6,12)          -173.6291         calculate D2E/DX2 analytically  !
 ! D20   D(5,3,6,10)          -175.3288         calculate D2E/DX2 analytically  !
 ! D21   D(5,3,6,12)             5.8507         calculate D2E/DX2 analytically  !
 ! D22   D(1,3,13,10)          122.6726         calculate D2E/DX2 analytically  !
 ! D23   D(1,3,13,11)           18.6715         calculate D2E/DX2 analytically  !
 ! D24   D(5,3,13,10)         -128.4452         calculate D2E/DX2 analytically  !
 ! D25   D(5,3,13,11)          127.5538         calculate D2E/DX2 analytically  !
 ! D26   D(3,6,12,4)          -118.4765         calculate D2E/DX2 analytically  !
 ! D27   D(10,6,12,4)           62.649          calculate D2E/DX2 analytically  !
 ! D28   D(13,6,12,4)          147.437          calculate D2E/DX2 analytically  !
 ! D29   D(12,6,13,11)         168.8744         calculate D2E/DX2 analytically  !
 ! D30   D(1,11,13,3)          -25.2174         calculate D2E/DX2 analytically  !
 ! D31   D(1,11,13,6)          -69.8244         calculate D2E/DX2 analytically  !
 ! D32   D(1,11,13,10)        -126.886          calculate D2E/DX2 analytically  !
 --------------------------------------------------------------------------------
 Trust Radius=3.00D-01 FncErr=1.00D-07 GrdErr=1.00D-06
 Number of steps in this run=     81 maximum allowed number of steps=    100.
 Search for a saddle point of order  1.
 GradGradGradGradGradGradGradGradGradGradGradGradGradGradGradGradGradGrad

 Leave Link  103 at Wed Apr 13 23:16:39 2016, MaxMem=    33554432 cpu:         0.0
 (Enter /usr/local/gau/g09/l202.exe)
                          Input orientation:                          
 ---------------------------------------------------------------------
 Center     Atomic      Atomic             Coordinates (Angstroms)
 Number     Number       Type             X           Y           Z
 ---------------------------------------------------------------------
      1          7           0        1.423182    1.183392   -0.003752
      2          1           0        2.420412    1.259318   -0.086216
      3          6           0        0.805241   -0.065028   -0.028986
      4          1           0       -1.922294   -1.559382   -0.735357
      5          6           0        1.713267   -1.263112   -0.036666
      6          6           0       -0.690034   -0.183774   -0.036208
      7          1           0        2.358784   -1.266024    0.851990
      8          1           0        1.132000   -2.185620   -0.039646
      9          1           0        2.368492   -1.256062   -0.919195
     10          8           0       -1.499315    0.967433   -0.127510
     11          1           0        0.860834    2.011176   -0.100474
     12          8           0       -1.380282   -1.399305    0.067898
     13          1           0       -0.138278    1.006827    0.712744
 ---------------------------------------------------------------------
                    Distance matrix (angstroms):
                    1          2          3          4          5
     1  N    0.000000
     2  H    1.003510   0.000000
     3  C    1.393212   2.089484   0.000000
     4  H    4.387513   5.217811   3.189279   0.000000
     5  C    2.463862   2.620145   1.503321   3.713926   0.000000
     6  C    2.517117   3.429270   1.500000   1.974733   2.634545
     7  H    2.758131   2.694695   2.152210   4.575299   1.098367
     8  H    3.381762   3.678284   2.145646   3.194511   1.090367
     9  H    2.771747   2.650224   2.157496   4.305420   1.099194
    10  O    2.933077   3.930797   2.527184   2.633094   3.912067
    11  H    1.005394   1.731409   2.078178   4.571407   3.384032
    12  O    3.812462   4.640830   2.562458   0.982151   3.098310
    13  H    1.727050   2.692394   1.609119   3.444581   3.023649
                    6          7          8          9         10
     6  C    0.000000
     7  H    3.354914   0.000000
     8  H    2.706881   1.773604   0.000000
     9  H    3.359174   1.771240   1.779493   0.000000
    10  O    1.410159   4.564283   4.107710   4.531073   0.000000
    11  H    2.688332   3.727074   4.205987   3.690282   2.580782
    12  O    1.401712   3.822719   2.634657   3.879198   2.377772
    13  H    1.510925   3.379431   3.517302   3.750705   1.600000
                   11         12         13
    11  H    0.000000
    12  O    4.084401   0.000000
    13  H    1.633483   2.783499   0.000000
 Stoichiometry    C3H7NO2
 Framework group  C1[X(C3H7NO2)]
 Deg. of freedom    33
 Full point group                 C1      NOp   1
 Largest Abelian subgroup         C1      NOp   1
 Largest concise Abelian subgroup C1      NOp   1
                         Standard orientation:                         
 ---------------------------------------------------------------------
 Center     Atomic      Atomic             Coordinates (Angstroms)
 Number     Number       Type             X           Y           Z
 ---------------------------------------------------------------------
      1          7           0        1.424481   -1.198829   -0.005927
      2          1           0        2.423262   -1.191525    0.091103
      3          6           0        0.704466   -0.006192    0.009446
      4          1           0       -2.147993    1.255565    0.674993
      5          6           0        1.509405    1.263314    0.029525
      6          6           0       -0.795450   -0.012328   -0.005190
      7          1           0        2.165319    1.320417   -0.849638
      8          1           0        0.853386    2.134234    0.023405
      9          1           0        2.150015    1.310364    0.921507
     10          8           0       -1.507342   -1.226952    0.075108
     11          1           0        0.931639   -2.070600    0.083164
     12          8           0       -1.582892    1.141583   -0.120173
     13          1           0       -0.135652   -1.152474   -0.745209
 ---------------------------------------------------------------------
 Rotational constants (GHZ):      4.8651709      2.9763310      1.8869254
 Leave Link  202 at Wed Apr 13 23:16:39 2016, MaxMem=    33554432 cpu:         0.0
 (Enter /usr/local/gau/g09/l301.exe)
 Standard basis: 6-31G (6D, 7F)
 Ernie: Thresh=  0.10000D-02 Tol=  0.10000D-05 Strict=F.
 There are    68 symmetry adapted cartesian basis functions of A   symmetry.
 There are    68 symmetry adapted basis functions of A   symmetry.
    68 basis functions,   160 primitive gaussians,    68 cartesian basis functions
    24 alpha electrons       24 beta electrons
       nuclear repulsion energy       240.8670947923 Hartrees.
 IExCor=  402 DFT=T Ex+Corr=B3LYP ExCW=0 ScaHFX=  0.200000
 ScaDFX=  0.800000  0.720000  1.000000  0.810000 ScalE2=  1.000000  1.000000
 IRadAn=      0 IRanWt=     -1 IRanGd=            0 ICorTp=0 IEmpDi=  4
 NAtoms=   13 NActive=   13 NUniq=   13 SFac= 1.00D+00 NAtFMM=   60 NAOKFM=F Big=F
 Integral buffers will be    131072 words long.
 Raffenetti 2 integral format.
 Two-electron integral symmetry is turned on.
 Leave Link  301 at Wed Apr 13 23:16:39 2016, MaxMem=    33554432 cpu:         0.0
 (Enter /usr/local/gau/g09/l302.exe)
 NPDir=0 NMtPBC=     1 NCelOv=     1 NCel=       1 NClECP=     1 NCelD=      1
         NCelK=      1 NCelE2=     1 NClLst=     1 CellRange=     0.0.
 One-electron integrals computed using PRISM.
 NBasis=    68 RedAO= T EigKep=  3.88D-03  NBF=    68
 NBsUse=    68 1.00D-06 EigRej= -1.00D+00 NBFU=    68
 Precomputing XC quadrature grid using
 IXCGrd= 4 IRadAn=           0 IRanWt=          -1 IRanGd=           0 AccXCQ= 0.00D+00.
 Generated NRdTot=       0 NPtTot=           0 NUsed=           0 NTot=          32
 NSgBfM=    68    68    68    68    68 MxSgAt=    13 MxSgA2=    13.
 Leave Link  302 at Wed Apr 13 23:16:39 2016, MaxMem=    33554432 cpu:         0.2
 (Enter /usr/local/gau/g09/l303.exe)
 DipDrv:  MaxL=1.
 Leave Link  303 at Wed Apr 13 23:16:39 2016, MaxMem=    33554432 cpu:         0.0
 (Enter /usr/local/gau/g09/l401.exe)
 ExpMin= 1.61D-01 ExpMax= 5.48D+03 ExpMxC= 8.25D+02 IAcc=1 IRadAn=         1 AccDes= 0.00D+00
 Harris functional with IExCor=  402 and IRadAn=       1 diagonalized for initial guess.
 HarFok:  IExCor=  402 AccDes= 0.00D+00 IRadAn=         1 IDoV= 1 UseB2=F ITyADJ=14
 ICtDFT=  3500011 ScaDFX=  1.000000  1.000000  1.000000  1.000000
 FoFCou: FMM=F IPFlag=           0 FMFlag=      100000 FMFlg1=           0
         NFxFlg=           0 DoJE=T BraDBF=F KetDBF=T FulRan=T
         wScrn=  0.000000 ICntrl=     500 IOpCl=  0 I1Cent=   200000004 NGrid=           0
         NMat0=    1 NMatS0=      1 NMatT0=    0 NMatD0=    1 NMtDS0=    0 NMtDT0=    0
 Petite list used in FoFCou.
 Harris En= -323.502970818385    
 JPrj=0 DoOrth=F DoCkMO=F.
 Leave Link  401 at Wed Apr 13 23:16:40 2016, MaxMem=    33554432 cpu:         0.6
 (Enter /usr/local/gau/g09/l502.exe)
 Closed shell SCF:
 Using DIIS extrapolation, IDIIS=  1040.
 Integral symmetry usage will be decided dynamically.
 Keep R1 ints in memory in canonical form, NReq=3676491.
 IVT=       33364 IEndB=       33364 NGot=    33554432 MDV=    30768038
 LenX=    30768038 LenY=    30762973
 Requested convergence on RMS density matrix=1.00D-08 within 128 cycles.
 Requested convergence on MAX density matrix=1.00D-06.
 Requested convergence on             energy=1.00D-06.
 No special actions if energy rises.
 FoFCou: FMM=F IPFlag=           0 FMFlag=           0 FMFlg1=           0
         NFxFlg=           0 DoJE=F BraDBF=F KetDBF=F FulRan=T
         wScrn=  0.000000 ICntrl=     600 IOpCl=  0 I1Cent=           0 NGrid=           0
         NMat0=    1 NMatS0=   2346 NMatT0=    0 NMatD0=    1 NMtDS0=    0 NMtDT0=    0
 Symmetry not used in FoFCou.
 Integral accuracy reduced to 1.0D-05 until final iterations.

 Cycle   1  Pass 0  IDiag  1:
 E= -323.204178277186    
 DIIS: error= 4.34D-02 at cycle   1 NSaved=   1.
 NSaved= 1 IEnMin= 1 EnMin= -323.204178277186     IErMin= 1 ErrMin= 4.34D-02
 ErrMax= 4.34D-02  0.00D+00 EMaxC= 1.00D-01 BMatC= 2.46D-01 BMatP= 2.46D-01
 IDIUse=3 WtCom= 5.66D-01 WtEn= 4.34D-01
 Coeff-Com:  0.100D+01
 Coeff-En:   0.100D+01
 Coeff:      0.100D+01
 Gap=     0.087 Goal=   None    Shift=    0.000
 GapD=    0.087 DampG=0.500 DampE=0.500 DampFc=0.2500 IDamp=-1.
 Damping current iteration by 2.50D-01
 RMSDP=2.33D-02 MaxDP=4.07D-01              OVMax= 4.74D-01

 Cycle   2  Pass 0  IDiag  1:
 E= -323.266252407048     Delta-E=       -0.062074129861 Rises=F Damp=T
 DIIS: error= 1.73D-02 at cycle   2 NSaved=   2.
 NSaved= 2 IEnMin= 2 EnMin= -323.266252407048     IErMin= 2 ErrMin= 1.73D-02
 ErrMax= 1.73D-02  0.00D+00 EMaxC= 1.00D-01 BMatC= 3.81D-02 BMatP= 2.46D-01
 IDIUse=3 WtCom= 8.27D-01 WtEn= 1.73D-01
 Coeff-Com: -0.232D+00 0.123D+01
 Coeff-En:   0.168D+00 0.832D+00
 Coeff:     -0.163D+00 0.116D+01
 Gap=     0.085 Goal=   None    Shift=    0.000
 RMSDP=8.09D-03 MaxDP=1.06D-01 DE=-6.21D-02 OVMax= 4.15D-01

 Cycle   3  Pass 0  IDiag  1:
 E= -323.282637205205     Delta-E=       -0.016384798158 Rises=F Damp=F
 DIIS: error= 4.19D-02 at cycle   3 NSaved=   3.
 NSaved= 3 IEnMin= 3 EnMin= -323.282637205205     IErMin= 2 ErrMin= 1.73D-02
 ErrMax= 4.19D-02  0.00D+00 EMaxC= 1.00D-01 BMatC= 1.47D-01 BMatP= 3.81D-02
 IDIUse=2 WtCom= 0.00D+00 WtEn= 1.00D+00
 Coeff-En:   0.000D+00 0.459D+00 0.541D+00
 Coeff:      0.000D+00 0.459D+00 0.541D+00
 Gap=     0.123 Goal=   None    Shift=    0.000
 RMSDP=1.55D-02 MaxDP=1.91D-01 DE=-1.64D-02 OVMax= 4.24D-01

 Cycle   4  Pass 0  IDiag  1:
 E= -323.048064363117     Delta-E=        0.234572842088 Rises=F Damp=F
 DIIS: error= 7.11D-02 at cycle   4 NSaved=   4.
 NSaved= 4 IEnMin= 3 EnMin= -323.282637205205     IErMin= 2 ErrMin= 1.73D-02
 ErrMax= 7.11D-02  0.00D+00 EMaxC= 1.00D-01 BMatC= 4.10D-01 BMatP= 3.81D-02
 IDIUse=2 WtCom= 0.00D+00 WtEn= 1.00D+00
 EnCoef did     2 forward-backward iterations
 Coeff-En:   0.441D-01 0.000D+00 0.623D+00 0.333D+00
 Coeff:      0.441D-01 0.000D+00 0.623D+00 0.333D+00
 Gap=     0.134 Goal=   None    Shift=    0.000
 RMSDP=9.32D-03 MaxDP=1.23D-01 DE= 2.35D-01 OVMax= 2.47D-01

 Cycle   5  Pass 0  IDiag  1:
 E= -323.418072591533     Delta-E=       -0.370008228416 Rises=F Damp=F
 DIIS: error= 1.01D-02 at cycle   5 NSaved=   5.
 NSaved= 5 IEnMin= 5 EnMin= -323.418072591533     IErMin= 5 ErrMin= 1.01D-02
 ErrMax= 1.01D-02  0.00D+00 EMaxC= 1.00D-01 BMatC= 1.44D-02 BMatP= 3.81D-02
 IDIUse=3 WtCom= 8.99D-01 WtEn= 1.01D-01
 Coeff-Com: -0.220D+00 0.263D+00 0.205D+00-0.453D-01 0.797D+00
 Coeff-En:   0.000D+00 0.000D+00 0.844D-01 0.000D+00 0.916D+00
 Coeff:     -0.197D+00 0.237D+00 0.193D+00-0.407D-01 0.809D+00
 Gap=     0.120 Goal=   None    Shift=    0.000
 RMSDP=1.84D-03 MaxDP=2.13D-02 DE=-3.70D-01 OVMax= 4.56D-02

 Cycle   6  Pass 0  IDiag  1:
 E= -323.431510507654     Delta-E=       -0.013437916121 Rises=F Damp=F
 DIIS: error= 2.12D-03 at cycle   6 NSaved=   6.
 NSaved= 6 IEnMin= 6 EnMin= -323.431510507654     IErMin= 6 ErrMin= 2.12D-03
 ErrMax= 2.12D-03  0.00D+00 EMaxC= 1.00D-01 BMatC= 3.31D-04 BMatP= 1.44D-02
 IDIUse=3 WtCom= 9.79D-01 WtEn= 2.12D-02
 Coeff-Com: -0.877D-01 0.114D+00 0.533D-01-0.213D-01 0.315D+00 0.627D+00
 Coeff-En:   0.000D+00 0.000D+00 0.000D+00 0.000D+00 0.000D+00 0.100D+01
 Coeff:     -0.858D-01 0.112D+00 0.522D-01-0.209D-01 0.308D+00 0.635D+00
 Gap=     0.121 Goal=   None    Shift=    0.000
 RMSDP=2.85D-04 MaxDP=2.73D-03 DE=-1.34D-02 OVMax= 4.45D-03

 Cycle   7  Pass 0  IDiag  1:
 E= -323.431788065950     Delta-E=       -0.000277558296 Rises=F Damp=F
 DIIS: error= 7.17D-04 at cycle   7 NSaved=   7.
 NSaved= 7 IEnMin= 7 EnMin= -323.431788065950     IErMin= 7 ErrMin= 7.17D-04
 ErrMax= 7.17D-04  0.00D+00 EMaxC= 1.00D-01 BMatC= 4.09D-05 BMatP= 3.31D-04
 IDIUse=3 WtCom= 9.93D-01 WtEn= 7.17D-03
 Coeff-Com: -0.172D-01 0.241D-01-0.117D-02-0.179D-02 0.581D-01 0.369D+00
 Coeff-Com:  0.569D+00
 Coeff-En:   0.000D+00 0.000D+00 0.000D+00 0.000D+00 0.000D+00 0.000D+00
 Coeff-En:   0.100D+01
 Coeff:     -0.170D-01 0.239D-01-0.117D-02-0.177D-02 0.577D-01 0.366D+00
 Coeff:      0.572D+00
 Gap=     0.122 Goal=   None    Shift=    0.000
 RMSDP=1.09D-04 MaxDP=1.42D-03 DE=-2.78D-04 OVMax= 2.92D-03

 Cycle   8  Pass 0  IDiag  1:
 E= -323.431827022082     Delta-E=       -0.000038956132 Rises=F Damp=F
 DIIS: error= 2.09D-04 at cycle   8 NSaved=   8.
 NSaved= 8 IEnMin= 8 EnMin= -323.431827022082     IErMin= 8 ErrMin= 2.09D-04
 ErrMax= 2.09D-04  0.00D+00 EMaxC= 1.00D-01 BMatC= 3.38D-06 BMatP= 4.09D-05
 IDIUse=3 WtCom= 9.98D-01 WtEn= 2.09D-03
 Coeff-Com:  0.278D-02-0.510D-02-0.837D-02 0.264D-02-0.766D-02 0.125D+00
 Coeff-Com:  0.311D+00 0.579D+00
 Coeff-En:   0.000D+00 0.000D+00 0.000D+00 0.000D+00 0.000D+00 0.000D+00
 Coeff-En:   0.000D+00 0.100D+01
 Coeff:      0.277D-02-0.509D-02-0.835D-02 0.263D-02-0.764D-02 0.125D+00
 Coeff:      0.311D+00 0.580D+00
 Gap=     0.122 Goal=   None    Shift=    0.000
 RMSDP=3.24D-05 MaxDP=3.18D-04 DE=-3.90D-05 OVMax= 5.23D-04

 Cycle   9  Pass 0  IDiag  1:
 E= -323.431829854365     Delta-E=       -0.000002832283 Rises=F Damp=F
 DIIS: error= 4.50D-05 at cycle   9 NSaved=   9.
 NSaved= 9 IEnMin= 9 EnMin= -323.431829854365     IErMin= 9 ErrMin= 4.50D-05
 ErrMax= 4.50D-05  0.00D+00 EMaxC= 1.00D-01 BMatC= 1.72D-07 BMatP= 3.38D-06
 IDIUse=1 WtCom= 1.00D+00 WtEn= 0.00D+00
 Coeff-Com:  0.166D-02-0.328D-02-0.247D-02 0.780D-03-0.277D-02 0.305D-01
 Coeff-Com:  0.754D-01 0.212D+00 0.688D+00
 Coeff:      0.166D-02-0.328D-02-0.247D-02 0.780D-03-0.277D-02 0.305D-01
 Coeff:      0.754D-01 0.212D+00 0.688D+00
 Gap=     0.122 Goal=   None    Shift=    0.000
 RMSDP=7.45D-06 MaxDP=9.40D-05 DE=-2.83D-06 OVMax= 1.12D-04

 Initial convergence to 1.0D-05 achieved.  Increase integral accuracy.
 Cycle  10  Pass 1  IDiag  1:
 E= -323.431872288604     Delta-E=       -0.000042434238 Rises=F Damp=F
 DIIS: error= 2.26D-05 at cycle   1 NSaved=   1.
 NSaved= 1 IEnMin= 1 EnMin= -323.431872288604     IErMin= 1 ErrMin= 2.26D-05
 ErrMax= 2.26D-05  0.00D+00 EMaxC= 1.00D-01 BMatC= 4.49D-08 BMatP= 4.49D-08
 IDIUse=1 WtCom= 1.00D+00 WtEn= 0.00D+00
 Coeff-Com:  0.100D+01
 Coeff:      0.100D+01
 Gap=     0.122 Goal=   None    Shift=    0.000
 RMSDP=7.45D-06 MaxDP=9.40D-05 DE=-4.24D-05 OVMax= 3.74D-04

 Cycle  11  Pass 1  IDiag  1:
 E= -323.431872032260     Delta-E=        0.000000256344 Rises=F Damp=F
 DIIS: error= 6.19D-05 at cycle   2 NSaved=   2.
 NSaved= 2 IEnMin= 1 EnMin= -323.431872288604     IErMin= 1 ErrMin= 2.26D-05
 ErrMax= 6.19D-05  0.00D+00 EMaxC= 1.00D-01 BMatC= 3.39D-07 BMatP= 4.49D-08
 IDIUse=1 WtCom= 1.00D+00 WtEn= 0.00D+00
 Coeff-Com:  0.751D+00 0.249D+00
 Coeff:      0.751D+00 0.249D+00
 Gap=     0.122 Goal=   None    Shift=    0.000
 RMSDP=1.01D-05 MaxDP=1.27D-04 DE= 2.56D-07 OVMax= 3.00D-04

 Cycle  12  Pass 1  IDiag  1:
 E= -323.431872352533     Delta-E=       -0.000000320273 Rises=F Damp=F
 DIIS: error= 6.02D-06 at cycle   3 NSaved=   3.
 NSaved= 3 IEnMin= 3 EnMin= -323.431872352533     IErMin= 3 ErrMin= 6.02D-06
 ErrMax= 6.02D-06  0.00D+00 EMaxC= 1.00D-01 BMatC= 5.40D-09 BMatP= 4.49D-08
 IDIUse=1 WtCom= 1.00D+00 WtEn= 0.00D+00
 Coeff-Com:  0.212D+00 0.123D+00 0.664D+00
 Coeff:      0.212D+00 0.123D+00 0.664D+00
 Gap=     0.122 Goal=   None    Shift=    0.000
 RMSDP=1.84D-06 MaxDP=2.56D-05 DE=-3.20D-07 OVMax= 3.21D-05

 Cycle  13  Pass 1  IDiag  1:
 E= -323.431872357345     Delta-E=       -0.000000004811 Rises=F Damp=F
 DIIS: error= 2.53D-06 at cycle   4 NSaved=   4.
 NSaved= 4 IEnMin= 4 EnMin= -323.431872357345     IErMin= 4 ErrMin= 2.53D-06
 ErrMax= 2.53D-06  0.00D+00 EMaxC= 1.00D-01 BMatC= 9.78D-10 BMatP= 5.40D-09
 IDIUse=1 WtCom= 1.00D+00 WtEn= 0.00D+00
 Coeff-Com: -0.624D-02 0.274D-01 0.344D+00 0.635D+00
 Coeff:     -0.624D-02 0.274D-01 0.344D+00 0.635D+00
 Gap=     0.122 Goal=   None    Shift=    0.000
 RMSDP=1.00D-06 MaxDP=1.02D-05 DE=-4.81D-09 OVMax= 3.18D-05

 Cycle  14  Pass 1  IDiag  1:
 E= -323.431872358535     Delta-E=       -0.000000001190 Rises=F Damp=F
 DIIS: error= 1.18D-06 at cycle   5 NSaved=   5.
 NSaved= 5 IEnMin= 5 EnMin= -323.431872358535     IErMin= 5 ErrMin= 1.18D-06
 ErrMax= 1.18D-06  0.00D+00 EMaxC= 1.00D-01 BMatC= 1.95D-10 BMatP= 9.78D-10
 IDIUse=1 WtCom= 1.00D+00 WtEn= 0.00D+00
 Coeff-Com: -0.184D-01 0.123D-01 0.160D+00 0.394D+00 0.452D+00
 Coeff:     -0.184D-01 0.123D-01 0.160D+00 0.394D+00 0.452D+00
 Gap=     0.122 Goal=   None    Shift=    0.000
 RMSDP=2.08D-07 MaxDP=2.62D-06 DE=-1.19D-09 OVMax= 4.57D-06

 Cycle  15  Pass 1  IDiag  1:
 E= -323.431872358694     Delta-E=       -0.000000000159 Rises=F Damp=F
 DIIS: error= 6.74D-07 at cycle   6 NSaved=   6.
 NSaved= 6 IEnMin= 6 EnMin= -323.431872358694     IErMin= 6 ErrMin= 6.74D-07
 ErrMax= 6.74D-07  0.00D+00 EMaxC= 1.00D-01 BMatC= 2.37D-11 BMatP= 1.95D-10
 IDIUse=1 WtCom= 1.00D+00 WtEn= 0.00D+00
 Coeff-Com: -0.405D-02 0.479D-02-0.728D-02 0.688D-01 0.131D+00 0.807D+00
 Coeff:     -0.405D-02 0.479D-02-0.728D-02 0.688D-01 0.131D+00 0.807D+00
 Gap=     0.122 Goal=   None    Shift=    0.000
 RMSDP=1.94D-07 MaxDP=2.14D-06 DE=-1.59D-10 OVMax= 6.81D-06

 Cycle  16  Pass 1  IDiag  1:
 E= -323.431872358729     Delta-E=       -0.000000000035 Rises=F Damp=F
 DIIS: error= 2.99D-07 at cycle   7 NSaved=   7.
 NSaved= 7 IEnMin= 7 EnMin= -323.431872358729     IErMin= 7 ErrMin= 2.99D-07
 ErrMax= 2.99D-07  0.00D+00 EMaxC= 1.00D-01 BMatC= 6.88D-12 BMatP= 2.37D-11
 IDIUse=1 WtCom= 1.00D+00 WtEn= 0.00D+00
 Coeff-Com:  0.323D-03 0.952D-03-0.395D-01-0.231D-01-0.153D-01 0.563D+00
 Coeff-Com:  0.514D+00
 Coeff:      0.323D-03 0.952D-03-0.395D-01-0.231D-01-0.153D-01 0.563D+00
 Coeff:      0.514D+00
 Gap=     0.122 Goal=   None    Shift=    0.000
 RMSDP=7.13D-08 MaxDP=8.79D-07 DE=-3.54D-11 OVMax= 1.98D-06

 Cycle  17  Pass 1  IDiag  1:
 E= -323.431872358736     Delta-E=       -0.000000000008 Rises=F Damp=F
 DIIS: error= 9.24D-08 at cycle   8 NSaved=   8.
 NSaved= 8 IEnMin= 8 EnMin= -323.431872358736     IErMin= 8 ErrMin= 9.24D-08
 ErrMax= 9.24D-08  0.00D+00 EMaxC= 1.00D-01 BMatC= 4.80D-13 BMatP= 6.88D-12
 IDIUse=1 WtCom= 1.00D+00 WtEn= 0.00D+00
 Coeff-Com:  0.126D-02-0.552D-03-0.205D-01-0.229D-01-0.454D-01 0.117D+00
 Coeff-Com:  0.219D+00 0.752D+00
 Coeff:      0.126D-02-0.552D-03-0.205D-01-0.229D-01-0.454D-01 0.117D+00
 Coeff:      0.219D+00 0.752D+00
 Gap=     0.122 Goal=   None    Shift=    0.000
 RMSDP=3.74D-08 MaxDP=4.82D-07 DE=-7.50D-12 OVMax= 1.20D-06

 Cycle  18  Pass 1  IDiag  1:
 E= -323.431872358737     Delta-E=        0.000000000000 Rises=F Damp=F
 DIIS: error= 1.93D-08 at cycle   9 NSaved=   9.
 NSaved= 9 IEnMin= 9 EnMin= -323.431872358737     IErMin= 9 ErrMin= 1.93D-08
 ErrMax= 1.93D-08  0.00D+00 EMaxC= 1.00D-01 BMatC= 3.95D-14 BMatP= 4.80D-13
 IDIUse=1 WtCom= 1.00D+00 WtEn= 0.00D+00
 Coeff-Com:  0.459D-03-0.242D-03-0.425D-02-0.514D-02-0.172D-01-0.930D-02
 Coeff-Com:  0.312D-01 0.278D+00 0.726D+00
 Coeff:      0.459D-03-0.242D-03-0.425D-02-0.514D-02-0.172D-01-0.930D-02
 Coeff:      0.312D-01 0.278D+00 0.726D+00
 Gap=     0.122 Goal=   None    Shift=    0.000
 RMSDP=7.44D-09 MaxDP=9.40D-08 DE=-4.55D-13 OVMax= 2.32D-07

 SCF Done:  E(RB3LYP) =  -323.431872359     A.U. after   18 cycles
            NFock= 18  Conv=0.74D-08     -V/T= 2.0065
 KE= 3.213511526139D+02 PE=-1.238964163985D+03 EE= 3.533140442199D+02
 Leave Link  502 at Wed Apr 13 23:16:57 2016, MaxMem=    33554432 cpu:        16.8
 (Enter /usr/local/gau/g09/l801.exe)
 DoSCS=F DFT=T ScalE2(SS,OS)=  1.000000  1.000000
 Range of M.O.s used for correlation:     1    68
 NBasis=    68 NAE=    24 NBE=    24 NFC=     0 NFV=     0
 NROrb=     68 NOA=    24 NOB=    24 NVA=    44 NVB=    44
 Leave Link  801 at Wed Apr 13 23:16:57 2016, MaxMem=    33554432 cpu:         0.0
 (Enter /usr/local/gau/g09/l1101.exe)
 Using compressed storage, NAtomX=    13.
 Will process     14 centers per pass.
 Leave Link 1101 at Wed Apr 13 23:16:58 2016, MaxMem=    33554432 cpu:         0.1
 (Enter /usr/local/gau/g09/l1102.exe)
 Symmetrizing basis deriv contribution to polar:
 IMax=3 JMax=2 DiffMx= 0.00D+00
 Leave Link 1102 at Wed Apr 13 23:16:58 2016, MaxMem=    33554432 cpu:         0.0
 (Enter /usr/local/gau/g09/l1110.exe)
 Forming Gx(P) for the SCF density, NAtomX=    13.
 Integral derivatives from FoFJK, PRISM(SPDF).
 Do as many integral derivatives as possible in FoFJK.
 G2DrvN: MDV=      33554224.
 G2DrvN: will do    14 centers at a time, making    1 passes.
 Calling FoFCou, ICntrl=  3107 FMM=F I1Cent=   0 AccDes= 0.00D+00.
 FoFJK:  IHMeth= 1 ICntrl=    3107 DoSepK=F KAlg= 0 I1Cent=   0 FoldK=F
 IRaf=         0 NMat=   1 IRICut=       1 DoRegI=T DoRafI=F ISym2E= 0.
 FoFCou: FMM=F IPFlag=           0 FMFlag=      100000 FMFlg1=           0
         NFxFlg=           0 DoJE=F BraDBF=F KetDBF=F FulRan=T
         wScrn=  0.000000 ICntrl=    3107 IOpCl=  0 I1Cent=           0 NGrid=           0
         NMat0=    1 NMatS0=      1 NMatT0=    0 NMatD0=    1 NMtDS0=    0 NMtDT0=    0
 Symmetry not used in FoFCou.
 End of G2Drv F.D. properties file   721 does not exist.
 End of G2Drv F.D. properties file   722 does not exist.
 End of G2Drv F.D. properties file   788 does not exist.
 Leave Link 1110 at Wed Apr 13 23:17:29 2016, MaxMem=    33554432 cpu:        29.6
 (Enter /usr/local/gau/g09/l1002.exe)
 Minotr:  Closed shell wavefunction.
          IDoAtm=1111111111111
          Direct CPHF calculation.
          Differentiating once with respect to nuclear coordinates.
          Requested convergence is 1.0D-08 RMS, and 1.0D-07 maximum.
          Secondary convergence is 1.0D-12 RMS, and 1.0D-12 maximum.
          NewPWx=T KeepS1=F KeepF1=F KeepIn=T MapXYZ=F SortEE=F KeepMc=T.
          MDV=      33554230 using IRadAn=       2.
 Generate precomputed XC quadrature information.
 Keep R1 ints in memory in canonical form, NReq=3645297.
 FoFCou: FMM=F IPFlag=           0 FMFlag=           0 FMFlg1=           0
         NFxFlg=           0 DoJE=F BraDBF=F KetDBF=F FulRan=T
         wScrn=  0.000000 ICntrl=     600 IOpCl=  0 I1Cent=           0 NGrid=           0
         NMat0=    1 NMatS0=   2346 NMatT0=    0 NMatD0=    1 NMtDS0=    0 NMtDT0=    0
 Symmetry not used in FoFCou.
          Solving linear equations simultaneously, MaxMat=       0.
          There are    42 degrees of freedom in the 1st order CPHF.  IDoFFX=6 NUNeed=     0.
     36 vectors produced by pass  0 Test12= 2.51D-15 2.38D-09 XBig12= 2.19D-01 1.41D-01.
 AX will form    36 AO Fock derivatives at one time.
     36 vectors produced by pass  1 Test12= 2.51D-15 2.38D-09 XBig12= 2.63D-02 3.89D-02.
     36 vectors produced by pass  2 Test12= 2.51D-15 2.38D-09 XBig12= 1.38D-04 1.77D-03.
     36 vectors produced by pass  3 Test12= 2.51D-15 2.38D-09 XBig12= 3.30D-07 1.07D-04.
     36 vectors produced by pass  4 Test12= 2.51D-15 2.38D-09 XBig12= 3.30D-10 2.57D-06.
     19 vectors produced by pass  5 Test12= 2.51D-15 2.38D-09 XBig12= 2.19D-13 6.65D-08.
 InvSVY:  IOpt=1 It=  1 EMax= 1.89D-15
 Solved reduced A of dimension   199 with    36 vectors.
 End of Minotr F.D. properties file   721 does not exist.
 End of Minotr F.D. properties file   722 does not exist.
 End of Minotr F.D. properties file   788 does not exist.
 Leave Link 1002 at Wed Apr 13 23:17:48 2016, MaxMem=    33554432 cpu:        18.0
 (Enter /usr/local/gau/g09/l601.exe)
 Copying SCF densities to generalized density rwf, IOpCl= 0 IROHF=0.

 **********************************************************************

            Population analysis using the SCF density.

 **********************************************************************

 Orbital symmetries:
       Occupied  (A) (A) (A) (A) (A) (A) (A) (A) (A) (A) (A) (A)
                 (A) (A) (A) (A) (A) (A) (A) (A) (A) (A) (A) (A)
       Virtual   (A) (A) (A) (A) (A) (A) (A) (A) (A) (A) (A) (A)
                 (A) (A) (A) (A) (A) (A) (A) (A) (A) (A) (A) (A)
                 (A) (A) (A) (A) (A) (A) (A) (A) (A) (A) (A) (A)
                 (A) (A) (A) (A) (A) (A) (A) (A)
 The electronic state is 1-A.
 Alpha  occ. eigenvalues --  -19.16843 -19.12648 -14.35677 -10.30533 -10.25727
 Alpha  occ. eigenvalues --  -10.19522  -1.05992  -0.97067  -0.93157  -0.76398
 Alpha  occ. eigenvalues --   -0.68921  -0.59710  -0.57053  -0.50699  -0.46218
 Alpha  occ. eigenvalues --   -0.45322  -0.42403  -0.40576  -0.39230  -0.35567
 Alpha  occ. eigenvalues --   -0.31498  -0.30029  -0.26510  -0.16816
 Alpha virt. eigenvalues --   -0.04634   0.02018   0.06555   0.08143   0.11463
 Alpha virt. eigenvalues --    0.12792   0.16197   0.16888   0.19649   0.21350
 Alpha virt. eigenvalues --    0.23887   0.34338   0.36929   0.52308   0.54061
 Alpha virt. eigenvalues --    0.55491   0.58070   0.62063   0.64656   0.66533
 Alpha virt. eigenvalues --    0.70326   0.74147   0.75665   0.79168   0.82573
 Alpha virt. eigenvalues --    0.85187   0.86677   0.90929   0.91486   0.93438
 Alpha virt. eigenvalues --    0.94759   0.97212   0.99363   1.05414   1.07731
 Alpha virt. eigenvalues --    1.09577   1.13502   1.18628   1.22181   1.33126
 Alpha virt. eigenvalues --    1.42702   1.53023   1.70029   1.96987
          Condensed to atoms (all electrons):
               1          2          3          4          5          6
     1  N    7.209845   0.326958   0.155630  -0.000091  -0.073531  -0.094450
     2  H    0.326958   0.369165  -0.022315   0.000003  -0.004402   0.005019
     3  C    0.155630  -0.022315   5.476491   0.001865   0.319964   0.323275
     4  H   -0.000091   0.000003   0.001865   0.405395   0.000187  -0.030123
     5  C   -0.073531  -0.004402   0.319964   0.000187   5.127313  -0.007869
     6  C   -0.094450   0.005019   0.323275  -0.030123  -0.007869   4.989093
     7  H    0.004901   0.000388  -0.043320  -0.000048   0.361167   0.000263
     8  H    0.003789  -0.000008  -0.031277  -0.000230   0.372795  -0.002512
     9  H   -0.001646   0.002515  -0.046330   0.000097   0.371078  -0.000644
    10  O   -0.001279   0.000212  -0.127190   0.003561   0.002132   0.227003
    11  H    0.304174  -0.016726  -0.038031  -0.000016   0.005185  -0.001840
    12  O    0.001674  -0.000001  -0.092549   0.233242  -0.002308   0.174748
    13  H   -0.015252   0.002852  -0.101636   0.000612   0.003815   0.096394
               7          8          9         10         11         12
     1  N    0.004901   0.003789  -0.001646  -0.001279   0.304174   0.001674
     2  H    0.000388  -0.000008   0.002515   0.000212  -0.016726  -0.000001
     3  C   -0.043320  -0.031277  -0.046330  -0.127190  -0.038031  -0.092549
     4  H   -0.000048  -0.000230   0.000097   0.003561  -0.000016   0.233242
     5  C    0.361167   0.372795   0.371078   0.002132   0.005185  -0.002308
     6  C    0.000263  -0.002512  -0.000644   0.227003  -0.001840   0.174748
     7  H    0.591076  -0.024518  -0.042242   0.000009  -0.000079   0.000040
     8  H   -0.024518   0.511586  -0.023205   0.000128  -0.000170   0.008652
     9  H   -0.042242  -0.023205   0.584852  -0.000033  -0.000115   0.000245
    10  O    0.000009   0.000128  -0.000033   8.412874   0.012809  -0.087694
    11  H   -0.000079  -0.000170  -0.000115   0.012809   0.386572   0.000247
    12  O    0.000040   0.008652   0.000245  -0.087694   0.000247   8.346092
    13  H   -0.001382  -0.000093   0.000321   0.098014   0.008693   0.011219
              13
     1  N   -0.015252
     2  H    0.002852
     3  C   -0.101636
     4  H    0.000612
     5  C    0.003815
     6  C    0.096394
     7  H   -0.001382
     8  H   -0.000093
     9  H    0.000321
    10  O    0.098014
    11  H    0.008693
    12  O    0.011219
    13  H    0.568206
 Mulliken charges:
               1
     1  N   -0.820721
     2  H    0.336337
     3  C    0.225423
     4  H    0.385546
     5  C   -0.475525
     6  C    0.321643
     7  H    0.153745
     8  H    0.185064
     9  H    0.155108
    10  O   -0.540546
    11  H    0.339297
    12  O   -0.593607
    13  H    0.328236
 Sum of Mulliken charges =   0.00000
 Mulliken charges with hydrogens summed into heavy atoms:
               1
     1  N   -0.145087
     3  C    0.225423
     5  C    0.018392
     6  C    0.649879
    10  O   -0.540546
    12  O   -0.208061
 APT charges:
               1
     1  N   -1.326904
     2  H    0.757558
     3  C    0.229786
     4  H    0.675243
     5  C   -1.233464
     6  C   -0.050466
     7  H    0.430038
     8  H    0.365509
     9  H    0.458703
    10  O   -0.432237
    11  H    0.527695
    12  O   -0.715238
    13  H    0.313778
 Sum of APT charges =   0.00000
 APT charges with hydrogens summed into heavy atoms:
               1
     1  N   -0.041651
     3  C    0.229786
     5  C    0.020785
     6  C    0.263313
    10  O   -0.432237
    12  O   -0.039996
 Electronic spatial extent (au):  <R**2>=            635.7949
 Charge=              0.0000 electrons
 Dipole moment (field-independent basis, Debye):
    X=              3.8890    Y=              0.5957    Z=              1.1724  Tot=              4.1053
 Quadrupole moment (field-independent basis, Debye-Ang):
   XX=            -33.7336   YY=            -35.8459   ZZ=            -37.3485
   XY=             -6.3134   XZ=             -2.8188   YZ=              3.0365
 Traceless Quadrupole moment (field-independent basis, Debye-Ang):
   XX=              1.9091   YY=             -0.2032   ZZ=             -1.7058
   XY=             -6.3134   XZ=             -2.8188   YZ=              3.0365
 Octapole moment (field-independent basis, Debye-Ang**2):
  XXX=              7.1235  YYY=             -5.9237  ZZZ=              1.3850  XYY=              8.1793
  XXY=              6.7327  XXZ=             10.1949  XZZ=             -4.9798  YZZ=              1.6465
  YYZ=              2.9307  XYZ=             -6.1773
 Hexadecapole moment (field-independent basis, Debye-Ang**3):
 XXXX=           -387.9956 YYYY=           -269.2123 ZZZZ=            -46.1016 XXXY=            -47.1099
 XXXZ=            -14.8897 YYYX=            -26.2232 YYYZ=              3.9526 ZZZX=             -2.4371
 ZZZY=              1.4831 XXYY=           -118.7735 XXZZ=            -78.9719 YYZZ=            -56.5544
 XXYZ=              8.5600 YYXZ=             -4.3766 ZZXY=             -2.2688
 N-N= 2.408670947923D+02 E-N=-1.238964163178D+03  KE= 3.213511526139D+02
  Exact polarizability:   0.000   0.000   0.000   0.000   0.000   0.000
 Approx polarizability: 147.109  10.278  82.844  -8.773   4.469  40.321
 No NMR shielding tensors so no spin-rotation constants.
 Leave Link  601 at Wed Apr 13 23:17:48 2016, MaxMem=    33554432 cpu:         0.1
 (Enter /usr/local/gau/g09/l701.exe)
 Compute integral second derivatives.
 ... and contract with generalized density number  0.
 Leave Link  701 at Wed Apr 13 23:17:49 2016, MaxMem=    33554432 cpu:         0.1
 (Enter /usr/local/gau/g09/l702.exe)
 L702 exits ... SP integral derivatives will be done elsewhere.
 Leave Link  702 at Wed Apr 13 23:17:49 2016, MaxMem=    33554432 cpu:         0.0
 (Enter /usr/local/gau/g09/l703.exe)
 Compute integral second derivatives, UseDBF=F ICtDFT=           0.
 Integral derivatives from FoFJK, PRISM(SPDF).
 Calling FoFJK, ICntrl=    100147 FMM=F ISym2X=0 I1Cent= 0 IOpClX= 0 NMat=1 NMatS=1 NMatT=0.
 FoFJK:  IHMeth= 1 ICntrl=  100147 DoSepK=F KAlg= 0 I1Cent=   0 FoldK=F
 IRaf=         0 NMat=   1 IRICut=       1 DoRegI=T DoRafI=F ISym2E= 0.
 FoFCou: FMM=F IPFlag=           0 FMFlag=      100000 FMFlg1=         800
         NFxFlg=           0 DoJE=F BraDBF=F KetDBF=F FulRan=T
         wScrn=  0.000000 ICntrl=  100147 IOpCl=  0 I1Cent=           0 NGrid=           0
         NMat0=    1 NMatS0=      1 NMatT0=    0 NMatD0=    1 NMtDS0=    0 NMtDT0=    0
 Symmetry not used in FoFCou.
 Leave Link  703 at Wed Apr 13 23:18:19 2016, MaxMem=    33554432 cpu:        30.2
 (Enter /usr/local/gau/g09/l716.exe)
 Dipole        = 1.53005657D+00 2.34369776D-01 4.61254776D-01
 Polarizability= 0.00000000D+00 0.00000000D+00 0.00000000D+00
                 0.00000000D+00 0.00000000D+00 0.00000000D+00
 ***** Axes restored to original set *****
 -------------------------------------------------------------------
 Center     Atomic                   Forces (Hartrees/Bohr)
 Number     Number              X              Y              Z
 -------------------------------------------------------------------
      1        7           0.009317954    0.020616599   -0.006333564
      2        1           0.001048839    0.000256456    0.000523415
      3        6          -0.076087263   -0.047374602   -0.012585741
      4        1          -0.001762124    0.003728840    0.001238855
      5        6          -0.004822954    0.002655948    0.010998908
      6        6           0.053464905    0.026512431   -0.008499598
      7        1           0.001958335   -0.002123164    0.000230025
      8        1          -0.000723005    0.000085794   -0.000080877
      9        1          -0.001088848    0.002144433   -0.001230245
     10        8           0.049671804   -0.002750717    0.021764936
     11        1           0.004424320    0.009506423   -0.011670737
     12        8           0.022366925    0.000722030    0.000504457
     13        1          -0.057768889   -0.013980470    0.005140166
 -------------------------------------------------------------------
 Cartesian Forces:  Max     0.076087263 RMS     0.022543437
 Force constants in Cartesian coordinates: 
                1             2             3             4             5 
      1  0.857838D+00
      2 -0.110385D-01  0.723687D+00
      3 -0.364522D-02 -0.542879D-01  0.431283D-03
      4 -0.474678D+00 -0.268945D-01  0.289336D-01  0.490585D+00
      5 -0.227366D-01 -0.702019D-01  0.403917D-02  0.316420D-01  0.684518D-01
      6  0.509091D-01  0.359368D-03 -0.467854D-02 -0.346364D-01 -0.469845D-02
      7 -0.188729D+00 -0.707004D-01  0.954612D-02 -0.900317D-02 -0.384025D-01
      8 -0.141447D+00 -0.288735D+00  0.372017D-01  0.251144D-02  0.246735D-03
      9 -0.213536D-01 -0.978681D-02  0.697056D-02  0.145337D-02  0.324572D-02
     10  0.827895D-03  0.193627D-02  0.519871D-03 -0.234032D-03 -0.537631D-03
     11 -0.828441D-03 -0.968413D-04  0.117815D-02  0.190613D-03 -0.191044D-03
     12  0.117440D-03 -0.228551D-02  0.636646D-03  0.381568D-03  0.233362D-03
     13  0.106941D-01 -0.181199D-01  0.192236D-02  0.183818D-02 -0.150992D-03
     14  0.256373D-01 -0.372431D-01 -0.150022D-02  0.134400D-02  0.182520D-02
     15 -0.466419D-02 -0.364737D-02  0.107388D-02 -0.605836D-03  0.579467D-03
     16  0.699229D-02  0.154483D-01 -0.172134D-01  0.803911D-03  0.106506D-02
     17 -0.582333D-01 -0.753441D-02  0.115963D-01  0.287928D-02 -0.570626D-02
     18  0.605185D-02  0.196179D-01 -0.167370D-02  0.130051D-02  0.165221D-02
     19  0.209246D-02 -0.152344D-02  0.819716D-03  0.364210D-03  0.157524D-03
     20 -0.873124D-03  0.291790D-02 -0.110203D-02 -0.273587D-03 -0.728478D-03
     21  0.133055D-02  0.178935D-03 -0.561632D-03 -0.827375D-04  0.694682D-03
     22 -0.367878D-02  0.395315D-02 -0.127983D-03 -0.226853D-03  0.215422D-03
     23  0.522730D-02 -0.313385D-02 -0.810904D-04  0.440045D-03  0.459275D-03
     24  0.194749D-03 -0.145477D-03  0.158341D-02 -0.594146D-04  0.118028D-05
     25  0.297638D-02 -0.996797D-03 -0.213379D-02  0.273702D-03  0.330369D-03
     26 -0.138242D-02  0.195509D-02  0.155730D-02 -0.838458D-03 -0.481457D-03
     27 -0.103540D-02 -0.178287D-03  0.877063D-03  0.370524D-03 -0.942352D-03
     28  0.120858D-01 -0.182780D-01 -0.105169D-01  0.637005D-03  0.521646D-03
     29  0.137804D-01  0.249870D-01 -0.803996D-02 -0.162768D-02  0.139828D-02
     30  0.128221D-01 -0.963433D-02 -0.120029D-01  0.245419D-03 -0.614821D-03
     31 -0.192213D+00  0.173967D+00 -0.190332D-01 -0.907799D-02  0.299612D-01
     32  0.181396D+00 -0.336736D+00  0.323210D-01 -0.824347D-02  0.802129D-02
     33 -0.388000D-01  0.545038D-01 -0.246050D-02  0.312090D-02 -0.381917D-02
     34 -0.109165D-01 -0.384828D-02  0.206664D-03  0.928307D-03 -0.119136D-02
     35 -0.584600D-02 -0.527764D-02 -0.133509D-02  0.318697D-03 -0.247119D-04
     36 -0.885269D-03  0.396561D-02  0.622918D-02 -0.517783D-03 -0.110678D-02
     37 -0.232906D-01 -0.439047D-01  0.107221D-01 -0.220993D-02 -0.874080D-03
     38  0.163446D-01 -0.458796D-02 -0.215474D-01 -0.144836D-02 -0.306864D-02
     39 -0.104214D-02  0.134000D-02  0.357524D-02  0.962766D-04  0.735781D-03
                6             7             8             9            10 
      6 -0.133294D-02
      7  0.130709D-02  0.506841D+00
      8  0.854218D-02 -0.102120D-01  0.616486D+00
      9  0.368308D-02  0.111907D-01 -0.194980D-01  0.931421D-01
     10  0.213548D-03 -0.690413D-03 -0.325918D-02 -0.221693D-02  0.152904D+00
     11  0.740021D-03  0.661230D-03 -0.256408D-02 -0.281869D-02  0.649303D-01
     12  0.592298D-03  0.305678D-02  0.351414D-02 -0.276687D-02  0.203195D+00
     13  0.637094D-03 -0.131711D+00  0.634265D-01 -0.379296D-02 -0.424813D-03
     14 -0.618674D-03  0.523651D-01 -0.164236D+00  0.566587D-02 -0.346932D-03
     15  0.350221D-02 -0.410784D-02 -0.355032D-02 -0.689377D-01  0.142466D-03
     16 -0.691846D-02 -0.179900D+00  0.619311D-02  0.282141D-01 -0.196503D-01
     17  0.599282D-02 -0.331375D-01 -0.126413D+00 -0.438144D-02 -0.937213D-02
     18 -0.580176D-02 -0.334439D-01  0.366413D-02 -0.287891D-02 -0.158859D-01
     19 -0.653714D-03 -0.207334D-01  0.480271D-02 -0.155713D-01  0.147847D-03
     20  0.834809D-03  0.225474D-01 -0.284009D-02  0.231709D-01 -0.778402D-04
     21 -0.102266D-02 -0.529793D-03  0.996375D-03  0.572466D-02  0.983466D-04
     22 -0.585172D-04  0.124237D-01  0.200116D-01  0.469060D-04 -0.135803D-03
     23 -0.253911D-04 -0.162230D-01 -0.229056D-01  0.147993D-03  0.973364D-04
     24 -0.810441D-03  0.289779D-03 -0.177627D-03 -0.229256D-02 -0.416093D-03
     25  0.290885D-03 -0.181046D-01  0.478149D-02  0.164015D-01 -0.549555D-04
     26 -0.176486D-03  0.198473D-01 -0.430067D-02 -0.234775D-01  0.271572D-03
     27 -0.483384D-03  0.290232D-03 -0.358721D-03  0.439380D-02 -0.574132D-04
     28 -0.425793D-02  0.356492D-02  0.574545D-01 -0.642531D-02  0.401876D-03
     29 -0.446435D-02  0.111830D-02 -0.138147D-01  0.223894D-01  0.947441D-04
     30 -0.317339D-02  0.263691D-01  0.156227D-01  0.467579D-02 -0.230924D-02
     31 -0.656803D-02  0.181259D-01 -0.121871D-01  0.203561D-02  0.525858D-04
     32 -0.522474D-03  0.203550D-01 -0.233489D-01  0.497263D-02 -0.340987D-04
     33  0.428965D-02 -0.546870D-02 -0.165671D-01 -0.793432D-02  0.324171D-04
     34  0.540461D-03 -0.887606D-02 -0.285087D-01  0.139411D-02 -0.133330D+00
     35 -0.313247D-03  0.124377D-02 -0.163312D-02  0.302011D-02 -0.547898D-01
     36  0.249578D-02 -0.567149D-02 -0.568246D-02 -0.759571D-02 -0.186393D+00
     37 -0.805108D-03  0.167918D-01  0.364323D-01 -0.113761D-01  0.186542D-03
     38 -0.565013D-02  0.505372D-01  0.340578D-01 -0.265027D-02  0.108736D-02
     39  0.274009D-02 -0.282809D-02 -0.237070D-01 -0.261840D-01  0.307700D-02
               11            12            13            14            15 
     11  0.466757D-01
     12  0.528964D-01  0.302398D+00
     13  0.406856D-03  0.277747D-03  0.532695D+00
     14  0.312275D-03  0.942386D-04  0.654189D-01  0.541750D+00
     15 -0.833394D-03 -0.612611D-03  0.165638D-02 -0.390159D-02  0.530864D+00
     16 -0.336607D-01  0.701861D-02 -0.189496D-01  0.695706D-02  0.113563D-01
     17 -0.202528D-01  0.685424D-02  0.242699D-01  0.795601D-02 -0.811769D-02
     18 -0.303458D-01  0.593425D-02 -0.213624D-02  0.544902D-04 -0.334227D-02
     19  0.334330D-04 -0.107669D-03 -0.129646D+00 -0.426655D-02 -0.119113D+00
     20 -0.153365D-04 -0.923574D-04 -0.285059D-02 -0.491064D-01 -0.942354D-03
     21  0.979178D-04 -0.401290D-04 -0.118731D+00 -0.257479D-02 -0.215589D+00
     22 -0.193246D-03 -0.122936D-03 -0.130296D+00 -0.129945D+00 -0.558575D-03
     23  0.251471D-03 -0.227609D-04 -0.123389D+00 -0.245460D+00 -0.935423D-03
     24  0.283289D-03  0.108207D-03 -0.273753D-03 -0.561219D-03 -0.488435D-01
     25  0.163688D-03  0.138653D-03 -0.131447D+00 -0.607783D-02  0.121489D+00
     26 -0.184665D-03  0.141528D-04 -0.365283D-02 -0.479975D-01  0.216310D-02
     27  0.699990D-05  0.748378D-04  0.119724D+00  0.542023D-02 -0.212501D+00
     28  0.799488D-02  0.232520D-02 -0.112790D-02 -0.621292D-02  0.335135D-02
     29 -0.149958D-03  0.422439D-03 -0.249448D-02  0.274251D-02  0.666966D-02
     30  0.598520D-02  0.640580D-03  0.797402D-03 -0.103338D-02  0.120755D-01
     31 -0.485473D-04 -0.314812D-03 -0.211036D-02 -0.234191D-02 -0.703580D-03
     32 -0.318618D-03 -0.181448D-03 -0.496114D-02 -0.259513D-02  0.884946D-03
     33 -0.214643D-03 -0.150048D-03 -0.119164D-02  0.127688D-03  0.531729D-03
     34 -0.372923D-01 -0.213517D+00  0.119464D-02 -0.229549D-03 -0.685404D-03
     35 -0.298754D-01 -0.633797D-01  0.867939D-03 -0.305177D-02  0.534559D-03
     36 -0.273223D-01 -0.305378D+00 -0.429117D-03 -0.312880D-03 -0.674492D-03
     37 -0.235781D-02 -0.244866D-02 -0.708923D-03 -0.230175D-02 -0.755700D-02
     38  0.640930D-02  0.193285D-02  0.122896D-02 -0.489630D-02  0.110964D-01
     39  0.346876D-03 -0.143747D-02  0.153966D-02 -0.859763D-03  0.245329D-02
               16            17            18            19            20 
     16  0.422392D+00
     17  0.953642D-01  0.421596D+00
     18  0.225927D-01 -0.211849D-01  0.117667D+00
     19  0.361376D-02  0.179134D-02 -0.258610D-02  0.147224D+00
     20 -0.319747D-02 -0.217635D-02  0.193601D-02 -0.278229D-02  0.512871D-01
     21  0.128182D-02  0.786460D-03 -0.419229D-03  0.133188D+00  0.134696D-02
     22  0.765552D-03  0.154169D-02  0.863602D-03 -0.101885D-01 -0.163708D-01
     23 -0.174040D-02 -0.171702D-02 -0.401825D-03  0.945619D-03  0.986655D-03
     24  0.756836D-05  0.275708D-03  0.404368D-03 -0.154071D-01 -0.244742D-01
     25  0.443022D-03  0.342839D-02  0.236879D-02  0.111112D-01  0.510672D-03
     26  0.172788D-02 -0.562655D-02 -0.186120D-02 -0.434385D-03  0.375012D-03
     27 -0.198938D-02  0.642835D-03 -0.111931D-02  0.172097D-01  0.188210D-02
     28 -0.163890D+00  0.141019D+00 -0.323136D-02 -0.183164D-02  0.133790D-02
     29  0.379703D-01 -0.134076D+00  0.729772D-02  0.184738D-02 -0.161798D-02
     30 -0.371368D-01  0.749914D-01 -0.166018D-01  0.155454D-02 -0.164731D-02
     31  0.103472D-02 -0.136319D-02  0.269558D-02 -0.300747D-03  0.230791D-03
     32  0.277976D-02 -0.334390D-02  0.479772D-03 -0.829547D-05  0.275086D-03
     33  0.345784D-02 -0.523107D-02  0.188735D-02  0.458561D-03 -0.424192D-03
     34 -0.117707D+00 -0.939529D-01  0.634809D-03 -0.564026D-03  0.390250D-03
     35 -0.644125D-01 -0.181634D+00  0.319223D-01 -0.647083D-03  0.114329D-02
     36 -0.251140D-01 -0.114378D-01 -0.606104D-01  0.263297D-03  0.954972D-04
     37  0.640520D-01 -0.742351D-01  0.207757D-01 -0.128948D-02  0.140866D-02
     38 -0.644947D-01  0.589273D-01 -0.128308D-01  0.840341D-04 -0.500396D-03
     39  0.144430D-01 -0.507868D-01 -0.334454D-01 -0.546885D-04 -0.583915D-03
               21            22            23            24            25 
     21  0.235657D+00
     22  0.130215D-02  0.140278D+00
     23  0.652979D-03  0.135884D+00  0.269846D+00
     24  0.229246D-03  0.745871D-03  0.110050D-02  0.491325D-01
     25 -0.168411D-01 -0.962005D-02  0.804728D-03  0.151301D-01  0.147149D+00
     26 -0.852367D-03 -0.153526D-01  0.647811D-03  0.242321D-01  0.246282D-03
     27 -0.242737D-01 -0.151071D-02 -0.805169D-03  0.552313D-03 -0.134327D+00
     28 -0.977361D-03 -0.201722D-04  0.178900D-03  0.278029D-04 -0.201027D-02
     29  0.459856D-04 -0.156466D-03  0.441490D-04  0.535113D-04  0.680496D-03
     30 -0.833067D-03 -0.192821D-03  0.401384D-04 -0.124271D-03 -0.182381D-02
     31 -0.805054D-05  0.709384D-03 -0.797047D-03 -0.146929D-03 -0.978913D-04
     32  0.101745D-03  0.124305D-02 -0.870753D-03 -0.174799D-04 -0.124565D-03
     33  0.397193D-03  0.309622D-04 -0.172459D-03  0.718696D-03  0.141621D-03
     34 -0.167260D-03 -0.544815D-03 -0.790002D-03  0.102600D-03 -0.524265D-03
     35 -0.414810D-03 -0.104909D-02  0.221329D-02 -0.355871D-03 -0.528006D-03
     36  0.157993D-03 -0.177338D-03  0.569043D-04 -0.657294D-03 -0.102959D-03
     37  0.135975D-03  0.534649D-03 -0.637914D-03 -0.195140D-03 -0.943900D-04
     38 -0.106008D-02  0.218559D-03 -0.361080D-03 -0.214455D-03 -0.321891D-02
     39  0.573417D-03 -0.240612D-03  0.445600D-03  0.000000D+00 -0.731641D-03
               26            27            28            29            30 
     26  0.498505D-01
     27 -0.480710D-02  0.232892D+00
     28  0.251883D-02  0.232605D-03  0.141214D+00
     29  0.131300D-02 -0.107645D-02 -0.128569D+00  0.201453D+00
     30  0.283809D-02 -0.585355D-04 -0.256535D-01 -0.375538D-01 -0.202439D-02
     31  0.237530D-05 -0.988894D-04 -0.421208D-02  0.416736D-02 -0.330653D-02
     32  0.393554D-03 -0.111366D-03  0.974123D-03  0.351717D-02 -0.642256D-03
     33  0.153885D-03 -0.125609D-03  0.684829D-02  0.117666D-02  0.221529D-02
     34 -0.107674D-02  0.143397D-03  0.243662D-01  0.167592D-01  0.908990D-02
     35  0.113171D-02  0.827501D-04 -0.199550D-01 -0.490325D-01 -0.144257D-02
     36  0.816944D-04  0.579020D-05  0.126103D-01 -0.199251D-02  0.108619D-01
     37 -0.187689D-02  0.104901D-02 -0.917760D-02  0.564298D-01  0.195442D-01
     38  0.292414D-02  0.244536D-03 -0.389846D-01 -0.367645D-01 -0.469091D-01
     39  0.134317D-03 -0.234506D-03  0.256668D-01  0.150717D-01  0.434931D-02
               31            32            33            34            35 
     31  0.189273D+00
     32 -0.185104D+00  0.360104D+00
     33  0.185504D-01 -0.445875D-01  0.475777D-02
     34  0.990042D-04  0.263554D-03 -0.303466D-03  0.252634D+00
     35  0.621674D-03  0.177720D-02  0.724532D-04  0.139760D+00  0.275998D+00
     36  0.401771D-03 -0.227207D-03 -0.105909D-02  0.207451D+00  0.318268D-01
     37 -0.128253D-02 -0.853581D-02  0.131229D-01 -0.675881D-02  0.441494D-02
     38 -0.710861D-02 -0.687510D-02  0.149817D-01  0.971625D-02 -0.117352D-01
     39  0.649675D-02  0.752955D-02 -0.306812D-02 -0.488989D-02 -0.217630D-03
               36            37            38            39 
     36  0.347532D+00
     37 -0.143532D-02 -0.367527D-01
     38  0.120555D-01  0.360383D-01 -0.335294D-01
     39  0.869287D-02 -0.415325D-01  0.505513D-01  0.419859D-01
 FormGI is forming the generalized inverse of G from B-inverse, IUseBI=4.
 Leave Link  716 at Wed Apr 13 23:18:20 2016, MaxMem=    33554432 cpu:         0.0
 (Enter /usr/local/gau/g09/l103.exe)

 GradGradGradGradGradGradGradGradGradGradGradGradGradGradGradGradGradGrad
 Berny optimization.
 Red2BG is reusing G-inverse.
 Internal  Forces:  Max     0.067463976 RMS     0.011857780
 Search for a saddle point.
 Step number   1 out of a maximum of   81
 All quantities printed in internal units (Hartrees-Bohrs-Radians)
 Swapping is turned off.
 Second derivative matrix not updated -- analytic derivatives used.
 ITU=  0
     Eigenvalues ---   -0.10695  -0.01598  -0.00477  -0.00318   0.00092
     Eigenvalues ---    0.00140   0.00666   0.01056   0.01320   0.01661
     Eigenvalues ---    0.02482   0.03040   0.04823   0.04885   0.06416
     Eigenvalues ---    0.09714   0.10966   0.12712   0.13081   0.14500
     Eigenvalues ---    0.15356   0.16075   0.18530   0.21562   0.31635
     Eigenvalues ---    0.32918   0.33689   0.34449   0.35690   0.36104
     Eigenvalues ---    0.41459   0.46322   0.49588
 Eigenvectors required to have negative eigenvalues:
                          R14       R6        D28       R13       D27
   1                    0.60676  -0.24829   0.23917  -0.22477  -0.21559
                          R15       D22       D31       D4        D5
   1                    0.17384  -0.16517  -0.16236   0.16225   0.16037
 Eigenvalue     2 is  -1.60D-02 should be greater than     0.000000 Eigenvector:
                          R6        R13       D18       D31       R14
   1                    0.34227  -0.32078   0.29096   0.26979  -0.22963
                          A19       D15       D16       D17       D20
   1                    0.21027  -0.20178  -0.19693  -0.19619   0.18791
 Eigenvalue     3 is  -4.77D-03 should be greater than     0.000000 Eigenvector:
                          D27       D2        D28       D3        D7
   1                   -0.40322  -0.38706  -0.32729  -0.29118   0.28172
                          D1        D5        D26       D18       D6
   1                   -0.26982  -0.24624  -0.23988   0.23899  -0.15036
 Eigenvalue     4 is  -3.18D-03 should be greater than     0.000000 Eigenvector:
                          D26       D28       D27       D2        D3
   1                   -0.50897  -0.47086  -0.41540   0.29193   0.25441
                          D7        D1        D18       R13       D5
   1                   -0.24102   0.22409  -0.12087   0.10487   0.09391
 RFO step:  Lambda0=8.445703170D-03 Lambda=-5.34500845D-02.
 Linear search not attempted -- option 19 set.
 Maximum step size (   0.300) exceeded in Quadratic search.
    -- Step size scaled by   0.358
 Iteration  1 RMS(Cart)=  0.03916855 RMS(Int)=  0.00311928
 Iteration  2 RMS(Cart)=  0.00195222 RMS(Int)=  0.00100393
 Iteration  3 RMS(Cart)=  0.00000527 RMS(Int)=  0.00100391
 Iteration  4 RMS(Cart)=  0.00000000 RMS(Int)=  0.00100391
 ITry= 1 IFail=0 DXMaxC= 1.46D-01 DCOld= 1.00D+10 DXMaxT= 3.00D-01 DXLimC= 3.00D+00 Rises=F
 Variable       Old X    -DE/DX   Delta X   Delta X   Delta X     New X
                                 (Linear)    (Quad)   (Total)
    R1        1.89636   0.00102   0.00000  -0.00165  -0.00165   1.89471
    R2        2.63279   0.02719   0.00000   0.00083  -0.00006   2.63273
    R3        1.89992   0.00478   0.00000   0.00238   0.00204   1.90196
    R4        2.84087  -0.00508   0.00000  -0.00401  -0.00401   2.83686
    R5        2.83459  -0.06746   0.00000  -0.08424  -0.08381   2.75078
    R6        3.04079   0.00469   0.00000   0.05904   0.05883   3.09962
    R7        1.85600  -0.00065   0.00000   0.00013   0.00013   1.85612
    R8        2.07561   0.00134   0.00000  -0.00015  -0.00015   2.07546
    R9        2.06050   0.00031   0.00000   0.00008   0.00008   2.06057
   R10        2.07718   0.00035   0.00000  -0.00105  -0.00105   2.07612
   R11        2.66481  -0.00719   0.00000   0.00795   0.00683   2.67164
   R12        2.64885  -0.01388   0.00000  -0.00675  -0.00675   2.64210
   R13        2.85523  -0.01730   0.00000  -0.16498  -0.16541   2.68982
   R14        3.02356  -0.04484   0.00000  -0.07355  -0.07157   2.95199
   R15        3.08684   0.01324   0.00000   0.12325   0.12347   3.21031
    A1        2.10258   0.00166   0.00000   0.01147   0.01179   2.11436
    A2        2.07788   0.00153   0.00000   0.01312   0.01315   2.09103
    A3        2.08053  -0.00342   0.00000  -0.02175  -0.02207   2.05846
    A4        2.03345   0.00485   0.00000  -0.01370  -0.01232   2.02113
    A5        2.10966  -0.00221   0.00000  -0.01681  -0.01739   2.09227
    A6        1.21838  -0.00336   0.00000   0.05246   0.05279   1.27117
    A7        2.14004  -0.00264   0.00000   0.03023   0.02887   2.16891
    A8        2.66244  -0.00440   0.00000  -0.04117  -0.04017   2.62227
    A9        1.93153   0.00480   0.00000   0.00662   0.00661   1.93815
   A10        1.93081  -0.00096   0.00000   0.00271   0.00269   1.93350
   A11        1.93804  -0.00456   0.00000  -0.01389  -0.01389   1.92415
   A12        1.88943  -0.00106   0.00000   0.00071   0.00068   1.89011
   A13        1.87473   0.00006   0.00000   0.00205   0.00207   1.87680
   A14        1.89759   0.00178   0.00000   0.00206   0.00205   1.89963
   A15        2.10339   0.00585   0.00000   0.02648   0.02512   2.12851
   A16        2.16418  -0.01970   0.00000  -0.04418  -0.04546   2.11873
   A17        2.01544   0.01379   0.00000   0.01843   0.02025   2.03569
   A18        2.54337  -0.00784   0.00000  -0.07701  -0.07903   2.46434
   A19        1.35716  -0.00239   0.00000   0.03274   0.03233   1.38949
   A20        1.93088  -0.00406   0.00000  -0.01667  -0.01667   1.91420
   A21        1.81348  -0.01381   0.00000  -0.01054  -0.01327   1.80021
   A22        1.39127   0.00560   0.00000  -0.05901  -0.05746   1.33380
   A23        2.05001  -0.01462   0.00000  -0.06177  -0.06346   1.98655
   A24        1.84833  -0.01063   0.00000  -0.07820  -0.07831   1.77002
    D1        0.10954   0.00193   0.00000   0.01716   0.01574   0.12528
    D2       -3.04060   0.00188   0.00000  -0.01779  -0.01867  -3.05927
    D3        2.74195  -0.00357   0.00000  -0.01198  -0.01079   2.73116
    D4        3.02427   0.00095   0.00000   0.03312   0.03217   3.05644
    D5       -0.12587   0.00091   0.00000  -0.00184  -0.00225  -0.12812
    D6       -0.62651  -0.00455   0.00000   0.00397   0.00564  -0.62087
    D7       -2.77723   0.00095   0.00000   0.00639   0.00523  -2.77201
    D8        0.58799   0.00188   0.00000  -0.00921  -0.01088   0.57711
    D9        1.03078  -0.00081   0.00000   0.00673   0.00662   1.03741
   D10        3.12490   0.00037   0.00000   0.01370   0.01361   3.13851
   D11       -1.04963  -0.00107   0.00000   0.00884   0.00876  -1.04087
   D12       -2.10210  -0.00077   0.00000   0.04261   0.04300  -2.05910
   D13       -0.00799   0.00041   0.00000   0.04958   0.04999   0.04200
   D14        2.10067  -0.00103   0.00000   0.04472   0.04513   2.14580
   D15       -0.66370   0.00046   0.00000  -0.05557  -0.05589  -0.71959
   D16        1.43041   0.00164   0.00000  -0.04860  -0.04890   1.38151
   D17       -2.74411   0.00020   0.00000  -0.05346  -0.05376  -2.79787
   D18        0.09061  -0.00632   0.00000   0.07342   0.07293   0.16354
   D19       -3.03040  -0.00298   0.00000   0.02795   0.02739  -3.00301
   D20       -3.06006  -0.00632   0.00000   0.03604   0.03520  -3.02486
   D21        0.10211  -0.00299   0.00000  -0.00943  -0.01034   0.09177
   D22        2.14104  -0.00630   0.00000  -0.09942  -0.09837   2.04267
   D23        0.32588   0.00182   0.00000  -0.00720  -0.00728   0.31860
   D24       -2.24179  -0.00331   0.00000  -0.04034  -0.04079  -2.28258
   D25        2.22623   0.00482   0.00000   0.05188   0.05029   2.27653
   D26       -2.06781  -0.00184   0.00000  -0.09000  -0.08891  -2.15672
   D27        1.09343   0.00140   0.00000  -0.13353  -0.13225   0.96119
   D28        2.57326  -0.00591   0.00000  -0.11813  -0.12049   2.45277
   D29        2.94741  -0.00771   0.00000  -0.01958  -0.01961   2.92780
   D30       -0.44013  -0.00588   0.00000   0.00473   0.00539  -0.43474
   D31       -1.21867   0.01076   0.00000   0.03457   0.03469  -1.18398
   D32       -2.21458   0.00582   0.00000   0.02084   0.01798  -2.19660
         Item               Value     Threshold  Converged?
 Maximum Force            0.067464     0.000450     NO 
 RMS     Force            0.011858     0.000300     NO 
 Maximum Displacement     0.145934     0.001800     NO 
 RMS     Displacement     0.039454     0.001200     NO 
 Predicted change in Energy=-1.817036D-02
 Lowest energy point so far.  Saving SCF results.
 GradGradGradGradGradGradGradGradGradGradGradGradGradGradGradGradGradGrad

 Leave Link  103 at Wed Apr 13 23:18:20 2016, MaxMem=    33554432 cpu:         0.0
 (Enter /usr/local/gau/g09/l202.exe)
                          Input orientation:                          
 ---------------------------------------------------------------------
 Center     Atomic      Atomic             Coordinates (Angstroms)
 Number     Number       Type             X           Y           Z
 ---------------------------------------------------------------------
      1          7           0        1.419782    1.169916   -0.011648
      2          1           0        2.416063    1.252910   -0.087903
      3          6           0        0.795418   -0.074937   -0.049894
      4          1           0       -1.923919   -1.514509   -0.673519
      5          6           0        1.710118   -1.265253   -0.041360
      6          6           0       -0.657835   -0.157895   -0.040321
      7          1           0        2.337098   -1.274448    0.860333
      8          1           0        1.137960   -2.193053   -0.069908
      9          1           0        2.381125   -1.235320   -0.910760
     10          8           0       -1.473653    0.987182   -0.188625
     11          1           0        0.841851    1.990030   -0.091634
     12          8           0       -1.316494   -1.384544    0.087334
     13          1           0       -0.215503    0.949762    0.736522
 ---------------------------------------------------------------------
                    Distance matrix (angstroms):
                    1          2          3          4          5
     1  N    0.000000
     2  H    1.002635   0.000000
     3  C    1.393180   2.095498   0.000000
     4  H    4.338726   5.180444   3.139438   0.000000
     5  C    2.452596   2.615659   1.501200   3.697023   0.000000
     6  C    2.465846   3.382527   1.455651   1.960691   2.614087
     7  H    2.752586   2.700542   2.155021   4.535041   1.098289
     8  H    3.375260   3.675396   2.145729   3.193724   1.090409
     9  H    2.741849   2.620993   2.145237   4.320606   1.098637
    10  O    2.904596   3.900083   2.509188   2.587724   3.902762
    11  H    1.006475   1.738248   2.065911   4.502207   3.369464
    12  O    3.744632   4.573713   2.488790   0.982219   3.031695
    13  H    1.811735   2.774295   1.640250   3.313538   3.036348
                    6          7          8          9         10
     6  C    0.000000
     7  H    3.320767   0.000000
     8  H    2.714337   1.774011   0.000000
     9  H    3.339729   1.772072   1.780377   0.000000
    10  O    1.413772   4.553801   4.116857   4.507804   0.000000
    11  H    2.620167   3.714677   4.193607   3.666499   2.525207
    12  O    1.398139   3.736092   2.588968   3.832863   2.392892
    13  H    1.423392   3.387950   3.515605   3.772346   1.562126
                   11         12         13
    11  H    0.000000
    12  O    4.009767   0.000000
    13  H    1.698822   2.661317   0.000000
 Stoichiometry    C3H7NO2
 Framework group  C1[X(C3H7NO2)]
 Deg. of freedom    33
 Full point group                 C1      NOp   1
 RotChk:  IX=2 Diff= 5.64D-02
 Largest Abelian subgroup         C1      NOp   1
 Largest concise Abelian subgroup C1      NOp   1
                         Standard orientation:                         
 ---------------------------------------------------------------------
 Center     Atomic      Atomic             Coordinates (Angstroms)
 Number     Number       Type             X           Y           Z
 ---------------------------------------------------------------------
      1          7           0        1.360971   -1.232375   -0.025053
      2          1           0        2.358628   -1.270102    0.067328
      3          6           0        0.678465   -0.018696    0.020998
      4          1           0       -2.115336    1.282683    0.618624
      5          6           0        1.536457    1.212893    0.046331
      6          6           0       -0.776715   -0.003332   -0.012698
      7          1           0        2.177323    1.265537   -0.844038
      8          1           0        0.921096    2.112486    0.078831
      9          1           0        2.193483    1.200464    0.926765
     10          8           0       -1.540403   -1.187346    0.104108
     11          1           0        0.820806   -2.079666    0.032492
     12          8           0       -1.489843    1.193195   -0.133377
     13          1           0       -0.270075   -1.076760   -0.798265
 ---------------------------------------------------------------------
 Rotational constants (GHZ):      4.8726388      3.0717656      1.9284881
 Leave Link  202 at Wed Apr 13 23:18:20 2016, MaxMem=    33554432 cpu:         0.0
 (Enter /usr/local/gau/g09/l301.exe)
 Standard basis: 6-31G (6D, 7F)
 Ernie: Thresh=  0.10000D-02 Tol=  0.10000D-05 Strict=F.
 There are    68 symmetry adapted cartesian basis functions of A   symmetry.
 There are    68 symmetry adapted basis functions of A   symmetry.
    68 basis functions,   160 primitive gaussians,    68 cartesian basis functions
    24 alpha electrons       24 beta electrons
       nuclear repulsion energy       242.6890315622 Hartrees.
 IExCor=  402 DFT=T Ex+Corr=B3LYP ExCW=0 ScaHFX=  0.200000
 ScaDFX=  0.800000  0.720000  1.000000  0.810000 ScalE2=  1.000000  1.000000
 IRadAn=      0 IRanWt=     -1 IRanGd=            0 ICorTp=0 IEmpDi=  4
 NAtoms=   13 NActive=   13 NUniq=   13 SFac= 1.00D+00 NAtFMM=   60 NAOKFM=F Big=F
 Integral buffers will be    131072 words long.
 Raffenetti 2 integral format.
 Two-electron integral symmetry is turned on.
 Leave Link  301 at Wed Apr 13 23:18:20 2016, MaxMem=    33554432 cpu:         0.0
 (Enter /usr/local/gau/g09/l302.exe)
 NPDir=0 NMtPBC=     1 NCelOv=     1 NCel=       1 NClECP=     1 NCelD=      1
         NCelK=      1 NCelE2=     1 NClLst=     1 CellRange=     0.0.
 One-electron integrals computed using PRISM.
 NBasis=    68 RedAO= T EigKep=  3.56D-03  NBF=    68
 NBsUse=    68 1.00D-06 EigRej= -1.00D+00 NBFU=    68
 Precomputing XC quadrature grid using
 IXCGrd= 4 IRadAn=           0 IRanWt=          -1 IRanGd=           0 AccXCQ= 0.00D+00.
 Generated NRdTot=       0 NPtTot=           0 NUsed=           0 NTot=          32
 NSgBfM=    68    68    68    68    68 MxSgAt=    13 MxSgA2=    13.
 Leave Link  302 at Wed Apr 13 23:18:20 2016, MaxMem=    33554432 cpu:         0.3
 (Enter /usr/local/gau/g09/l303.exe)
 DipDrv:  MaxL=1.
 Leave Link  303 at Wed Apr 13 23:18:20 2016, MaxMem=    33554432 cpu:         0.0
 (Enter /usr/local/gau/g09/l401.exe)
 Initial guess from the checkpoint file:  "Ala-S-opt-freq-tsa3-6-31g.chk"
 B after Tr=     0.000000    0.000000    0.000000
         Rot=    0.999845   -0.002238   -0.000401    0.017477 Ang=  -2.02 deg.
 Guess basis will be translated and rotated to current coordinates.
 JPrj=2 DoOrth=T DoCkMO=T.
 Generating alternative initial guess.
 ExpMin= 1.61D-01 ExpMax= 5.48D+03 ExpMxC= 8.25D+02 IAcc=1 IRadAn=         1 AccDes= 0.00D+00
 Harris functional with IExCor=  402 and IRadAn=       1 diagonalized for initial guess.
 HarFok:  IExCor=  402 AccDes= 0.00D+00 IRadAn=         1 IDoV= 1 UseB2=F ITyADJ=14
 ICtDFT=  3500011 ScaDFX=  1.000000  1.000000  1.000000  1.000000
 FoFCou: FMM=F IPFlag=           0 FMFlag=      100000 FMFlg1=           0
         NFxFlg=           0 DoJE=T BraDBF=F KetDBF=T FulRan=T
         wScrn=  0.000000 ICntrl=     500 IOpCl=  0 I1Cent=   200000004 NGrid=           0
         NMat0=    1 NMatS0=      1 NMatT0=    0 NMatD0=    1 NMtDS0=    0 NMtDT0=    0
 Petite list used in FoFCou.
 Harris En= -323.517061080732    
 Leave Link  401 at Wed Apr 13 23:18:21 2016, MaxMem=    33554432 cpu:         0.7
 (Enter /usr/local/gau/g09/l502.exe)
 Closed shell SCF:
 Using DIIS extrapolation, IDIIS=  1040.
 Integral symmetry usage will be decided dynamically.
 Keep R1 ints in memory in canonical form, NReq=3676491.
 IVT=       33364 IEndB=       33364 NGot=    33554432 MDV=    30768038
 LenX=    30768038 LenY=    30762973
 Requested convergence on RMS density matrix=1.00D-08 within 128 cycles.
 Requested convergence on MAX density matrix=1.00D-06.
 Requested convergence on             energy=1.00D-06.
 No special actions if energy rises.
 FoFCou: FMM=F IPFlag=           0 FMFlag=           0 FMFlg1=           0
         NFxFlg=           0 DoJE=F BraDBF=F KetDBF=F FulRan=T
         wScrn=  0.000000 ICntrl=     600 IOpCl=  0 I1Cent=           0 NGrid=           0
         NMat0=    1 NMatS0=   2346 NMatT0=    0 NMatD0=    1 NMtDS0=    0 NMtDT0=    0
 Symmetry not used in FoFCou.
 Integral accuracy reduced to 1.0D-05 until final iterations.

 Cycle   1  Pass 0  IDiag  1:
 E= -323.443755022656    
 DIIS: error= 3.24D-03 at cycle   1 NSaved=   1.
 NSaved= 1 IEnMin= 1 EnMin= -323.443755022656     IErMin= 1 ErrMin= 3.24D-03
 ErrMax= 3.24D-03  0.00D+00 EMaxC= 1.00D-01 BMatC= 2.51D-03 BMatP= 2.51D-03
 IDIUse=3 WtCom= 9.68D-01 WtEn= 3.24D-02
 Coeff-Com:  0.100D+01
 Coeff-En:   0.100D+01
 Coeff:      0.100D+01
 Gap=     0.516 Goal=   None    Shift=    0.000
 GapD=    0.516 DampG=2.000 DampE=1.000 DampFc=2.0000 IDamp=-1.
 RMSDP=2.67D-03 MaxDP=2.08D-02              OVMax= 4.56D-02

 Cycle   2  Pass 0  IDiag  1:
 E= -323.448279201450     Delta-E=       -0.004524178794 Rises=F Damp=F
 DIIS: error= 4.87D-03 at cycle   2 NSaved=   2.
 NSaved= 2 IEnMin= 2 EnMin= -323.448279201450     IErMin= 1 ErrMin= 3.24D-03
 ErrMax= 4.87D-03  0.00D+00 EMaxC= 1.00D-01 BMatC= 1.38D-03 BMatP= 2.51D-03
 IDIUse=3 WtCom= 9.51D-01 WtEn= 4.87D-02
 Coeff-Com:  0.382D+00 0.618D+00
 Coeff-En:   0.000D+00 0.100D+01
 Coeff:      0.364D+00 0.636D+00
 Gap=     0.132 Goal=   None    Shift=    0.000
 RMSDP=1.31D-03 MaxDP=2.08D-02 DE=-4.52D-03 OVMax= 4.31D-02

 Cycle   3  Pass 0  IDiag  1:
 E= -323.447967959396     Delta-E=        0.000311242054 Rises=F Damp=F
 DIIS: error= 6.23D-03 at cycle   3 NSaved=   3.
 NSaved= 3 IEnMin= 2 EnMin= -323.448279201450     IErMin= 1 ErrMin= 3.24D-03
 ErrMax= 6.23D-03  0.00D+00 EMaxC= 1.00D-01 BMatC= 1.73D-03 BMatP= 1.38D-03
 IDIUse=3 WtCom= 1.12D-01 WtEn= 8.88D-01
 Coeff-Com:  0.341D-01 0.517D+00 0.448D+00
 Coeff-En:   0.000D+00 0.535D+00 0.465D+00
 Coeff:      0.384D-02 0.533D+00 0.463D+00
 Gap=     0.132 Goal=   None    Shift=    0.000
 RMSDP=9.26D-04 MaxDP=1.26D-02 DE= 3.11D-04 OVMax= 3.21D-02

 Cycle   4  Pass 0  IDiag  1:
 E= -323.449425795604     Delta-E=       -0.001457836208 Rises=F Damp=F
 DIIS: error= 2.08D-03 at cycle   4 NSaved=   4.
[...]
   D22        1.23105   0.00000   0.00000   0.00002   0.00002   1.23107
   D23        0.27994   0.00000   0.00000   0.00001   0.00001   0.27995
   D24       -2.53136   0.00000   0.00000   0.00001   0.00001  -2.53135
   D25        2.80071   0.00000   0.00000   0.00000   0.00000   2.80071
   D26       -3.03426   0.00000   0.00000   0.00012   0.00012  -3.03414
   D27       -0.34717   0.00000   0.00000   0.00000   0.00000  -0.34716
   D28        0.83505   0.00000   0.00000   0.00007   0.00007   0.83512
   D29       -2.99779   0.00000   0.00000   0.00002   0.00002  -2.99776
   D30       -0.37858   0.00000   0.00000  -0.00001  -0.00001  -0.37859
   D31       -1.00177   0.00000   0.00000  -0.00003  -0.00003  -1.00180
   D32       -2.34209   0.00000   0.00000   0.00000   0.00000  -2.34210
         Item               Value     Threshold  Converged?
 Maximum Force            0.000014     0.000450     YES
 RMS     Force            0.000003     0.000300     YES
 Maximum Displacement     0.000214     0.001800     YES
 RMS     Displacement     0.000059     0.001200     YES
 Predicted change in Energy=-2.398467D-09
 Optimization completed.
    -- Stationary point found.
                           ----------------------------
                           !   Optimized Parameters   !
                           ! (Angstroms and Degrees)  !
 --------------------------                            --------------------------
 ! Name  Definition              Value          Derivative Info.                !
 --------------------------------------------------------------------------------
 ! R1    R(1,2)                  1.0057         -DE/DX =    0.0                 !
 ! R2    R(1,3)                  1.3599         -DE/DX =    0.0                 !
 ! R3    R(1,11)                 1.0126         -DE/DX =    0.0                 !
 ! R4    R(3,5)                  1.4962         -DE/DX =    0.0                 !
 ! R5    R(3,6)                  1.397          -DE/DX =    0.0                 !
 ! R6    R(3,13)                 2.1526         -DE/DX =    0.0                 !
 ! R7    R(4,12)                 0.9772         -DE/DX =    0.0                 !
 ! R8    R(5,7)                  1.0985         -DE/DX =    0.0                 !
 ! R9    R(5,8)                  1.099          -DE/DX =    0.0                 !
 ! R10   R(5,9)                  1.0901         -DE/DX =    0.0                 !
 ! R11   R(6,10)                 1.4713         -DE/DX =    0.0                 !
 ! R12   R(6,12)                 1.4111         -DE/DX =    0.0                 !
 ! R13   R(6,13)                 1.2189         -DE/DX =    0.0                 !
 ! R14   R(10,13)                1.3417         -DE/DX =    0.0                 !
 ! R15   R(11,13)                2.5836         -DE/DX =    0.0                 !
 ! A1    A(2,1,3)              122.5183         -DE/DX =    0.0                 !
 ! A2    A(2,1,11)             120.5043         -DE/DX =    0.0                 !
 ! A3    A(3,1,11)             116.9529         -DE/DX =    0.0                 !
 ! A4    A(1,3,5)              120.0206         -DE/DX =    0.0                 !
 ! A5    A(1,3,6)              116.6945         -DE/DX =    0.0                 !
 ! A6    A(1,3,13)              97.2735         -DE/DX =    0.0                 !
 ! A7    A(5,3,6)              123.2356         -DE/DX =    0.0                 !
 ! A8    A(5,3,13)             133.3061         -DE/DX =    0.0                 !
 ! A9    A(3,5,7)              110.2519         -DE/DX =    0.0                 !
 ! A10   A(3,5,8)              111.7754         -DE/DX =    0.0                 !
 ! A11   A(3,5,9)              110.3153         -DE/DX =    0.0                 !
 ! A12   A(7,5,8)              107.3984         -DE/DX =    0.0                 !
 ! A13   A(7,5,9)              108.0957         -DE/DX =    0.0                 !
 ! A14   A(8,5,9)              108.8869         -DE/DX =    0.0                 !
 ! A15   A(3,6,10)             119.5985         -DE/DX =    0.0                 !
 ! A16   A(3,6,12)             117.8469         -DE/DX =    0.0                 !
 ! A17   A(10,6,12)            117.1375         -DE/DX =    0.0                 !
 ! A18   A(12,6,13)            118.9671         -DE/DX =    0.0                 !
 ! A19   A(1,11,13)             84.7799         -DE/DX =    0.0                 !
 ! A20   A(4,12,6)             107.5605         -DE/DX =    0.0                 !
 ! A21   A(3,13,10)             87.1502         -DE/DX =    0.0                 !
 ! A22   A(3,13,11)             49.7561         -DE/DX =    0.0                 !
 ! A23   A(6,13,11)             71.2946         -DE/DX =    0.0                 !
 ! A24   A(10,13,11)            61.6485         -DE/DX =    0.0                 !
 ! D1    D(2,1,3,5)             -9.6597         -DE/DX =    0.0                 !
 ! D2    D(2,1,3,6)            167.8691         -DE/DX =    0.0                 !
 ! D3    D(2,1,3,13)           141.0727         -DE/DX =    0.0                 !
 ! D4    D(11,1,3,5)           172.1341         -DE/DX =    0.0                 !
 ! D5    D(11,1,3,6)           -10.3371         -DE/DX =    0.0                 !
 ! D6    D(11,1,3,13)          -37.1335         -DE/DX =    0.0                 !
 ! D7    D(2,1,11,13)         -148.1779         -DE/DX =    0.0                 !
 ! D8    D(3,1,11,13)           30.0665         -DE/DX =    0.0                 !
 ! D9    D(1,3,5,7)            -66.6509         -DE/DX =    0.0                 !
 ! D10   D(1,3,5,8)             52.7287         -DE/DX =    0.0                 !
 ! D11   D(1,3,5,9)            174.0331         -DE/DX =    0.0                 !
 ! D12   D(6,3,5,7)            115.9888         -DE/DX =    0.0                 !
 ! D13   D(6,3,5,8)           -124.6316         -DE/DX =    0.0                 !
 ! D14   D(6,3,5,9)             -3.3272         -DE/DX =    0.0                 !
 ! D15   D(13,3,5,7)           155.1406         -DE/DX =    0.0                 !
 ! D16   D(13,3,5,8)           -85.4798         -DE/DX =    0.0                 !
 ! D17   D(13,3,5,9)            35.8247         -DE/DX =    0.0                 !
 ! D18   D(1,3,6,10)             7.6107         -DE/DX =    0.0                 !
 ! D19   D(1,3,6,12)           160.9109         -DE/DX =    0.0                 !
 ! D20   D(5,3,6,10)          -174.9475         -DE/DX =    0.0                 !
 ! D21   D(5,3,6,12)           -21.6473         -DE/DX =    0.0                 !
 ! D22   D(1,3,13,10)           70.5341         -DE/DX =    0.0                 !
 ! D23   D(1,3,13,11)           16.0392         -DE/DX =    0.0                 !
 ! D24   D(5,3,13,10)         -145.0361         -DE/DX =    0.0                 !
 ! D25   D(5,3,13,11)          160.469          -DE/DX =    0.0                 !
 ! D26   D(3,6,12,4)          -173.8503         -DE/DX =    0.0                 !
 ! D27   D(10,6,12,4)          -19.8912         -DE/DX =    0.0                 !
 ! D28   D(13,6,12,4)           47.8447         -DE/DX =    0.0                 !
 ! D29   D(12,6,13,11)        -171.7604         -DE/DX =    0.0                 !
 ! D30   D(1,11,13,3)          -21.6913         -DE/DX =    0.0                 !
 ! D31   D(1,11,13,6)          -57.3975         -DE/DX =    0.0                 !
 ! D32   D(1,11,13,10)        -134.1921         -DE/DX =    0.0                 !
 --------------------------------------------------------------------------------
 GradGradGradGradGradGradGradGradGradGradGradGradGradGradGradGradGradGrad

 Leave Link  103 at Wed Apr 13 23:33:19 2016, MaxMem=    33554432 cpu:         0.0
 (Enter /usr/local/gau/g09/l9999.exe)

 Test job not archived.
 1\1\GINC-KALI\Freq\RB3LYP\6-31G\C3H7N1O2\ROOT\13-Apr-2016\0\\#P Geom=A
 llCheck Guess=TCheck SCRF=Check Test GenChk RB3LYP/6-31G Freq\\Ala-S-o
 pt-freq-tsa3-6-31g\\0,1\N,1.4333755145,1.1572534359,0.2384510958\H,2.3
 781482133,1.279674892,0.5607664896\C,0.892554126,-0.069086689,0.008459
 3152\H,-1.9803826134,-1.0963583792,-0.9587642223\C,1.763054496,-1.2859
 316306,0.0236411584\C,-0.4905461102,-0.1194327678,-0.1814373714\H,2.46
 94892573,-1.2585883403,-0.8170922903\H,2.3543290347,-1.352739748,0.947
 6635286\H,1.1563918001,-2.1865122618,-0.072994396\O,-1.2547620203,1.13
 28581972,-0.2934558113\H,0.83057758,1.9585214111,0.0972250258\O,-1.027
 8068019,-1.2601800512,-0.8148807609\H,-1.0724096662,0.3503627817,0.781
 0347488\\Version=ES64L-G09RevD.01\State=1-A\HF=-323.5135361\RMSD=9.327
 e-09\RMSF=6.417e-06\ZeroPoint=0.1013217\Thermal=0.1085854\Dipole=1.197
 7806,-0.1486004,0.6719704\DipoleDeriv=-0.6862831,-0.1765184,0.1268894,
 -0.8893109,-0.7206999,-0.0934484,-0.0124779,-0.0458742,-0.7107685,0.22
 88517,0.0209313,-0.064818,0.0152512,0.2162561,0.0050678,-0.1237065,0.0
 002017,0.3578093,1.0370286,0.0924199,-0.0452726,0.7939414,0.5826673,0.
 1209444,-0.0209298,-0.0293334,0.1077295,0.2180155,0.0699325,-0.010192,
 0.1939487,0.3121578,-0.0078494,0.0475583,-0.0338025,0.3843088,0.032708
 2,0.0760875,0.0328447,-0.0824718,-0.062353,-0.0347361,0.0912755,-0.045
 1241,0.1277733,-0.4308126,0.213092,0.1594643,0.4506726,0.6156549,0.400
 1625,1.3163799,0.2697297,0.3538396,-0.0572376,0.0428276,0.0919443,0.03
 55819,0.0468876,0.0339877,0.1097545,0.0083463,-0.0171218,-0.0301761,0.
 0459954,-0.1024753,0.0318889,0.04462,-0.0281906,-0.1480915,0.0284411,-
 0.077903,0.0689193,-0.080978,-0.0050209,-0.021889,-0.0007224,-0.003878
 2,-0.001637,-0.0014183,0.1073789,-0.6944057,0.0922549,0.0094232,0.7401
 309,-0.7498567,-0.0953887,-0.8040444,0.1497575,-0.4525923,0.106007,0.0
 618468,-0.0491278,0.0227227,0.2299327,-0.018244,-0.0208232,-0.0079727,
 0.3681497,-0.3575151,-0.2874726,-0.1457666,-0.5361318,-0.8021832,-0.23
 22098,-0.4374649,-0.1821696,-0.6544244,0.5649,-0.1704189,0.0021073,-0.
 7543349,0.2876387,-0.046217,0.004207,-0.1107814,0.1058209\Polar=72.185
 1563,-3.2023816,49.1918983,6.5017785,3.5277651,29.6045571\PG=C01 [X(C3
 H7N1O2)]\NImag=1\\0.82121604,-0.01382660,0.77043479,0.23378259,0.03381
 890,0.12283469,-0.41807593,-0.03846385,-0.13649606,0.43359927,-0.03694
 790,-0.08116681,-0.01462773,0.04772249,0.07366920,-0.13898019,-0.01547
 972,-0.05273507,0.14302779,0.01784925,0.05589067,-0.17192671,-0.078845
 67,-0.04124763,-0.00984510,-0.03730547,-0.00729842,0.72441226,-0.09403
 904,-0.33937130,-0.04754991,0.00121596,0.00010073,0.00032406,0.0134154
 3,0.69557856,-0.03862613,-0.05153500,-0.05896383,-0.00080281,-0.010815
 15,-0.00457758,0.11757752,0.07367953,0.20174875,0.00086276,0.00270498,
 -0.00028601,-0.00007354,-0.00019102,0.00009513,-0.00166226,-0.00342414
 ,-0.00104146,0.46391994,-0.00101013,0.00168516,-0.00016476,-0.00027019
 ,-0.00050571,-0.00003269,-0.00196621,-0.00814070,-0.00276433,-0.058044
 89,0.04971592,-0.00008990,0.00096924,0.00107257,-0.00020805,-0.0001157
 8,0.00078602,0.00072561,-0.00196931,-0.00083352,0.07898716,0.00972451,
 0.02618565,0.01423341,-0.01274316,-0.00001764,0.00074399,0.00010745,0.
 00161066,-0.13844371,0.06218962,-0.00370142,0.00043396,0.00054130,-0.0
 0006985,0.54780217,0.02319738,-0.03670284,0.00036033,0.00063218,0.0024
 3665,0.00091760,0.05776768,-0.17785528,-0.00046358,0.00014830,-0.00039
 936,-0.00001699,0.05324328,0.54592163,0.00397078,-0.00749790,0.0029728
 4,0.00116224,-0.00020099,-0.00057023,-0.01455960,0.00170158,-0.0750023
 8,0.00016739,0.00020995,-0.00059481,0.00885454,0.00479303,0.53536320,-
 0.04204861,-0.04694795,-0.00967540,0.00389926,0.00113187,0.00168917,-0
 .31903360,0.00772837,-0.05042744,-0.02143216,-0.04543026,-0.02387688,-
 0.01825066,0.00753992,0.00888718,0.59141952,-0.04283353,-0.00564182,-0
 .00736421,-0.00048229,-0.00584603,0.00006033,-0.02529120,-0.09161391,-
 0.00262857,0.00603712,-0.00555672,0.00123997,0.02741029,0.00405232,-0.
 00081574,0.07649391,0.40098996,0.00639883,0.03816312,0.01369684,-0.006
 70966,-0.00191042,0.00521697,-0.10931562,-0.03560486,-0.07702034,-0.00
 419047,-0.01603684,-0.00807353,-0.00146806,0.00167031,0.00607092,0.156
 60645,0.08266986,0.23579565,0.00127696,-0.00143552,-0.00115425,0.00012
 178,0.00001283,0.00058285,-0.01761848,0.00243911,0.01486624,0.00006537
 ,0.00011524,0.00016781,-0.14895534,-0.00773236,0.12679960,-0.00029283,
 0.00299262,0.00131610,0.16606172,-0.00083550,0.00086273,0.00177779,0.0
 0009666,-0.00039834,-0.00109825,0.02157594,-0.00197268,-0.02300502,-0.
 00014295,-0.00003109,0.00011465,-0.00640204,-0.04802235,0.00594278,0.0
 0097563,-0.00284854,-0.00103513,0.00298011,0.05117144,-0.00044146,-0.0
 0000151,0.00082151,0.00025107,-0.00039391,-0.00061615,-0.00029084,-0.0
 0017263,0.00362267,-0.00005711,-0.00004065,-0.00002373,0.12545953,0.00
 731719,-0.19757651,-0.00121189,0.00031035,-0.00110764,-0.14043967,-0.0
 0800883,0.21609058,0.00125555,-0.00186302,0.00145087,0.00060909,0.0004
 9632,-0.00063998,-0.01841309,0.00413033,-0.01726597,0.00010327,0.00030
 900,-0.00012506,-0.11644034,0.00425054,-0.11380164,0.00360241,0.001520
 72,-0.00031088,0.01120742,-0.00119908,0.01924580,0.13013778,-0.0001071
 0,0.00233120,-0.00097434,-0.00082373,-0.00082937,0.00024277,0.02125650
 ,-0.00360847,0.02559058,-0.00017590,0.00017807,-0.00010932,0.00568788,
 -0.05118001,0.01140758,-0.00294924,-0.00295211,-0.00128451,0.00045036,
 0.00022478,0.00195149,-0.01110248,0.05290987,0.00057756,0.00040244,0.0
 0085132,-0.00025381,0.00095796,-0.00032275,0.00016187,-0.00111707,0.00
 318170,0.00010630,0.00010638,0.00003216,-0.11387943,0.00980598,-0.2278
 1780,0.00115784,-0.00007229,0.00015649,-0.01512325,0.00040073,-0.02360
 041,0.12726466,-0.01178896,0.25012168,-0.00346152,0.00360595,-0.000624
 01,-0.00016276,0.00010856,-0.00000755,0.01391981,0.02050712,0.00211017
 ,0.00006135,-0.00028112,-0.00004907,-0.13799421,-0.13279216,-0.0139195
 2,-0.00023232,0.00150115,0.00153426,-0.01134261,-0.01722502,-0.0030379
 9,-0.00920794,-0.01357566,0.00001103,0.14904993,0.00513018,-0.00268041
 ,0.00074365,0.00022019,0.00034419,0.00041075,-0.01912671,-0.02483113,-
 0.00245905,-0.00025472,0.00060803,0.00005030,-0.12475774,-0.23726888,-
 0.01937281,0.00000178,-0.00154746,-0.00229457,0.00038875,0.00001432,-0
 .00069868,0.00242624,0.00303042,0.00096471,0.13784287,0.26141139,-0.00
 035524,0.00011112,0.00150134,0.00016195,0.00025543,-0.00055083,0.00102
 923,-0.00054861,-0.00139487,0.00014038,-0.00022245,-0.00002733,-0.0143
 3968,-0.02036101,-0.05190518,-0.00027084,0.00078626,0.00067845,0.01550
 889,0.02289806,0.00247266,-0.01654684,-0.02482081,-0.00214042,0.014744
 10,0.02223751,0.05186055,-0.00047731,0.00250161,0.00071877,-0.00116468
 ,0.00201282,0.00206292,-0.02493825,0.03809542,-0.01194611,0.00201672,0
 .00328297,0.00240370,-0.00202967,-0.00341875,-0.00247798,-0.08803366,0
 .04826506,-0.02009701,-0.00088098,0.00059331,0.00003949,-0.00142408,0.
 00182742,-0.00014489,0.00013815,0.00001705,-0.00012364,0.11602343,0.00
 528787,0.02562625,0.00280251,-0.00386852,0.00189612,0.00102438,-0.0224
 0998,-0.03098978,-0.00565706,0.00115943,0.00219840,0.00077620,-0.00217
 981,0.00283339,0.00239373,0.11874500,-0.16474943,-0.03927539,0.0003854
 5,0.00018544,-0.00022894,0.00132420,-0.00134836,0.00083356,0.00002428,
 -0.00007559,0.00003846,-0.09935683,0.18248419,-0.01225919,-0.02242030,
 -0.00697877,0.00250272,-0.00042526,-0.00039783,0.04817277,0.01295651,0
 .01106096,0.00348772,0.00658126,0.00004492,-0.00075565,-0.00033930,0.0
 0664458,-0.12791876,0.07539889,0.02659109,-0.00097142,0.00108962,-0.00
 034639,0.00094985,-0.00061993,-0.00038512,-0.00049236,0.00059634,-0.00
 045647,0.03126845,-0.00210066,0.00234286,-0.20089434,0.17094496,-0.047
 20892,-0.00844261,0.02402447,-0.00134046,0.02156761,-0.00654294,0.0026
 9803,0.00021953,-0.00033655,0.00010691,-0.00082359,-0.00299842,-0.0017
 6969,-0.00826644,-0.00526904,0.01073855,-0.00025733,-0.00006743,0.0000
 0221,-0.00054099,0.00032965,-0.00014941,0.00047386,-0.00065328,-0.0001
 2336,0.00355578,0.01293625,-0.00695919,0.18987567,0.17371680,-0.305089
 37,0.03631984,-0.00995264,0.01071663,-0.00219708,0.01925166,-0.0311806
 7,0.00339763,-0.00017733,-0.00011259,-0.00001847,-0.00454315,-0.001855
 74,-0.00026952,0.00288403,-0.00428758,-0.00129681,0.00000461,0.0002411
 6,-0.00014122,0.00002255,0.00027295,0.00017115,0.00104796,-0.00081191,
 -0.00004901,0.00252289,0.00136480,0.00102770,-0.18441205,0.32980610,-0
 .04760348,0.03516720,-0.02928755,-0.00359470,0.00897437,-0.00220890,0.
 00885125,-0.00421364,0.00620110,-0.00003940,-0.00014893,-0.00025705,-0
 .00212707,-0.00240952,0.00299800,-0.00286141,-0.00066670,-0.00140753,-
 0.00033816,0.00071995,0.00001809,0.00023471,-0.00041821,0.00004757,0.0
 0033274,-0.00072632,0.00057476,0.00090450,0.00015898,-0.00376241,0.044
 06515,-0.03815212,0.02768766,-0.00611686,0.00260179,-0.00076304,-0.000
 49875,-0.00175729,0.00025826,-0.01975716,-0.03898935,-0.02540300,-0.44
 401539,0.10548765,-0.05640229,-0.00032761,-0.00032134,-0.00066100,-0.1
 1498846,-0.07603745,-0.06182459,-0.00007480,0.00017591,0.00032405,-0.0
 0063076,-0.00079823,-0.00004693,-0.00139430,-0.00106463,-0.00011045,0.
 01006013,0.00793135,0.02091733,0.00056611,0.00047731,-0.00033495,0.581
 14530,-0.00307011,-0.00619278,-0.00163788,0.00115840,0.00016718,-0.001
 50391,0.00119983,0.00342664,-0.00743499,0.05061716,-0.04371196,-0.0100
 0780,0.00086531,-0.00236655,0.00120163,-0.03504986,-0.16364985,-0.0568
 3237,-0.00071482,0.00087340,0.00021864,-0.00059848,0.00086186,-0.00037
 258,-0.00039514,0.00134078,0.00002459,-0.00268929,-0.03468336,-0.01936
 309,0.00077382,0.00073210,0.00073162,-0.00958582,0.25783090,-0.0064078
 2,-0.01187378,0.00185403,0.00120010,0.00003057,0.00000226,0.00952112,-
 0.00103365,-0.00333716,-0.07755683,0.00480802,-0.01820947,0.00063334,-
 0.00075389,-0.00075301,-0.05331573,-0.08112247,-0.08310564,-0.00081428
 ,-0.00001355,0.00011903,-0.00020926,0.00055920,-0.00007178,-0.00051424
 ,0.00038040,-0.00063176,0.01002587,-0.00227077,0.00954372,-0.00220048,
 0.00073546,-0.00070813,0.13148788,0.10372001,0.10158003,0.00415655,0.0
 1176646,0.00152074,-0.00071001,0.00058488,-0.00106020,-0.03826132,-0.0
 0672587,0.01196238,-0.00049954,-0.00239680,-0.00157009,0.00005160,0.00
 048376,-0.00265229,0.01365755,-0.01430735,0.02732209,0.00068911,-0.000
 52553,0.00015680,-0.00025833,-0.00001948,0.00031846,0.00015254,-0.0001
 6998,0.00028548,-0.01284558,-0.01997868,0.04205774,0.00296673,-0.00084
 264,0.00251081,-0.00396746,-0.00251099,-0.01184967,0.03486814,-0.01466
 234,-0.02409479,-0.00350419,0.00281535,-0.00058444,-0.00051749,0.05047
 821,0.01045799,0.00409501,0.00174396,0.00407255,-0.00063720,0.00058077
 ,0.00040701,0.00050668,-0.08512321,0.04365118,0.03306762,0.00011362,-0
 .00030027,-0.00011130,0.00028317,0.00010918,-0.00029201,-0.00036877,0.
 00046626,-0.00034955,0.00634633,0.01525795,-0.05238177,-0.00872942,0.0
 0020412,0.00098332,0.01188010,-0.01462836,-0.01316555,0.03464223,-0.03
 501840,0.00003364,0.00017619,0.00236011,-0.00024077,0.00042165,0.00008
 342,-0.01332726,0.00354799,-0.00468549,0.00018719,-0.00201946,-0.00010
 189,-0.00019926,-0.00052014,0.00017038,0.10121770,-0.06779567,-0.11749
 172,-0.00040047,0.00021720,0.00012630,-0.00024628,0.00026446,-0.000052
 62,-0.00008756,0.00016776,0.00001909,-0.01263408,0.04150500,-0.0439011
 5,0.00214066,0.00047244,0.00010438,-0.00744125,-0.00874387,-0.00628213
 ,-0.06900225,0.03230644,0.16965133\\0.00000219,0.00002188,0.00000231,0
 .00000022,0.00000179,-0.00000471,-0.00000596,-0.00000766,0.00000856,0.
 00000045,-0.00000258,-0.00000013,0.00000176,0.00000149,-0.00000018,-0.
 00000147,-0.00000211,-0.00000917,0.00000280,-0.00000603,0.00000241,-0.
 00000415,0.00000594,0.00000108,0.00000009,-0.00000385,0.00000238,-0.00
 000247,0.00001507,-0.00001193,-0.00000226,-0.00000734,-0.00000203,0.00
 000386,-0.00000555,0.00000499,0.00000496,-0.00001105,0.00000642\\\@


 BRING ME INTO THE COMPANY OF THOSE WHO SEEK TRUTH,
 AND DELIVER ME FROM THOSE WHO HAVE FOUND IT.
 Job cpu time:       0 days  0 hours  1 minutes 25.1 seconds.
 File lengths (MBytes):  RWF=     12 Int=      0 D2E=      0 Chk=      2 Scr=      1
 Normal termination of Gaussian 09 at Wed Apr 13 23:33:20 2016.
