 Entering Gaussian System, Link 0=g09
 Input=/root/gau/amiano/Phe/ts-rs/r/Phe-R-opt-freq--ts-6-31g.com
 Output=/root/gau/amiano/Phe/ts-rs/r/Phe-R-opt-freq--ts-6-31g.log
 Initial command:
 /usr/local/gau/g09/l1.exe "/tmp/Gau-2157.inp" -scrdir="/tmp/"
 Entering Link 1 = /usr/local/gau/g09/l1.exe PID=      2160.
  
 Copyright (c) 1988,1990,1992,1993,1995,1998,2003,2009,2013,
            Gaussian, Inc.  All Rights Reserved.
  
 This is part of the Gaussian(R) 09 program.  It is based on
 the Gaussian(R) 03 system (copyright 2003, Gaussian, Inc.),
 the Gaussian(R) 98 system (copyright 1998, Gaussian, Inc.),
 the Gaussian(R) 94 system (copyright 1995, Gaussian, Inc.),
 the Gaussian 92(TM) system (copyright 1992, Gaussian, Inc.),
 the Gaussian 90(TM) system (copyright 1990, Gaussian, Inc.),
 the Gaussian 88(TM) system (copyright 1988, Gaussian, Inc.),
 the Gaussian 86(TM) system (copyright 1986, Carnegie Mellon
 University), and the Gaussian 82(TM) system (copyright 1983,
 Carnegie Mellon University). Gaussian is a federally registered
 trademark of Gaussian, Inc.
  
 This software contains proprietary and confidential information,
 including trade secrets, belonging to Gaussian, Inc.
  
 This software is provided under written license and may be
 used, copied, transmitted, or stored only in accord with that
 written license.
  
 The following legend is applicable only to US Government
 contracts under FAR:
  
                    RESTRICTED RIGHTS LEGEND
  
 Use, reproduction and disclosure by the US Government is
 subject to restrictions as set forth in subparagraphs (a)
 and (c) of the Commercial Computer Software - Restricted
 Rights clause in FAR 52.227-19.
  
 Gaussian, Inc.
 340 Quinnipiac St., Bldg. 40, Wallingford CT 06492
  
  
 ---------------------------------------------------------------
 Warning -- This program may not be used in any manner that
 competes with the business of Gaussian, Inc. or will provide
 assistance to any competitor of Gaussian, Inc.  The licensee
 of this program is prohibited from giving any competitor of
 Gaussian, Inc. access to this program.  By using this program,
 the user acknowledges that Gaussian, Inc. is engaged in the
 business of creating and licensing software in the field of
 computational chemistry and represents and warrants to the
 licensee that it is not a competitor of Gaussian, Inc. and that
 it will not use this program in any manner prohibited above.
 ---------------------------------------------------------------
  

 Cite this work as:
 Gaussian 09, Revision D.01,
 M. J. Frisch, G. W. Trucks, H. B. Schlegel, G. E. Scuseria, 
 M. A. Robb, J. R. Cheeseman, G. Scalmani, V. Barone, B. Mennucci, 
 G. A. Petersson, H. Nakatsuji, M. Caricato, X. Li, H. P. Hratchian, 
 A. F. Izmaylov, J. Bloino, G. Zheng, J. L. Sonnenberg, M. Hada, 
 M. Ehara, K. Toyota, R. Fukuda, J. Hasegawa, M. Ishida, T. Nakajima, 
 Y. Honda, O. Kitao, H. Nakai, T. Vreven, J. A. Montgomery, Jr., 
 J. E. Peralta, F. Ogliaro, M. Bearpark, J. J. Heyd, E. Brothers, 
 K. N. Kudin, V. N. Staroverov, T. Keith, R. Kobayashi, J. Normand, 
 K. Raghavachari, A. Rendell, J. C. Burant, S. S. Iyengar, J. Tomasi, 
 M. Cossi, N. Rega, J. M. Millam, M. Klene, J. E. Knox, J. B. Cross, 
 V. Bakken, C. Adamo, J. Jaramillo, R. Gomperts, R. E. Stratmann, 
 O. Yazyev, A. J. Austin, R. Cammi, C. Pomelli, J. W. Ochterski, 
 R. L. Martin, K. Morokuma, V. G. Zakrzewski, G. A. Voth, 
 P. Salvador, J. J. Dannenberg, S. Dapprich, A. D. Daniels, 
 O. Farkas, J. B. Foresman, J. V. Ortiz, J. Cioslowski, 
 and D. J. Fox, Gaussian, Inc., Wallingford CT, 2013.
 
 ******************************************
 Gaussian 09:  ES64L-G09RevD.01 24-Apr-2013
                30-Mar-2016 
 ******************************************
 %chk=Phe-R-opt-freq-6-311gdp.chk
 ----------------------------------------------------------------------
 # opt=(calcfc,ts) freq rb3lyp/6-31g scrf=check guess=tcheck geom=conne
 ctivity iop(1/11=1)
 ----------------------------------------------------------------------
 1/5=1,10=4,11=1,14=-1,18=20,26=3,38=1,40=1,57=2/1,3;
 2/9=110,12=2,17=6,18=5,40=1/2;
 3/5=1,6=6,11=2,16=1,25=1,30=1,70=2,71=2,74=-5,116=1,140=1/1,2,3;
 4/5=101/1;
 5/5=2/2;
 8/6=4,10=90,11=11/1;
 11/6=1,8=1,9=11,15=111,16=1/1,2,10;
 10/6=1,13=1/2;
 6/7=2,8=2,9=2,10=2,28=1/1;
 7/10=1,18=20,25=1/1,2,3,16;
 1/5=1,10=4,11=1,14=-1,18=20,26=3/3(2);
 2/9=110/2;
 99//99;
 2/9=110/2;
 3/5=1,6=6,11=2,16=1,25=1,30=1,70=5,71=1,74=-5,116=1/1,2,3;
 4/5=5,16=3,69=1/1;
 5/5=2,38=5/2;
 7//1,2,3,16;
 1/5=1,11=1,14=-1,18=20,26=3/3(-5);
 2/9=110/2;
 6/7=2,8=2,9=2,10=2,19=2,28=1/1;
 99/9=1/99;
 ------------------------
 Phe-R-opt-freq-ts--6-31g
 ------------------------
 Symbolic Z-matrix:
 Charge =  0 Multiplicity = 1
 C                     1.37087  -0.12147   0.44953 
 H                     1.03165   0.51079   1.27216 
 C                     2.77721   0.37226   0.10946 
 O                     3.24652   1.43196   0.44124 
 O                     3.46331  -0.52015  -0.65278 
 H                     3.85844   0.48177  -0.18887 
 C                     0.44619   0.13073  -0.77352 
 H                     0.69705   1.10525  -1.20286 
 H                     0.6755   -0.62137  -1.53495 
 C                    -1.02457   0.10479  -0.42534 
 C                    -1.74216  -1.09527  -0.38096 
 C                    -1.69684   1.29503  -0.12492 
 C                    -3.09419  -1.10514  -0.04419 
 H                    -1.23515  -2.02683  -0.60262 
 C                    -3.04881   1.28907   0.21376 
 H                    -1.15818   2.23717  -0.16122 
 C                    -3.75229   0.08676   0.25535 
 H                    -3.6342   -2.04522  -0.01574 
 H                    -3.55217   2.22277   0.43941 
 H                    -4.80487   0.07904   0.51545 
 N                     1.29524  -1.51438   0.8775 
 H                     1.77688  -2.122     0.22254 
 H                     1.7175   -1.64518   1.79012 
 
 Add virtual bond connecting atoms H6         and C3         Dist= 2.13D+00.
 Add virtual bond connecting atoms H6         and O5         Dist= 2.22D+00.

 GradGradGradGradGradGradGradGradGradGradGradGradGradGradGradGradGradGrad
 Berny optimization.
 Initialization pass.
                           ----------------------------
                           !    Initial Parameters    !
                           ! (Angstroms and Degrees)  !
 --------------------------                            --------------------------
 ! Name  Definition              Value          Derivative Info.                !
 --------------------------------------------------------------------------------
 ! R1    R(1,2)                  1.0916         calculate D2E/DX2 analytically  !
 ! R2    R(1,3)                  1.5288         calculate D2E/DX2 analytically  !
 ! R3    R(1,7)                  1.5539         calculate D2E/DX2 analytically  !
 ! R4    R(1,21)                 1.4591         calculate D2E/DX2 analytically  !
 ! R5    R(3,4)                  1.2055         calculate D2E/DX2 analytically  !
 ! R6    R(3,5)                  1.3595         calculate D2E/DX2 analytically  !
 ! R7    R(3,6)                  1.127          calculate D2E/DX2 analytically  !
 ! R8    R(5,6)                  1.1727         calculate D2E/DX2 analytically  !
 ! R9    R(7,8)                  1.094          calculate D2E/DX2 analytically  !
 ! R10   R(7,9)                  1.0945         calculate D2E/DX2 analytically  !
 ! R11   R(7,10)                 1.5116         calculate D2E/DX2 analytically  !
 ! R12   R(10,11)                1.399          calculate D2E/DX2 analytically  !
 ! R13   R(10,12)                1.3996         calculate D2E/DX2 analytically  !
 ! R14   R(11,13)                1.3934         calculate D2E/DX2 analytically  !
 ! R15   R(11,14)                1.0835         calculate D2E/DX2 analytically  !
 ! R16   R(12,15)                1.3938         calculate D2E/DX2 analytically  !
 ! R17   R(12,16)                1.0859         calculate D2E/DX2 analytically  !
 ! R18   R(13,17)                1.3941         calculate D2E/DX2 analytically  !
 ! R19   R(13,18)                1.0845         calculate D2E/DX2 analytically  !
 ! R20   R(15,17)                1.3936         calculate D2E/DX2 analytically  !
 ! R21   R(15,19)                1.0845         calculate D2E/DX2 analytically  !
 ! R22   R(17,20)                1.0843         calculate D2E/DX2 analytically  !
 ! R23   R(21,22)                1.015          calculate D2E/DX2 analytically  !
 ! R24   R(21,23)                1.014          calculate D2E/DX2 analytically  !
 ! A1    A(2,1,3)              105.4534         calculate D2E/DX2 analytically  !
 ! A2    A(2,1,7)              108.3143         calculate D2E/DX2 analytically  !
 ! A3    A(2,1,21)             108.4077         calculate D2E/DX2 analytically  !
 ! A4    A(3,1,7)              108.6577         calculate D2E/DX2 analytically  !
 ! A5    A(3,1,21)             114.9119         calculate D2E/DX2 analytically  !
 ! A6    A(7,1,21)             110.7906         calculate D2E/DX2 analytically  !
 ! A7    A(1,3,4)              125.5055         calculate D2E/DX2 analytically  !
 ! A8    A(1,3,5)              112.1471         calculate D2E/DX2 analytically  !
 ! A9    A(4,3,5)              122.3354         calculate D2E/DX2 analytically  !
 ! A10   A(4,3,6)               67.29           calculate D2E/DX2 analytically  !
 ! A11   A(1,7,8)              108.4821         calculate D2E/DX2 analytically  !
 ! A12   A(1,7,9)              108.1408         calculate D2E/DX2 analytically  !
 ! A13   A(1,7,10)             113.2604         calculate D2E/DX2 analytically  !
 ! A14   A(8,7,9)              106.92           calculate D2E/DX2 analytically  !
 ! A15   A(8,7,10)             109.1941         calculate D2E/DX2 analytically  !
 ! A16   A(9,7,10)             110.627          calculate D2E/DX2 analytically  !
 ! A17   A(7,10,11)            121.4067         calculate D2E/DX2 analytically  !
 ! A18   A(7,10,12)            120.1451         calculate D2E/DX2 analytically  !
 ! A19   A(11,10,12)           118.4451         calculate D2E/DX2 analytically  !
 ! A20   A(10,11,13)           120.762          calculate D2E/DX2 analytically  !
 ! A21   A(10,11,14)           119.4068         calculate D2E/DX2 analytically  !
 ! A22   A(13,11,14)           119.8287         calculate D2E/DX2 analytically  !
 ! A23   A(10,12,15)           120.9609         calculate D2E/DX2 analytically  !
 ! A24   A(10,12,16)           119.4984         calculate D2E/DX2 analytically  !
 ! A25   A(15,12,16)           119.5399         calculate D2E/DX2 analytically  !
 ! A26   A(11,13,17)           120.261          calculate D2E/DX2 analytically  !
 ! A27   A(11,13,18)           119.7117         calculate D2E/DX2 analytically  !
 ! A28   A(17,13,18)           120.0273         calculate D2E/DX2 analytically  !
 ! A29   A(12,15,17)           120.0394         calculate D2E/DX2 analytically  !
 ! A30   A(12,15,19)           119.8094         calculate D2E/DX2 analytically  !
 ! A31   A(17,15,19)           120.1504         calculate D2E/DX2 analytically  !
 ! A32   A(13,17,15)           119.5315         calculate D2E/DX2 analytically  !
 ! A33   A(13,17,20)           120.247          calculate D2E/DX2 analytically  !
 ! A34   A(15,17,20)           120.2212         calculate D2E/DX2 analytically  !
 ! A35   A(1,21,22)            110.9539         calculate D2E/DX2 analytically  !
 ! A36   A(1,21,23)            111.4392         calculate D2E/DX2 analytically  !
 ! A37   A(22,21,23)           107.8146         calculate D2E/DX2 analytically  !
 ! A38   L(1,3,6,4,-1)         192.7955         calculate D2E/DX2 analytically  !
 ! A39   L(1,3,6,4,-2)         175.4875         calculate D2E/DX2 analytically  !
 ! D1    D(2,1,3,4)            -17.0038         calculate D2E/DX2 analytically  !
 ! D2    D(2,1,3,5)            164.2358         calculate D2E/DX2 analytically  !
 ! D3    D(7,1,3,4)             98.9372         calculate D2E/DX2 analytically  !
 ! D4    D(7,1,3,5)            -79.8232         calculate D2E/DX2 analytically  !
 ! D5    D(21,1,3,4)          -136.3197         calculate D2E/DX2 analytically  !
 ! D6    D(21,1,3,5)            44.9199         calculate D2E/DX2 analytically  !
 ! D7    D(2,1,7,8)             73.9756         calculate D2E/DX2 analytically  !
 ! D8    D(2,1,7,9)           -170.4028         calculate D2E/DX2 analytically  !
 ! D9    D(2,1,7,10)           -47.4233         calculate D2E/DX2 analytically  !
 ! D10   D(3,1,7,8)            -40.1039         calculate D2E/DX2 analytically  !
 ! D11   D(3,1,7,9)             75.5177         calculate D2E/DX2 analytically  !
 ! D12   D(3,1,7,10)          -161.5027         calculate D2E/DX2 analytically  !
 ! D13   D(21,1,7,8)          -167.2433         calculate D2E/DX2 analytically  !
 ! D14   D(21,1,7,9)           -51.6217         calculate D2E/DX2 analytically  !
 ! D15   D(21,1,7,10)           71.3579         calculate D2E/DX2 analytically  !
 ! D16   D(2,1,21,22)         -168.2784         calculate D2E/DX2 analytically  !
 ! D17   D(2,1,21,23)          -48.124          calculate D2E/DX2 analytically  !
 ! D18   D(3,1,21,22)          -50.6199         calculate D2E/DX2 analytically  !
 ! D19   D(3,1,21,23)           69.5344         calculate D2E/DX2 analytically  !
 ! D20   D(7,1,21,22)           72.997          calculate D2E/DX2 analytically  !
 ! D21   D(7,1,21,23)         -166.8487         calculate D2E/DX2 analytically  !
 ! D22   D(1,7,10,11)          -85.2637         calculate D2E/DX2 analytically  !
 ! D23   D(1,7,10,12)           94.0853         calculate D2E/DX2 analytically  !
 ! D24   D(8,7,10,11)          153.7386         calculate D2E/DX2 analytically  !
 ! D25   D(8,7,10,12)          -26.9124         calculate D2E/DX2 analytically  !
 ! D26   D(9,7,10,11)           36.3313         calculate D2E/DX2 analytically  !
 ! D27   D(9,7,10,12)         -144.3197         calculate D2E/DX2 analytically  !
 ! D28   D(7,10,11,13)         179.2955         calculate D2E/DX2 analytically  !
 ! D29   D(7,10,11,14)          -0.1307         calculate D2E/DX2 analytically  !
 ! D30   D(12,10,11,13)         -0.0642         calculate D2E/DX2 analytically  !
 ! D31   D(12,10,11,14)       -179.4905         calculate D2E/DX2 analytically  !
 ! D32   D(7,10,12,15)        -179.2352         calculate D2E/DX2 analytically  !
 ! D33   D(7,10,12,16)           1.0769         calculate D2E/DX2 analytically  !
 ! D34   D(11,10,12,15)          0.1329         calculate D2E/DX2 analytically  !
 ! D35   D(11,10,12,16)       -179.555          calculate D2E/DX2 analytically  !
 ! D36   D(10,11,13,17)         -0.0479         calculate D2E/DX2 analytically  !
 ! D37   D(10,11,13,18)        179.954          calculate D2E/DX2 analytically  !
 ! D38   D(14,11,13,17)        179.3759         calculate D2E/DX2 analytically  !
 ! D39   D(14,11,13,18)         -0.6222         calculate D2E/DX2 analytically  !
 ! D40   D(10,12,15,17)         -0.0894         calculate D2E/DX2 analytically  !
 ! D41   D(10,12,15,19)       -179.7661         calculate D2E/DX2 analytically  !
 ! D42   D(16,12,15,17)        179.5983         calculate D2E/DX2 analytically  !
 ! D43   D(16,12,15,19)         -0.0783         calculate D2E/DX2 analytically  !
 ! D44   D(11,13,17,15)          0.0929         calculate D2E/DX2 analytically  !
 ! D45   D(11,13,17,20)        179.8776         calculate D2E/DX2 analytically  !
 ! D46   D(18,13,17,15)       -179.909          calculate D2E/DX2 analytically  !
 ! D47   D(18,13,17,20)         -0.1243         calculate D2E/DX2 analytically  !
 ! D48   D(12,15,17,13)         -0.0249         calculate D2E/DX2 analytically  !
 ! D49   D(12,15,17,20)       -179.8096         calculate D2E/DX2 analytically  !
 ! D50   D(19,15,17,13)        179.6506         calculate D2E/DX2 analytically  !
 ! D51   D(19,15,17,20)         -0.1341         calculate D2E/DX2 analytically  !
 --------------------------------------------------------------------------------
 Trust Radius=3.00D-01 FncErr=1.00D-07 GrdErr=1.00D-06
 Number of steps in this run=    124 maximum allowed number of steps=    138.
 Search for a saddle point of order  1.
 GradGradGradGradGradGradGradGradGradGradGradGradGradGradGradGradGradGrad

                          Input orientation:                          
 ---------------------------------------------------------------------
 Center     Atomic      Atomic             Coordinates (Angstroms)
 Number     Number       Type             X           Y           Z
 ---------------------------------------------------------------------
      1          6           0        1.370873   -0.121471    0.449530
      2          1           0        1.031649    0.510785    1.272159
      3          6           0        2.777210    0.372255    0.109456
      4          8           0        3.246523    1.431957    0.441243
      5          8           0        3.463309   -0.520150   -0.652783
      6          1           0        3.858439    0.481771   -0.188874
      7          6           0        0.446191    0.130734   -0.773521
      8          1           0        0.697048    1.105252   -1.202857
      9          1           0        0.675502   -0.621374   -1.534948
     10          6           0       -1.024566    0.104792   -0.425337
     11          6           0       -1.742160   -1.095273   -0.380958
     12          6           0       -1.696838    1.295030   -0.124918
     13          6           0       -3.094189   -1.105141   -0.044190
     14          1           0       -1.235146   -2.026826   -0.602618
     15          6           0       -3.048809    1.289071    0.213755
     16          1           0       -1.158175    2.237168   -0.161220
     17          6           0       -3.752291    0.086759    0.255349
     18          1           0       -3.634203   -2.045219   -0.015737
     19          1           0       -3.552168    2.222766    0.439412
     20          1           0       -4.804874    0.079037    0.515450
     21          7           0        1.295236   -1.514383    0.877501
     22          1           0        1.776877   -2.121998    0.222538
     23          1           0        1.717501   -1.645181    1.790121
 ---------------------------------------------------------------------
                    Distance matrix (angstroms):
                    1          2          3          4          5
     1  C    0.000000
     2  H    1.091576   0.000000
     3  C    1.528790   2.101916   0.000000
     4  O    2.435420   2.538631   1.205531   0.000000
     5  O    2.398401   3.268211   1.359458   2.248246   0.000000
     6  H    2.638076   3.182169   1.126965   1.293963   1.172683
     7  C    1.553866   2.161483   2.504323   3.318237   3.088888
     8  H    2.165473   2.567305   2.566423   3.051168   3.255260
     9  H    2.161388   3.047700   2.847550   3.838183   2.925804
    10  C    2.560218   2.697099   3.848512   4.555714   4.536883
    11  C    3.365855   3.606416   4.776908   5.652422   5.244194
    12  C    3.427436   3.164097   4.574227   4.977561   5.495511
    13  C    4.598712   4.622395   6.056372   6.846689   6.611610
    14  H    3.395398   3.884922   4.728810   5.756578   4.934377
    15  C    4.645300   4.286734   5.898638   6.301062   6.814092
    16  H    3.511734   3.135332   4.363304   4.518041   5.403939
    17  C    5.131070   4.909153   6.537368   7.129342   7.297803
    18  H    5.382199   5.473757   6.853180   7.722952   7.287410
    19  H    5.452695   4.963439   6.602598   6.844530   7.611400
    20  H    6.179353   5.901188   7.598606   8.164613   8.371777
    21  N    1.459138   2.080033   2.519036   3.560725   2.833868
    22  H    2.053892   2.930634   2.689750   3.852050   2.485188
    23  H    2.058890   2.320963   2.831549   3.691363   3.206450
                    6          7          8          9         10
     6  H    0.000000
     7  C    3.479724   0.000000
     8  H    3.378059   1.094049   0.000000
     9  H    3.627662   1.094542   1.758405   0.000000
    10  C    4.903241   1.511632   2.137619   2.156104   0.000000
    11  C    5.821570   2.538913   3.386379   2.720545   1.398952
    12  C    5.614854   2.523657   2.632235   3.359879   1.399596
    13  C    7.132900   3.820158   4.538924   4.082519   2.427458
    14  H    5.692878   2.740651   3.728750   2.548551   2.149318
    15  C    6.965912   3.812019   4.008993   4.536326   2.430744
    16  H    5.314941   2.717714   2.409999   3.663436   2.152821
    17  C    7.633910   4.322934   4.791692   4.828247   2.811431
    18  H    7.909194   4.686003   5.485842   4.786324   3.405955
    19  H    7.638253   4.672760   4.690600   5.464470   3.409161
    20  H    8.701222   5.407200   5.854643   5.893151   3.895699
    21  N    3.419327   2.480557   3.398265   2.646025   3.114578
    22  H    3.358836   2.799582   3.689570   2.560011   3.636815
    23  H    3.608873   3.367843   4.190958   3.631808   3.935682
                   11         12         13         14         15
    11  C    0.000000
    12  C    2.404404   0.000000
    13  C    1.393375   2.778476   0.000000
    14  H    1.083507   3.387637   2.148811   0.000000
    15  C    2.783184   1.393758   2.408495   3.866654   0.000000
    16  H    3.390352   1.085864   3.864308   4.287471   2.148020
    17  C    2.417171   2.414417   1.394076   3.396965   1.393618
    18  H    2.148397   3.862974   1.084514   2.469867   3.393058
    19  H    3.867625   2.149747   3.393904   4.951106   1.084471
    20  H    3.400407   3.398323   2.154511   4.292749   2.153826
    21  N    3.314385   4.224944   4.503782   2.975934   5.212547
    22  H    3.715104   4.885029   4.983215   3.124456   5.909545
    23  H    4.121315   4.895909   5.177712   3.819552   5.814850
                   16         17         18         19         20
    16  H    0.000000
    17  C    3.395177   0.000000
    18  H    4.948810   2.152385   0.000000
    19  H    2.468232   2.153243   4.292970   0.000000
    20  H    4.291134   1.084271   2.482961   2.484075   0.000000
    21  N    4.601337   5.331816   5.037761   6.136411   6.315174
    22  H    5.269168   5.954107   5.416868   6.879152   6.946208
    23  H    5.210555   5.939173   5.662322   6.674942   6.865792
                   21         22         23
    21  N    0.000000
    22  H    1.014963   0.000000
    23  H    1.014047   1.639572   0.000000
 Stoichiometry    C9H11NO2
 Framework group  C1[X(C9H11NO2)]
 Deg. of freedom    63
 Full point group                 C1      NOp   1
 Largest Abelian subgroup         C1      NOp   1
 Largest concise Abelian subgroup C1      NOp   1
                         Standard orientation:                         
 ---------------------------------------------------------------------
 Center     Atomic      Atomic             Coordinates (Angstroms)
 Number     Number       Type             X           Y           Z
 ---------------------------------------------------------------------
      1          6           0       -1.377926    0.136887    0.434086
      2          1           0       -1.046486   -0.494536    1.260519
      3          6           0       -2.784918   -0.350638    0.087829
      4          8           0       -3.261518   -1.406862    0.420316
      5          8           0       -3.462207    0.542909   -0.680924
      6          1           0       -3.865050   -0.455506   -0.216090
      7          6           0       -0.447883   -0.123906   -0.783085
      8          1           0       -0.701427   -1.098454   -1.210771
      9          1           0       -0.669127    0.626992   -1.548084
     10          6           0        1.021062   -0.104464   -0.426916
     11          6           0        1.744604    1.092016   -0.382315
     12          6           0        1.685510   -1.297209   -0.119127
     13          6           0        3.094803    1.095962   -0.038164
     14          1           0        1.243639    2.025475   -0.609639
     15          6           0        3.035620   -1.297167    0.226942
     16          1           0        1.142184   -2.236665   -0.155467
     17          6           0        3.745078   -0.098375    0.268672
     18          1           0        3.639511    2.033326   -0.009659
     19          1           0        3.532897   -2.232736    0.458248
     20          1           0        4.796248   -0.095271    0.534521
     21          7           0       -1.297424    1.530721    0.858150
     22          1           0       -1.772322    2.138763    0.198675
     23          1           0       -1.723994    1.666548    1.768029
 ---------------------------------------------------------------------
 Rotational constants (GHZ):      2.3645071      0.4588900      0.4128733
 Standard basis: 6-31G (6D, 7F)
 There are   130 symmetry adapted cartesian basis functions of A   symmetry.
 There are   130 symmetry adapted basis functions of A   symmetry.
   130 basis functions,   308 primitive gaussians,   130 cartesian basis functions
    44 alpha electrons       44 beta electrons
       nuclear repulsion energy       667.4255836225 Hartrees.
 NAtoms=   23 NActive=   23 NUniq=   23 SFac= 1.00D+00 NAtFMM=   60 NAOKFM=F Big=F
 Integral buffers will be    131072 words long.
 Raffenetti 2 integral format.
 Two-electron integral symmetry is turned on.
 One-electron integrals computed using PRISM.
 NBasis=   130 RedAO= T EigKep=  6.18D-04  NBF=   130
 NBsUse=   130 1.00D-06 EigRej= -1.00D+00 NBFU=   130
 Initial guess from the checkpoint file:  "Phe-R-opt-freq-6-311gdp.chk"
 B after Tr=     0.000000    0.000000    0.000000
         Rot=   -0.000644   -0.000673    0.003286    0.999994 Ang=-180.07 deg.
 Requested convergence on RMS density matrix=1.00D-08 within 128 cycles.
 Requested convergence on MAX density matrix=1.00D-06.
 Requested convergence on             energy=1.00D-06.
 No special actions if energy rises.
 SCF Done:  E(RB3LYP) =  -554.481477595     A.U. after   14 cycles
            NFock= 14  Conv=0.66D-08     -V/T= 2.0042
 DoSCS=F DFT=T ScalE2(SS,OS)=  1.000000  1.000000
 Range of M.O.s used for correlation:     1   130
 NBasis=   130 NAE=    44 NBE=    44 NFC=     0 NFV=     0
 NROrb=    130 NOA=    44 NOB=    44 NVA=    86 NVB=    86

 **** Warning!!: The largest alpha MO coefficient is  0.12325445D+02

 Symmetrizing basis deriv contribution to polar:
 IMax=3 JMax=2 DiffMx= 0.00D+00
 G2DrvN: will do    24 centers at a time, making    1 passes.
 Calling FoFCou, ICntrl=  3107 FMM=F I1Cent=   0 AccDes= 0.00D+00.
 End of G2Drv F.D. properties file   721 does not exist.
 End of G2Drv F.D. properties file   722 does not exist.
 End of G2Drv F.D. properties file   788 does not exist.
          IDoAtm=11111111111111111111111
          Differentiating once with respect to nuclear coordinates.
          There are    72 degrees of freedom in the 1st order CPHF.  IDoFFX=6 NUNeed=     0.
     66 vectors produced by pass  0 Test12= 5.26D-15 1.39D-09 XBig12= 2.70D-01 1.53D-01.
 AX will form    66 AO Fock derivatives at one time.
     66 vectors produced by pass  1 Test12= 5.26D-15 1.39D-09 XBig12= 2.20D-02 4.41D-02.
     66 vectors produced by pass  2 Test12= 5.26D-15 1.39D-09 XBig12= 1.56D-04 2.84D-03.
     66 vectors produced by pass  3 Test12= 5.26D-15 1.39D-09 XBig12= 4.38D-07 7.47D-05.
     66 vectors produced by pass  4 Test12= 5.26D-15 1.39D-09 XBig12= 4.39D-10 2.01D-06.
     40 vectors produced by pass  5 Test12= 5.26D-15 1.39D-09 XBig12= 2.96D-13 6.26D-08.
 InvSVY:  IOpt=1 It=  1 EMax= 2.78D-16
 Solved reduced A of dimension   370 with    72 vectors.
 End of Minotr F.D. properties file   721 does not exist.
 End of Minotr F.D. properties file   722 does not exist.
 End of Minotr F.D. properties file   788 does not exist.

 **********************************************************************

            Population analysis using the SCF density.

 **********************************************************************

 Orbital symmetries:
       Occupied  (A) (A) (A) (A) (A) (A) (A) (A) (A) (A) (A) (A)
                 (A) (A) (A) (A) (A) (A) (A) (A) (A) (A) (A) (A)
                 (A) (A) (A) (A) (A) (A) (A) (A) (A) (A) (A) (A)
                 (A) (A) (A) (A) (A) (A) (A) (A)
       Virtual   (A) (A) (A) (A) (A) (A) (A) (A) (A) (A) (A) (A)
                 (A) (A) (A) (A) (A) (A) (A) (A) (A) (A) (A) (A)
                 (A) (A) (A) (A) (A) (A) (A) (A) (A) (A) (A) (A)
                 (A) (A) (A) (A) (A) (A) (A) (A) (A) (A) (A) (A)
                 (A) (A) (A) (A) (A) (A) (A) (A) (A) (A) (A) (A)
                 (A) (A) (A) (A) (A) (A) (A) (A) (A) (A) (A) (A)
                 (A) (A) (A) (A) (A) (A) (A) (A) (A) (A) (A) (A)
                 (A) (A)
 The electronic state is 1-A.
 Alpha  occ. eigenvalues --  -19.21385 -19.19967 -14.32732 -10.36507 -10.24284
 Alpha  occ. eigenvalues --  -10.19828 -10.19295 -10.18320 -10.18266 -10.18214
 Alpha  occ. eigenvalues --  -10.18161 -10.17941  -1.23579  -1.06421  -0.91640
 Alpha  occ. eigenvalues --   -0.85829  -0.78967  -0.74456  -0.73811  -0.66957
 Alpha  occ. eigenvalues --   -0.60549  -0.58794  -0.58566  -0.56594  -0.52507
 Alpha  occ. eigenvalues --   -0.51195  -0.49985  -0.48832  -0.46589  -0.45308
 Alpha  occ. eigenvalues --   -0.44035  -0.41996  -0.41569  -0.39538  -0.37950
 Alpha  occ. eigenvalues --   -0.36288  -0.35415  -0.35008  -0.34354  -0.33730
 Alpha  occ. eigenvalues --   -0.33388  -0.25191  -0.24347  -0.24009
 Alpha virt. eigenvalues --   -0.04221   0.00533   0.00577   0.06724   0.09656
 Alpha virt. eigenvalues --    0.10168   0.11592   0.12548   0.14459   0.15571
 Alpha virt. eigenvalues --    0.16359   0.16952   0.17372   0.18867   0.19363
 Alpha virt. eigenvalues --    0.20161   0.20816   0.23574   0.25643   0.27396
 Alpha virt. eigenvalues --    0.31310   0.33110   0.33831   0.35114   0.38118
 Alpha virt. eigenvalues --    0.48215   0.51688   0.52193   0.53458   0.55315
 Alpha virt. eigenvalues --    0.56398   0.56658   0.58905   0.59901   0.61094
 Alpha virt. eigenvalues --    0.62028   0.62799   0.63136   0.64425   0.65280
 Alpha virt. eigenvalues --    0.65934   0.66972   0.67495   0.68968   0.69850
 Alpha virt. eigenvalues --    0.72552   0.73478   0.76285   0.77475   0.81959
 Alpha virt. eigenvalues --    0.84300   0.84744   0.85438   0.86313   0.87470
 Alpha virt. eigenvalues --    0.87933   0.89929   0.91294   0.93519   0.94623
 Alpha virt. eigenvalues --    0.95294   0.96877   0.97863   0.99093   1.00445
 Alpha virt. eigenvalues --    1.02642   1.04136   1.05459   1.06214   1.07576
 Alpha virt. eigenvalues --    1.10856   1.15204   1.17612   1.21056   1.21718
 Alpha virt. eigenvalues --    1.25230   1.34340   1.38919   1.43859   1.48461
 Alpha virt. eigenvalues --    1.50505   1.66288   1.74308   1.87477   1.92391
 Alpha virt. eigenvalues --    1.95129
          Condensed to atoms (all electrons):
               1          2          3          4          5          6
     1  C    5.398845   0.375434   0.073195  -0.078460  -0.129604   0.046257
     2  H    0.375434   0.583490  -0.060711   0.004724   0.004381  -0.002902
     3  C    0.073195  -0.060711   5.350850   0.237287   0.154752  -0.024977
     4  O   -0.078460   0.004724   0.237287   8.346916  -0.168113   0.044213
     5  O   -0.129604   0.004381   0.154752  -0.168113   8.523712   0.099603
     6  H    0.046257  -0.002902  -0.024977   0.044213   0.099603   0.491604
     7  C    0.251986  -0.034599  -0.050759   0.001059   0.004420  -0.001811
     8  H   -0.045141  -0.000900   0.001653   0.001383  -0.000968  -0.000250
     9  H   -0.038700   0.005507  -0.006242   0.000056   0.003394  -0.000254
    10  C   -0.042468  -0.002782   0.004035  -0.000233   0.000041   0.000071
    11  C   -0.003044  -0.000056   0.000256  -0.000002   0.000002   0.000000
    12  C   -0.004644   0.003275   0.000072   0.000002  -0.000002   0.000002
    13  C    0.000046  -0.000027   0.000002   0.000000   0.000000   0.000000
    14  H    0.000514   0.000054  -0.000001   0.000000  -0.000001   0.000000
    15  C   -0.000050  -0.000172   0.000004   0.000000   0.000000   0.000000
    16  H    0.000271   0.000720  -0.000033  -0.000006   0.000001  -0.000001
    17  C    0.000030  -0.000008   0.000000   0.000000   0.000000   0.000000
    18  H   -0.000003   0.000001   0.000000   0.000000   0.000000   0.000000
    19  H    0.000000   0.000004   0.000000   0.000000   0.000000   0.000000
    20  H    0.000000   0.000000   0.000000   0.000000   0.000000   0.000000
    21  N    0.314415  -0.044331  -0.069646   0.002760  -0.002813  -0.002872
    22  H   -0.044673   0.006369  -0.004941   0.000130   0.010055  -0.000282
    23  H   -0.048618  -0.006874   0.002979   0.000243   0.000337  -0.000068
               7          8          9         10         11         12
     1  C    0.251986  -0.045141  -0.038700  -0.042468  -0.003044  -0.004644
     2  H   -0.034599  -0.000900   0.005507  -0.002782  -0.000056   0.003275
     3  C   -0.050759   0.001653  -0.006242   0.004035   0.000256   0.000072
     4  O    0.001059   0.001383   0.000056  -0.000233  -0.000002   0.000002
     5  O    0.004420  -0.000968   0.003394   0.000041   0.000002  -0.000002
     6  H   -0.001811  -0.000250  -0.000254   0.000071   0.000000   0.000002
     7  C    5.257203   0.363156   0.364305   0.319725  -0.045439  -0.047464
     8  H    0.363156   0.597087  -0.032904  -0.040422   0.003515  -0.003079
     9  H    0.364305  -0.032904   0.580698  -0.031876  -0.003958   0.003002
    10  C    0.319725  -0.040422  -0.031876   4.782314   0.544626   0.534745
    11  C   -0.045439   0.003515  -0.003958   0.544626   4.926108  -0.056619
    12  C   -0.047464  -0.003079   0.003002   0.534745  -0.056619   4.980167
    13  C    0.006259  -0.000219   0.000181  -0.038502   0.513939  -0.042596
    14  H   -0.008639   0.000100   0.003468  -0.037791   0.352242   0.005547
    15  C    0.006582   0.000357  -0.000237  -0.039882  -0.041320   0.516349
    16  H   -0.008039   0.004656   0.000124  -0.042249   0.005271   0.351348
    17  C    0.000475   0.000001   0.000014  -0.031353  -0.054569  -0.055840
    18  H   -0.000191   0.000003  -0.000003   0.004018  -0.031513   0.000867
    19  H   -0.000201  -0.000005   0.000003   0.003930   0.000852  -0.032343
    20  H    0.000004   0.000000   0.000000   0.000557   0.004728   0.004942
    21  N   -0.062659   0.004399  -0.006271  -0.003531   0.004107   0.000015
    22  H   -0.004447  -0.000038   0.004594  -0.000265   0.000098   0.000004
    23  H    0.006991  -0.000208  -0.000032  -0.000095  -0.000067  -0.000005
              13         14         15         16         17         18
     1  C    0.000046   0.000514  -0.000050   0.000271   0.000030  -0.000003
     2  H   -0.000027   0.000054  -0.000172   0.000720  -0.000008   0.000001
     3  C    0.000002  -0.000001   0.000004  -0.000033   0.000000   0.000000
     4  O    0.000000   0.000000   0.000000  -0.000006   0.000000   0.000000
     5  O    0.000000  -0.000001   0.000000   0.000001   0.000000   0.000000
     6  H    0.000000   0.000000   0.000000  -0.000001   0.000000   0.000000
     7  C    0.006259  -0.008639   0.006582  -0.008039   0.000475  -0.000191
     8  H   -0.000219   0.000100   0.000357   0.004656   0.000001   0.000003
     9  H    0.000181   0.003468  -0.000237   0.000124   0.000014  -0.000003
    10  C   -0.038502  -0.037791  -0.039882  -0.042249  -0.031353   0.004018
    11  C    0.513939   0.352242  -0.041320   0.005271  -0.054569  -0.031513
    12  C   -0.042596   0.005547   0.516349   0.351348  -0.055840   0.000867
    13  C    4.917947  -0.036952  -0.046115   0.000436   0.538773   0.350944
    14  H   -0.036952   0.587040   0.000372  -0.000185   0.004768  -0.004645
    15  C   -0.046115   0.000372   4.903532  -0.035730   0.543785   0.004514
    16  H    0.000436  -0.000185  -0.035730   0.602624   0.004683   0.000014
    17  C    0.538773   0.004768   0.543785   0.004683   4.889276  -0.037017
    18  H    0.350944  -0.004645   0.004514   0.000014  -0.037017   0.593952
    19  H    0.004449   0.000013   0.350704  -0.004523  -0.035981  -0.000191
    20  H   -0.035998  -0.000170  -0.036333  -0.000181   0.353638  -0.004591
    21  N   -0.000056   0.005339   0.000003   0.000005   0.000006  -0.000007
    22  H   -0.000001   0.000140   0.000000   0.000000   0.000000   0.000000
    23  H    0.000003  -0.000026  -0.000001   0.000000   0.000000   0.000000
              19         20         21         22         23
     1  C    0.000000   0.000000   0.314415  -0.044673  -0.048618
     2  H    0.000004   0.000000  -0.044331   0.006369  -0.006874
     3  C    0.000000   0.000000  -0.069646  -0.004941   0.002979
     4  O    0.000000   0.000000   0.002760   0.000130   0.000243
     5  O    0.000000   0.000000  -0.002813   0.010055   0.000337
     6  H    0.000000   0.000000  -0.002872  -0.000282  -0.000068
     7  C   -0.000201   0.000004  -0.062659  -0.004447   0.006991
     8  H   -0.000005   0.000000   0.004399  -0.000038  -0.000208
     9  H    0.000003   0.000000  -0.006271   0.004594  -0.000032
    10  C    0.003930   0.000557  -0.003531  -0.000265  -0.000095
    11  C    0.000852   0.004728   0.004107   0.000098  -0.000067
    12  C   -0.032343   0.004942   0.000015   0.000004  -0.000005
    13  C    0.004449  -0.035998  -0.000056  -0.000001   0.000003
    14  H    0.000013  -0.000170   0.005339   0.000140  -0.000026
    15  C    0.350704  -0.036333   0.000003   0.000000  -0.000001
    16  H   -0.004523  -0.000181   0.000005   0.000000   0.000000
    17  C   -0.035981   0.353638   0.000006   0.000000   0.000000
    18  H   -0.000191  -0.004591  -0.000007   0.000000   0.000000
    19  H    0.594285  -0.004577   0.000000   0.000000   0.000000
    20  H   -0.004577   0.594470   0.000000   0.000000   0.000000
    21  N    0.000000   0.000000   6.856319   0.318410   0.325269
    22  H    0.000000   0.000000   0.318410   0.458864  -0.036758
    23  H    0.000000   0.000000   0.325269  -0.036758   0.473882
 Mulliken charges:
               1
     1  C   -0.025587
     2  H    0.169402
     3  C    0.392224
     4  O   -0.391960
     5  O   -0.499195
     6  H    0.351668
     7  C   -0.317916
     8  H    0.147822
     9  H    0.155130
    10  C    0.117390
    11  C   -0.119156
    12  C   -0.157743
    13  C   -0.132512
    14  H    0.128814
    15  C   -0.126361
    16  H    0.120791
    17  C   -0.120681
    18  H    0.123849
    19  H    0.123580
    20  H    0.123513
    21  N   -0.638861
    22  H    0.292741
    23  H    0.283049
 Sum of Mulliken charges =   0.00000
 Mulliken charges with hydrogens summed into heavy atoms:
               1
     1  C    0.143815
     3  C    0.743893
     4  O   -0.391960
     5  O   -0.499195
     7  C   -0.014964
    10  C    0.117390
    11  C    0.009658
    12  C   -0.036952
    13  C   -0.008664
    15  C   -0.002781
    17  C    0.002832
    21  N   -0.063071
 APT charges:
               1
     1  C   -0.008532
     2  H    0.315671
     3  C    0.094074
     4  O   -0.018073
     5  O   -0.432582
     6  H    0.157216
     7  C   -0.784624
     8  H    0.382963
     9  H    0.389825
    10  C   -0.424505
    11  C   -0.497456
    12  C   -0.529118
    13  C   -0.478182
    14  H    0.339900
    15  C   -0.481663
    16  H    0.346392
    17  C   -0.442972
    18  H    0.681065
    19  H    0.689283
    20  H    0.855876
    21  N   -1.426111
    22  H    0.597146
    23  H    0.674411
 Sum of APT charges =   0.00000
 APT charges with hydrogens summed into heavy atoms:
               1
     1  C    0.307139
     3  C    0.251290
     4  O   -0.018073
     5  O   -0.432582
     7  C   -0.011836
    10  C   -0.424505
    11  C   -0.157557
    12  C   -0.182727
    13  C    0.202882
    15  C    0.207620
    17  C    0.412904
    21  N   -0.154554
 Electronic spatial extent (au):  <R**2>=           2623.2448
 Charge=              0.0000 electrons
 Dipole moment (field-independent basis, Debye):
    X=              0.1756    Y=              0.4029    Z=              0.6751  Tot=              0.8056
 Quadrupole moment (field-independent basis, Debye-Ang):
   XX=            -71.2689   YY=            -69.3822   ZZ=            -71.5819
   XY=             -3.1797   XZ=             -2.3391   YZ=              1.5315
 Traceless Quadrupole moment (field-independent basis, Debye-Ang):
   XX=             -0.5245   YY=              1.3621   ZZ=             -0.8376
   XY=             -3.1797   XZ=             -2.3391   YZ=              1.5315
 Octapole moment (field-independent basis, Debye-Ang**2):
  XXX=             10.2004  YYY=              9.3616  ZZZ=              7.3945  XYY=              3.7580
  XXY=              8.3041  XXZ=             20.1664  XZZ=            -19.3870  YZZ=              2.8647
  YYZ=             -2.0143  XYZ=            -13.3933
 Hexadecapole moment (field-independent basis, Debye-Ang**3):
 XXXX=          -2646.1770 YYYY=           -487.9691 ZZZZ=           -184.6204 XXXY=              3.1671
 XXXZ=              1.3068 YYYX=            -32.1980 YYYZ=             -1.1031 ZZZX=            -13.2087
 ZZZY=              7.4501 XXYY=           -539.6284 XXZZ=           -508.1998 YYZZ=           -117.3159
 XXYZ=             29.1359 YYXZ=              3.6651 ZZXY=             -4.7840
 N-N= 6.674255836225D+02 E-N=-2.627461873378D+03  KE= 5.521352764347D+02
  Exact polarizability:   0.000   0.000   0.000   0.000   0.000   0.000
 Approx polarizability: 174.163   3.286 190.985  24.140 -24.853  85.748
 Calling FoFJK, ICntrl=    100147 FMM=F ISym2X=0 I1Cent= 0 IOpClX= 0 NMat=1 NMatS=1 NMatT=0.
 ***** Axes restored to original set *****
 -------------------------------------------------------------------
 Center     Atomic                   Forces (Hartrees/Bohr)
 Number     Number              X              Y              Z
 -------------------------------------------------------------------
      1        6          -0.005521503    0.013792023    0.006605305
      2        1          -0.003708030    0.000650625    0.002372450
      3        6          -0.222515833   -0.131687915    0.011514376
      4        8           0.039994069    0.100396130    0.034854758
      5        8           0.019504041    0.026711580    0.011496750
      6        1           0.167394278   -0.008156739   -0.064600016
      7        6          -0.001182889    0.000380192   -0.001329459
      8        1           0.000609253    0.002094475   -0.001234525
      9        1           0.001374140   -0.001280274   -0.000813296
     10        6           0.003157422    0.000068686   -0.000162553
     11        6           0.002192834   -0.005149106   -0.001303738
     12        6           0.001818187    0.004608476    0.000043507
     13        6          -0.002137588   -0.004154270    0.000099778
     14        1           0.000766915   -0.000434599    0.000163219
     15        6          -0.001921719    0.004233402    0.000954144
     16        1           0.000619334    0.000845195   -0.000101872
     17        6          -0.004564000   -0.000006969    0.001107184
     18        1          -0.000376761   -0.000774926   -0.000007305
     19        1          -0.000409442    0.000810316    0.000199208
     20        1          -0.000912980   -0.000007236    0.000219767
     21        7           0.010983893    0.002842385   -0.000789319
     22        1          -0.001888064   -0.004081292   -0.005474688
     23        1          -0.003275558   -0.001700156    0.006186326
 -------------------------------------------------------------------
 Cartesian Forces:  Max     0.222515833 RMS     0.040653309
 FormGI is forming the generalized inverse of G from B-inverse, IUseBI=4.

 GradGradGradGradGradGradGradGradGradGradGradGradGradGradGradGradGradGrad
 Berny optimization.
 Internal  Forces:  Max     0.182651024 RMS     0.020645465
 Search for a saddle point.
 Step number   1 out of a maximum of  124
 All quantities printed in internal units (Hartrees-Bohrs-Radians)
 Swapping is turned off.
 Second derivative matrix not updated -- analytic derivatives used.
 ITU=  0
     Eigenvalues ---   -0.03599   0.00048   0.00067   0.00341   0.00359
     Eigenvalues ---    0.01655   0.01770   0.01849   0.02152   0.02460
     Eigenvalues ---    0.02631   0.02769   0.02816   0.03001   0.03019
     Eigenvalues ---    0.03102   0.04533   0.04601   0.04954   0.05457
     Eigenvalues ---    0.05598   0.08328   0.10810   0.11489   0.11988
     Eigenvalues ---    0.12167   0.12619   0.13060   0.13486   0.14444
     Eigenvalues ---    0.14776   0.15892   0.17408   0.17976   0.19183
     Eigenvalues ---    0.20158   0.20380   0.20682   0.20826   0.21290
     Eigenvalues ---    0.24666   0.27878   0.31743   0.32497   0.33501
     Eigenvalues ---    0.33988   0.34455   0.34548   0.36130   0.36443
     Eigenvalues ---    0.36502   0.36676   0.36809   0.36962   0.38523
     Eigenvalues ---    0.42950   0.43337   0.45789   0.46202   0.49520
     Eigenvalues ---    0.49756   0.53119   0.98696
 Eigenvectors required to have negative eigenvalues:
                          R8        A10       A38       R6        R5
   1                   -0.69398   0.48116   0.47536   0.19229  -0.08579
                          R7        A9        A8        A39       A1
   1                    0.06847   0.06465  -0.05892  -0.04000  -0.02013
 RFO step:  Lambda0=1.284326557D-02 Lambda=-1.09200506D-01.
 Linear search not attempted -- option 19 set.
 Maximum step size (   0.300) exceeded in Quadratic search.
    -- Step size scaled by   0.390
 Iteration  1 RMS(Cart)=  0.02751677 RMS(Int)=  0.00175028
 Iteration  2 RMS(Cart)=  0.00177370 RMS(Int)=  0.00080152
 Iteration  3 RMS(Cart)=  0.00000855 RMS(Int)=  0.00080148
 Iteration  4 RMS(Cart)=  0.00000005 RMS(Int)=  0.00080148
 Variable       Old X    -DE/DX   Delta X   Delta X   Delta X     New X
                                 (Linear)    (Quad)   (Total)
    R1        2.06278   0.00332   0.00000   0.00174   0.00174   2.06452
    R2        2.88899   0.00141   0.00000  -0.01124  -0.01124   2.87776
    R3        2.93638   0.00247   0.00000   0.00347   0.00347   2.93985
    R4        2.75737   0.00248   0.00000   0.00298   0.00298   2.76035
    R5        2.27812   0.11341   0.00000   0.05043   0.05043   2.32855
    R6        2.56900  -0.00247   0.00000  -0.07440  -0.07631   2.49269
    R7        2.12966   0.18265   0.00000   0.18090   0.17941   2.30907
    R8        2.21605  -0.01904   0.00000   0.10281   0.10635   2.32240
    R9        2.06745   0.00249   0.00000   0.00198   0.00198   2.06943
   R10        2.06838   0.00174   0.00000   0.00157   0.00157   2.06995
   R11        2.85657   0.00200   0.00000   0.00134   0.00134   2.85791
   R12        2.64364   0.00565   0.00000   0.00356   0.00356   2.64720
   R13        2.64485   0.00601   0.00000   0.00360   0.00360   2.64845
   R14        2.63310   0.00535   0.00000   0.00322   0.00322   2.63632
   R15        2.04753   0.00070   0.00000   0.00045   0.00045   2.04798
   R16        2.63382   0.00529   0.00000   0.00322   0.00322   2.63704
   R17        2.05198   0.00105   0.00000   0.00078   0.00078   2.05276
   R18        2.63442   0.00602   0.00000   0.00363   0.00363   2.63805
   R19        2.04944   0.00086   0.00000   0.00065   0.00065   2.05008
   R20        2.63356   0.00596   0.00000   0.00361   0.00361   2.63716
   R21        2.04935   0.00093   0.00000   0.00069   0.00069   2.05004
   R22        2.04897   0.00094   0.00000   0.00072   0.00072   2.04969
   R23        1.91800   0.00508   0.00000   0.00316   0.00316   1.92117
   R24        1.91627   0.00442   0.00000   0.00228   0.00228   1.91855
    A1        1.84051   0.00286   0.00000   0.01057   0.01058   1.85108
    A2        1.89044  -0.00128   0.00000  -0.00253  -0.00256   1.88788
    A3        1.89207   0.00052   0.00000   0.00171   0.00174   1.89381
    A4        1.89643   0.00062   0.00000   0.00294   0.00292   1.89935
    A5        2.00559  -0.00399   0.00000  -0.01262  -0.01261   1.99298
    A6        1.93366   0.00139   0.00000   0.00071   0.00069   1.93435
    A7        2.19048  -0.01016   0.00000   0.00353   0.00350   2.19399
    A8        1.95734   0.02658   0.00000   0.06184   0.06550   2.02283
    A9        2.13516  -0.01632   0.00000  -0.06507  -0.06881   2.06635
   A10        1.17443   0.01828   0.00000  -0.11830  -0.11459   1.05984
   A11        1.89337   0.00085   0.00000   0.00096   0.00096   1.89433
   A12        1.88741  -0.00090   0.00000  -0.00241  -0.00241   1.88500
   A13        1.97677  -0.00108   0.00000  -0.00130  -0.00130   1.97546
   A14        1.86611  -0.00018   0.00000  -0.00012  -0.00012   1.86598
   A15        1.90580   0.00033   0.00000   0.00130   0.00130   1.90710
   A16        1.93080   0.00101   0.00000   0.00161   0.00161   1.93241
   A17        2.11895  -0.00113   0.00000  -0.00144  -0.00144   2.11751
   A18        2.09693   0.00046   0.00000   0.00051   0.00051   2.09744
   A19        2.06726   0.00068   0.00000   0.00092   0.00092   2.06818
   A20        2.10769  -0.00040   0.00000  -0.00057  -0.00057   2.10712
   A21        2.08404  -0.00022   0.00000  -0.00052  -0.00052   2.08352
   A22        2.09141   0.00062   0.00000   0.00109   0.00109   2.09249
   A23        2.11117  -0.00036   0.00000  -0.00057  -0.00057   2.11059
   A24        2.08564   0.00005   0.00000   0.00004   0.00004   2.08568
   A25        2.08636   0.00032   0.00000   0.00053   0.00053   2.08690
   A26        2.09895  -0.00006   0.00000  -0.00009  -0.00009   2.09886
   A27        2.08936  -0.00003   0.00000   0.00003   0.00003   2.08939
   A28        2.09487   0.00009   0.00000   0.00007   0.00007   2.09494
   A29        2.09508  -0.00013   0.00000  -0.00009  -0.00009   2.09499
   A30        2.09107   0.00004   0.00000   0.00006   0.00006   2.09113
   A31        2.09702   0.00009   0.00000   0.00003   0.00003   2.09705
   A32        2.08622   0.00028   0.00000   0.00042   0.00042   2.08663
   A33        2.09871  -0.00014   0.00000  -0.00021  -0.00021   2.09850
   A34        2.09826  -0.00014   0.00000  -0.00021  -0.00021   2.09805
   A35        1.93651   0.00171   0.00000   0.00315   0.00312   1.93963
   A36        1.94498   0.00463   0.00000   0.00730   0.00728   1.95226
   A37        1.88172   0.00100   0.00000   0.00436   0.00431   1.88603
   A38        3.36492   0.00812   0.00000  -0.11477  -0.11109   3.25383
   A39        3.06283   0.00821   0.00000   0.05233   0.05256   3.11539
    D1       -0.29677   0.00215   0.00000   0.00394   0.00398  -0.29279
    D2        2.86646  -0.00275   0.00000  -0.01086  -0.01095   2.85550
    D3        1.72678   0.00242   0.00000   0.00779   0.00787   1.73465
    D4       -1.39318  -0.00248   0.00000  -0.00701  -0.00707  -1.40024
    D5       -2.37923   0.00183   0.00000   0.00183   0.00192  -2.37731
    D6        0.78400  -0.00307   0.00000  -0.01297  -0.01302   0.77098
    D7        1.29112   0.00089   0.00000   0.00420   0.00419   1.29531
    D8       -2.97409   0.00065   0.00000   0.00328   0.00327  -2.97082
    D9       -0.82769   0.00057   0.00000   0.00272   0.00272  -0.82498
   D10       -0.69995  -0.00213   0.00000  -0.00841  -0.00841  -0.70835
   D11        1.31803  -0.00237   0.00000  -0.00932  -0.00933   1.30871
   D12       -2.81875  -0.00245   0.00000  -0.00988  -0.00988  -2.82864
   D13       -2.91895   0.00155   0.00000   0.00514   0.00515  -2.91380
   D14       -0.90097   0.00131   0.00000   0.00422   0.00423  -0.89674
   D15        1.24543   0.00123   0.00000   0.00366   0.00367   1.24910
   D16       -2.93701  -0.00331   0.00000  -0.00761  -0.00763  -2.94464
   D17       -0.83992   0.00222   0.00000   0.00495   0.00495  -0.83497
   D18       -0.88348  -0.00179   0.00000  -0.00086  -0.00088  -0.88437
   D19        1.21360   0.00374   0.00000   0.01170   0.01170   1.22531
   D20        1.27404  -0.00289   0.00000  -0.00599  -0.00599   1.26805
   D21       -2.91206   0.00265   0.00000   0.00657   0.00660  -2.90546
   D22       -1.48813   0.00084   0.00000   0.00256   0.00256  -1.48558
   D23        1.64210   0.00081   0.00000   0.00244   0.00244   1.64454
   D24        2.68324   0.00024   0.00000   0.00128   0.00128   2.68452
   D25       -0.46971   0.00021   0.00000   0.00116   0.00116  -0.46855
   D26        0.63410  -0.00034   0.00000  -0.00031  -0.00031   0.63379
   D27       -2.51885  -0.00037   0.00000  -0.00043  -0.00043  -2.51928
   D28        3.12930   0.00002   0.00000   0.00000   0.00000   3.12930
   D29       -0.00228   0.00018   0.00000   0.00058   0.00058  -0.00170
   D30       -0.00112   0.00005   0.00000   0.00012   0.00012  -0.00100
   D31       -3.13270   0.00021   0.00000   0.00070   0.00070  -3.13200
   D32       -3.12824  -0.00003   0.00000  -0.00004  -0.00004  -3.12829
   D33        0.01880   0.00002   0.00000   0.00016   0.00016   0.01895
   D34        0.00232  -0.00007   0.00000  -0.00017  -0.00017   0.00215
   D35       -3.13383  -0.00001   0.00000   0.00003   0.00003  -3.13380
   D36       -0.00084   0.00001   0.00000   0.00005   0.00005  -0.00079
   D37        3.14079   0.00003   0.00000   0.00009   0.00009   3.14088
   D38        3.13070  -0.00016   0.00000  -0.00054  -0.00054   3.13016
   D39       -0.01086  -0.00014   0.00000  -0.00050  -0.00050  -0.01136
   D40       -0.00156   0.00003   0.00000   0.00007   0.00007  -0.00149
   D41       -3.13751   0.00003   0.00000   0.00009   0.00009  -3.13742
   D42        3.13458  -0.00002   0.00000  -0.00013  -0.00013   3.13445
   D43       -0.00137  -0.00003   0.00000  -0.00012  -0.00012  -0.00148
   D44        0.00162  -0.00005   0.00000  -0.00016  -0.00016   0.00146
   D45        3.13946  -0.00001   0.00000  -0.00004  -0.00004   3.13941
   D46       -3.14000  -0.00007   0.00000  -0.00020  -0.00020  -3.14020
   D47       -0.00217  -0.00002   0.00000  -0.00008  -0.00008  -0.00225
   D48       -0.00043   0.00003   0.00000   0.00010   0.00010  -0.00033
   D49       -3.13827  -0.00002   0.00000  -0.00001  -0.00001  -3.13828
   D50        3.13550   0.00003   0.00000   0.00008   0.00008   3.13558
   D51       -0.00234  -0.00001   0.00000  -0.00003  -0.00003  -0.00237
         Item               Value     Threshold  Converged?
 Maximum Force            0.182651     0.000450     NO 
 RMS     Force            0.020645     0.000300     NO 
 Maximum Displacement     0.199430     0.001800     NO 
 RMS     Displacement     0.027832     0.001200     NO 
 Predicted change in Energy=-3.274766D-02
 GradGradGradGradGradGradGradGradGradGradGradGradGradGradGradGradGradGrad

                          Input orientation:                          
 ---------------------------------------------------------------------
 Center     Atomic      Atomic             Coordinates (Angstroms)
 Number     Number       Type             X           Y           Z
 ---------------------------------------------------------------------
      1          6           0        1.365818   -0.132970    0.447270
      2          1           0        1.025112    0.500510    1.269570
      3          6           0        2.773078    0.339115    0.106968
      4          8           0        3.272539    1.413683    0.444900
      5          8           0        3.498575   -0.488816   -0.619766
      6          1           0        3.927036    0.587305   -0.209002
      7          6           0        0.440818    0.122442   -0.777208
      8          1           0        0.695871    1.095894   -1.209153
      9          1           0        0.668723   -0.632909   -1.537038
     10          6           0       -1.030208    0.101944   -0.426728
     11          6           0       -1.750648   -1.098453   -0.378215
     12          6           0       -1.699967    1.296323   -0.128261
     13          6           0       -3.103902   -1.104461   -0.039223
     14          1           0       -1.244695   -2.031385   -0.597659
     15          6           0       -3.053174    1.293925    0.212529
     16          1           0       -1.158839    2.237384   -0.168013
     17          6           0       -3.759830    0.091409    0.258206
     18          1           0       -3.646086   -2.043574   -0.007349
     19          1           0       -3.554639    2.229489    0.436414
     20          1           0       -4.812463    0.086571    0.519756
     21          7           0        1.289259   -1.527838    0.874090
     22          1           0        1.765986   -2.139100    0.216335
     23          1           0        1.704576   -1.666128    1.790131
 ---------------------------------------------------------------------
                    Distance matrix (angstroms):
                    1          2          3          4          5
     1  C    0.000000
     2  H    1.092499   0.000000
     3  C    1.522843   2.105487   0.000000
     4  O    2.455143   2.562205   1.232216   0.000000
     5  O    2.411192   3.265942   1.319075   2.191828   0.000000
     6  H    2.740316   3.258047   1.221906   1.240506   1.228961
     7  C    1.555701   2.161860   2.503627   3.343575   3.122227
     8  H    2.168565   2.570399   2.572873   3.078327   3.273199
     9  H    2.161795   3.047737   2.841812   3.859595   2.978291
    10  C    2.561249   2.694554   3.847865   4.581923   4.571229
    11  C    3.365403   3.602321   4.771383   5.676332   5.290023
    12  C    3.431203   3.164381   4.580361   5.006805   5.518437
    13  C    4.599876   4.619267   6.053443   6.872730   6.656482
    14  H    3.392732   3.879312   4.717867   5.775883   4.987847
    15  C    4.649583   4.287105   5.904915   6.331112   6.840782
    16  H    3.517250   3.138952   4.374815   4.548764   5.415511
    17  C    5.134039   4.907738   6.539352   7.158036   7.334299
    18  H    5.382960   5.470190   6.848061   7.747549   7.337473
    19  H    5.458226   4.965646   6.612265   6.875752   7.632334
    20  H    6.182605   5.900072   7.600960   8.193539   8.408503
    21  N    1.460716   2.083356   2.505136   3.573534   2.862210
    22  H    2.058645   2.936961   2.677265   3.865774   2.534633
    23  H    2.066060   2.329587   2.827673   3.708556   3.226778
                    6          7          8          9         10
     6  H    0.000000
     7  C    3.562677   0.000000
     8  H    3.420437   1.095097   0.000000
     9  H    3.724139   1.095371   1.759831   0.000000
    10  C    4.985704   1.512341   2.139971   2.158510   0.000000
    11  C    5.925074   2.540138   3.389848   2.722674   1.400836
    12  C    5.672071   2.526281   2.636009   3.364117   1.401499
    13  C    7.233601   3.822951   4.544070   4.086381   2.430181
    14  H    5.809939   2.740833   3.730897   2.549379   2.150887
    15  C    7.028537   3.815749   4.014441   4.541607   2.433487
    16  H    5.347015   2.720846   2.413902   3.667805   2.154897
    17  C    7.717001   4.326488   4.797438   4.833179   2.814264
    18  H    8.019624   4.689040   5.491191   4.790354   3.409097
    19  H    7.686923   4.677201   4.696782   5.470340   3.412361
    20  H    8.784114   5.411133   5.860853   5.898427   3.898912
    21  N    3.550322   2.483961   3.402349   2.645657   3.119014
    22  H    3.504902   2.803171   3.693555   2.558694   3.640674
    23  H    3.743504   3.374507   4.200233   3.634637   3.939491
                   11         12         13         14         15
    11  C    0.000000
    12  C    2.408318   0.000000
    13  C    1.395080   2.782575   0.000000
    14  H    1.083746   3.391348   2.151206   0.000000
    15  C    2.787297   1.395461   2.412096   3.871006   0.000000
    16  H    3.394441   1.086276   3.868822   4.291195   2.150217
    17  C    2.420252   2.417480   1.395998   3.400686   1.395526
    18  H    2.150228   3.867416   1.084856   2.472911   3.396880
    19  H    3.872106   2.151619   3.397737   4.955824   1.084837
    20  H    3.403725   3.401625   2.156431   4.296896   2.155733
    21  N    3.315671   4.232738   4.507023   2.973303   5.220799
    22  H    3.715259   4.892209   4.985138   3.120640   5.916923
    23  H    4.118562   4.903801   5.175275   3.812238   5.821249
                   16         17         18         19         20
    16  H    0.000000
    17  C    3.398827   0.000000
    18  H    4.953666   2.154440   0.000000
    19  H    2.470880   2.155283   4.297017   0.000000
    20  H    4.295112   1.084650   2.485114   2.486194   0.000000
    21  N    4.610430   5.338032   5.039896   6.145927   6.321620
    22  H    5.277872   5.959159   5.417535   6.887819   6.951378
    23  H    5.222153   5.941000   5.657118   6.683392   6.867140
                   21         22         23
    21  N    0.000000
    22  H    1.016637   0.000000
    23  H    1.015255   1.644477   0.000000
 Stoichiometry    C9H11NO2
 Framework group  C1[X(C9H11NO2)]
 Deg. of freedom    63
 Full point group                 C1      NOp   1
 Largest Abelian subgroup         C1      NOp   1
 Largest concise Abelian subgroup C1      NOp   1
                         Standard orientation:                         
 ---------------------------------------------------------------------
 Center     Atomic      Atomic             Coordinates (Angstroms)
 Number     Number       Type             X           Y           Z
 ---------------------------------------------------------------------
      1          6           0       -1.371748    0.149120    0.426995
      2          1           0       -1.039648   -0.477310    1.258169
      3          6           0       -2.779274   -0.319241    0.082672
      4          8           0       -3.286544   -1.387526    0.428795
      5          8           0       -3.495737    0.504649   -0.657493
      6          1           0       -3.932483   -0.564781   -0.238070
      7          6           0       -0.440303   -0.124162   -0.788709
      8          1           0       -0.697720   -1.100829   -1.211904
      9          1           0       -0.659361    0.624210   -1.557987
     10          6           0        1.028542   -0.107580   -0.428991
     11          6           0        1.754976    1.089501   -0.388614
     12          6           0        1.690073   -1.302174   -0.113519
     13          6           0        3.106050    1.092084   -0.040990
     14          1           0        1.255363    2.022657   -0.621232
     15          6           0        3.041069   -1.303181    0.235941
     16          1           0        1.144255   -2.240777   -0.146740
     17          6           0        3.753749   -0.103941    0.273371
     18          1           0        3.652964    2.028649   -0.015619
     19          1           0        3.536152   -2.238899    0.472997
     20          1           0        4.804700   -0.101789    0.541634
     21          7           0       -1.290564    1.548047    0.839430
     22          1           0       -1.759848    2.154725    0.172148
     23          1           0       -1.710991    1.698270    1.751251
 ---------------------------------------------------------------------
 Rotational constants (GHZ):      2.3771366      0.4554805      0.4100504
 Standard basis: 6-31G (6D, 7F)
 There are   130 symmetry adapted cartesian basis functions of A   symmetry.
 There are   130 symmetry adapted basis functions of A   symmetry.
   130 basis functions,   308 primitive gaussians,   130 cartesian basis functions
    44 alpha electrons       44 beta electrons
       nuclear repulsion energy       666.3344372749 Hartrees.
 NAtoms=   23 NActive=   23 NUniq=   23 SFac= 1.00D+00 NAtFMM=   60 NAOKFM=F Big=F
 Integral buffers will be    131072 words long.
 Raffenetti 2 integral format.
 Two-electron integral symmetry is turned on.
 One-electron integrals computed using PRISM.
 NBasis=   130 RedAO= T EigKep=  6.27D-04  NBF=   130
 NBsUse=   130 1.00D-06 EigRej= -1.00D+00 NBFU=   130
 Initial guess from the checkpoint file:  "Phe-R-opt-freq-6-311gdp.chk"
 B after Tr=     0.000000    0.000000    0.000000
         Rot=    0.999991    0.004249   -0.000200    0.000564 Ang=   0.49 deg.
 ExpMin= 1.61D-01 ExpMax= 5.48D+03 ExpMxC= 8.25D+02 IAcc=1 IRadAn=         1 AccDes= 0.00D+00
 Harris functional with IExCor=  402 and IRadAn=       1 diagonalized for initial guess.
 HarFok:  IExCor=  402 AccDes= 0.00D+00 IRadAn=         1 IDoV= 1 UseB2=F ITyADJ=14
 ICtDFT=  3500011 ScaDFX=  1.000000  1.000000  1.000000  1.000000
 FoFCou: FMM=F IPFlag=           0 FMFlag=      100000 FMFlg1=           0
         NFxFlg=           0 DoJE=T BraDBF=F KetDBF=T FulRan=T
         wScrn=  0.000000 ICntrl=     500 IOpCl=  0 I1Cent=   200000004 NGrid=           0
         NMat0=    1 NMatS0=      1 NMatT0=    0 NMatD0=    1 NMtDS0=    0 NMtDT0=    0
 Petite list used in FoFCou.
 Requested convergence on RMS density matrix=1.00D-08 within 128 cycles.
 Requested convergence on MAX density matrix=1.00D-06.
 Requested convergence on             energy=1.00D-06.
 No special actions if energy rises.
 Integral accuracy reduced to 1.0D-05 until final iterations.
 Initial convergence to 1.0D-05 achieved.  Increase integral accuracy.
 SCF Done:  E(RB3LYP) =  -554.514597180     A.U. after   14 cycles
            NFock= 14  Conv=0.36D-08     -V/T= 2.0045
 Calling FoFJK, ICntrl=      2127 FMM=F ISym2X=0 I1Cent= 0 IOpClX= 0 NMat=1 NMatS=1 NMatT=0.
 ***** Axes restored to original set *****
 -------------------------------------------------------------------
 Center     Atomic                   Forces (Hartrees/Bohr)
 Number     Number              X              Y              Z
 -------------------------------------------------------------------
      1        6          -0.003834391    0.012647299    0.005273787
      2        1          -0.002741822    0.000043577    0.001687336
      3        6          -0.170681545   -0.109564179    0.012787672
      4        8           0.031103703    0.067896592    0.022340799
      5        8           0.015897348    0.015304149    0.003913340
      6        1           0.126042208    0.015255236   -0.043873951
      7        6          -0.000998688    0.000313089   -0.001220367
      8        1           0.000513941    0.001466511   -0.000777946
      9        1           0.001012893   -0.000908883   -0.000561754
     10        6           0.002054927   -0.000076672   -0.000036392
     11        6           0.001459602   -0.003578441   -0.000908629
     12        6           0.001248308    0.003175965   -0.000006310
     13        6          -0.001453830   -0.002780392    0.000099986
     14        1           0.000590372   -0.000282929    0.000201637
     15        6          -0.001302025    0.002832138    0.000644100
     16        1           0.000440778    0.000572286   -0.000089584
     17        6          -0.003043190    0.000008911    0.000732977
     18        1          -0.000264774   -0.000532838   -0.000007375
     19        1          -0.000281790    0.000557388    0.000140996
     20        1          -0.000632995   -0.000003227    0.000148029
     21        7           0.010659364    0.001654676   -0.001001108
     22        1          -0.002288842   -0.002929439   -0.004180914
     23        1          -0.003499551   -0.001070814    0.004693671
 -------------------------------------------------------------------
 Cartesian Forces:  Max     0.170681545 RMS     0.031019247

 GradGradGradGradGradGradGradGradGradGradGradGradGradGradGradGradGradGrad
 Berny optimization.
 FormGI is forming the generalized inverse of G from B-inverse, IUseBI=4.
 Internal  Forces:  Max     0.136311526 RMS     0.015127139
 Search for a saddle point.
 Step number   2 out of a maximum of  124
 All quantities printed in internal units (Hartrees-Bohrs-Radians)
 Swapping is turned off.
 Update second derivatives using D2CorX and points    1    2
 ITU=  0  0
     Eigenvalues ---   -0.05120   0.00051   0.00067   0.00341   0.00359
     Eigenvalues ---    0.01655   0.01770   0.01849   0.02152   0.02460
     Eigenvalues ---    0.02631   0.02816   0.02924   0.03003   0.03019
     Eigenvalues ---    0.03102   0.04532   0.04602   0.04953   0.05455
     Eigenvalues ---    0.05614   0.08328   0.11489   0.11929   0.12167
     Eigenvalues ---    0.12588   0.12654   0.13061   0.13486   0.14494
     Eigenvalues ---    0.14912   0.15909   0.17417   0.17682   0.19183
     Eigenvalues ---    0.20169   0.20383   0.20684   0.20830   0.21288
     Eigenvalues ---    0.24803   0.27892   0.31743   0.31876   0.32503
     Eigenvalues ---    0.33987   0.34452   0.34545   0.36130   0.36443
     Eigenvalues ---    0.36502   0.36630   0.36676   0.36962   0.38523
     Eigenvalues ---    0.42950   0.43337   0.45789   0.46202   0.49520
     Eigenvalues ---    0.49756   0.53120   0.97974
 Eigenvectors required to have negative eigenvalues:
                          R8        A10       A38       R6        R5
   1                   -0.73746   0.46192   0.44783   0.14719  -0.09316
                          A9        A8        R7        A39       A1
   1                    0.06534  -0.05118   0.03730   0.03014  -0.01957
 RFO step:  Lambda0=1.809495036D-03 Lambda=-6.96356805D-02.
 Linear search not attempted -- option 19 set.
 Maximum step size (   0.300) exceeded in Quadratic search.
    -- Step size scaled by   0.577
 Iteration  1 RMS(Cart)=  0.02390654 RMS(Int)=  0.00390413
 Iteration  2 RMS(Cart)=  0.00382249 RMS(Int)=  0.00055911
 Iteration  3 RMS(Cart)=  0.00001887 RMS(Int)=  0.00055848
 Iteration  4 RMS(Cart)=  0.00000002 RMS(Int)=  0.00055848
 Variable       Old X    -DE/DX   Delta X   Delta X   Delta X     New X
                                 (Linear)    (Quad)   (Total)
    R1        2.06452   0.00215   0.00000   0.00125   0.00125   2.06577
    R2        2.87776  -0.00018   0.00000  -0.01826  -0.01826   2.85949
    R3        2.93985   0.00179   0.00000   0.00491   0.00491   2.94476
    R4        2.76035   0.00184   0.00000   0.00336   0.00336   2.76372
    R5        2.32855   0.07794   0.00000   0.04507   0.04507   2.37362
    R6        2.49269   0.00064   0.00000  -0.04453  -0.04557   2.44712
    R7        2.30907   0.13631   0.00000   0.24518   0.24397   2.55304
    R8        2.32240  -0.00674   0.00000   0.04984   0.05221   2.37461
    R9        2.06943   0.00173   0.00000   0.00206   0.00206   2.07149
   R10        2.06995   0.00123   0.00000   0.00172   0.00172   2.07167
   R11        2.85791   0.00137   0.00000   0.00145   0.00145   2.85936
   R12        2.64720   0.00383   0.00000   0.00386   0.00386   2.65106
   R13        2.64845   0.00406   0.00000   0.00388   0.00388   2.65233
   R14        2.63632   0.00362   0.00000   0.00346   0.00346   2.63978
   R15        2.04798   0.00048   0.00000   0.00045   0.00045   2.04844
   R16        2.63704   0.00358   0.00000   0.00346   0.00346   2.64050
   R17        2.05276   0.00072   0.00000   0.00084   0.00084   2.05360
   R18        2.63805   0.00408   0.00000   0.00390   0.00390   2.64196
   R19        2.05008   0.00059   0.00000   0.00072   0.00072   2.05080
   R20        2.63716   0.00403   0.00000   0.00385   0.00385   2.64102
   R21        2.05004   0.00064   0.00000   0.00076   0.00076   2.05081
   R22        2.04969   0.00065   0.00000   0.00080   0.00080   2.05050
   R23        1.92117   0.00339   0.00000   0.00237   0.00237   1.92354
   R24        1.91855   0.00295   0.00000   0.00162   0.00162   1.92017
    A1        1.85108   0.00235   0.00000   0.01169   0.01170   1.86278
    A2        1.88788  -0.00090   0.00000  -0.00197  -0.00200   1.88588
    A3        1.89381   0.00045   0.00000   0.00187   0.00190   1.89571
    A4        1.89935   0.00056   0.00000   0.00303   0.00299   1.90234
    A5        1.99298  -0.00320   0.00000  -0.01345  -0.01344   1.97955
    A6        1.93435   0.00086   0.00000  -0.00025  -0.00027   1.93408
    A7        2.19399  -0.00616   0.00000   0.01204   0.01204   2.20602
    A8        2.02283   0.02358   0.00000   0.07124   0.07384   2.09667
    A9        2.06635  -0.01740   0.00000  -0.08324  -0.08586   1.98049
   A10        1.05984   0.01313   0.00000  -0.07076  -0.06814   0.99170
   A11        1.89433   0.00062   0.00000   0.00113   0.00113   1.89546
   A12        1.88500  -0.00067   0.00000  -0.00283  -0.00283   1.88217
   A13        1.97546  -0.00092   0.00000  -0.00289  -0.00290   1.97257
   A14        1.86598  -0.00012   0.00000   0.00010   0.00010   1.86608
   A15        1.90710   0.00036   0.00000   0.00240   0.00240   1.90950
   A16        1.93241   0.00077   0.00000   0.00219   0.00218   1.93460
   A17        2.11751  -0.00082   0.00000  -0.00159  -0.00159   2.11592
   A18        2.09744   0.00030   0.00000   0.00031   0.00031   2.09775
   A19        2.06818   0.00052   0.00000   0.00128   0.00128   2.06945
   A20        2.10712  -0.00031   0.00000  -0.00080  -0.00080   2.10632
   A21        2.08352  -0.00018   0.00000  -0.00071  -0.00071   2.08281
   A22        2.09249   0.00049   0.00000   0.00150   0.00150   2.09399
   A23        2.11059  -0.00029   0.00000  -0.00082  -0.00082   2.10977
   A24        2.08568   0.00003   0.00000   0.00000   0.00000   2.08569
   A25        2.08690   0.00026   0.00000   0.00082   0.00082   2.08771
   A26        2.09886  -0.00005   0.00000  -0.00014  -0.00014   2.09872
   A27        2.08939  -0.00001   0.00000   0.00009   0.00009   2.08948
   A28        2.09494   0.00006   0.00000   0.00005   0.00005   2.09499
   A29        2.09499  -0.00009   0.00000  -0.00010  -0.00010   2.09488
   A30        2.09113   0.00003   0.00000   0.00008   0.00008   2.09121
   A31        2.09705   0.00006   0.00000   0.00002   0.00002   2.09708
   A32        2.08663   0.00022   0.00000   0.00059   0.00059   2.08722
   A33        2.09850  -0.00011   0.00000  -0.00029  -0.00029   2.09821
   A34        2.09805  -0.00011   0.00000  -0.00030  -0.00030   2.09775
   A35        1.93963   0.00157   0.00000   0.00786   0.00773   1.94736
   A36        1.95226   0.00364   0.00000   0.01205   0.01192   1.96418
   A37        1.88603   0.00108   0.00000   0.01043   0.01022   1.89625
   A38        3.25383   0.00696   0.00000  -0.05871  -0.05611   3.19772
   A39        3.11539   0.00565   0.00000   0.04006   0.03999   3.15538
    D1       -0.29279   0.00078   0.00000  -0.00062  -0.00067  -0.29346
    D2        2.85550  -0.00161   0.00000  -0.00810  -0.00812   2.84739
    D3        1.73465   0.00124   0.00000   0.00466   0.00465   1.73929
    D4       -1.40024  -0.00115   0.00000  -0.00283  -0.00280  -1.40304
    D5       -2.37731   0.00049   0.00000  -0.00301  -0.00301  -2.38032
    D6        0.77098  -0.00190   0.00000  -0.01050  -0.01045   0.76053
    D7        1.29531   0.00077   0.00000   0.00484   0.00483   1.30014
    D8       -2.97082   0.00059   0.00000   0.00405   0.00405  -2.96677
    D9       -0.82498   0.00048   0.00000   0.00288   0.00288  -0.82210
   D10       -0.70835  -0.00182   0.00000  -0.00946  -0.00946  -0.71781
   D11        1.30871  -0.00200   0.00000  -0.01024  -0.01024   1.29847
   D12       -2.82864  -0.00212   0.00000  -0.01141  -0.01141  -2.84005
   D13       -2.91380   0.00128   0.00000   0.00575   0.00576  -2.90804
   D14       -0.89674   0.00110   0.00000   0.00497   0.00497  -0.89177
   D15        1.24910   0.00098   0.00000   0.00380   0.00381   1.25291
   D16       -2.94464  -0.00289   0.00000  -0.01427  -0.01433  -2.95897
   D17       -0.83497   0.00210   0.00000   0.01288   0.01293  -0.82204
   D18       -0.88437  -0.00160   0.00000  -0.00659  -0.00666  -0.89103
   D19        1.22531   0.00340   0.00000   0.02056   0.02060   1.24591
   D20        1.26805  -0.00258   0.00000  -0.01286  -0.01290   1.25515
   D21       -2.90546   0.00241   0.00000   0.01429   0.01436  -2.89110
   D22       -1.48558   0.00072   0.00000   0.00413   0.00413  -1.48144
   D23        1.64454   0.00069   0.00000   0.00384   0.00384   1.64837
   D24        2.68452   0.00028   0.00000   0.00291   0.00291   2.68744
   D25       -0.46855   0.00025   0.00000   0.00262   0.00262  -0.46593
   D26        0.63379  -0.00024   0.00000   0.00003   0.00003   0.63382
   D27       -2.51928  -0.00027   0.00000  -0.00026  -0.00027  -2.51955
   D28        3.12930   0.00001   0.00000  -0.00010  -0.00010   3.12920
   D29       -0.00170   0.00017   0.00000   0.00104   0.00104  -0.00067
   D30       -0.00100   0.00004   0.00000   0.00020   0.00020  -0.00081
   D31       -3.13200   0.00020   0.00000   0.00133   0.00133  -3.13067
   D32       -3.12829  -0.00002   0.00000  -0.00001  -0.00001  -3.12830
   D33        0.01895   0.00003   0.00000   0.00032   0.00032   0.01927
   D34        0.00215  -0.00006   0.00000  -0.00032  -0.00032   0.00183
   D35       -3.13380  -0.00001   0.00000   0.00002   0.00002  -3.13378
   D36       -0.00079   0.00001   0.00000   0.00011   0.00011  -0.00068
   D37        3.14088   0.00003   0.00000   0.00019   0.00019   3.14107
   D38        3.13016  -0.00015   0.00000  -0.00105  -0.00105   3.12911
   D39       -0.01136  -0.00013   0.00000  -0.00096  -0.00096  -0.01232
   D40       -0.00149   0.00003   0.00000   0.00013   0.00013  -0.00137
   D41       -3.13742   0.00003   0.00000   0.00014   0.00014  -3.13728
   D42        3.13445  -0.00002   0.00000  -0.00021  -0.00021   3.13424
   D43       -0.00148  -0.00003   0.00000  -0.00019  -0.00019  -0.00167
   D44        0.00146  -0.00005   0.00000  -0.00030  -0.00030   0.00117
   D45        3.13941  -0.00001   0.00000  -0.00008  -0.00008   3.13933
   D46       -3.14020  -0.00007   0.00000  -0.00039  -0.00039  -3.14059
   D47       -0.00225  -0.00002   0.00000  -0.00017  -0.00017  -0.00242
   D48       -0.00033   0.00003   0.00000   0.00018   0.00018  -0.00015
   D49       -3.13828  -0.00001   0.00000  -0.00003  -0.00003  -3.13832
   D50        3.13558   0.00003   0.00000   0.00017   0.00017   3.13574
   D51       -0.00237  -0.00001   0.00000  -0.00005  -0.00005  -0.00242
         Item               Value     Threshold  Converged?
 Maximum Force            0.136312     0.000450     NO 
 RMS     Force            0.015127     0.000300     NO 
 Maximum Displacement     0.179968     0.001800     NO 
 RMS     Displacement     0.027074     0.001200     NO 
 Predicted change in Energy=-3.068098D-02
 GradGradGradGradGradGradGradGradGradGradGradGradGradGradGradGradGradGrad

                          Input orientation:                          
 ---------------------------------------------------------------------
 Center     Atomic      Atomic             Coordinates (Angstroms)
 Number     Number       Type             X           Y           Z
 ---------------------------------------------------------------------
      1          6           0        1.358940   -0.138616    0.447544
      2          1           0        1.014690    0.494091    1.269842
      3          6           0        2.763704    0.311485    0.110268
      4          8           0        3.299687    1.396460    0.446803
      5          8           0        3.540166   -0.451812   -0.590737
      6          1           0        4.022271    0.654687   -0.241085
      7          6           0        0.434902    0.120015   -0.780285
      8          1           0        0.693502    1.093096   -1.213719
      9          1           0        0.663846   -0.637950   -1.538507
     10          6           0       -1.036460    0.101693   -0.427786
     11          6           0       -1.756884   -1.100915   -0.374918
     12          6           0       -1.706298    1.299008   -0.131616
     13          6           0       -3.111502   -1.105980   -0.033816
     14          1           0       -1.249374   -2.033977   -0.591378
     15          6           0       -3.060909    1.297098    0.211093
     16          1           0       -1.164642    2.240112   -0.175084
     17          6           0       -3.767992    0.092636    0.261011
     18          1           0       -3.653803   -2.045328    0.001820
     19          1           0       -3.562733    2.233426    0.432924
     20          1           0       -4.820741    0.088377    0.523866
[...]
 6315,0.13204335,-0.00079021,-0.00106344,0.00009823,0.00007100,-0.00001
 418,0.00009862,-0.00003092,-0.00000605,-0.00006285,0.00007816,0.000170
 85,-0.00004157,0.00004615,0.00013031,0.00000835,0.00000302,-0.00005431
 ,0.00000695,0.00115999,0.00089237,-0.00059019,0.00010063,0.00024749,0.
 00020503,-0.00088050,0.00014253,0.00059381,0.01658507,-0.02065998,-0.0
 0506502,0.11847564,-0.27281925,-0.03809012,-0.00385362,-0.00257699,0.0
 0069959,-0.00448216,0.00455523,0.00152519,-0.12771556,0.28873346,-0.00
 059047,-0.00156442,0.00054407,-0.00005681,-0.00001401,0.00003876,-0.00
 019288,0.00009914,-0.00036684,0.00006825,0.00010695,-0.00000558,0.0000
 0929,0.00012575,0.00002911,0.00000997,-0.00003081,0.00004125,-0.001921
 63,0.00087693,-0.00275229,0.00013146,-0.00006407,-0.00018068,0.0004743
 7,-0.00041912,-0.00041049,0.00016464,0.00299849,0.00414145,0.02622411,
 -0.03572217,-0.04672041,0.00139561,0.00043636,0.00618322,0.00357946,-0
 .00823564,0.00259536,-0.03160214,0.03968295,0.03560409,-0.00028234,0.0
 0032415,-0.00080979,-0.00021840,0.00009612,-0.00027133,0.00019152,0.00
 006756,-0.00004502,0.00005278,-0.00004846,-0.00002905,-0.00001686,-0.0
 0002569,0.00004401,0.00000053,0.00004452,0.00000565,0.00328701,0.00194
 797,0.00265754,-0.00004718,-0.00042987,0.00001192,-0.00087777,-0.00014
 880,-0.00054548,-0.02663014,0.07117178,0.01260464,-0.04806105,-0.02814
 401,0.00928684,-0.32552764,-0.03132362,0.06425065,0.05957660,-0.019945
 15,-0.01377621,-0.00052007,-0.00081339,0.00005001,0.66379304,-0.000372
 85,-0.00018451,-0.00053149,-0.00003089,-0.00000505,0.00011218,0.000184
 49,-0.00000292,-0.00010395,-0.00007412,0.00009740,-0.00000294,-0.00012
 545,0.00013093,0.00006100,0.00003400,-0.00004444,-0.00000845,0.0021201
 7,-0.00416792,-0.00076107,-0.00001754,0.00016315,0.00000531,0.00072098
 ,-0.00009524,-0.00047287,0.03022727,0.03317138,-0.00567023,-0.02846649
 ,-0.01800998,0.00668498,0.02765001,-0.13084877,-0.01014394,0.02070936,
 -0.06092399,-0.00878025,-0.00075710,0.00035227,0.00038720,-0.02420680,
 0.73681098,0.00162789,-0.00025948,-0.00014811,0.00014981,-0.00006756,-
 0.00003938,0.00000532,-0.00021481,0.00054520,-0.00001644,0.00009708,-0
 .00003874,0.00013447,0.00002979,-0.00013101,0.00001826,-0.00004349,-0.
 00004575,0.00123742,-0.00024420,0.00651436,-0.00010277,-0.00025650,-0.
 00001268,-0.00101704,0.00022795,0.00021351,0.00996374,-0.01701194,0.00
 417446,0.00892292,0.00680102,-0.00944763,0.06666136,0.00497162,-0.0829
 8187,-0.01162386,0.00166094,0.01249180,-0.00001046,0.00023257,-0.00042
 117,-0.13326714,0.03307441,0.17622230,-0.00014143,0.00016612,-0.000051
 04,-0.00004149,0.00000871,-0.00005501,-0.00016717,0.00003292,0.0000057
 6,0.00012436,-0.00002420,0.00001048,0.00009102,-0.00006390,-0.00000492
 ,-0.00003667,0.00003570,-0.00000236,0.00093172,0.00138469,-0.00141004,
 -0.00000453,-0.00010274,0.00019572,0.00020275,-0.00017326,-0.00003236,
 0.00869073,0.01546426,-0.00040731,-0.00069872,0.00302023,0.00195960,-0
 .12275691,-0.11660636,0.01712999,-0.00047968,0.00074839,0.00007554,0.0
 0047146,0.00068540,-0.00002849,-0.01131436,-0.03006173,0.00234483,0.12
 950428,0.00030764,-0.00015259,0.00004224,0.00006719,-0.00012788,0.0001
 2893,0.00020831,-0.00020880,0.00007205,-0.00014311,0.00014683,-0.00000
 136,-0.00006600,0.00017290,-0.00002415,0.00005942,-0.00009702,-0.00001
 053,-0.00177709,0.00047397,0.00090951,0.00122236,0.00059815,-0.0006151
 3,-0.00001845,0.00048699,-0.00003494,-0.01682970,-0.02083937,0.0033657
 2,0.00387145,-0.00257395,-0.00133432,-0.11599360,-0.27044273,0.0198719
 0,0.00094106,0.00034859,-0.00019751,-0.00083889,-0.00109958,0.00005362
 ,0.00389835,0.00303562,-0.00102813,0.12490716,0.28726845,-0.00063260,0
 .00026792,0.00027966,-0.00012718,0.00008116,-0.00008441,-0.00003779,0.
 00011895,-0.00023643,0.00004384,-0.00007133,-0.00006372,-0.00002576,-0
 .00004613,0.00005639,-0.00000935,0.00004230,0.00003589,-0.00174934,-0.
 00082626,-0.00348438,0.00038869,0.00037226,0.00013969,0.00047551,-0.00
 019924,0.00003074,-0.00137334,-0.00499763,0.00394126,0.00197616,-0.001
 35271,0.00582688,0.01708207,0.02062399,-0.04165595,0.00015675,-0.00015
 094,-0.00039597,-0.00014071,-0.00024232,0.00039381,0.00375259,0.007570
 59,0.00259754,-0.02144351,-0.02114108,0.03104716,-0.00021111,-0.000338
 16,0.00049823,0.00003411,-0.00005054,0.00006893,0.00017305,0.00019797,
 -0.00025839,-0.00009193,-0.00005759,0.00002005,-0.00016490,-0.00002300
 ,0.00006086,0.00000781,0.00001458,0.00002089,-0.00034478,0.00049476,-0
 .00053985,0.00012753,0.00008435,0.00001203,-0.00008614,-0.00012563,-0.
 00001175,0.00071299,-0.00062173,-0.00190936,-0.02738170,0.03148625,0.0
 1046127,-0.02808432,-0.03168343,0.00795764,-0.17688897,0.11608395,0.03
 320268,-0.00428350,-0.00095390,0.00330766,-0.17786145,-0.12030663,0.02
 237320,-0.00448662,0.00056066,0.00295854,0.72071849,0.00015269,0.00001
 138,0.00050217,0.00011921,-0.00009212,0.00024662,-0.00024485,-0.000146
 69,0.00008507,-0.00003001,0.00004577,0.00003049,0.00006278,0.00003422,
 -0.00004132,-0.00000097,-0.00004854,-0.00000548,-0.00026956,-0.0012566
 5,-0.00073549,0.00016830,0.00030599,-0.00027898,0.00017483,0.00046311,
 0.00047262,-0.00007789,-0.06829853,-0.00336541,0.07142931,0.03345897,-
 0.01724706,-0.07244581,0.03037927,0.01974542,0.05703449,-0.28497429,-0
 .02450211,-0.00170867,0.00151980,0.00013426,-0.06131596,-0.29053324,0.
 00516232,0.00163776,0.00180041,-0.00060575,0.00795073,0.67626248,-0.00
 015544,0.00001176,-0.00008820,-0.00003764,0.00001903,-0.00002442,-0.00
 004637,-0.00002722,-0.00002077,0.00004046,0.00001453,0.00000797,0.0000
 2665,0.00001168,-0.00000115,-0.00000358,-0.00000125,-0.00000089,0.0000
 6443,-0.00012609,-0.00064856,0.00006322,-0.00002730,-0.00000992,0.0001
 9016,0.00010901,-0.00002249,-0.00239789,-0.00269906,-0.00720676,0.0125
 9128,-0.00713675,0.00505197,0.00609429,0.00888023,0.00782618,0.0303843
 4,-0.03955242,-0.07621167,0.00264305,0.00020608,0.00661042,0.02496676,
 0.01986271,-0.07198848,0.00305673,-0.00032287,0.00646376,-0.14556933,0
 .02319879,0.17849977,0.00001337,-0.00019144,0.00016144,0.00001881,-0.0
 0000907,0.00001087,0.00015791,0.00002218,-0.00009170,-0.00009570,0.000
 01966,-0.00002544,-0.00009590,0.00005590,0.00002893,0.00003027,-0.0000
 2713,0.00001090,-0.00016240,-0.00144823,0.00010801,-0.00046509,-0.0000
 3999,0.00007097,-0.00000197,0.00005239,0.00000241,-0.00422030,0.001588
 38,0.00295008,-0.01133094,-0.03004086,0.00233004,-0.00067380,0.0008935
 5,0.00014343,-0.12469424,-0.11828308,0.01617783,0.00083414,0.00049766,
 -0.00122006,-0.00061206,0.00290243,0.00205492,-0.00000609,-0.00012124,
 -0.00033700,0.01068695,0.01699546,-0.00100420,0.12963674,-0.00005072,-
 0.00007799,0.00005786,0.00002337,-0.00001091,0.00002568,0.00011759,0.0
 0003477,-0.00007778,-0.00006510,-0.00000400,0.00000358,-0.00008368,0.0
 0002217,0.00002330,0.00001811,-0.00001054,0.00000693,0.00026479,-0.000
 01300,-0.00006313,-0.00001581,0.00001072,-0.00000513,-0.00006530,0.000
 02079,0.00001632,0.00069493,0.00166427,-0.00044529,0.00376102,0.003126
 62,-0.00099163,0.00085111,0.00048708,-0.00019444,-0.11825670,-0.273520
 28,0.01867245,-0.00035444,0.00092681,0.00039789,0.00386712,-0.00254922
 ,-0.00141716,-0.00011842,-0.00005354,0.00009361,-0.01701838,-0.0195143
 5,0.00320248,0.12674690,0.28949786,0.00000289,0.00003680,0.00000087,0.
 00000083,-0.00002627,-0.00001184,-0.00004475,-0.00002072,0.00003901,0.
 00002207,0.00000826,-0.00000873,0.00003004,-0.00001089,-0.00001962,-0.
 00000609,0.00000318,0.00000252,-0.00004938,0.00034694,0.00017329,0.000
 01445,0.00000774,-0.00011532,0.00002107,-0.00004290,-0.00002476,0.0031
 4766,-0.00062866,0.00675416,0.00384800,0.00785480,0.00293670,0.0001365
 0,-0.00015505,-0.00036597,0.01622699,0.01867208,-0.04186609,-0.0010800
 1,-0.00007455,-0.00389507,0.00211608,-0.00118879,0.00638539,-0.0003444
 4,0.00007769,-0.00121955,-0.00267292,-0.00543651,0.00382042,-0.0200859
 5,-0.01948519,0.03085875,-0.00011872,-0.00005138,0.00018370,0.00002485
 ,0.00000238,-0.00000600,0.00015210,0.00011549,-0.00012178,-0.00007646,
 -0.00008006,-0.00000308,-0.00008708,-0.00003264,0.00003027,0.00000988,
 0.00001952,0.00001752,-0.00020898,0.00127853,0.00029292,0.00001349,-0.
 00003144,-0.00003263,-0.00040608,0.00003824,0.00008686,-0.00417959,-0.
 00191699,0.00265940,-0.00061819,-0.00083799,0.00000429,-0.01105690,0.0
 2989857,0.00488742,-0.00070219,-0.00306695,0.00182195,0.00002543,0.000
 13601,-0.00032336,-0.12347419,0.11574011,0.02671168,0.00072834,-0.0004
 1911,-0.00122670,0.01079385,-0.01694084,-0.00261455,0.00040069,-0.0007
 5858,-0.00006500,0.12815145,0.00003186,0.00000857,-0.00006619,-0.00001
 880,0.00000441,-0.00002399,-0.00009708,-0.00005609,0.00006694,0.000065
 40,0.00003570,-0.00000020,0.00007213,0.00001062,-0.00002041,-0.0000116
 8,-0.00000491,-0.00000699,-0.00023936,-0.00000801,0.00004513,0.0000197
 9,0.00000998,0.00000074,0.00005179,-0.00001877,0.00000784,-0.00092056,
 0.00169943,-0.00003088,-0.00084582,0.00040773,0.00027375,-0.00415278,0
 .00349209,0.00107430,-0.00407477,-0.00265567,0.00058064,0.00012155,-0.
 00003343,0.00000270,0.11569080,-0.26964808,-0.03936301,0.00051633,0.00
 096135,0.00008956,0.01710047,-0.01939708,-0.00529732,0.00075399,-0.001
 08689,-0.00026334,-0.12374054,0.28526401,0.00009585,0.00003518,0.00001
 831,-0.00002452,0.00002265,-0.00000580,-0.00008796,-0.00005877,0.00005
 965,0.00002119,0.00002799,-0.00001651,0.00004933,-0.00000107,-0.000026
 57,-0.00000480,-0.00000782,0.00000099,-0.00008539,-0.00031719,0.000186
 87,-0.00000098,0.00003116,-0.00002516,-0.00001930,-0.00006260,-0.00002
 666,0.00302220,0.00013110,0.00659441,0.00004256,0.00029256,-0.00046738
 ,0.00350997,-0.00739566,0.00194637,0.00173820,0.00032566,0.00671061,-0
 .00027452,-0.00000455,-0.00124115,0.02663740,-0.03924902,-0.04652511,-
 0.00121502,0.00029982,-0.00374446,-0.00110959,0.00314089,0.00382457,0.
 00000999,0.00012607,0.00030624,-0.03110515,0.04258348,0.03619860,-0.00
 001216,-0.00000244,0.00006646,0.00002108,-0.00001421,0.00002697,0.0001
 3698,0.00003393,-0.00007822,-0.00009202,-0.00002795,0.00000317,-0.0000
 9927,0.00001443,0.00002495,0.00002235,-0.00000650,0.00000834,-0.000091
 72,-0.00002591,-0.00022955,0.00001072,-0.00000186,-0.00001879,0.000008
 08,0.00001908,-0.00001249,0.00087406,0.00007868,-0.00039611,0.00122555
 ,0.00272370,0.00165215,0.00126775,-0.00286625,0.00138096,-0.01092581,-
 0.00442998,0.00330952,-0.00058564,-0.00018189,0.00026053,-0.01106678,0
 .00411056,0.00377130,-0.00065775,0.00011326,0.00024781,-0.32340403,-0.
 00294167,0.07146569,0.00064910,0.00048663,-0.00113692,0.00065022,-0.00
 037686,-0.00120120,0.34218147,-0.00001309,-0.00006392,0.00002030,0.000
 01027,-0.00000668,0.00001478,0.00000889,-0.00001580,0.00000082,-0.0000
 0549,0.00002327,-0.00000192,0.00000082,0.00002175,-0.00000177,0.000004
 72,-0.00001123,0.00000027,-0.00001085,0.00014742,0.00005583,0.00008548
 ,0.00003147,-0.00002851,-0.00006475,0.00004270,0.00003232,-0.00001631,
 -0.00119893,-0.00005064,0.00174348,-0.00452172,-0.00096586,-0.00186253
 ,-0.00454963,-0.00008720,0.02963873,0.00393595,-0.00738898,0.00125525,
 0.00008999,-0.00043818,-0.02999257,0.00336257,0.00754185,-0.00137503,0
 .00000092,0.00034212,-0.00286359,-0.06063413,-0.00036038,-0.00051301,0
 .00101561,0.00037528,0.00061916,0.00102331,0.00007501,0.00328204,0.061
 22746,-0.00017186,-0.00010577,0.00007781,-0.00001100,0.00000105,0.0000
 1807,-0.00005477,0.00001767,-0.00007617,0.00001824,-0.00000933,0.00000
 860,0.00000231,0.00000296,0.00001311,-0.00000590,0.00000394,0.00000723
 ,-0.00053132,0.00003966,-0.00106246,0.00003604,0.00007902,0.00001449,0
 .00012434,-0.00014113,-0.00001567,-0.00015881,0.00006958,-0.00054618,0
 .00152361,-0.00126972,0.00676315,0.00140575,0.00017703,0.00701530,0.00
 503701,0.00104338,0.00201575,0.00031962,0.00001807,0.00010464,0.002236
 93,-0.00091897,0.00262584,0.00019790,-0.00003418,0.00023254,0.07137640
 ,-0.00030058,-0.05603372,-0.00120088,0.00011173,-0.00368919,-0.0011617
 5,0.00031319,-0.00377166,-0.07906119,0.00081581,0.04630692,-0.05489571
 ,0.03396885,0.00345720,0.00136660,0.01156146,-0.00329687,-0.00558353,-
 0.03020279,0.00844787,-0.00433158,-0.00602182,0.00144105,-0.00092992,-
 0.00622645,0.00139161,0.00060679,0.00188683,-0.00062239,0.00332874,0.0
 1448542,-0.00294100,-0.00119613,0.00064097,-0.00204873,0.00079018,-0.0
 0093009,0.00087712,-0.00027157,-0.00023715,0.00132748,-0.00147722,-0.0
 0191089,-0.00213694,0.00080137,-0.00023487,-0.00034213,0.00025155,0.00
 098275,-0.00058119,-0.00058504,0.00203991,0.00087519,-0.00054897,0.000
 04030,0.00005180,0.00001493,0.00022079,0.00005359,0.00010988,0.0003745
 3,0.00020999,0.00007817,-0.00002373,-0.00005267,-0.00001720,0.00008721
 ,0.00000405,-0.00013613,0.00011747,0.00013218,0.19262028,-0.01220051,-
 0.22195608,0.01497573,-0.00153270,-0.02698000,0.00697989,-0.01291660,-
 0.03546189,0.00919212,-0.00681890,-0.00029434,0.00154843,0.00240734,0.
 00361080,-0.00144094,0.00141738,-0.00315014,-0.00003628,0.00350620,-0.
 02069497,0.00937506,0.00144674,0.00024315,0.00161386,-0.00146686,0.001
 65147,-0.00131194,-0.00290485,0.00066872,0.00077820,-0.00019923,-0.001
 13283,-0.00113720,0.00103121,-0.00027018,-0.00034290,0.00047217,0.0003
 9021,-0.00042440,0.00061017,0.00035157,0.00123159,-0.00062134,-0.00011
 728,0.00012483,-0.00008293,0.00028022,0.00000276,0.00007516,0.00055305
 ,0.00002988,0.00019808,0.00004959,-0.00005368,0.00004053,-0.00000345,-
 0.00000512,0.00002388,0.00007287,0.00008038,-0.15340297,0.56129682,0.0
 1311971,0.02549021,-0.11242855,-0.00230962,-0.02945188,0.00668095,0.00
 220542,0.01460687,0.00104310,0.00241071,0.00039866,0.00068254,-0.00113
 583,-0.00105617,-0.00015788,-0.00055085,0.00103019,-0.00010898,0.00088
 164,0.03471963,-0.01052604,-0.00467496,0.00272617,-0.00428674,0.001661
 33,0.00073983,0.00351639,0.00164981,-0.00074755,0.00086349,-0.00111236
 ,-0.00120868,-0.00030090,-0.00034526,0.00026713,0.00037020,-0.00023210
 ,0.00064194,0.00015644,0.00018674,0.00083726,-0.00024647,0.00004516,0.
 00005370,0.00001564,0.00001110,-0.00004404,-0.00016871,-0.00026741,-0.
 00013262,0.00017345,-0.00009278,-0.00006504,-0.00007349,-0.00004842,0.
 00004585,-0.00000590,-0.00009854,0.00005852,-0.00000546,-0.05641668,0.
 00240926,0.75550110,-0.00348639,-0.01239078,-0.00067389,0.00074718,-0.
 00056802,-0.00011787,0.00324180,-0.00263000,-0.00263548,-0.00110116,0.
 00200977,0.00021814,0.00066839,0.00232248,0.00012073,0.00044135,-0.001
 70708,0.00033994,-0.00036662,0.00098003,0.00144840,0.00009876,-0.00045
 464,-0.00040447,-0.00005707,0.00031375,-0.00117532,-0.00009350,0.00007
 184,-0.00022505,-0.00030521,0.00114342,0.00011170,-0.00001461,-0.00009
 182,-0.00010873,0.00005236,-0.00046174,-0.00002859,-0.00060641,-0.0002
 8201,-0.00015425,0.00001435,-0.00007044,0.00000941,0.00001440,-0.00008
 665,0.00001457,0.00009802,0.00003902,-0.00002974,-0.00003308,0.0000225
 0,0.00002130,0.00002367,-0.00003510,0.00000360,0.00005416,-0.00004970,
 -0.00001576,-0.10181735,0.13546943,0.14957905,0.10159294,0.01924585,-0
 .02574001,-0.02797942,-0.00064923,-0.00565971,0.00259126,0.00245315,-0
 .00102178,-0.00197731,-0.00065666,0.00195062,0.00033188,0.00041566,0.0
 0245506,0.00025406,0.00014913,-0.00144722,0.00015800,-0.00044702,0.000
 23375,-0.00076763,-0.00009316,0.00019978,0.00024159,0.00034144,0.00032
 807,0.00102766,0.00004980,0.00015527,-0.00005858,-0.00007689,0.0000981
 3,0.00005980,-0.00011106,-0.00009047,0.00002818,0.00002452,-0.00004769
 ,-0.00000791,0.00000892,0.00009370,-0.00001063,-0.00004672,0.00001010,
 0.00001161,0.00000665,-0.00000552,-0.00001866,-0.00000984,0.00002428,-
 0.00000162,-0.00003731,-0.00000831,0.00001328,-0.00001866,0.00000101,0
 .00000514,-0.00000465,-0.00000421,0.00000229,0.10120160,-0.17448543,-0
 .13270695,-0.11743238,0.19514710,-0.00315025,0.00782095,0.00693254,-0.
 00011921,0.00213568,0.00102221,0.00043874,0.00018340,0.00053492,-0.000
 03088,0.00088694,0.00005226,0.00050322,0.00086134,-0.00091677,-0.00001
 209,-0.00035725,0.00000854,0.00019798,0.00030330,0.00247078,0.00016637
 ,-0.00027974,-0.00022630,0.00021553,-0.00053221,-0.00080717,-0.0001119
 3,-0.00003812,-0.00023663,0.00009026,0.00016237,0.00005849,-0.00001160
 ,0.00003334,-0.00008613,-0.00005841,-0.00005652,0.00002758,-0.00008988
 ,-0.00007356,0.00006686,0.00006549,0.00000663,0.00000385,0.00000681,-0
 .00002456,0.00000947,0.00001332,-0.00005880,-0.00001008,0.00000291,0.0
 0000459,0.00000592,0.00001504,-0.00000845,0.00000873,0.00001123,-0.000
 00932,-0.00000725,0.11192344,-0.13594470,-0.23770822,-0.13292159,0.148
 69927,0.25029676,-0.00572433,-0.00896029,0.00336114,0.00030835,0.00077
 365,-0.00019128,0.00141214,-0.00337830,0.00239808,-0.00104526,0.000821
 47,-0.00034995,0.00007511,0.00141514,-0.00116125,0.00015104,-0.0009834
 5,-0.00000186,0.00030730,0.00387250,-0.00190125,-0.00070190,0.00063765
 ,-0.00084625,0.00014938,-0.00006266,0.00059757,0.00130682,-0.00001836,
 -0.00040162,-0.00014191,-0.00018863,0.00028738,-0.00034040,0.00012814,
 0.00023419,-0.00021033,0.00009973,0.00027723,0.00006037,0.00010550,-0.
 00046047,0.00014342,0.00005033,-0.00000061,0.00001743,-0.00008381,-0.0
 0004682,-0.00017323,-0.00016287,0.00006168,-0.00011458,-0.00004322,-0.
 00004976,-0.00002840,0.00000201,-0.00000589,-0.00003023,0.00000060,-0.
 00003708,-0.02817813,0.04544860,-0.10446584,0.00083402,-0.00431317,0.0
 2285549,0.03192331,0.00943420,-0.01213203,0.03790991,0.00037199,0.0010
 7227,-0.00020230,0.00169218,-0.00179864,0.00103135,-0.00063619,0.00041
 536,-0.00042606,-0.00012343,0.00092538,-0.00019789,0.00006500,-0.00058
 228,0.00010542,-0.00193321,-0.00560831,-0.00035575,0.00105465,-0.00015
 880,0.00119433,-0.00023144,0.00022542,0.00000533,-0.00018571,0.0001398
 0,-0.00007424,-0.00004731,-0.00016305,-0.00003510,0.00008246,-0.000065
 04,-0.00007123,0.00006695,0.00009450,0.00002017,0.00014244,0.00012082,
 -0.00003478,-0.00004599,-0.00000376,-0.00002975,-0.00000575,0.00002658
 ,0.00004684,0.00000352,0.00003690,0.00000610,-0.00001522,-0.00000727,-
 0.00000951,0.00000665,-0.00000581,0.00000510,-0.00000605,0.00001098,0.
 00000393,0.03158268,-0.08462190,0.08138771,-0.00611188,0.00781350,-0.0
 2371457,-0.03516057,0.09426536,-0.00498469,-0.00556657,-0.00133400,0.0
 0010079,-0.00021558,0.00119196,-0.00006641,-0.00004072,-0.00020731,-0.
 00012955,-0.00070917,0.00002746,-0.00006068,-0.00063192,0.00041177,-0.
 00003532,0.00025163,-0.00001836,0.00081095,0.00107734,0.00082242,-0.00
 033383,-0.00004702,0.00004661,0.00009864,-0.00004010,0.00056180,0.0000
 2101,0.00005436,0.00003935,0.00000843,-0.00006479,0.00002323,-0.000061
 82,-0.00000105,0.00003398,-0.00002157,0.00001180,-0.00000386,-0.000078
 89,0.00003206,-0.00011288,0.00001233,0.00001325,-0.00000996,0.00000003
 ,-0.00000866,-0.00000120,0.00000692,-0.00000854,-0.00001138,-0.0000047
 1,0.00000231,0.00000636,-0.00000265,-0.00000332,0.00000100,0.00000391,
 -0.00000014,0.00000430,-0.06175396,0.09235516,-0.40298595,-0.01337612,
 0.01010469,-0.02150035,0.07984719,-0.09656504,0.42301500\\0.00000099,-
 0.00000090,0.00000294,0.00000330,0.00000053,-0.00000068,-0.00000528,0.
 00000754,-0.00001689,-0.00000046,-0.00000431,0.00000477,-0.00000469,-0
 .00000861,0.00000344,0.00000503,0.00000299,-0.00000103,0.00000208,-0.0
 0000282,0.00000098,0.00000063,0.00000066,0.00000026,-0.00000141,0.0000
 0061,-0.00000080,0.00000034,0.00000045,0.00000200,-0.00000098,0.000000
 45,0.00000131,-0.00000035,0.00000080,-0.00000088,-0.00000083,0.0000019
 4,0.00000081,-0.00000123,0.00000084,-0.00000110,0.00000094,0.00000128,
 0.00000103,0.00000095,0.00000062,0.00000137,0.00000006,0.00000122,0.00
 000133,-0.00000080,0.00000143,0.00000090,0.00000120,0.00000138,0.00000
 197,0.00000032,0.00000193,0.00000192,0.00000596,-0.00000353,-0.0000011
 8,-0.00000266,-0.00000341,-0.00000343,-0.00000311,-0.00000106,0.000000
 94\\\@


 THE MEEK SHALL INHERIT THE EARTH.
 (THE REST OF US WILL ESCAPE TO THE STARS)
 Job cpu time:       0 days  0 hours  6 minutes  7.4 seconds.
 File lengths (MBytes):  RWF=     62 Int=      0 D2E=      0 Chk=     10 Scr=      1
 Normal termination of Gaussian 09 at Wed Mar 30 10:04:33 2016.
