 Entering Gaussian System, Link 0=g09
 Input=/root/gau/amiano/Phe/ts-rs/r/Phe-R-opt-freq-ts--6-311++gdp.com
 Output=/root/gau/amiano/Phe/ts-rs/r/Phe-R-opt-freq-ts--6-311++gdp.log
 Initial command:
 /usr/local/gau/g09/l1.exe "/tmp/Gau-3612.inp" -scrdir="/tmp/"
 Entering Link 1 = /usr/local/gau/g09/l1.exe PID=      3615.
  
 Copyright (c) 1988,1990,1992,1993,1995,1998,2003,2009,2013,
            Gaussian, Inc.  All Rights Reserved.
  
 This is part of the Gaussian(R) 09 program.  It is based on
 the Gaussian(R) 03 system (copyright 2003, Gaussian, Inc.),
 the Gaussian(R) 98 system (copyright 1998, Gaussian, Inc.),
 the Gaussian(R) 94 system (copyright 1995, Gaussian, Inc.),
 the Gaussian 92(TM) system (copyright 1992, Gaussian, Inc.),
 the Gaussian 90(TM) system (copyright 1990, Gaussian, Inc.),
 the Gaussian 88(TM) system (copyright 1988, Gaussian, Inc.),
 the Gaussian 86(TM) system (copyright 1986, Carnegie Mellon
 University), and the Gaussian 82(TM) system (copyright 1983,
 Carnegie Mellon University). Gaussian is a federally registered
 trademark of Gaussian, Inc.
  
 This software contains proprietary and confidential information,
 including trade secrets, belonging to Gaussian, Inc.
  
 This software is provided under written license and may be
 used, copied, transmitted, or stored only in accord with that
 written license.
  
 The following legend is applicable only to US Government
 contracts under FAR:
  
                    RESTRICTED RIGHTS LEGEND
  
 Use, reproduction and disclosure by the US Government is
 subject to restrictions as set forth in subparagraphs (a)
 and (c) of the Commercial Computer Software - Restricted
 Rights clause in FAR 52.227-19.
  
 Gaussian, Inc.
 340 Quinnipiac St., Bldg. 40, Wallingford CT 06492
  
  
 ---------------------------------------------------------------
 Warning -- This program may not be used in any manner that
 competes with the business of Gaussian, Inc. or will provide
 assistance to any competitor of Gaussian, Inc.  The licensee
 of this program is prohibited from giving any competitor of
 Gaussian, Inc. access to this program.  By using this program,
 the user acknowledges that Gaussian, Inc. is engaged in the
 business of creating and licensing software in the field of
 computational chemistry and represents and warrants to the
 licensee that it is not a competitor of Gaussian, Inc. and that
 it will not use this program in any manner prohibited above.
 ---------------------------------------------------------------
  

 Cite this work as:
 Gaussian 09, Revision D.01,
 M. J. Frisch, G. W. Trucks, H. B. Schlegel, G. E. Scuseria, 
 M. A. Robb, J. R. Cheeseman, G. Scalmani, V. Barone, B. Mennucci, 
 G. A. Petersson, H. Nakatsuji, M. Caricato, X. Li, H. P. Hratchian, 
 A. F. Izmaylov, J. Bloino, G. Zheng, J. L. Sonnenberg, M. Hada, 
 M. Ehara, K. Toyota, R. Fukuda, J. Hasegawa, M. Ishida, T. Nakajima, 
 Y. Honda, O. Kitao, H. Nakai, T. Vreven, J. A. Montgomery, Jr., 
 J. E. Peralta, F. Ogliaro, M. Bearpark, J. J. Heyd, E. Brothers, 
 K. N. Kudin, V. N. Staroverov, T. Keith, R. Kobayashi, J. Normand, 
 K. Raghavachari, A. Rendell, J. C. Burant, S. S. Iyengar, J. Tomasi, 
 M. Cossi, N. Rega, J. M. Millam, M. Klene, J. E. Knox, J. B. Cross, 
 V. Bakken, C. Adamo, J. Jaramillo, R. Gomperts, R. E. Stratmann, 
 O. Yazyev, A. J. Austin, R. Cammi, C. Pomelli, J. W. Ochterski, 
 R. L. Martin, K. Morokuma, V. G. Zakrzewski, G. A. Voth, 
 P. Salvador, J. J. Dannenberg, S. Dapprich, A. D. Daniels, 
 O. Farkas, J. B. Foresman, J. V. Ortiz, J. Cioslowski, 
 and D. J. Fox, Gaussian, Inc., Wallingford CT, 2013.
 
 ******************************************
 Gaussian 09:  ES64L-G09RevD.01 24-Apr-2013
                30-Mar-2016 
 ******************************************
 %chk=Phe-R-opt-freq-6-311gdp.chk
 ---------------------------------------------------
 # freq rb3lyp/6-311++g(d,p) scrf=check guess=tcheck
 ---------------------------------------------------
 1/10=4,30=1,38=1,40=1/1,3;
 2/12=2,17=6,18=5,40=1/2;
 3/5=4,6=6,7=1111,11=2,16=1,25=1,30=1,70=2,71=2,74=-5,116=1,140=1/1,2,3;
 4/5=101/1;
 5/5=2,98=1/2;
 8/6=4,10=90,11=11/1;
 11/6=1,8=1,9=11,15=111,16=1/1,2,10;
 10/6=1/2;
 6/7=2,8=2,9=2,10=2,18=1,28=1/1;
 7/8=1,10=1,25=1/1,2,3,16;
 1/10=4,30=1/3;
 99//99;
 -----------------------------
 Phe-R-opt-freq-ts--6-311++gdp
 -----------------------------
 Symbolic Z-matrix:
 Charge =  0 Multiplicity = 1
 C                    -1.36345   0.27651   0.36435 
 H                    -1.01139  -0.14913   1.31172 
 C                    -2.75002  -0.26824   0.13863 
 O                    -3.08155  -1.53348   0.11627 
 O                    -3.82136   0.44238  -0.10151 
 H                    -4.22573  -0.84641  -0.13458 
 C                    -0.41848  -0.26379  -0.76206 
 H                    -0.68519  -1.30657  -0.96362 
 H                    -0.63348   0.31007  -1.67318 
 C                     1.04904  -0.17062  -0.40012 
 C                     1.73616   1.0559   -0.42929 
 C                     1.75027  -1.32697  -0.01629 
 C                     3.08947   1.12098  -0.08178 
 H                     1.19995   1.95608  -0.70601 
 C                     3.10435  -1.26324   0.33122 
 H                     1.23296  -2.28273   0.00425 
 C                     3.77814  -0.03741   0.29895 
 H                     3.60665   2.07524  -0.10965 
 H                     3.63041  -2.16756   0.62135 
 H                     4.82939   0.0148    0.56472 
 N                    -1.31776   1.72434   0.46115 
 H                    -1.7939    2.21009  -0.29094 
 H                    -1.5548    2.10583   1.36815 
 

 GradGradGradGradGradGradGradGradGradGradGradGradGradGradGradGradGradGrad
 Berny optimization.
 Initialization pass.
 Trust Radius=3.00D-01 FncErr=1.00D-07 GrdErr=1.00D-07
 Number of steps in this run=      2 maximum allowed number of steps=      2.
 GradGradGradGradGradGradGradGradGradGradGradGradGradGradGradGradGradGrad

                          Input orientation:                          
 ---------------------------------------------------------------------
 Center     Atomic      Atomic             Coordinates (Angstroms)
 Number     Number       Type             X           Y           Z
 ---------------------------------------------------------------------
      1          6           0       -1.363448    0.276507    0.364351
      2          1           0       -1.011392   -0.149127    1.311723
      3          6           0       -2.750021   -0.268242    0.138632
      4          8           0       -3.081555   -1.533483    0.116265
      5          8           0       -3.821362    0.442384   -0.101509
      6          1           0       -4.225731   -0.846409   -0.134575
      7          6           0       -0.418479   -0.263787   -0.762062
      8          1           0       -0.685190   -1.306568   -0.963623
      9          1           0       -0.633482    0.310071   -1.673181
     10          6           0        1.049040   -0.170619   -0.400117
     11          6           0        1.736159    1.055904   -0.429287
     12          6           0        1.750265   -1.326971   -0.016292
     13          6           0        3.089468    1.120979   -0.081776
     14          1           0        1.199948    1.956079   -0.706013
     15          6           0        3.104346   -1.263241    0.331223
     16          1           0        1.232962   -2.282725    0.004253
     17          6           0        3.778135   -0.037410    0.298946
     18          1           0        3.606645    2.075242   -0.109654
     19          1           0        3.630414   -2.167556    0.621350
     20          1           0        4.829387    0.014804    0.564720
     21          7           0       -1.317761    1.724335    0.461147
     22          1           0       -1.793895    2.210089   -0.290943
     23          1           0       -1.554795    2.105834    1.368154
 ---------------------------------------------------------------------
                    Distance matrix (angstroms):
                    1          2          3          4          5
     1  C    0.000000
     2  H    1.096641   0.000000
     3  C    1.506747   2.100753   0.000000
     4  O    2.507888   2.762451   1.308147   0.000000
     5  O    2.507166   3.200475   1.307834   2.121035   0.000000
     6  H    3.114889   3.593043   1.608303   1.357988   1.351146
     7  C    1.566426   2.159925   2.499471   3.078240   3.537601
     8  H    2.174782   2.573573   2.560589   2.638222   3.692919
     9  H    2.164605   3.043572   2.845496   3.548784   3.556717
    10  C    2.569909   2.678850   3.838313   4.380167   4.917901
    11  C    3.293157   3.468754   4.711869   5.496628   5.600883
    12  C    3.522959   3.282939   4.625741   4.838047   5.846444
    13  C    4.554187   4.513542   6.006509   6.720633   6.944095
    14  H    3.246173   3.659669   4.611213   5.584304   5.279228
    15  C    4.725791   4.375149   5.941442   6.195531   7.145757
    16  H    3.663425   3.361375   4.465462   4.380521   5.743135
    17  C    5.151572   4.896710   6.534203   7.023315   7.625151
    18  H    5.306784   5.319248   6.779437   7.603023   7.605365
    19  H    5.565802   5.108526   6.674606   6.760746   7.928637
    20  H    6.201600   5.890635   7.596650   8.073494   8.686895
    21  N    1.451779   2.080193   2.475025   3.720657   2.868449
    22  H    2.086488   2.957490   2.690880   3.979726   2.696533
    23  H    2.095393   2.320198   2.928571   4.140393   3.172428
                    6          7          8          9         10
     6  H    0.000000
     7  C    3.902353   0.000000
     8  H    3.665310   1.095059   0.000000
     9  H    4.075415   1.098033   1.766258   0.000000
    10  C    5.324511   1.514363   2.148365   2.163940   0.000000
    11  C    6.264965   2.548487   3.424868   2.778262   1.406180
    12  C    5.996454   2.527842   2.613292   3.332782   1.405770
    13  C    7.575324   3.832239   4.573695   4.129225   2.435757
    14  H    6.133390   2.747772   3.776900   2.646927   2.153878
    15  C    7.356680   3.821580   4.004883   4.523749   2.439870
    16  H    5.646203   2.718567   2.359867   3.608322   2.158317
    17  C    8.056320   4.334577   4.808962   4.844832   2.820353
    18  H    8.359592   4.700885   5.530438   4.851713   3.416080
    19  H    8.002241   4.683129   4.677379   5.439147   3.419743
    20  H    9.122821   5.420153   5.873024   5.910865   3.905933
    21  N    3.926818   2.501515   3.408297   2.650233   3.151884
    22  H    3.909023   2.869457   3.748146   2.620536   3.709713
    23  H    4.255330   3.382919   4.223492   3.650110   3.884453
                   11         12         13         14         15
    11  C    0.000000
    12  C    2.418441   0.000000
    13  C    1.398729   2.791095   0.000000
    14  H    1.083704   3.399556   2.158089   0.000000
    15  C    2.797989   1.399415   2.419772   3.881573   0.000000
    16  H    3.404058   1.086964   3.878043   4.298026   2.156000
    17  C    2.428029   2.423757   1.400384   3.410424   1.399177
    18  H    2.154050   3.876844   1.085756   2.482345   3.404724
    19  H    3.883650   2.155952   3.406093   4.967235   1.085683
    20  H    3.411744   3.408655   2.160763   4.307684   2.159557
    21  N    3.250554   4.353298   4.481347   2.784749   5.338307
    22  H    3.716526   5.014708   5.007709   3.033134   6.036876
    23  H    3.894037   4.962284   4.964012   3.451551   5.842387
                   16         17         18         19         20
    16  H    0.000000
    17  C    3.406786   0.000000
    18  H    4.963791   2.158625   0.000000
    19  H    2.478275   2.159465   4.305376   0.000000
    20  H    4.304304   1.085584   2.489033   2.490670   0.000000
    21  N    4.771946   5.394276   4.969781   6.297374   6.381274
    22  H    5.425346   6.037113   5.405264   7.029878   7.029886
    23  H    5.375060   5.846096   5.368921   6.760619   6.765774
                   21         22         23
    21  N    0.000000
    22  H    1.014051   0.000000
    23  H    1.012121   1.679476   0.000000
 Stoichiometry    C9H11NO2
 Framework group  C1[X(C9H11NO2)]
 Deg. of freedom    63
 Full point group                 C1      NOp   1
 Largest Abelian subgroup         C1      NOp   1
 Largest concise Abelian subgroup C1      NOp   1
                         Standard orientation:                         
 ---------------------------------------------------------------------
 Center     Atomic      Atomic             Coordinates (Angstroms)
 Number     Number       Type             X           Y           Z
 ---------------------------------------------------------------------
      1          6           0        1.363448    0.276507   -0.364351
      2          1           0        1.011392   -0.149127   -1.311723
      3          6           0        2.750021   -0.268242   -0.138632
      4          8           0        3.081555   -1.533483   -0.116265
      5          8           0        3.821362    0.442384    0.101509
      6          1           0        4.225731   -0.846409    0.134575
      7          6           0        0.418479   -0.263787    0.762062
      8          1           0        0.685190   -1.306568    0.963623
      9          1           0        0.633482    0.310071    1.673181
     10          6           0       -1.049040   -0.170619    0.400117
     11          6           0       -1.736159    1.055904    0.429287
     12          6           0       -1.750265   -1.326971    0.016292
     13          6           0       -3.089468    1.120979    0.081776
     14          1           0       -1.199948    1.956079    0.706013
     15          6           0       -3.104346   -1.263241   -0.331223
     16          1           0       -1.232962   -2.282725   -0.004253
     17          6           0       -3.778135   -0.037410   -0.298946
     18          1           0       -3.606645    2.075242    0.109654
     19          1           0       -3.630414   -2.167556   -0.621350
     20          1           0       -4.829387    0.014804   -0.564720
     21          7           0        1.317761    1.724335   -0.461147
     22          1           0        1.793895    2.210089    0.290943
     23          1           0        1.554795    2.105834   -1.368154
 ---------------------------------------------------------------------
 Rotational constants (GHZ):      2.3877498      0.4518914      0.3963411
 Standard basis: 6-311++G(d,p) (5D, 7F)
 There are   353 symmetry adapted cartesian basis functions of A   symmetry.
 There are   341 symmetry adapted basis functions of A   symmetry.
   341 basis functions,   531 primitive gaussians,   353 cartesian basis functions
    44 alpha electrons       44 beta electrons
       nuclear repulsion energy       661.0586659485 Hartrees.
 NAtoms=   23 NActive=   23 NUniq=   23 SFac= 1.00D+00 NAtFMM=   60 NAOKFM=F Big=F
 Integral buffers will be    131072 words long.
 Raffenetti 2 integral format.
 Two-electron integral symmetry is turned on.
 One-electron integrals computed using PRISM.
 NBasis=   341 RedAO= T EigKep=  2.68D-06  NBF=   341
 NBsUse=   340 1.00D-06 EigRej=  7.06D-07 NBFU=   340
 Initial guess from the checkpoint file:  "Phe-R-opt-freq-6-311gdp.chk"
 B after Tr=     0.000000    0.000000    0.000000
         Rot=    0.000000    0.000000    1.000000    0.000000 Ang= 180.00 deg.
 Requested convergence on RMS density matrix=1.00D-08 within 128 cycles.
 Requested convergence on MAX density matrix=1.00D-06.
 Requested convergence on             energy=1.00D-06.
 No special actions if energy rises.
 SCF Done:  E(RB3LYP) =  -554.896581562     A.U. after   14 cycles
            NFock= 14  Conv=0.33D-08     -V/T= 2.0048
 DoSCS=F DFT=T ScalE2(SS,OS)=  1.000000  1.000000
 Range of M.O.s used for correlation:     1   340
 NBasis=   341 NAE=    44 NBE=    44 NFC=     0 NFV=     0
 NROrb=    340 NOA=    44 NOB=    44 NVA=   296 NVB=   296

 **** Warning!!: The largest alpha MO coefficient is  0.16588779D+03

 Symmetrizing basis deriv contribution to polar:
 IMax=3 JMax=2 DiffMx= 0.00D+00
 G2DrvN: will do    24 centers at a time, making    1 passes.
 Calling FoFCou, ICntrl=  3107 FMM=F I1Cent=   0 AccDes= 0.00D+00.
 End of G2Drv F.D. properties file   721 does not exist.
 End of G2Drv F.D. properties file   722 does not exist.
 End of G2Drv F.D. properties file   788 does not exist.
          IDoAtm=11111111111111111111111
          Differentiating once with respect to electric field.
                with respect to dipole field.
          Differentiating once with respect to nuclear coordinates.
          There are    72 degrees of freedom in the 1st order CPHF.  IDoFFX=6 NUNeed=     3.
     70 vectors produced by pass  0 Test12= 1.81D-14 1.39D-09 XBig12= 1.50D+02 5.37D+00.
 AX will form    70 AO Fock derivatives at one time.
     69 vectors produced by pass  1 Test12= 1.81D-14 1.39D-09 XBig12= 4.39D+01 1.26D+00.
     69 vectors produced by pass  2 Test12= 1.81D-14 1.39D-09 XBig12= 3.69D-01 7.72D-02.
     69 vectors produced by pass  3 Test12= 1.81D-14 1.39D-09 XBig12= 1.48D-03 4.14D-03.
     69 vectors produced by pass  4 Test12= 1.81D-14 1.39D-09 XBig12= 3.23D-06 1.96D-04.
     63 vectors produced by pass  5 Test12= 1.81D-14 1.39D-09 XBig12= 4.51D-09 5.25D-06.
     16 vectors produced by pass  6 Test12= 1.81D-14 1.39D-09 XBig12= 6.31D-12 2.25D-07.
     14 vectors produced by pass  7 Test12= 1.81D-14 1.39D-09 XBig12= 5.85D-13 1.13D-07.
     10 vectors produced by pass  8 Test12= 1.81D-14 1.39D-09 XBig12= 1.07D-14 1.31D-08.
      4 vectors produced by pass  9 Test12= 1.81D-14 1.39D-09 XBig12= 6.03D-16 4.94D-09.
      4 vectors produced by pass 10 Test12= 1.81D-14 1.39D-09 XBig12= 3.89D-15 7.32D-09.
      4 vectors produced by pass 11 Test12= 1.81D-14 1.39D-09 XBig12= 5.41D-15 1.35D-08.
      4 vectors produced by pass 12 Test12= 1.81D-14 1.39D-09 XBig12= 7.49D-15 1.02D-08.
      4 vectors produced by pass 13 Test12= 1.81D-14 1.39D-09 XBig12= 4.99D-15 1.24D-08.
      4 vectors produced by pass 14 Test12= 1.81D-14 1.39D-09 XBig12= 8.87D-15 9.26D-09.
      3 vectors produced by pass 15 Test12= 1.81D-14 1.39D-09 XBig12= 3.50D-15 5.31D-09.
      3 vectors produced by pass 16 Test12= 1.81D-14 1.39D-09 XBig12= 7.15D-15 8.83D-09.
      3 vectors produced by pass 17 Test12= 1.81D-14 1.39D-09 XBig12= 1.97D-15 5.08D-09.
      3 vectors produced by pass 18 Test12= 1.81D-14 1.39D-09 XBig12= 1.10D-15 3.57D-09.
      3 vectors produced by pass 19 Test12= 1.81D-14 1.39D-09 XBig12= 2.74D-15 5.21D-09.
      3 vectors produced by pass 20 Test12= 1.81D-14 1.39D-09 XBig12= 1.17D-15 3.60D-09.
      3 vectors produced by pass 21 Test12= 1.81D-14 1.39D-09 XBig12= 3.89D-15 7.53D-09.
      3 vectors produced by pass 22 Test12= 1.81D-14 1.39D-09 XBig12= 2.98D-15 8.13D-09.
      3 vectors produced by pass 23 Test12= 1.81D-14 1.39D-09 XBig12= 2.89D-15 5.50D-09.
      2 vectors produced by pass 24 Test12= 1.81D-14 1.39D-09 XBig12= 8.27D-16 2.82D-09.
 InvSVY:  IOpt=1 It=  1 EMax= 1.07D-14
 Solved reduced A of dimension   502 with    72 vectors.
 Isotropic polarizability for W=    0.000000      122.00 Bohr**3.
 End of Minotr F.D. properties file   721 does not exist.
 End of Minotr F.D. properties file   722 does not exist.
 End of Minotr F.D. properties file   788 does not exist.

 **********************************************************************

            Population analysis using the SCF density.

 **********************************************************************

 Orbital symmetries:
       Occupied  (A) (A) (A) (A) (A) (A) (A) (A) (A) (A) (A) (A)
                 (A) (A) (A) (A) (A) (A) (A) (A) (A) (A) (A) (A)
                 (A) (A) (A) (A) (A) (A) (A) (A) (A) (A) (A) (A)
                 (A) (A) (A) (A) (A) (A) (A) (A)
       Virtual   (A) (A) (A) (A) (A) (A) (A) (A) (A) (A) (A) (A)
                 (A) (A) (A) (A) (A) (A) (A) (A) (A) (A) (A) (A)
                 (A) (A) (A) (A) (A) (A) (A) (A) (A) (A) (A) (A)
                 (A) (A) (A) (A) (A) (A) (A) (A) (A) (A) (A) (A)
                 (A) (A) (A) (A) (A) (A) (A) (A) (A) (A) (A) (A)
                 (A) (A) (A) (A) (A) (A) (A) (A) (A) (A) (A) (A)
                 (A) (A) (A) (A) (A) (A) (A) (A) (A) (A) (A) (A)
                 (A) (A) (A) (A) (A) (A) (A) (A) (A) (A) (A) (A)
                 (A) (A) (A) (A) (A) (A) (A) (A) (A) (A) (A) (A)
                 (A) (A) (A) (A) (A) (A) (A) (A) (A) (A) (A) (A)
                 (A) (A) (A) (A) (A) (A) (A) (A) (A) (A) (A) (A)
                 (A) (A) (A) (A) (A) (A) (A) (A) (A) (A) (A) (A)
                 (A) (A) (A) (A) (A) (A) (A) (A) (A) (A) (A) (A)
                 (A) (A) (A) (A) (A) (A) (A) (A) (A) (A) (A) (A)
                 (A) (A) (A) (A) (A) (A) (A) (A) (A) (A) (A) (A)
                 (A) (A) (A) (A) (A) (A) (A) (A) (A) (A) (A) (A)
                 (A) (A) (A) (A) (A) (A) (A) (A) (A) (A) (A) (A)
                 (A) (A) (A) (A) (A) (A) (A) (A) (A) (A) (A) (A)
                 (A) (A) (A) (A) (A) (A) (A) (A) (A) (A) (A) (A)
                 (A) (A) (A) (A) (A) (A) (A) (A) (A) (A) (A) (A)
                 (A) (A) (A) (A) (A) (A) (A) (A) (A) (A) (A) (A)
                 (A) (A) (A) (A) (A) (A) (A) (A) (A) (A) (A) (A)
                 (A) (A) (A) (A) (A) (A) (A) (A) (A) (A) (A) (A)
                 (A) (A) (A) (A) (A) (A) (A) (A) (A) (A) (A) (A)
                 (A) (A) (A) (A) (A) (A) (A) (A)
 The electronic state is 1-A.
 Alpha  occ. eigenvalues --  -19.15626 -19.15275 -14.31510 -10.32831 -10.24949
 Alpha  occ. eigenvalues --  -10.19704 -10.19190 -10.18163 -10.18113 -10.18072
 Alpha  occ. eigenvalues --  -10.18019 -10.17794  -1.12359  -0.98679  -0.91688
 Alpha  occ. eigenvalues --   -0.86242  -0.79373  -0.75104  -0.74325  -0.67451
 Alpha  occ. eigenvalues --   -0.61286  -0.59228  -0.57736  -0.53322  -0.52002
 Alpha  occ. eigenvalues --   -0.51548  -0.48538  -0.46795  -0.46752  -0.45578
 Alpha  occ. eigenvalues --   -0.44525  -0.43302  -0.42708  -0.40757  -0.39476
 Alpha  occ. eigenvalues --   -0.38606  -0.36327  -0.35143  -0.34820  -0.31824
 Alpha  occ. eigenvalues --   -0.30740  -0.26698  -0.25703  -0.25363
 Alpha virt. eigenvalues --   -0.04248  -0.02375  -0.02026  -0.01380  -0.00344
 Alpha virt. eigenvalues --    0.00131   0.00756   0.01384   0.02308   0.03100
 Alpha virt. eigenvalues --    0.03927   0.04555   0.05623   0.05992   0.06233
 Alpha virt. eigenvalues --    0.07022   0.07260   0.08281   0.08556   0.09096
 Alpha virt. eigenvalues --    0.09599   0.10198   0.10525   0.11123   0.11507
 Alpha virt. eigenvalues --    0.11733   0.11823   0.12044   0.12554   0.12993
 Alpha virt. eigenvalues --    0.13215   0.13652   0.14269   0.14445   0.15305
 Alpha virt. eigenvalues --    0.15996   0.16090   0.16383   0.16897   0.17157
 Alpha virt. eigenvalues --    0.17442   0.18817   0.19062   0.19196   0.19521
 Alpha virt. eigenvalues --    0.19980   0.20571   0.21341   0.21845   0.22085
 Alpha virt. eigenvalues --    0.22339   0.23283   0.24231   0.24971   0.25029
 Alpha virt. eigenvalues --    0.25807   0.26259   0.26555   0.26714   0.27309
 Alpha virt. eigenvalues --    0.27634   0.27789   0.28215   0.29045   0.29500
 Alpha virt. eigenvalues --    0.30097   0.30647   0.31038   0.31177   0.32032
 Alpha virt. eigenvalues --    0.32712   0.33045   0.33954   0.35224   0.36040
 Alpha virt. eigenvalues --    0.36743   0.37131   0.38169   0.39721   0.39954
 Alpha virt. eigenvalues --    0.40599   0.42411   0.44569   0.48561   0.49056
 Alpha virt. eigenvalues --    0.51844   0.52650   0.53209   0.54320   0.55445
 Alpha virt. eigenvalues --    0.55642   0.56342   0.56669   0.57135   0.57544
 Alpha virt. eigenvalues --    0.58438   0.59181   0.60693   0.61547   0.62049
 Alpha virt. eigenvalues --    0.63566   0.64520   0.67294   0.67939   0.68365
 Alpha virt. eigenvalues --    0.69607   0.70273   0.71339   0.71722   0.72629
 Alpha virt. eigenvalues --    0.73122   0.74147   0.74831   0.76117   0.77413
 Alpha virt. eigenvalues --    0.77647   0.79749   0.82501   0.83159   0.84835
 Alpha virt. eigenvalues --    0.85792   0.86455   0.88235   0.89218   0.89650
 Alpha virt. eigenvalues --    0.91112   0.91865   0.92406   0.94942   0.96732
 Alpha virt. eigenvalues --    1.00844   1.01527   1.03071   1.04403   1.05602
 Alpha virt. eigenvalues --    1.07748   1.08169   1.09234   1.11411   1.12551
 Alpha virt. eigenvalues --    1.13203   1.14450   1.15642   1.17503   1.18548
 Alpha virt. eigenvalues --    1.22026   1.23444   1.26346   1.28623   1.30990
 Alpha virt. eigenvalues --    1.34200   1.34756   1.37907   1.39876   1.45718
 Alpha virt. eigenvalues --    1.46879   1.48899   1.49815   1.50493   1.51708
 Alpha virt. eigenvalues --    1.53773   1.55075   1.55245   1.55979   1.56929
 Alpha virt. eigenvalues --    1.58494   1.61184   1.61776   1.62561   1.64717
 Alpha virt. eigenvalues --    1.65171   1.66983   1.67676   1.70206   1.71508
 Alpha virt. eigenvalues --    1.72422   1.74133   1.74951   1.76259   1.77801
 Alpha virt. eigenvalues --    1.78952   1.81928   1.82591   1.84223   1.88695
 Alpha virt. eigenvalues --    1.89171   1.91359   1.92157   1.92300   1.94329
 Alpha virt. eigenvalues --    1.94606   1.95710   1.97378   1.99172   2.01209
 Alpha virt. eigenvalues --    2.02169   2.07798   2.09643   2.10549   2.12542
 Alpha virt. eigenvalues --    2.16834   2.20386   2.22861   2.24213   2.28004
 Alpha virt. eigenvalues --    2.30529   2.33338   2.38312   2.39060   2.42551
 Alpha virt. eigenvalues --    2.45416   2.46339   2.47094   2.50299   2.56451
 Alpha virt. eigenvalues --    2.57252   2.58629   2.61638   2.63040   2.65703
 Alpha virt. eigenvalues --    2.66136   2.66360   2.68085   2.69925   2.71512
 Alpha virt. eigenvalues --    2.72397   2.73489   2.73751   2.75954   2.78645
 Alpha virt. eigenvalues --    2.78891   2.80265   2.80949   2.82262   2.83578
 Alpha virt. eigenvalues --    2.85766   2.87675   2.89283   2.91639   2.92987
 Alpha virt. eigenvalues --    2.94274   2.95764   2.97301   2.99040   2.99941
 Alpha virt. eigenvalues --    3.01552   3.08763   3.12381   3.16185   3.17231
 Alpha virt. eigenvalues --    3.18443   3.20837   3.27577   3.30296   3.33539
 Alpha virt. eigenvalues --    3.34396   3.36586   3.38009   3.48878   3.51616
 Alpha virt. eigenvalues --    3.53417   3.61159   3.65696   3.69234   3.70946
 Alpha virt. eigenvalues --    3.83206   3.98862   4.00864   4.04004   4.07153
 Alpha virt. eigenvalues --    4.09112   4.14996   4.16354   4.21549   4.34090
 Alpha virt. eigenvalues --    4.74404   4.83552   4.85754   4.98343   5.03781
 Alpha virt. eigenvalues --    5.04789   5.28408   5.50221   5.77995  23.61890
 Alpha virt. eigenvalues --   23.70758  23.79333  23.89032  23.95639  23.96388
 Alpha virt. eigenvalues --   24.06295  24.07940  24.16924  35.60945  49.87973
 Alpha virt. eigenvalues --   49.95583
          Condensed to atoms (all electrons):
               1          2          3          4          5          6
     1  C   11.401385   0.640659  -3.721602  -0.189120  -0.168283  -0.021171
     2  H    0.640659   0.527892  -0.187399   0.010354  -0.002368  -0.003864
     3  C   -3.721602  -0.187399   9.330431   0.337455   0.444795   0.034413
     4  O   -0.189120   0.010354   0.337455   8.197013  -0.242765   0.127032
     5  O   -0.168283  -0.002368   0.444795  -0.242765   8.181371   0.126558
     6  H   -0.021171  -0.003864   0.034413   0.127032   0.126558   0.421687
     7  C   -2.098428  -0.109176   1.207924   0.028347  -0.003642   0.020693
     8  H   -0.297412  -0.015732   0.113463   0.004997   0.002901   0.002694
     9  H    0.033281   0.017111  -0.037831   0.003700   0.000741  -0.002313
    10  C   -0.045333  -0.022186  -0.858979  -0.015954  -0.058998  -0.007681
    11  C   -0.354926   0.004653  -0.019913  -0.007741  -0.001078  -0.001627
    12  C    0.820593  -0.019439  -0.217704  -0.003558  -0.001425  -0.000789
    13  C    0.025718  -0.019473   0.076932   0.000411   0.000631   0.000636
    14  H   -0.004481   0.001871  -0.031571  -0.000293  -0.000503  -0.000461
    15  C    0.016027  -0.013625   0.052347  -0.004292  -0.000327   0.000276
    16  H    0.038436   0.002064  -0.034143  -0.000014  -0.000231  -0.000573
    17  C    0.058723   0.002902  -0.024711  -0.000369  -0.000048  -0.000152
    18  H   -0.002616  -0.000182   0.000184   0.000022  -0.000002   0.000001
    19  H   -0.003241  -0.000224   0.000923  -0.000015  -0.000011   0.000002
    20  H   -0.000153   0.000009  -0.000716   0.000001  -0.000001  -0.000002
    21  N    0.030495  -0.050976  -0.100297   0.014414  -0.017475  -0.005901
    22  H    0.001096   0.009133  -0.007496   0.000342  -0.000694   0.000901
    23  H   -0.037801  -0.011220   0.007658  -0.000559  -0.001936  -0.000634
               7          8          9         10         11         12
     1  C   -2.098428  -0.297412   0.033281  -0.045333  -0.354926   0.820593
     2  H   -0.109176  -0.015732   0.017111  -0.022186   0.004653  -0.019439
     3  C    1.207924   0.113463  -0.037831  -0.858979  -0.019913  -0.217704
     4  O    0.028347   0.004997   0.003700  -0.015954  -0.007741  -0.003558
     5  O   -0.003642   0.002901   0.000741  -0.058998  -0.001078  -0.001425
     6  H    0.020693   0.002694  -0.002313  -0.007681  -0.001627  -0.000789
     7  C   14.132109   0.602054   0.444755  -4.664200  -0.373399  -2.547103
     8  H    0.602054   0.539860  -0.035801  -0.122532   0.016486  -0.034972
     9  H    0.444755  -0.035801   0.555723  -0.076916  -0.011773  -0.018921
    10  C   -4.664200  -0.122532  -0.076916  11.524631  -0.340204   0.378526
    11  C   -0.373399   0.016486  -0.011773  -0.340204   9.740932  -3.118369
    12  C   -2.547103  -0.034972  -0.018921   0.378526  -3.118369  10.726517
    13  C    0.287259  -0.012393   0.013760  -0.538059  -0.340261   0.610511
    14  H   -0.034361   0.000976  -0.003446  -0.014895   0.500096  -0.038435
    15  C   -0.118262   0.033014  -0.028281  -0.389141   0.646458  -0.233818
    16  H   -0.050352  -0.005242   0.003874  -0.015114  -0.005888   0.454802
    17  C   -0.116725  -0.011516  -0.012022  -0.086448  -0.177627  -0.184164
    18  H    0.004696   0.000486   0.000977   0.029749  -0.089994   0.019123
    19  H    0.005797   0.001138   0.000396   0.031356   0.012815  -0.087613
    20  H   -0.013705  -0.000367  -0.000250   0.025758  -0.001118   0.008445
    21  N    0.215537   0.022566  -0.026636  -0.110636   0.040460  -0.074404
    22  H   -0.013031  -0.000350   0.001440  -0.011263  -0.000395  -0.001798
    23  H    0.015449  -0.000233  -0.000374   0.003915  -0.006007   0.002101
              13         14         15         16         17         18
     1  C    0.025718  -0.004481   0.016027   0.038436   0.058723  -0.002616
     2  H   -0.019473   0.001871  -0.013625   0.002064   0.002902  -0.000182
     3  C    0.076932  -0.031571   0.052347  -0.034143  -0.024711   0.000184
     4  O    0.000411  -0.000293  -0.004292  -0.000014  -0.000369   0.000022
     5  O    0.000631  -0.000503  -0.000327  -0.000231  -0.000048  -0.000002
     6  H    0.000636  -0.000461   0.000276  -0.000573  -0.000152   0.000001
     7  C    0.287259  -0.034361  -0.118262  -0.050352  -0.116725   0.004696
     8  H   -0.012393   0.000976   0.033014  -0.005242  -0.011516   0.000486
     9  H    0.013760  -0.003446  -0.028281   0.003874  -0.012022   0.000977
    10  C   -0.538059  -0.014895  -0.389141  -0.015114  -0.086448   0.029749
    11  C   -0.340261   0.500096   0.646458  -0.005888  -0.177627  -0.089994
    12  C    0.610511  -0.038435  -0.233818   0.454802  -0.184164   0.019123
    13  C    5.810218  -0.104742  -0.243806   0.011301   0.439523   0.412384
    14  H   -0.104742   0.518482   0.014036  -0.001765   0.021762  -0.015225
    15  C   -0.243806   0.014036   5.827875  -0.093637   0.498930   0.004047
    16  H    0.011301  -0.001765  -0.093637   0.547300   0.008921   0.000716
    17  C    0.439523   0.021762   0.498930   0.008921   5.518012  -0.062871
    18  H    0.412384  -0.015225   0.004047   0.000716  -0.062871   0.543144
    19  H    0.003811   0.000436   0.415045  -0.016458  -0.061792  -0.000296
    20  H   -0.068205   0.000980  -0.065252   0.000196   0.441237  -0.015200
    21  N    0.026838  -0.013320   0.010014  -0.002266  -0.000184  -0.000325
    22  H    0.001156  -0.002696  -0.000120  -0.000283   0.000386   0.000036
    23  H   -0.004912   0.002702   0.001489  -0.000092  -0.000464  -0.000147
              19         20         21         22         23
     1  C   -0.003241  -0.000153   0.030495   0.001096  -0.037801
     2  H   -0.000224   0.000009  -0.050976   0.009133  -0.011220
     3  C    0.000923  -0.000716  -0.100297  -0.007496   0.007658
     4  O   -0.000015   0.000001   0.014414   0.000342  -0.000559
     5  O   -0.000011  -0.000001  -0.017475  -0.000694  -0.001936
     6  H    0.000002  -0.000002  -0.005901   0.000901  -0.000634
     7  C    0.005797  -0.013705   0.215537  -0.013031   0.015449
     8  H    0.001138  -0.000367   0.022566  -0.000350  -0.000233
     9  H    0.000396  -0.000250  -0.026636   0.001440  -0.000374
    10  C    0.031356   0.025758  -0.110636  -0.011263   0.003915
    11  C    0.012815  -0.001118   0.040460  -0.000395  -0.006007
    12  C   -0.087613   0.008445  -0.074404  -0.001798   0.002101
    13  C    0.003811  -0.068205   0.026838   0.001156  -0.004912
    14  H    0.000436   0.000980  -0.013320  -0.002696   0.002702
    15  C    0.415045  -0.065252   0.010014  -0.000120   0.001489
    16  H   -0.016458   0.000196  -0.002266  -0.000283  -0.000092
    17  C   -0.061792   0.441237  -0.000184   0.000386  -0.000464
    18  H   -0.000296  -0.015200  -0.000325   0.000036  -0.000147
    19  H    0.543369  -0.015204   0.000004   0.000006   0.000004
    20  H   -0.015204   0.548595  -0.000168  -0.000005  -0.000005
    21  N    0.000004  -0.000168   6.615578   0.380030   0.378960
    22  H    0.000006  -0.000005   0.380030   0.425239  -0.032855
    23  H    0.000004  -0.000005   0.378960  -0.032855   0.428103
 Mulliken charges:
               1
     1  C   -0.121845
     2  H    0.239218
     3  C   -0.364162
     4  O   -0.259406
     5  O   -0.257207
     6  H    0.310274
     7  C   -0.822236
     8  H    0.195915
     9  H    0.178806
    10  C    1.384606
    11  C   -0.111580
    12  C   -0.438104
    13  C   -0.389236
    14  H    0.204854
    15  C   -0.328995
    16  H    0.158450
    17  C   -0.251303
    18  H    0.171293
    19  H    0.169752
    20  H    0.155131
    21  N   -0.332307
    22  H    0.251223
    23  H    0.256858
 Sum of Mulliken charges =   0.00000
 Mulliken charges with hydrogens summed into heavy atoms:
               1
     1  C    0.117373
     3  C   -0.364162
     4  O   -0.259406
     5  O    0.053067
     7  C   -0.447514
    10  C    1.384606
    11  C    0.093274
    12  C   -0.279655
    13  C   -0.217943
    15  C   -0.159243
    17  C   -0.096172
    21  N    0.175774
 APT charges:
               1
     1  C    0.247551
     2  H    0.015522
     3  C    0.887774
     4  O   -0.756387
     5  O   -0.748796
     6  H    0.427828
     7  C    0.116425
     8  H    0.001589
     9  H   -0.028700
    10  C    0.049740
    11  C   -0.066609
    12  C   -0.069141
    13  C   -0.019198
    14  H    0.052865
    15  C   -0.025500
    16  H    0.035038
    17  C   -0.046875
    18  H    0.026465
    19  H    0.027676
    20  H    0.031205
    21  N   -0.495518
    22  H    0.180302
    23  H    0.156744
 Sum of APT charges =   0.00000
 APT charges with hydrogens summed into heavy atoms:
               1
     1  C    0.263073
     3  C    0.887774
     4  O   -0.756387
     5  O   -0.320968
     7  C    0.089314
    10  C    0.049740
    11  C   -0.013744
    12  C   -0.034104
    13  C    0.007267
    15  C    0.002176
    17  C   -0.015670
    21  N   -0.158472
 Electronic spatial extent (au):  <R**2>=           2693.9527
 Charge=              0.0000 electrons
 Dipole moment (field-independent basis, Debye):
    X=             -0.9525    Y=              0.9327    Z=             -0.4242  Tot=              1.3990
 Quadrupole moment (field-independent basis, Debye-Ang):
   XX=            -74.9580   YY=            -70.7350   ZZ=            -71.5264
   XY=              2.0225   XZ=              1.1138   YZ=              0.0259
 Traceless Quadrupole moment (field-independent basis, Debye-Ang):
   XX=             -2.5515   YY=              1.6714   ZZ=              0.8800
   XY=              2.0225   XZ=              1.1138   YZ=              0.0259
 Octapole moment (field-independent basis, Debye-Ang**2):
  XXX=            -11.5823  YYY=             13.1123  ZZZ=             -5.0842  XYY=             -3.7943
  XXY=             -4.4461  XXZ=             -9.7079  XZZ=             24.4325  YZZ=              4.9731
  YYZ=             -0.4104  XYZ=             -6.9342
 Hexadecapole moment (field-independent basis, Debye-Ang**3):
 XXXX=          -2764.5073 YYYY=           -548.5082 ZZZZ=           -161.4383 XXXY=            -82.2033
 XXXZ=             49.7548 YYYX=             40.0045 YYYZ=              0.1076 ZZZX=             -8.0635
 ZZZY=             -8.3681 XXYY=           -569.0948 XXZZ=           -524.7106 YYZZ=           -119.0957
 XXYZ=             -0.1275 YYXZ=              3.9601 ZZXY=              6.1175
 N-N= 6.610586659485D+02 E-N=-2.616303537278D+03  KE= 5.522566183956D+02
  Exact polarizability: 159.600  -0.164 125.316   9.746   4.212  81.089
 Approx polarizability: 213.218   2.468 214.135  20.256  12.456 126.261
 Calling FoFJK, ICntrl=    100127 FMM=F ISym2X=0 I1Cent= 0 IOpClX= 0 NMat=1 NMatS=1 NMatT=0.
 Full mass-weighted force constant matrix:
 Low frequencies ----1917.5919   -0.0006    0.0003    0.0004   27.8443   35.0425
 Low frequencies ---   67.5942   81.2202   94.6039
 ******    1 imaginary frequencies (negative Signs) ****** 
 Diagonal vibrational polarizability:
       19.0964558      15.5828283      18.7820522
 Harmonic frequencies (cm**-1), IR intensities (KM/Mole), Raman scattering
 activities (A**4/AMU), depolarization ratios for plane and unpolarized
 incident light, reduced masses (AMU), force constants (mDyne/A),
 and normal coordinates:
                      1                      2                      3
                      A                      A                      A
 Frequencies --  -1917.5851                78.4289                94.1590
 Red. masses --      1.1037                 3.8665                 4.5236
 Frc consts  --      2.3912                 0.0140                 0.0236
 IR Inten    --    357.3502                 0.3594                 0.1368
  Atom  AN      X      Y      Z        X      Y      Z        X      Y      Z
     1   6     0.00   0.00   0.00    -0.01  -0.08  -0.06     0.06  -0.05  -0.07
     2   1     0.00   0.00   0.00     0.01  -0.22   0.00     0.19  -0.05  -0.12
     3   6    -0.02  -0.06  -0.01     0.00  -0.02   0.04     0.08   0.05   0.06
     4   8    -0.04   0.01  -0.01     0.03  -0.01   0.08     0.14   0.07   0.11
     5   8     0.03  -0.02   0.01    -0.03   0.01   0.06     0.03   0.11   0.10
     6   1     0.35   0.93   0.10     0.00   0.03   0.11     0.10   0.14   0.15
     7   6     0.00   0.00   0.00     0.01   0.05   0.02    -0.01  -0.17  -0.19
     8   1     0.00   0.00   0.00     0.00   0.07   0.12    -0.04  -0.21  -0.33
     9   1     0.00   0.00   0.00     0.03   0.15  -0.04     0.00  -0.31  -0.10
    10   6     0.00   0.00   0.00     0.01   0.04   0.03    -0.01  -0.08  -0.15
    11   6     0.00   0.00   0.00    -0.04   0.00   0.19     0.06  -0.03  -0.08
    12   6     0.00   0.00   0.00     0.07   0.06  -0.14    -0.13  -0.03  -0.08
    13   6     0.00   0.00   0.00    -0.05  -0.01   0.19     0.02   0.05   0.07
    14   1     0.00   0.00   0.00    -0.09  -0.01   0.32     0.14  -0.07  -0.14
    15   6     0.00   0.00   0.00     0.07   0.05  -0.15    -0.16   0.05   0.08
    16   1     0.00   0.00   0.00     0.11   0.08  -0.27    -0.19  -0.07  -0.13
    17   6     0.00   0.00   0.00     0.01   0.01   0.02    -0.09   0.08   0.16
    18   1     0.00   0.00   0.00    -0.09  -0.04   0.32     0.08   0.08   0.13
    19   1     0.00   0.00   0.00     0.11   0.06  -0.29    -0.25   0.08   0.14
    20   1     0.00   0.00   0.00     0.01   0.00   0.01    -0.12   0.14   0.29
    21   7     0.00   0.00   0.00    -0.05  -0.09  -0.26    -0.03  -0.05  -0.05
    22   1    -0.01   0.01   0.00    -0.09   0.03  -0.31    -0.08  -0.03  -0.02
    23   1     0.00   0.00   0.00    -0.06  -0.20  -0.30    -0.02  -0.02  -0.03
                      4                      5                      6
                      A                      A                      A
 Frequencies --    115.3998               149.8886               206.2911
 Red. masses --      4.5761                10.5071                 5.2036
 Frc consts  --      0.0359                 0.1391                 0.1305
 IR Inten    --      0.2746                 0.1469                 3.7305
  Atom  AN      X      Y      Z        X      Y      Z        X      Y      Z
     1   6    -0.08  -0.10   0.04     0.02   0.02   0.08     0.05  -0.13   0.13
     2   1    -0.10  -0.16   0.08     0.03   0.10   0.03     0.05  -0.18   0.14
     3   6    -0.02   0.04  -0.03     0.03   0.01   0.00     0.14  -0.05   0.02
     4   8     0.06   0.06  -0.03    -0.06  -0.01   0.47     0.30  -0.01  -0.14
     5   8    -0.06   0.12  -0.07     0.14   0.03  -0.56     0.10   0.05  -0.08
     6   1     0.03   0.15  -0.07     0.05   0.01  -0.10     0.24   0.10  -0.20
     7   6     0.02  -0.15   0.11    -0.02  -0.06   0.00    -0.07   0.05   0.12
     8   1     0.02  -0.16   0.04    -0.03  -0.07  -0.07    -0.15   0.06   0.27
     9   1     0.07  -0.18   0.11    -0.05  -0.13   0.05    -0.11   0.14   0.07
    10   6     0.02  -0.09   0.14    -0.02  -0.02  -0.03    -0.09   0.08   0.03
    11   6     0.11  -0.04   0.08    -0.03  -0.03   0.07    -0.15   0.06   0.00
    12   6    -0.04  -0.04   0.10    -0.01   0.01  -0.14    -0.08   0.07   0.02
    13   6     0.16   0.08  -0.08    -0.04  -0.02   0.08    -0.16   0.01  -0.03
    14   1     0.16  -0.08   0.11    -0.05  -0.05   0.15    -0.21   0.09   0.00
    15   6     0.00   0.07  -0.05    -0.01   0.02  -0.14    -0.07   0.02  -0.02
    16   1    -0.12  -0.08   0.16     0.00   0.01  -0.21    -0.06   0.07   0.05
    17   6     0.11   0.13  -0.16    -0.03   0.01  -0.03    -0.12  -0.01  -0.05
    18   1     0.24   0.12  -0.16    -0.04  -0.02   0.16    -0.18   0.00  -0.05
    19   1    -0.05   0.11  -0.09     0.00   0.04  -0.22    -0.03   0.00  -0.03
    20   1     0.15   0.22  -0.30    -0.03   0.02  -0.02    -0.12  -0.04  -0.08
    21   7    -0.22  -0.11   0.00     0.01   0.03   0.18     0.04  -0.13   0.04
    22   1    -0.17  -0.04  -0.08    -0.05  -0.02   0.25    -0.18  -0.11   0.17
    23   1    -0.37  -0.11  -0.05     0.09   0.09   0.23     0.36  -0.17   0.10
                      7                      8                      9
                      A                      A                      A
 Frequencies --    247.4182               267.7617               308.4355
 Red. masses --      1.4043                 2.7578                 4.2107
 Frc consts  --      0.0506                 0.1165                 0.2360
 IR Inten    --     16.2147                 0.7159                 5.8370
  Atom  AN      X      Y      Z        X      Y      Z        X      Y      Z
     1   6    -0.01  -0.01  -0.01     0.04   0.06  -0.10     0.07   0.10   0.11
     2   1     0.01  -0.04  -0.01     0.08   0.09  -0.13     0.15  -0.03   0.14
     3   6     0.00   0.00   0.01     0.02   0.02  -0.01     0.12   0.09   0.07
     4   8    -0.03  -0.01   0.00    -0.01   0.01   0.02    -0.09   0.03  -0.06
     5   8     0.01  -0.02   0.01     0.04  -0.01   0.02     0.30  -0.14   0.02
     6   1    -0.01  -0.03   0.00     0.00  -0.02   0.05     0.04  -0.21  -0.11
     7   6     0.01   0.01  -0.01     0.02   0.00  -0.11     0.00   0.03   0.07
     8   1     0.00   0.01   0.00     0.07  -0.01  -0.20     0.07   0.05   0.09
     9   1     0.02   0.01  -0.01     0.09  -0.08  -0.07    -0.12   0.05   0.08
    10   6     0.03   0.03  -0.02    -0.04  -0.05   0.08    -0.01  -0.06  -0.01
    11   6     0.03   0.03  -0.04    -0.06  -0.06   0.16    -0.01  -0.06   0.00
    12   6     0.04   0.02  -0.02    -0.09  -0.05   0.15    -0.06  -0.05  -0.01
    13   6     0.02   0.01   0.00    -0.02  -0.01   0.02    -0.01  -0.01  -0.01
    14   1     0.02   0.04  -0.06    -0.08  -0.07   0.22     0.00  -0.08   0.02
    15   6     0.04   0.00   0.01    -0.06  -0.01   0.01    -0.07   0.00   0.00
    16   1     0.06   0.03  -0.03    -0.13  -0.07   0.20    -0.10  -0.07  -0.02
    17   6     0.02  -0.01   0.04     0.00   0.03  -0.15    -0.05   0.02  -0.02
    18   1     0.01   0.00  -0.01     0.00   0.00   0.00     0.03   0.01   0.00
    19   1     0.04  -0.01   0.03    -0.06   0.01  -0.02    -0.10   0.01   0.00
    20   1     0.01  -0.03   0.07     0.05   0.08  -0.35    -0.04   0.05  -0.02
    21   7    -0.13  -0.02   0.00     0.10   0.06  -0.08    -0.16   0.07  -0.10
    22   1    -0.72   0.00   0.36    -0.27   0.02   0.18    -0.24   0.36  -0.24
    23   1     0.50   0.05   0.19     0.61   0.08   0.06    -0.54   0.02  -0.21
                     10                     11                     12
                      A                      A                      A
 Frequencies --    319.8757               419.9665               423.6211
 Red. masses --      2.5672                 2.2517                 2.8173
 Frc consts  --      0.1548                 0.2340                 0.2979
 IR Inten    --      6.9280                 7.2237                 0.4239
  Atom  AN      X      Y      Z        X      Y      Z        X      Y      Z
     1   6    -0.02   0.02   0.08     0.01   0.00  -0.12     0.00   0.00  -0.04
     2   1    -0.08  -0.03   0.12    -0.02   0.06  -0.14    -0.01   0.02  -0.04
     3   6    -0.04   0.01   0.03     0.03  -0.06  -0.07     0.01  -0.01  -0.02
     4   8    -0.02   0.02  -0.03     0.09  -0.05   0.05     0.02  -0.01   0.01
     5   8    -0.05   0.04  -0.03    -0.01  -0.02   0.02     0.00  -0.01   0.01
     6   1    -0.02   0.04  -0.07     0.03   0.01   0.11     0.01   0.00   0.03
     7   6    -0.03   0.10   0.13     0.02   0.15  -0.04     0.01   0.05  -0.01
     8   1     0.12   0.18   0.36     0.11   0.25   0.36     0.03   0.08   0.11
     9   1    -0.22   0.32   0.03    -0.07   0.52  -0.25    -0.01   0.16  -0.08
    10   6    -0.01  -0.14  -0.02     0.01  -0.04  -0.06     0.01  -0.01  -0.02
    11   6     0.08  -0.11  -0.04    -0.01  -0.06   0.07     0.05   0.01  -0.18
    12   6    -0.04  -0.10  -0.08    -0.01  -0.04  -0.04    -0.06  -0.05   0.19
    13   6     0.08   0.01   0.01     0.02   0.01  -0.02    -0.04  -0.03   0.20
    14   1     0.16  -0.15  -0.05    -0.01  -0.09   0.18     0.12   0.04  -0.40
    15   6    -0.06   0.01  -0.03    -0.04   0.00   0.07     0.04   0.04  -0.18
    16   1    -0.11  -0.14  -0.12    -0.03  -0.05  -0.06    -0.14  -0.10   0.43
    17   6     0.00   0.05   0.06     0.01   0.03  -0.04     0.00   0.01  -0.02
    18   1     0.15   0.05   0.03     0.06   0.03  -0.02    -0.09  -0.06   0.44
    19   1    -0.14   0.06  -0.04    -0.10   0.00   0.16     0.08   0.08  -0.39
    20   1    -0.02   0.10   0.14     0.02   0.06  -0.08     0.01   0.02  -0.04
    21   7     0.11   0.03  -0.07    -0.09   0.01   0.10    -0.03   0.00   0.03
    22   1    -0.05   0.01   0.05    -0.02  -0.07   0.10     0.00  -0.02   0.03
    23   1     0.55  -0.12  -0.01    -0.37   0.23   0.11    -0.11   0.07   0.04
                     13                     14                     15
                      A                      A                      A
 Frequencies --    497.9393               515.2422               575.5860
 Red. masses --      3.5198                 4.1449                 4.5202
 Frc consts  --      0.5142                 0.6483                 0.8823
 IR Inten    --      9.6415                17.4333                 7.5599
  Atom  AN      X      Y      Z        X      Y      Z        X      Y      Z
     1   6    -0.01   0.07  -0.09    -0.04   0.17   0.13     0.09   0.03   0.08
     2   1    -0.12   0.12  -0.07    -0.07   0.20   0.12    -0.06   0.00   0.15
     3   6     0.02  -0.04  -0.09    -0.04  -0.15   0.07    -0.02  -0.03  -0.04
     4   8     0.09  -0.05   0.05     0.22  -0.15   0.01    -0.03  -0.04   0.01
     5   8    -0.01  -0.03   0.03    -0.12  -0.05  -0.04    -0.12   0.03  -0.01
     6   1     0.01   0.00   0.13     0.09   0.06  -0.09    -0.03   0.03   0.04
     7   6     0.10  -0.02   0.06    -0.09   0.00  -0.02     0.25  -0.04   0.12
     8   1     0.17  -0.02  -0.06    -0.08  -0.06  -0.33     0.24  -0.07   0.00
     9   1     0.27  -0.08   0.06    -0.15  -0.30   0.18     0.21  -0.13   0.18
    10   6    -0.01  -0.05   0.28    -0.04   0.01  -0.07     0.23   0.01  -0.09
    11   6    -0.01  -0.04  -0.03     0.02   0.03   0.00     0.00  -0.11  -0.07
    12   6    -0.02   0.03  -0.02     0.01  -0.03   0.00     0.01   0.12  -0.03
    13   6    -0.01  -0.01  -0.13     0.03   0.02   0.04    -0.08  -0.11   0.04
    14   1     0.00   0.03  -0.29     0.05  -0.01   0.06    -0.21  -0.04   0.09
    15   6    -0.02   0.05  -0.12     0.02  -0.03   0.02    -0.06   0.11   0.08
    16   1    -0.02   0.04  -0.27     0.04  -0.02   0.07    -0.19   0.01   0.08
    17   6    -0.14  -0.02   0.15     0.08   0.00  -0.02    -0.19   0.03  -0.16
    18   1     0.10   0.06  -0.36    -0.02  -0.01   0.09     0.01  -0.08   0.30
    19   1     0.09   0.07  -0.37    -0.03  -0.02   0.07     0.02  -0.02   0.31
    20   1    -0.17  -0.04   0.27     0.09   0.02  -0.04    -0.19   0.03  -0.17
    21   7    -0.02   0.09  -0.02    -0.05   0.19  -0.09     0.03   0.00  -0.02
    22   1    -0.11   0.09   0.04    -0.28   0.47  -0.13    -0.28   0.21   0.02
    23   1    -0.05   0.17   0.01    -0.14   0.07  -0.16    -0.13   0.03  -0.04
                     16                     17                     18
                      A                      A                      A
 Frequencies --    614.4848               634.6075               676.2543
 Red. masses --      1.6026                 6.0003                 3.4969
 Frc consts  --      0.3565                 1.4237                 0.9422
 IR Inten    --    114.4945                 2.2113                63.3482
  Atom  AN      X      Y      Z        X      Y      Z        X      Y      Z
     1   6     0.05   0.01   0.00     0.01   0.00  -0.01     0.10  -0.02   0.05
     2   1     0.12   0.01  -0.03    -0.01   0.01   0.00     0.46  -0.08  -0.06
     3   6    -0.01   0.00   0.05     0.00   0.00  -0.02    -0.05  -0.04   0.30
     4   8    -0.03   0.00  -0.02     0.00   0.00   0.00    -0.03  -0.04  -0.07
     5   8    -0.04   0.03  -0.02     0.00   0.00   0.00    -0.07   0.04  -0.07
     6   1    -0.01   0.01  -0.06    -0.01   0.00   0.02     0.08   0.03  -0.34
     7   6    -0.02   0.01  -0.03    -0.01   0.03   0.02     0.08   0.08  -0.18
     8   1    -0.02   0.02   0.01    -0.02   0.04   0.11     0.09   0.11  -0.03
     9   1    -0.02   0.03  -0.04    -0.01   0.11  -0.02     0.08   0.18  -0.24
    10   6    -0.02  -0.01   0.02     0.00   0.14   0.02     0.05   0.00   0.01
    11   6    -0.01   0.00   0.00     0.23   0.18   0.09     0.00  -0.05   0.06
    12   6     0.00  -0.03   0.02    -0.22   0.20  -0.03    -0.01   0.03   0.07
    13   6     0.00   0.03  -0.02     0.24  -0.24   0.02     0.03  -0.04  -0.05
    14   1     0.00  -0.01   0.01     0.09   0.26   0.09     0.00  -0.01  -0.08
    15   6     0.02   0.00  -0.02    -0.24  -0.22  -0.10     0.01   0.04  -0.04
    16   1     0.02  -0.02   0.00    -0.10   0.27   0.04    -0.02   0.03  -0.07
    17   6     0.02   0.00   0.03     0.00  -0.13  -0.03    -0.07  -0.01   0.06
    18   1     0.00   0.03  -0.06     0.10  -0.31   0.00     0.14   0.02  -0.25
    19   1     0.01   0.03  -0.07    -0.11  -0.30  -0.07     0.11   0.04  -0.25
    20   1     0.01  -0.02   0.04     0.00   0.27   0.05    -0.05   0.03  -0.04
    21   7     0.14  -0.10   0.00     0.03  -0.01   0.00    -0.09   0.01   0.03
    22   1    -0.62   0.27   0.20    -0.16   0.06   0.06     0.28  -0.07  -0.14
    23   1    -0.59   0.27  -0.01    -0.13   0.09   0.01     0.11  -0.16   0.00
                     19                     20                     21
                      A                      A                      A
 Frequencies --    714.9083               766.7681               781.4967
 Red. masses --      1.7242                 2.3182                 3.9622
 Frc consts  --      0.5192                 0.8030                 1.4257
 IR Inten    --     46.4325                27.9523                25.0553
  Atom  AN      X      Y      Z        X      Y      Z        X      Y      Z
     1   6     0.00   0.00   0.00     0.10   0.00   0.08     0.23  -0.01   0.02
     2   1     0.03   0.00  -0.02    -0.04   0.00   0.13     0.27  -0.04   0.01
     3   6     0.00   0.00   0.03     0.05  -0.01  -0.15     0.07  -0.04  -0.01
     4   8     0.00   0.00  -0.01    -0.04  -0.03   0.02    -0.07  -0.07  -0.01
     5   8     0.00   0.00  -0.01    -0.04   0.04   0.02    -0.08   0.08  -0.01
     6   1     0.01   0.00  -0.03    -0.02  -0.01   0.17     0.04   0.00   0.03
     7   6     0.00   0.01  -0.01     0.04  -0.01   0.03     0.16  -0.02   0.04
     8   1     0.02   0.02   0.01    -0.01  -0.02   0.04     0.17  -0.01   0.10
     9   1     0.04   0.01  -0.02    -0.12  -0.03   0.08     0.24   0.03  -0.01
    10   6    -0.03  -0.02   0.09     0.02   0.03  -0.17    -0.08  -0.02   0.11
    11   6     0.02   0.02  -0.06    -0.04   0.02   0.09    -0.04   0.14  -0.04
    12   6     0.02   0.01  -0.07    -0.03  -0.04   0.08    -0.04  -0.12  -0.09
    13   6    -0.03  -0.02   0.13    -0.02   0.04   0.00    -0.08   0.15   0.01
    14   1     0.14   0.07  -0.49     0.03   0.03  -0.08     0.02   0.09   0.04
    15   6    -0.04  -0.03   0.13    -0.02  -0.03  -0.02    -0.08  -0.15  -0.05
    16   1     0.13   0.08  -0.48     0.03   0.00  -0.09     0.00  -0.10   0.03
    17   6     0.02   0.01  -0.07     0.00  -0.02   0.12     0.14   0.01  -0.04
    18   1     0.04   0.03  -0.18     0.07   0.10  -0.51    -0.34   0.01   0.26
    19   1     0.04   0.03  -0.18     0.07   0.07  -0.52    -0.35  -0.10   0.27
    20   1     0.15   0.10  -0.56     0.15   0.07  -0.43     0.03  -0.06   0.35
    21   7     0.00   0.00   0.00    -0.02   0.00   0.00    -0.06   0.04   0.01
    22   1    -0.02   0.00   0.01    -0.01   0.09  -0.06     0.08   0.05  -0.08
    23   1    -0.04   0.02   0.00     0.06  -0.11  -0.03     0.10  -0.06   0.00
                     22                     23                     24
                      A                      A                      A
 Frequencies --    856.8327               858.3709               878.5199
 Red. masses --      1.2584                 3.3860                 2.6217
 Frc consts  --      0.5443                 1.4699                 1.1922
 IR Inten    --      0.1323                14.5352                 2.0306
  Atom  AN      X      Y      Z        X      Y      Z        X      Y      Z
     1   6    -0.01   0.00  -0.01    -0.18   0.02   0.00     0.00   0.03   0.14
     2   1     0.00   0.00  -0.01    -0.30  -0.07   0.09    -0.14   0.00   0.20
     3   6    -0.01   0.00   0.01    -0.11   0.03   0.10     0.06  -0.01  -0.13
     4   8     0.01   0.01   0.00     0.07   0.09   0.00    -0.03  -0.02   0.01
     5   8     0.00  -0.01   0.00     0.03  -0.11  -0.01     0.00   0.04   0.02
     6   1     0.00   0.00  -0.02    -0.04   0.02  -0.15     0.00  -0.02   0.16
     7   6     0.01  -0.01   0.01     0.22   0.12   0.01    -0.01   0.22  -0.13
     8   1     0.02   0.00   0.02     0.27   0.05  -0.38    -0.09   0.11  -0.58
     9   1     0.02   0.01   0.00     0.39  -0.18   0.16     0.05  -0.25   0.15
    10   6     0.00   0.00   0.00     0.06   0.02  -0.07    -0.03   0.01   0.06
    11   6     0.02   0.02  -0.08    -0.03   0.06   0.02     0.00  -0.06   0.00
    12   6    -0.02  -0.02   0.07    -0.02  -0.09  -0.03     0.00  -0.02   0.02
    13   6     0.01   0.02  -0.07    -0.05   0.09   0.01     0.05  -0.04  -0.01
    14   1    -0.15  -0.06   0.50    -0.03   0.05   0.05     0.06  -0.06  -0.14
    15   6    -0.02  -0.02   0.07    -0.08  -0.10  -0.05     0.00   0.01   0.00
    16   1     0.12   0.07  -0.46    -0.07  -0.13   0.16     0.07   0.02  -0.25
    17   6     0.00   0.00   0.01     0.03   0.00   0.05     0.00   0.03  -0.05
    18   1    -0.13  -0.07   0.44    -0.09   0.08  -0.20     0.06  -0.04   0.20
    19   1     0.11   0.08  -0.48    -0.20  -0.02  -0.09    -0.03   0.01   0.06
    20   1     0.01   0.01  -0.02     0.09   0.07  -0.17    -0.08   0.02   0.30
    21   7     0.00   0.00   0.00     0.03  -0.08   0.01    -0.02  -0.12   0.03
    22   1     0.01  -0.01   0.00     0.00  -0.16   0.07     0.02  -0.01  -0.07
    23   1     0.01   0.00   0.00    -0.08   0.00   0.03     0.01  -0.29  -0.03
                     25                     26                     27
                      A                      A                      A
 Frequencies --    926.2555               956.1012               983.3412
 Red. masses --      1.6475                 2.3509                 1.3776
 Frc consts  --      0.8328                 1.2662                 0.7848
 IR Inten    --      3.4045                 2.9146                 0.0474
  Atom  AN      X      Y      Z        X      Y      Z        X      Y      Z
     1   6     0.02   0.00  -0.04     0.03   0.03   0.13     0.00   0.00   0.00
     2   1     0.00  -0.06   0.00     0.13   0.20   0.01     0.00  -0.01   0.00
     3   6     0.05  -0.02   0.02    -0.05   0.03  -0.10     0.00   0.00   0.00
     4   8    -0.03  -0.06  -0.01     0.04   0.11   0.02     0.00   0.01   0.00
     5   8     0.02   0.07   0.00    -0.05  -0.11   0.00     0.00  -0.01   0.00
     6   1     0.05  -0.02   0.00    -0.09   0.03   0.08     0.00   0.00   0.00
     7   6    -0.04   0.07   0.02     0.02  -0.06  -0.14     0.00   0.00   0.00
     8   1    -0.11   0.00  -0.22     0.17   0.05   0.22     0.00   0.00  -0.01
     9   1     0.10  -0.15   0.13    -0.09   0.26  -0.31     0.00   0.00   0.00
    10   6    -0.02   0.00   0.06    -0.03  -0.03   0.09     0.00   0.00   0.00
    11   6     0.02  -0.02  -0.10     0.02   0.03  -0.06    -0.02  -0.01   0.09
    12   6     0.02   0.00  -0.09     0.01   0.04  -0.06     0.03   0.01  -0.09
    13   6     0.02  -0.02   0.01    -0.01   0.00   0.00     0.02   0.02  -0.09
    14   1    -0.14  -0.10   0.47    -0.10  -0.01   0.30     0.15   0.06  -0.44
    15   6     0.00   0.00   0.01     0.01   0.01   0.00    -0.02  -0.01   0.09
    16   1    -0.14  -0.10   0.50    -0.08  -0.02   0.31    -0.13  -0.08   0.47
    17   6    -0.02   0.00   0.09    -0.01  -0.02   0.05    -0.01   0.00  -0.01
    18   1     0.07   0.01  -0.04    -0.03  -0.01   0.00    -0.13  -0.08   0.47
    19   1     0.00   0.03  -0.06     0.03  -0.01   0.06     0.14   0.08  -0.49
    20   1     0.13   0.12  -0.48     0.08   0.00  -0.29    -0.02  -0.01   0.02
    21   7    -0.01  -0.01   0.00     0.00  -0.04   0.03     0.00   0.00   0.00
    22   1     0.05  -0.11   0.02    -0.07   0.27  -0.13    -0.01   0.01   0.00
    23   1    -0.01   0.08   0.04     0.08  -0.40  -0.10    -0.01   0.01   0.00
                     28                     29                     30
                      A                      A                      A
 Frequencies --    992.6022              1000.1303              1010.6003
 Red. masses --      3.7365                 1.2919                 5.9312
 Frc consts  --      2.1690                 0.7613                 3.5690
 IR Inten    --      1.1233                 0.0214                 0.0939
  Atom  AN      X      Y      Z        X      Y      Z        X      Y      Z
     1   6     0.27  -0.02  -0.08     0.01  -0.01  -0.01     0.06   0.00  -0.01
     2   1     0.35  -0.28   0.01     0.01  -0.03   0.00     0.09  -0.04   0.00
     3   6    -0.08   0.04  -0.02     0.00   0.00   0.00    -0.01   0.01  -0.01
     4   8     0.06   0.18   0.02     0.00   0.01   0.00     0.01   0.03   0.00
     5   8    -0.11  -0.19  -0.03     0.00  -0.01   0.00    -0.02  -0.03   0.00
     6   1    -0.10   0.06   0.01     0.00   0.00   0.00    -0.02   0.01   0.02
     7   6    -0.08   0.09   0.12     0.00   0.01   0.01    -0.06   0.02   0.01
     8   1    -0.38  -0.06  -0.23    -0.03   0.00  -0.01    -0.09   0.00  -0.06
     9   1     0.07  -0.28   0.31     0.00  -0.03   0.03    -0.03  -0.06   0.06
    10   6    -0.03   0.04   0.00     0.00   0.00   0.00    -0.01   0.01   0.01
    11   6    -0.03  -0.08  -0.03    -0.01   0.00   0.04     0.20   0.29   0.08
    12   6    -0.01   0.00   0.00     0.00  -0.01   0.03     0.19  -0.32   0.00
    13   6     0.03  -0.05   0.01     0.02   0.01  -0.08     0.02  -0.02   0.02
    14   1    -0.04  -0.09   0.00     0.08   0.03  -0.24     0.19   0.27   0.21
    15   6     0.00   0.01   0.01     0.02   0.01  -0.07     0.02   0.01   0.01
    16   1     0.00   0.01  -0.01     0.07   0.03  -0.23     0.23  -0.32  -0.01
    17   6     0.05   0.03   0.00    -0.03  -0.01   0.09    -0.39   0.02  -0.11
    18   1     0.12   0.00  -0.06    -0.13  -0.09   0.50     0.12   0.06  -0.06
    19   1    -0.04   0.05  -0.07    -0.12  -0.08   0.46     0.07  -0.04   0.00
    20   1     0.02   0.08   0.13     0.14   0.10  -0.56    -0.42   0.03  -0.06
    21   7    -0.04   0.00  -0.01     0.00   0.00   0.00    -0.01   0.00   0.00
    22   1     0.10  -0.20   0.05     0.00  -0.02   0.01     0.01  -0.04   0.01
    23   1    -0.01   0.27   0.10    -0.01   0.03   0.01     0.00   0.05   0.02
                     31                     32                     33
                      A                      A                      A
 Frequencies --   1041.9965              1089.6143              1113.3452
 Red. masses --      2.2931                 1.6793                 2.9981
 Frc consts  --      1.4669                 1.1747                 2.1895
 IR Inten    --      5.4527                 2.1091                37.8310
  Atom  AN      X      Y      Z        X      Y      Z        X      Y      Z
     1   6     0.01   0.00   0.00     0.03   0.07  -0.02     0.05   0.29  -0.12
     2   1     0.02  -0.01   0.00    -0.02  -0.08   0.07     0.10   0.59  -0.26
     3   6     0.00   0.00   0.00     0.00   0.00   0.01    -0.03   0.01   0.04
     4   8     0.00   0.00   0.00     0.00   0.00   0.00     0.01  -0.04   0.00
     5   8     0.00   0.00   0.00    -0.01  -0.01   0.00     0.01   0.01   0.00
     6   1     0.00   0.00   0.01     0.00   0.01   0.00     0.01   0.02  -0.06
     7   6    -0.03   0.01  -0.01    -0.01   0.02   0.01    -0.05  -0.05   0.10
     8   1    -0.05   0.00  -0.01     0.20   0.05  -0.12     0.16  -0.01   0.03
     9   1    -0.04  -0.01   0.01    -0.23  -0.05   0.11    -0.18   0.00   0.10
    10   6     0.03   0.00   0.01    -0.01  -0.07  -0.01     0.02   0.00  -0.02
    11   6     0.04  -0.10  -0.01     0.10   0.05   0.03    -0.04   0.00   0.00
    12   6     0.03   0.10   0.02    -0.10   0.06  -0.02     0.03   0.00   0.01
    13   6    -0.03   0.20   0.03    -0.05   0.05   0.00     0.02  -0.01   0.00
    14   1     0.32  -0.29   0.06     0.37  -0.14   0.11    -0.16   0.11  -0.11
    15   6    -0.03  -0.19  -0.04     0.06   0.06   0.02    -0.02  -0.02  -0.01
    16   1     0.31   0.25   0.14    -0.38  -0.08  -0.12     0.17   0.07   0.04
    17   6    -0.10   0.00  -0.03     0.00  -0.09  -0.01     0.00   0.02   0.00
    18   1     0.29   0.38   0.13    -0.25  -0.04  -0.08     0.07   0.01   0.03
    19   1     0.30  -0.41   0.01     0.25  -0.06   0.06    -0.06   0.01  -0.02
    20   1    -0.12   0.00  -0.04     0.00  -0.52  -0.09     0.00   0.17   0.03
    21   7     0.00   0.00   0.00    -0.01  -0.05  -0.01    -0.03  -0.21   0.02
    22   1     0.00   0.00   0.00     0.06  -0.21   0.04     0.08  -0.13  -0.10
    23   1     0.00   0.01   0.00    -0.01   0.10   0.05     0.10  -0.40  -0.02
                     34                     35                     36
                      A                      A                      A
 Frequencies --   1144.1716              1176.8683              1199.4321
 Red. masses --      1.2069                 1.1491                 1.1692
 Frc consts  --      0.9309                 0.9377                 0.9911
 IR Inten    --      5.5317                 0.1504                 0.3345
  Atom  AN      X      Y      Z        X      Y      Z        X      Y      Z
     1   6    -0.01  -0.04  -0.04     0.00  -0.01  -0.01     0.00   0.00   0.00
     2   1     0.08   0.35  -0.25     0.01   0.03  -0.03     0.01   0.02  -0.01
     3   6     0.00  -0.01   0.01     0.00   0.00   0.00     0.00   0.00   0.00
     4   8     0.00   0.01   0.00     0.00   0.00   0.00     0.00   0.00   0.00
     5   8     0.01   0.01   0.00     0.00   0.00   0.00     0.00   0.00   0.00
     6   1     0.00  -0.01  -0.03     0.00   0.00   0.00     0.00   0.00   0.00
     7   6    -0.01   0.04   0.05     0.00   0.01   0.01    -0.01   0.00   0.00
     8   1    -0.37  -0.06   0.04    -0.04   0.00  -0.01    -0.02   0.00   0.00
     9   1     0.47  -0.02  -0.03     0.04  -0.01   0.00    -0.03  -0.01   0.01
    10   6     0.01   0.04  -0.02     0.00   0.00   0.00     0.02   0.00   0.01
    11   6     0.04  -0.02   0.01    -0.01   0.01   0.00     0.05  -0.03   0.01
    12   6    -0.05  -0.02  -0.01     0.01   0.01   0.00     0.05   0.03   0.02
    13   6    -0.02   0.00  -0.01     0.05   0.03   0.02    -0.05  -0.02  -0.02
    14   1     0.21  -0.13   0.02    -0.12   0.08  -0.03     0.40  -0.26   0.08
    15   6     0.03   0.00   0.01    -0.05   0.03  -0.01    -0.05   0.02  -0.01
    16   1    -0.21  -0.11  -0.10     0.13   0.07   0.05     0.40   0.21   0.15
    17   6     0.00   0.00   0.00     0.00  -0.08  -0.01     0.00   0.00   0.00
    18   1    -0.06  -0.02  -0.03     0.40   0.21   0.15    -0.44  -0.22  -0.16
    19   1     0.07  -0.03   0.01    -0.42   0.26  -0.07    -0.43   0.26  -0.07
    20   1     0.00  -0.12  -0.02     0.00  -0.67  -0.12     0.00   0.02   0.00
    21   7     0.00   0.01   0.04     0.00   0.00   0.01     0.00   0.00   0.00
    22   1    -0.10   0.35  -0.12    -0.01   0.04  -0.01     0.00   0.01   0.00
    23   1     0.05  -0.34  -0.09     0.00  -0.04  -0.01     0.01  -0.01   0.00
                     37                     38                     39
                      A                      A                      A
 Frequencies --   1211.7508              1215.9794              1253.0212
 Red. masses --      1.2840                 2.1547                 1.4703
 Frc consts  --      1.1108                 1.8771                 1.3601
 IR Inten    --     64.5808                16.7237                23.9518
  Atom  AN      X      Y      Z        X      Y      Z        X      Y      Z
     1   6    -0.02   0.00   0.01     0.01   0.00   0.00    -0.09   0.06   0.10
     2   1     0.13  -0.02  -0.04    -0.07   0.01   0.02     0.78  -0.12  -0.16
     3   6    -0.01   0.00   0.05     0.01  -0.01  -0.04    -0.01   0.06  -0.08
     4   8     0.01   0.00  -0.05    -0.01   0.01   0.03     0.01  -0.06   0.02
     5   8     0.01   0.00  -0.05     0.00   0.00   0.03     0.00   0.00   0.02
     6   1    -0.19  -0.03   0.92     0.12   0.01  -0.57     0.00   0.06  -0.09
     7   6    -0.04   0.01  -0.01    -0.10   0.02  -0.05    -0.02  -0.01   0.02
     8   1    -0.10  -0.01  -0.01    -0.33  -0.03   0.01     0.02   0.00   0.02
     9   1    -0.08   0.00   0.00    -0.31  -0.01   0.01     0.35   0.07  -0.11
    10   6     0.10   0.00   0.03     0.25   0.00   0.09     0.02   0.04  -0.01
    11   6     0.01   0.00   0.00     0.03  -0.01   0.01     0.02  -0.02   0.00
    12   6     0.01   0.00   0.00     0.02  -0.01   0.00    -0.01  -0.01   0.00
    13   6    -0.02   0.02   0.00    -0.06   0.06  -0.01    -0.02   0.00   0.00
    14   1    -0.10   0.08  -0.02    -0.26   0.20  -0.05     0.03  -0.02  -0.01
    15   6    -0.02  -0.02  -0.01    -0.05  -0.05  -0.02     0.01  -0.01   0.00
    16   1    -0.13  -0.08  -0.05    -0.32  -0.21  -0.12    -0.04  -0.03  -0.02
    17   6     0.01   0.00   0.00     0.02   0.00   0.01     0.00   0.01   0.00
    18   1    -0.07   0.00  -0.02    -0.19  -0.01  -0.05     0.02   0.02   0.01
    19   1    -0.07   0.01  -0.02    -0.19   0.02  -0.04    -0.05   0.03  -0.01
    20   1     0.01  -0.01   0.00     0.02  -0.01   0.00     0.00  -0.05  -0.01
    21   7     0.00   0.00   0.00     0.00   0.00   0.00     0.00  -0.02  -0.04
    22   1     0.00  -0.01   0.01     0.01  -0.02   0.00     0.07  -0.30   0.10
    23   1     0.00   0.00   0.00     0.00   0.02   0.00    -0.03   0.22   0.05
                     40                     41                     42
                      A                      A                      A
 Frequencies --   1277.6604              1320.5864              1340.3776
 Red. masses --      1.8234                 2.3527                 1.8329
 Frc consts  --      1.7538                 2.4174                 1.9402
 IR Inten    --     15.2400                12.6793               126.2697
  Atom  AN      X      Y      Z        X      Y      Z        X      Y      Z
     1   6     0.05   0.10   0.03     0.04   0.06   0.04    -0.07  -0.01   0.06
     2   1    -0.50  -0.07   0.33    -0.22  -0.05   0.19     0.09   0.57  -0.26
     3   6    -0.04   0.00   0.02    -0.05   0.00   0.00     0.15  -0.10   0.03
     4   8     0.01  -0.01  -0.01     0.01  -0.02   0.00    -0.03   0.09   0.00
     5   8     0.02   0.01   0.00     0.02   0.01   0.00    -0.05  -0.02  -0.01
     6   1    -0.04   0.00   0.05    -0.06   0.01   0.01     0.18  -0.11   0.06
     7   6     0.03  -0.06  -0.06    -0.03  -0.01  -0.02     0.09   0.01  -0.02
     8   1    -0.38  -0.09   0.30    -0.39  -0.07   0.13    -0.29  -0.05   0.21
     9   1     0.19   0.13  -0.21     0.54   0.09  -0.21    -0.27  -0.12   0.16
    10   6    -0.02   0.14   0.03     0.01  -0.11  -0.02    -0.02   0.01   0.01
    11   6     0.05  -0.05   0.00    -0.12   0.06  -0.02    -0.03   0.01  -0.01
    12   6    -0.05  -0.05  -0.02     0.13   0.05   0.04     0.02   0.00   0.00
    13   6    -0.05  -0.04  -0.02     0.11   0.06   0.04     0.01   0.00   0.00
    14   1     0.11  -0.10   0.01     0.22  -0.16   0.04     0.13  -0.10   0.04
    15   6     0.06  -0.04   0.01    -0.11   0.07  -0.02     0.00   0.01   0.00
    16   1    -0.05  -0.05  -0.01    -0.23  -0.14  -0.09    -0.11  -0.07  -0.02
    17   6     0.00   0.06   0.01     0.00  -0.14  -0.02     0.00  -0.03   0.00
    18   1     0.16   0.07   0.05    -0.11  -0.06  -0.04     0.07   0.03   0.02
    19   1    -0.14   0.09  -0.02     0.09  -0.06   0.01    -0.03   0.02   0.00
    20   1     0.00  -0.12  -0.02     0.00   0.23   0.04     0.00   0.07   0.01
    21   7    -0.01  -0.03  -0.04     0.00  -0.02  -0.02    -0.01  -0.01  -0.06
    22   1     0.05  -0.25   0.07     0.03  -0.14   0.04     0.06  -0.30   0.08
    23   1    -0.01   0.18   0.05     0.00   0.12   0.04    -0.03   0.28   0.05
                     43                     44                     45
                      A                      A                      A
 Frequencies --   1352.0009              1365.9201              1400.7569
 Red. masses --      1.5630                 1.3486                 2.5741
 Frc consts  --      1.6833                 1.4825                 2.9758
 IR Inten    --     37.8995                17.7627               178.8613
  Atom  AN      X      Y      Z        X      Y      Z        X      Y      Z
     1   6     0.02   0.00   0.04     0.00  -0.01  -0.01    -0.10   0.12  -0.08
     2   1    -0.23   0.21   0.05    -0.08  -0.04   0.03     0.02  -0.66   0.22
     3   6     0.09  -0.08   0.02     0.06  -0.02   0.01     0.25   0.09   0.04
     4   8    -0.02   0.07   0.00    -0.01   0.02   0.00    -0.02   0.00   0.00
     5   8    -0.03  -0.01  -0.01    -0.03  -0.01  -0.01    -0.13  -0.08  -0.03
     6   1     0.11  -0.08   0.04     0.08  -0.03   0.01     0.31   0.05   0.04
     7   6    -0.12  -0.01   0.02    -0.08  -0.03   0.02     0.02  -0.02   0.00
     8   1     0.29   0.06  -0.16     0.52   0.07  -0.22    -0.31  -0.08   0.10
     9   1     0.55   0.14  -0.23     0.08   0.13  -0.12     0.06   0.06  -0.06
    10   6     0.03  -0.05  -0.02     0.02   0.08   0.01     0.00  -0.01   0.00
    11   6     0.05  -0.02   0.01    -0.04   0.01  -0.01     0.00  -0.01   0.00
    12   6    -0.04   0.00  -0.01     0.04   0.02   0.02     0.00  -0.01   0.00
    13   6    -0.01   0.02   0.00    -0.03  -0.02  -0.01     0.02   0.01   0.01
    14   1    -0.28   0.20  -0.07     0.32  -0.21   0.05    -0.03   0.01  -0.01
    15   6    -0.01   0.00   0.00     0.03  -0.03   0.00    -0.02   0.01   0.00
    16   1     0.24   0.14   0.07    -0.35  -0.20  -0.14     0.05   0.01   0.01
    17   6     0.00   0.04   0.01     0.00  -0.04  -0.01     0.00   0.00   0.00
    18   1    -0.18  -0.07  -0.06     0.26   0.13   0.09    -0.07  -0.04  -0.03
    19   1     0.13  -0.08   0.02    -0.28   0.16  -0.05     0.07  -0.04   0.01
    20   1     0.00  -0.16  -0.03     0.00   0.25   0.04     0.00  -0.06  -0.01
    21   7    -0.01  -0.01  -0.03     0.00   0.00   0.01     0.02   0.00   0.06
    22   1     0.04  -0.12   0.01    -0.01   0.06  -0.02    -0.04   0.16  -0.02
    23   1     0.00   0.17   0.04     0.01  -0.03   0.00     0.03  -0.32  -0.07
                     46                     47                     48
                      A                      A                      A
 Frequencies --   1441.8059              1473.6894              1493.0986
 Red. masses --      3.2418                 1.9933                 1.1384
 Frc consts  --      3.9706                 2.5506                 1.4953
 IR Inten    --    209.6957                10.1924                 7.3492
  Atom  AN      X      Y      Z        X      Y      Z        X      Y      Z
     1   6     0.05  -0.13   0.04     0.00  -0.01   0.00     0.00   0.00  -0.01
     2   1    -0.40   0.67  -0.13     0.02   0.01  -0.02    -0.02  -0.04   0.01
     3   6     0.06   0.35   0.05    -0.01  -0.02   0.00     0.00   0.01   0.00
     4   8     0.02  -0.15   0.00     0.00   0.01   0.00     0.00   0.00   0.00
     5   8    -0.07  -0.08  -0.02     0.01   0.01   0.00     0.00   0.00   0.00
     6   1     0.02   0.32   0.03    -0.01  -0.02   0.00     0.00   0.01   0.00
     7   6    -0.01   0.01   0.00     0.01  -0.04   0.02    -0.06   0.02  -0.07
     8   1     0.05   0.02  -0.08     0.14  -0.04  -0.23     0.31   0.23   0.61
     9   1    -0.01   0.02   0.00    -0.21   0.21  -0.09     0.20  -0.57   0.27
    10   6     0.00   0.00   0.01     0.00   0.15   0.03     0.02   0.03   0.00
    11   6     0.00   0.00   0.00    -0.08  -0.04  -0.03    -0.02   0.00   0.00
    12   6     0.01   0.00   0.00     0.08  -0.05   0.01     0.02  -0.01   0.00
    13   6     0.01   0.00   0.00     0.12  -0.01   0.03     0.01  -0.01   0.00
    14   1    -0.01   0.00   0.00     0.12  -0.19   0.01     0.04  -0.04   0.00
    15   6    -0.01   0.00   0.00    -0.12   0.00  -0.03    -0.03   0.00  -0.01
    16   1    -0.01  -0.01   0.00    -0.11  -0.17  -0.06    -0.04  -0.04  -0.01
    17   6     0.00   0.00   0.00     0.00   0.12   0.02     0.01   0.03   0.01
    18   1    -0.02  -0.01  -0.01    -0.27  -0.24  -0.11    -0.01  -0.03  -0.01
    19   1     0.02  -0.02   0.00     0.28  -0.27   0.03     0.06  -0.06   0.00
    20   1     0.00  -0.03  -0.01     0.00  -0.58  -0.10     0.01  -0.11  -0.01
    21   7    -0.01  -0.01  -0.04     0.00   0.00   0.00     0.00   0.00   0.01
    22   1     0.06  -0.13   0.00     0.00   0.01  -0.01     0.00   0.00   0.01
    23   1     0.01   0.21   0.05     0.00   0.01   0.00    -0.01  -0.04  -0.02
                     49                     50                     51
                      A                      A                      A
 Frequencies --   1516.3313              1601.7016              1623.3082
 Red. masses --      2.1233                 5.1215                 5.2809
 Frc consts  --      2.8764                 7.7412                 8.1990
 IR Inten    --     12.6535                 0.4557                 4.7066
  Atom  AN      X      Y      Z        X      Y      Z        X      Y      Z
     1   6     0.00   0.00   0.00     0.00   0.00   0.00     0.00   0.01   0.00
     2   1    -0.01   0.00   0.00     0.00   0.00  -0.01    -0.01  -0.01   0.00
     3   6     0.00   0.00   0.00     0.00  -0.01   0.00     0.00   0.00   0.00
     4   8     0.00   0.00   0.00     0.00   0.00   0.00     0.00   0.00   0.00
     5   8     0.00   0.00   0.00     0.00   0.00   0.00     0.00   0.00   0.00
     6   1     0.00   0.00   0.00     0.00  -0.01   0.00     0.00   0.00   0.00
     7   6     0.03   0.00   0.00    -0.01  -0.03  -0.01     0.03   0.00   0.01
     8   1     0.06   0.02   0.07     0.22   0.04   0.03     0.01  -0.01   0.00
     9   1     0.04  -0.06   0.04    -0.12  -0.01   0.01     0.03   0.01   0.00
    10   6    -0.13   0.01  -0.03     0.00   0.28   0.05    -0.21   0.01  -0.05
    11   6     0.06  -0.10   0.00     0.09  -0.18  -0.01     0.28  -0.09   0.06
    12   6     0.07   0.09   0.03    -0.09  -0.17  -0.05     0.28   0.07   0.08
    13   6     0.11   0.10   0.05     0.06   0.19   0.05    -0.25  -0.05  -0.08
    14   1    -0.39   0.18  -0.08    -0.28   0.05  -0.08    -0.31   0.29  -0.04
    15   6     0.10  -0.11   0.01    -0.06   0.20   0.02    -0.25   0.08  -0.05
    16   1    -0.40  -0.15  -0.13     0.29   0.03   0.08    -0.31  -0.25  -0.12
    17   6    -0.10   0.01  -0.02     0.00  -0.34  -0.06     0.13  -0.01   0.03
    18   1    -0.44  -0.18  -0.15    -0.23   0.05  -0.05     0.24   0.22   0.10
    19   1    -0.42   0.21  -0.07     0.24   0.03   0.07     0.23  -0.24   0.02
    20   1    -0.12  -0.01  -0.03     0.01   0.49   0.09     0.15  -0.01   0.04
    21   7     0.00   0.00   0.00     0.00   0.00   0.00     0.00   0.00   0.00
    22   1     0.00   0.00   0.00     0.00  -0.01   0.01     0.00   0.00   0.00
    23   1    -0.01  -0.01   0.00    -0.01  -0.01  -0.01    -0.01  -0.01   0.00
                     52                     53                     54
                      A                      A                      A
 Frequencies --   1659.4407              1944.8646              3007.8296
 Red. masses --      1.1005                 1.1141                 1.0654
 Frc consts  --      1.7855                 2.4829                 5.6790
 IR Inten    --     36.5929                28.1479                15.5808
  Atom  AN      X      Y      Z        X      Y      Z        X      Y      Z
     1   6     0.03  -0.01   0.00     0.01  -0.01   0.00     0.01   0.01   0.01
     2   1    -0.02   0.06  -0.01     0.01   0.00   0.00    -0.07  -0.08  -0.18
     3   6     0.00   0.00   0.00    -0.09   0.03  -0.02     0.00   0.00   0.00
     4   8     0.00   0.00   0.00     0.00   0.00   0.00     0.00   0.00   0.00
     5   8     0.00   0.00   0.00     0.00   0.00   0.00     0.00   0.00   0.00
     6   1    -0.01   0.00   0.00     0.91  -0.36   0.17     0.00   0.00   0.00
     7   6    -0.01   0.00   0.00     0.00   0.00   0.00    -0.02  -0.01  -0.07
     8   1     0.02   0.00  -0.04     0.00   0.00   0.00     0.09  -0.37   0.06
     9   1     0.01   0.02  -0.01     0.00   0.00   0.00     0.17   0.48   0.74
    10   6     0.00   0.00   0.00     0.00   0.00   0.00     0.00   0.00   0.00
    11   6     0.00   0.00   0.00     0.00   0.00   0.00     0.00   0.00   0.00
    12   6     0.00   0.00   0.00     0.00   0.00   0.00     0.00   0.00   0.00
    13   6     0.00   0.00   0.00     0.00   0.00   0.00     0.00   0.00   0.00
    14   1     0.01   0.00   0.00     0.00   0.00   0.00     0.00  -0.01   0.00
    15   6     0.00   0.00   0.00     0.00   0.00   0.00     0.00   0.00   0.00
    16   1     0.00   0.00   0.00     0.00   0.00   0.00     0.00   0.01   0.00
[...]
 ,0.00010700,0.00006771,-0.00001804,-0.00007345,-0.00005917,-0.00004102
 ,0.00001685,0.00005733,0.00018577,0.00001415,0.00004676,0.00012617,-0.
 00000973,0.00000284,-0.00007445,0.00000296,0.00137952,0.00081150,0.000
 13526,0.00008124,0.00017288,-0.00026196,-0.00081905,0.00007977,-0.0005
 8274,0.01530120,-0.01866314,0.00768828,0.11192252,-0.25144942,0.063199
 57,-0.00401116,-0.00305281,0.00042762,-0.00310566,0.00566727,-0.001436
 92,-0.12111283,0.26515959,0.00056617,0.00155107,0.00033461,0.00003750,
 0.00000511,0.00003403,0.00018752,-0.00012711,-0.00028509,-0.00005889,-
 0.00011262,0.00002713,-0.00001058,-0.00012326,0.00002663,-0.00000836,0
 .00006079,0.00002341,0.00175025,-0.00117173,-0.00252482,-0.00014167,0.
 00004453,-0.00012569,-0.00032529,0.00030363,-0.00037295,-0.00152363,0.
 00037333,0.00294661,-0.04076824,0.06119601,-0.05689396,-0.00087233,0.0
 0063997,0.00636379,-0.00306009,0.00725615,0.00137645,0.04663486,-0.068
 17120,0.04788775,-0.00024537,0.00044201,0.00085799,-0.00022444,0.00011
 911,0.00029546,0.00015379,0.00004894,0.00004433,0.00006888,-0.00008157
 ,0.00004414,-0.00001101,-0.00007591,-0.00004298,-0.00001576,0.00007695
 ,-0.00001525,0.00310076,0.00188686,-0.00306567,-0.00019063,-0.00047830
 ,-0.00001969,-0.00087583,-0.00010435,0.00052855,-0.02501411,0.07065794
 ,-0.02078126,-0.04750486,-0.02966586,-0.00641176,-0.30253083,-0.041424
 46,-0.05609635,0.06008057,-0.01917068,0.01740759,-0.00063123,-0.000767
 68,0.00014046,0.62486210,-0.00046849,-0.00008319,0.00059453,-0.0000681
 5,-0.00001971,-0.00009184,0.00005877,-0.00009880,0.00012652,-0.0000306
 7,0.00018071,-0.00001539,-0.00009352,0.00016284,-0.00008570,0.00004192
 ,-0.00007924,0.00001323,0.00199103,-0.00377643,0.00203902,0.00004524,0
 .00024032,-0.00003240,0.00092878,-0.00006434,0.00053219,0.02542456,0.0
 3752424,0.00041237,-0.03001634,-0.02009204,-0.00541570,0.01987228,-0.1
 2706813,0.01643313,0.02526733,-0.05595966,0.01775333,-0.00067714,0.000
 08933,-0.00052709,-0.01497273,0.68712730,-0.00157744,0.00025120,-0.000
 29375,-0.00010543,0.00004674,-0.00004211,0.00003425,0.00031887,0.00049
 477,0.00002540,-0.00016192,-0.00000792,-0.00015251,-0.00009212,-0.0001
 3203,-0.00004662,0.00007365,-0.00005732,-0.00150967,0.00143976,0.00623
 764,0.00004737,0.00021243,-0.00012915,0.00090109,-0.00020848,0.0002068
 6,-0.01233284,0.01357886,0.00023820,-0.00590723,-0.00547262,-0.0061876
 6,-0.06648727,-0.00004214,-0.08041350,0.00951305,0.00584408,0.00893036
 ,0.00013526,-0.00035129,-0.00089711,0.13149620,-0.09748070,0.18641596,
 -0.00015787,0.00019920,0.00000292,-0.00003130,0.00002705,0.00004767,-0
 .00016296,0.00008798,0.00000158,0.00014574,-0.00006033,-0.00000071,0.0
 0007911,-0.00010589,0.00001280,-0.00005973,0.00007025,-0.00000904,0.00
 075290,0.00144367,0.00115403,-0.00006687,-0.00003210,-0.00021092,0.000
 14491,-0.00015554,0.00005316,0.00915965,0.01310728,-0.00083889,-0.0004
 7432,0.00289019,-0.00234905,-0.11752652,-0.11368879,-0.00317505,-0.000
 69430,0.00068665,-0.00002829,0.00046874,0.00073827,-0.00003403,-0.0096
 4886,-0.02802819,0.00144267,0.12273284,0.00039278,-0.00017204,-0.00004
 030,0.00007939,-0.00014542,-0.00008314,0.00019133,-0.00027367,-0.00007
 840,-0.00014826,0.00018730,-0.00002564,-0.00004840,0.00021478,0.000005
 88,0.00008239,-0.00012835,0.00003009,-0.00158175,0.00040138,-0.0013541
 7,0.00104886,0.00057915,0.00050070,-0.00006565,0.00045151,0.00003537,-
 0.01474744,-0.01888179,-0.00027533,0.00363674,-0.00244647,0.00240532,-
 0.11306764,-0.26703818,0.00815426,0.00086587,0.00020354,0.00002216,-0.
 00081085,-0.00101408,0.00006991,0.00146084,0.00219337,0.00055727,0.122
 90045,0.28292247,0.00050695,-0.00017200,0.00031188,0.00009273,-0.00006
 531,-0.00005612,-0.00002047,-0.00013230,-0.00017353,-0.00002818,0.0000
 5026,-0.00007660,0.00004132,0.00004853,0.00004941,0.00001881,-0.000041
 35,0.00003041,0.00191594,0.00031932,-0.00314383,-0.00047740,-0.0003928
 3,0.00009306,-0.00043549,0.00015180,0.00000165,0.00335457,0.00717893,0
 .00299266,-0.00243556,0.00246268,0.00543111,-0.00317396,0.00749377,-0.
 03832622,-0.00015087,-0.00002624,-0.00101760,0.00027053,0.00040279,0.0
 0021750,-0.00347168,-0.00722552,0.00322781,0.00582289,-0.00983925,0.02
 865392,-0.00028720,-0.00055330,-0.00053095,0.00005169,-0.00005106,-0.0
 0007343,0.00036546,0.00034416,0.00029767,-0.00016730,-0.00010916,-0.00
 001365,-0.00028036,-0.00002460,-0.00009157,0.00001872,0.00000638,-0.00
 002275,-0.00057100,0.00056647,0.00048949,0.00007487,0.00011774,-0.0000
 2904,-0.00015830,-0.00015356,0.00004649,0.00093578,0.00013405,0.001603
 62,-0.02576560,0.02619946,-0.01303468,-0.02496127,-0.02940141,-0.00351
 377,-0.17034284,0.10426674,-0.04604168,-0.00451693,-0.00120749,-0.0032
 8298,-0.16879357,-0.11354677,-0.00829446,-0.00472425,-0.00008402,-0.00
 310476,0.69111327,0.00014473,0.00000531,-0.00057194,0.00012878,-0.0000
 9379,-0.00023951,-0.00020771,-0.00013793,-0.00007382,-0.00006211,0.000
 03421,-0.00003081,0.00005641,0.00005167,0.00003890,0.00001028,-0.00006
 131,0.00001257,-0.00021967,-0.00122421,0.00082733,0.00019321,0.0003210
 1,0.00022585,0.00014384,0.00043125,-0.00055325,0.00059601,-0.06734563,
 0.01113289,0.07017532,0.03831734,0.01353075,-0.07407070,0.02719917,-0.
 02336188,0.04321893,-0.25553251,0.04411585,-0.00181540,0.00168993,0.00
 047570,-0.05257113,-0.27288013,0.02191381,0.00084750,0.00212077,0.0010
 0554,0.02594279,0.62057971,0.00011732,0.00003183,0.00003704,0.00002433
 ,-0.00000562,0.00000683,0.00011189,0.00005982,-0.00001392,-0.00004732,
 -0.00002644,0.00000689,-0.00006099,-0.00002824,-0.00001667,0.00000511,
 0.00000645,0.00000196,-0.00003774,0.00016753,-0.00113796,-0.00010251,-
 0.00002137,-0.00005691,-0.00023192,-0.00017956,0.00002524,0.00204493,0
 .01052377,-0.00757506,-0.02079136,0.00183622,0.00105870,0.00415706,-0.
 01101307,0.01031197,-0.03553606,0.06034156,-0.08275310,-0.00254508,0.0
 0037368,0.00648735,-0.01862516,0.00602921,-0.06900644,-0.00330937,0.00
 077960,0.00620519,0.14155301,-0.07640844,0.18480045,0.00001605,-0.0002
 2433,-0.00012936,0.00001219,-0.00000149,-0.00000360,0.00016479,0.00003
 382,0.00007282,-0.00009797,0.00002122,0.00001807,-0.00009926,0.0000572
 5,-0.00003373,0.00002999,-0.00003691,-0.00000129,-0.00015416,-0.001426
 99,0.00008508,-0.00046395,-0.00004351,-0.00006475,0.00001996,0.0000415
 0,-0.00001458,-0.00449032,0.00075847,-0.00318581,-0.00970198,-0.028014
 94,0.00143219,-0.00084695,0.00085423,-0.00013188,-0.11945988,-0.115171
 02,-0.00212306,0.00073964,0.00057070,0.00114815,-0.00032652,0.00276655
 ,-0.00241323,-0.00002121,-0.00005589,0.00027598,0.01099273,0.01478638,
 -0.00045601,0.12290885,-0.00003224,-0.00005189,-0.00002835,0.00001089,
 -0.00000560,-0.00001319,0.00010807,0.00003915,0.00005202,-0.00005524,-
 0.00001036,-0.00000556,-0.00007558,0.00001392,-0.00002209,0.00001578,-
 0.00000970,-0.00000081,0.00024743,-0.00004572,0.00006996,-0.00002002,0
 .00000947,-0.00001018,-0.00004392,0.00001448,-0.00000665,0.00003147,0.
 00208962,0.00092159,0.00138180,0.00214448,0.00053793,0.00080143,0.0003
 2244,0.00000131,-0.11517622,-0.26944975,0.00971691,-0.00017191,0.00062
 610,-0.00087742,0.00358010,-0.00244600,0.00256963,-0.00004299,-0.00006
 271,-0.00017768,-0.01476814,-0.01766637,-0.00033631,0.12450056,0.28466
 252,0.00000040,0.00000725,0.00002485,-0.00000058,0.00002270,-0.0000082
 9,0.00004586,0.00002400,0.00003226,-0.00001857,-0.00001760,-0.00000944
 ,-0.00002657,0.00000133,-0.00001914,0.00000357,0.00000050,0.00000269,0
 .00004651,-0.00034678,0.00017622,-0.00002328,-0.00002652,-0.00012218,-
 0.00000685,0.00003931,-0.00003514,-0.00331491,0.00103692,0.00640991,-0
 .00356406,-0.00741941,0.00355501,-0.00011962,-0.00002806,-0.00096349,-
 0.00214222,0.00973259,-0.03882856,0.00110969,-0.00048450,-0.00365167,-
 0.00257829,0.00236454,0.00593226,0.00027759,-0.00016988,-0.00092731,0.
 00467855,0.00748148,0.00292703,0.00432966,-0.01176014,0.02882630,-0.00
 013238,-0.00010132,-0.00017087,0.00001882,0.00001033,0.00001202,0.0001
 7519,0.00015499,0.00009353,-0.00007618,-0.00009580,0.00000977,-0.00009
 575,-0.00004201,-0.00002406,0.00000330,0.00002228,-0.00001508,-0.00024
 709,0.00120821,-0.00041494,0.00003961,-0.00002082,0.00003152,-0.000393
 12,0.00002116,-0.00009006,-0.00442097,-0.00189595,-0.00261772,-0.00077
 388,-0.00080458,0.00019685,-0.00982322,0.02692515,-0.00783493,-0.00029
 759,-0.00337520,-0.00135145,-0.00000218,0.00013564,0.00024863,-0.12168
 151,0.10932551,-0.04094559,0.00064965,-0.00019601,0.00125179,0.0110758
 1,-0.01376425,0.00442307,0.00037501,-0.00074896,0.00017973,0.12514420,
 0.00001411,0.00001184,0.00005254,-0.00000545,0.00000173,0.00001883,-0.
 00007102,-0.00003561,-0.00002895,0.00004965,0.00002487,-0.00000251,0.0
 0005090,0.00000534,0.00000868,-0.00000925,0.00000054,0.00000275,-0.000
 19917,0.00008009,-0.00003043,0.00001094,-0.00001248,-0.00001109,0.0000
 3343,-0.00001191,-0.00001629,-0.00118240,0.00196442,0.00056551,-0.0007
 8676,0.00011594,-0.00040557,-0.00274351,0.00458139,-0.00098863,-0.0042
 3290,-0.00309726,0.00062854,0.00011565,-0.00002808,-0.00013250,0.10939
 556,-0.24810754,0.06436903,0.00058530,0.00063564,-0.00062062,0.0158169
 9,-0.01749399,0.00758489,0.00078259,-0.00098260,0.00041353,-0.11753872
 ,0.26155902,-0.00008321,-0.00002677,0.00002576,0.00002220,-0.00002441,
 0.00000082,0.00010222,0.00006632,0.00005643,-0.00003016,-0.00003230,-0
 .00001416,-0.00005942,-0.00000438,-0.00002980,0.00000590,0.00000686,0.
 00000201,0.00012687,0.00037504,0.00009291,0.00000456,-0.00003345,-0.00
 002640,-0.00000774,0.00004953,-0.00003904,-0.00302202,0.00047074,0.006
 31378,0.00013967,-0.00046497,-0.00087241,-0.00297100,0.00664123,0.0010
 6928,-0.00119537,0.00086271,0.00667014,0.00021660,-0.00010951,-0.00098
 592,-0.04087168,0.06425813,-0.05764132,0.00113938,-0.00080228,-0.00353
 960,-0.00055621,-0.00005259,0.00287864,-0.00008092,0.00000029,0.000164
 13,0.04595791,-0.07056275,0.04938701,-0.00000911,0.00000106,-0.0000438
 9,0.00001172,-0.00001295,-0.00001305,0.00011884,0.00003107,0.00004807,
 -0.00007446,-0.00002717,-0.00000207,-0.00008031,0.00000942,-0.00002073
 ,0.00001949,-0.00000714,-0.00000197,-0.00012112,-0.00000515,0.00019207
 ,0.00001579,0.00000700,0.00001384,0.00002395,0.00000789,0.00001221,0.0
 0061389,0.00013301,0.00039070,0.00104969,0.00277551,-0.00203924,0.0011
 7318,-0.00322390,-0.00100025,-0.01050846,-0.00349406,-0.00287458,-0.00
 055699,-0.00026599,-0.00019712,-0.01027521,0.00211645,-0.00378961,-0.0
 0059904,0.00014284,-0.00024615,-0.31404988,-0.01369115,-0.07038738,0.0
 0048102,0.00049168,0.00104877,0.00047286,-0.00011346,0.00117160,0.3323
 7265,0.00000844,-0.00006646,-0.00001276,0.00001273,-0.00000944,-0.0000
 1181,0.00000747,-0.00002750,-0.00000577,-0.00000839,0.00003463,-0.0000
 0129,0.00000076,0.00003110,0.00000073,0.00000940,-0.00001863,0.0000024
 8,0.00004572,0.00011046,-0.00016289,0.00008932,0.00003285,0.00003313,-
 0.00007927,0.00005484,-0.00004702,0.00002545,-0.00134421,0.00010200,0.
 00194091,-0.00393264,0.00240616,-0.00236098,-0.00438825,0.00134806,0.0
 2610729,0.00576326,0.00627849,0.00121291,0.00016148,0.00040782,-0.0275
 0491,0.00331182,-0.00727432,-0.00137997,-0.00002827,-0.00032683,-0.013
 65207,-0.05901199,0.00040667,-0.00036017,0.00078424,-0.00089784,0.0007
 3332,0.00081068,-0.00060594,0.01510266,0.05766482,0.00014807,0.0001106
 6,0.00005525,0.00000383,0.00000329,0.00001568,0.00004434,-0.00002059,-
 0.00006490,-0.00001461,0.00000323,0.00000625,-0.00000267,-0.00000482,0
 .00001392,0.00000612,0.00000061,0.00000497,0.00050937,-0.00014989,-0.0
 0086173,-0.00004129,-0.00008116,0.00002928,-0.00009954,0.00014044,-0.0
 0002542,0.00018636,-0.00000138,-0.00083780,-0.00185817,0.00262555,0.00
 608426,-0.00114587,0.00113106,0.00668253,-0.00801760,-0.00132993,0.000
 92746,-0.00045694,-0.00005139,0.00001934,0.00124242,0.00038060,0.00308
 457,-0.00000518,0.00006862,0.00021312,-0.07033209,0.00034713,-0.054329
 20,0.00119928,-0.00065930,-0.00341287,0.00102953,-0.00082376,-0.003517
 58,0.07767724,-0.00158940,0.04591337,-0.05393488,0.02409070,-0.0084915
 8,0.00102255,0.01206989,0.00163228,-0.00254055,-0.02806723,-0.00354191
 ,-0.00429577,-0.00633983,-0.00052582,-0.00072367,-0.00590535,-0.000470
 74,0.00041995,0.00199806,0.00010869,0.00411203,0.01516877,0.00087226,-
 0.00160272,0.00086828,0.00220167,0.00071789,-0.00088988,-0.00077210,-0
 .00035986,-0.00019563,-0.00111813,-0.00162210,-0.00128066,0.00196267,0
 .00058474,-0.00018410,0.00033279,0.00034414,0.00084324,0.00054754,-0.0
 0065520,0.00154632,-0.00097005,-0.00046015,0.00007189,-0.00003840,0.00
 000318,0.00011308,-0.00005345,0.00003764,0.00029361,-0.00026691,0.0000
 3918,-0.00003743,0.00004655,-0.00000496,0.00004644,-0.00002035,-0.0000
 9538,0.00008480,-0.00012421,0.19281221,-0.01593607,-0.21694521,-0.0010
 9040,-0.00021111,-0.02154413,-0.00157252,-0.01034802,-0.03473444,-0.00
 391737,-0.00844658,-0.00173360,-0.00155953,0.00189995,0.00427322,0.000
 83772,0.00154229,-0.00364051,0.00043786,0.00424466,-0.02372150,-0.0075
 6925,0.00209027,-0.00052075,-0.00224718,-0.00142050,0.00165124,0.00123
 554,-0.00325241,0.00047615,-0.00084100,-0.00007600,-0.00057807,0.00103
 490,0.00112514,-0.00025317,0.00047733,0.00060493,0.00034759,0.00047393
 ,0.00054048,0.00004585,-0.00114905,-0.00070818,-0.00016769,-0.00011171
 ,-0.00009087,0.00025804,-0.00006168,0.00016248,0.00061515,-0.00009615,
 0.00019874,0.00003451,0.00002927,0.00005293,-0.00001750,-0.00000381,0.
 00003373,0.00005413,-0.00009058,-0.14675385,0.54097261,-0.01143666,-0.
 00955238,-0.10690588,0.00267508,0.03153685,0.00403558,0.00006401,-0.00
 872321,0.00224542,-0.00158584,-0.00085982,0.00077808,0.00058600,0.0001
 6214,-0.00022962,0.00020668,-0.00039280,0.00014780,-0.00190907,-0.0314
 3128,-0.00468048,0.00466340,-0.00308991,-0.00357222,-0.00149203,-0.000
 50058,0.00321525,-0.00135979,0.00058749,0.00089702,0.00113471,0.001223
 36,-0.00060456,0.00029102,-0.00020330,0.00033279,0.00021744,-0.0005959
 0,0.00024986,-0.00019567,-0.00083460,-0.00001751,0.00000034,-0.0000381
 0,0.00006635,0.00001507,0.00001592,-0.00018722,0.00030211,0.00011089,0
 .00017276,0.00007837,0.00003535,-0.00009194,0.00004237,-0.00003164,-0.
 00000669,0.00007509,-0.00005972,-0.00000065,0.07015355,0.02091583,0.74
 003658,-0.00361011,-0.00912717,0.00429153,0.00054381,-0.00071252,0.000
 15644,0.00327641,-0.00211727,0.00261297,-0.00123669,0.00171209,-0.0005
 4198,0.00020139,0.00211661,-0.00051108,0.00045524,-0.00178201,-0.00004
 107,-0.00027515,0.00059343,-0.00151907,0.00014125,-0.00035766,0.000377
 08,0.00001219,0.00034285,0.00075000,-0.00007893,0.00008027,0.00019314,
 -0.00021091,0.00093636,-0.00023094,-0.00000328,-0.00008151,0.00009259,
 0.00004176,-0.00039247,0.00010631,-0.00070760,-0.00018490,0.00020063,0
 .00002737,-0.00005924,0.00001330,0.00001993,-0.00005826,-0.00000567,0.
 00010526,0.00002710,0.00000573,-0.00002805,0.00001925,-0.00002308,0.00
 001621,-0.00002153,-0.00000019,0.00003820,-0.00003994,0.00001812,-0.10
 371168,0.11488682,-0.16516521,0.10387225,0.01788597,-0.01824295,0.0292
 2726,-0.00054840,-0.00614800,-0.00149553,0.00217301,-0.00094519,0.0022
 0955,-0.00077937,0.00157267,-0.00055578,0.00012195,0.00224766,-0.00060
 331,0.00022750,-0.00143987,0.00000634,-0.00046027,0.00029029,0.0007895
 5,-0.00007975,0.00016445,-0.00031102,0.00036860,0.00020184,-0.00100886
 ,0.00003708,0.00017432,-0.00003341,-0.00008619,0.00007993,-0.00001530,
 -0.00008252,-0.00008783,-0.00003260,0.00004658,-0.00004236,0.00004327,
 -0.00000484,0.00010428,-0.00001122,-0.00007334,0.00001038,-0.00001716,
 0.00000711,0.00000108,0.00001881,-0.00000385,0.00003639,-0.00000522,-0
 .00002545,-0.00000491,-0.00001587,-0.00001456,0.00000036,-0.00000273,-
 0.00000311,-0.00000162,-0.00000353,0.08949192,-0.13737938,0.11655707,-
 0.09907151,0.15126360,0.00299693,-0.00093226,0.00407170,0.00022430,-0.
 00123796,0.00142509,-0.00065981,-0.00030547,0.00045948,-0.00003380,-0.
 00102316,0.00016889,-0.00052845,-0.00111150,-0.00062059,0.00001115,0.0
 0052551,-0.00007011,-0.00014221,-0.00025971,0.00223787,-0.00010523,0.0
 0016579,-0.00033430,-0.00019546,0.00033507,-0.00067195,0.00000478,0.00
 003765,-0.00023704,-0.00007742,-0.00016143,0.00005343,0.00002411,-0.00
 001699,-0.00009904,0.00006616,0.00004659,-0.00000708,0.00011703,0.0000
 3459,0.00007483,-0.00006342,-0.00001036,0.00000616,-0.00001072,0.00001
 680,0.00001125,-0.00001291,0.00005484,-0.00001054,0.00000518,-0.000000
 78,0.00001305,-0.00000855,0.00000442,0.00000993,-0.00000439,0.00000830
 ,-0.00000308,-0.12998793,0.12002645,-0.26491038,0.14744393,-0.13344603
 ,0.27813751,-0.00679482,-0.00683387,-0.00309448,0.00042874,0.00045274,
 0.00030459,0.00164434,-0.00303583,-0.00188134,-0.00115130,0.00040285,0
 .00026481,-0.00029421,0.00108369,0.00076301,0.00012649,-0.00081481,0.0
 0013452,0.00010023,0.00380125,0.00120984,-0.00063214,0.00066245,0.0007
 2170,0.00015932,-0.00011159,-0.00040177,0.00116476,0.00005173,0.000353
 60,-0.00007148,-0.00028816,-0.00016803,-0.00025403,0.00008112,-0.00023
 351,-0.00025590,0.00006711,-0.00026339,0.00005917,0.00022774,0.0003391
 0,0.00013640,0.00005091,-0.00000831,0.00001056,-0.00005040,0.00005212,
 -0.00015271,-0.00016277,-0.00004463,-0.00008916,-0.00001580,0.00005115
 ,-0.00002183,0.00000263,0.00001139,-0.00002131,0.00000453,0.00003348,-
 0.03008662,0.05986116,0.10263903,0.00111116,-0.00912653,-0.01906327,0.
 03488433,0.00960465,-0.01173052,-0.03243773,0.00050690,0.00112048,0.00
 038798,0.00174235,-0.00184608,-0.00107166,-0.00073128,0.00045310,0.000
 33797,-0.00021864,0.00100189,0.00008985,0.00005733,-0.00063759,0.00003
 341,-0.00186536,-0.00572279,0.00088142,0.00119037,-0.00032271,-0.00120
 445,-0.00018889,0.00021600,0.00001113,-0.00025722,0.00013489,-0.000004
 68,-0.00004724,-0.00022976,0.00007686,0.00012039,-0.00005247,0.0000722
 5,0.00007026,0.00011391,-0.00003935,0.00015652,0.00014805,0.00001918,-
 0.00006918,0.00000257,0.00003714,-0.00000624,0.00002194,-0.00005080,-0
 .00000182,0.00004594,-0.00002082,-0.00001131,-0.00000530,0.00001320,0.
 00000865,-0.00000488,-0.00000496,-0.00000823,0.00001468,-0.00000545,0.
 04296696,-0.10749255,-0.11483164,-0.00670879,0.00814487,0.01724964,-0.
 04631018,0.11662634,0.00151157,0.00404783,0.00331980,-0.00017928,0.000
 38349,0.00110600,-0.00016259,0.00028220,-0.00004927,0.00029870,0.00079
 487,-0.00010465,0.00011148,0.00058910,0.00027729,0.00002759,-0.0002867
 7,0.00004965,-0.00037008,0.00005708,0.00074328,0.00015981,0.00014168,0
 .00028791,-0.00009777,0.00005721,0.00047128,0.00011928,-0.00010764,0.0
 0004281,-0.00004447,0.00006544,-0.00000554,0.00004609,0.00000082,0.000
 04527,0.00001595,-0.00001095,-0.00000658,0.00005121,-0.00003548,-0.000
 06472,-0.00001430,-0.00001399,-0.00003264,0.00000149,0.00000652,0.0000
 0905,-0.00003599,0.00001872,-0.00002026,-0.00000657,-0.00000654,0.0000
 0631,-0.00000349,0.00000600,0.00000207,-0.00000917,0.00000177,0.000003
 22,0.06852359,-0.12515859,-0.37097033,0.01177654,-0.01129428,-0.019705
 08,-0.08171961,0.13046151,0.38459515\\0.00019313,-0.00522211,0.0000880
 3,0.00143122,-0.00044398,0.00118264,0.04996221,0.02057640,0.00965894,-
 0.00355805,-0.03356056,-0.00018371,-0.02464015,0.02363350,-0.00567261,
 -0.02138270,-0.00896536,-0.00386152,0.00172308,-0.00081318,-0.00076717
 ,-0.00084405,-0.00217640,-0.00033757,-0.00075413,0.00116259,-0.0013141
 2,-0.00330783,0.00004617,-0.00054974,-0.00203583,0.00466349,-0.0014900
 0,-0.00146351,-0.00445023,0.00029327,0.00196016,0.00390667,-0.00009309
 ,-0.00077464,0.00046765,0.00008088,0.00180882,-0.00386119,0.00112647,-
 0.00062195,-0.00081706,-0.00000604,0.00434174,0.00026062,0.00107347,0.
 00041821,0.00082707,-0.00003148,0.00043798,-0.00081035,0.00027736,0.00
 095871,0.00004595,0.00023993,-0.01019533,0.00083486,0.00108691,0.00255
 157,0.00245302,-0.00408101,0.00379133,0.00224245,0.00328017\\\@


 I SUPPOSE A BABY LLAMA HAS A MMAMA AND A PPOPA.
     -- RICHARD AMOUR
 Job cpu time:       0 days  2 hours  7 minutes  7.7 seconds.
 File lengths (MBytes):  RWF=    243 Int=      0 D2E=      0 Chk=     10 Scr=      1
 Normal termination of Gaussian 09 at Wed Mar 30 12:36:21 2016.
