 Entering Gaussian System, Link 0=g09
 Input=/root/gau/com/test/Ala-R-opt-6-311gdp.com
 Output=/root/gau/com/test/Ala-R-opt-6-311gdp.log
 Initial command:
 /usr/local/gau/g09/l1.exe "/tmp/Gau-6092.inp" -scrdir="/tmp/"
 Entering Link 1 = /usr/local/gau/g09/l1.exe PID=      6095.
  
 Copyright (c) 1988,1990,1992,1993,1995,1998,2003,2009,2013,
            Gaussian, Inc.  All Rights Reserved.
  
 This is part of the Gaussian(R) 09 program.  It is based on
 the Gaussian(R) 03 system (copyright 2003, Gaussian, Inc.),
 the Gaussian(R) 98 system (copyright 1998, Gaussian, Inc.),
 the Gaussian(R) 94 system (copyright 1995, Gaussian, Inc.),
 the Gaussian 92(TM) system (copyright 1992, Gaussian, Inc.),
 the Gaussian 90(TM) system (copyright 1990, Gaussian, Inc.),
 the Gaussian 88(TM) system (copyright 1988, Gaussian, Inc.),
 the Gaussian 86(TM) system (copyright 1986, Carnegie Mellon
 University), and the Gaussian 82(TM) system (copyright 1983,
 Carnegie Mellon University). Gaussian is a federally registered
 trademark of Gaussian, Inc.
  
 This software contains proprietary and confidential information,
 including trade secrets, belonging to Gaussian, Inc.
  
 This software is provided under written license and may be
 used, copied, transmitted, or stored only in accord with that
 written license.
  
 The following legend is applicable only to US Government
 contracts under FAR:
  
                    RESTRICTED RIGHTS LEGEND
  
 Use, reproduction and disclosure by the US Government is
 subject to restrictions as set forth in subparagraphs (a)
 and (c) of the Commercial Computer Software - Restricted
 Rights clause in FAR 52.227-19.
  
 Gaussian, Inc.
 340 Quinnipiac St., Bldg. 40, Wallingford CT 06492
  
  
 ---------------------------------------------------------------
 Warning -- This program may not be used in any manner that
 competes with the business of Gaussian, Inc. or will provide
 assistance to any competitor of Gaussian, Inc.  The licensee
 of this program is prohibited from giving any competitor of
 Gaussian, Inc. access to this program.  By using this program,
 the user acknowledges that Gaussian, Inc. is engaged in the
 business of creating and licensing software in the field of
 computational chemistry and represents and warrants to the
 licensee that it is not a competitor of Gaussian, Inc. and that
 it will not use this program in any manner prohibited above.
 ---------------------------------------------------------------
  

 Cite this work as:
 Gaussian 09, Revision D.01,
 M. J. Frisch, G. W. Trucks, H. B. Schlegel, G. E. Scuseria, 
 M. A. Robb, J. R. Cheeseman, G. Scalmani, V. Barone, B. Mennucci, 
 G. A. Petersson, H. Nakatsuji, M. Caricato, X. Li, H. P. Hratchian, 
 A. F. Izmaylov, J. Bloino, G. Zheng, J. L. Sonnenberg, M. Hada, 
 M. Ehara, K. Toyota, R. Fukuda, J. Hasegawa, M. Ishida, T. Nakajima, 
 Y. Honda, O. Kitao, H. Nakai, T. Vreven, J. A. Montgomery, Jr., 
 J. E. Peralta, F. Ogliaro, M. Bearpark, J. J. Heyd, E. Brothers, 
 K. N. Kudin, V. N. Staroverov, T. Keith, R. Kobayashi, J. Normand, 
 K. Raghavachari, A. Rendell, J. C. Burant, S. S. Iyengar, J. Tomasi, 
 M. Cossi, N. Rega, J. M. Millam, M. Klene, J. E. Knox, J. B. Cross, 
 V. Bakken, C. Adamo, J. Jaramillo, R. Gomperts, R. E. Stratmann, 
 O. Yazyev, A. J. Austin, R. Cammi, C. Pomelli, J. W. Ochterski, 
 R. L. Martin, K. Morokuma, V. G. Zakrzewski, G. A. Voth, 
 P. Salvador, J. J. Dannenberg, S. Dapprich, A. D. Daniels, 
 O. Farkas, J. B. Foresman, J. V. Ortiz, J. Cioslowski, 
 and D. J. Fox, Gaussian, Inc., Wallingford CT, 2013.
 
 ******************************************
 Gaussian 09:  ES64L-G09RevD.01 24-Apr-2013
                28-Mar-2016 
 ******************************************
 %chk=Ala-R-opt-6-311gdp.chk
 -------------------------------------------
 # opt b3lyp/6-311++g(d,p) geom=connectivity
 -------------------------------------------
 1/14=-1,18=20,19=15,26=3,38=1,57=2/1,3;
 2/9=110,12=2,17=6,18=5,40=1/2;
 3/5=4,6=6,7=1111,11=2,16=1,25=1,30=1,71=1,74=-5/1,2,3;
 4//1;
 5/5=2,38=5/2;
 6/7=2,8=2,9=2,10=2,28=1/1;
 7//1,2,3,16;
 1/14=-1,18=20,19=15,26=3/3(2);
 2/9=110/2;
 99//99;
 2/9=110/2;
 3/5=4,6=6,7=1111,11=2,16=1,25=1,30=1,71=1,74=-5/1,2,3;
 4/5=5,16=3,69=1/1;
 5/5=2,38=5/2;
 7//1,2,3,16;
 1/14=-1,18=20,19=15,26=3/3(-5);
 2/9=110/2;
 6/7=2,8=2,9=2,10=2,19=2,28=1/1;
 99/9=1/99;
 -----------------------
 Ala-R-opt-6-311++g(d,p)
 -----------------------
 Symbolic Z-matrix:
 Charge =  0 Multiplicity = 1
 C                    -0.66545  -0.13696  -0.39831 
 H                    -0.64283  -0.49218  -1.43312 
 C                     0.78114   0.17245  -0.00205 
 O                     1.14527   1.13175   0.6309 
 O                     1.63921  -0.78382  -0.43679 
 H                     2.52538  -0.54072  -0.1279 
 N                    -1.5479    1.01753  -0.32927 
 H                    -1.24067   1.7472   -0.96438 
 H                    -1.52553   1.42019   0.60338 
 C                    -1.2032   -1.27028   0.49052 
 H                    -2.21803  -1.5179    0.17646 
 H                    -0.57731  -2.16125   0.41941 
 H                    -1.23645  -0.9528    1.53716 
 

 GradGradGradGradGradGradGradGradGradGradGradGradGradGradGradGradGradGrad
 Berny optimization.
 Initialization pass.
                           ----------------------------
                           !    Initial Parameters    !
                           ! (Angstroms and Degrees)  !
 --------------------------                            --------------------------
 ! Name  Definition              Value          Derivative Info.                !
 --------------------------------------------------------------------------------
 ! R1    R(1,2)                  1.0943         estimate D2E/DX2                !
 ! R2    R(1,3)                  1.5315         estimate D2E/DX2                !
 ! R3    R(1,7)                  1.4548         estimate D2E/DX2                !
 ! R4    R(1,10)                 1.5374         estimate D2E/DX2                !
 ! R5    R(3,4)                  1.2056         estimate D2E/DX2                !
 ! R6    R(3,5)                  1.3564         estimate D2E/DX2                !
 ! R7    R(5,6)                  0.9694         estimate D2E/DX2                !
 ! R8    R(7,8)                  1.015          estimate D2E/DX2                !
 ! R9    R(7,9)                  1.0161         estimate D2E/DX2                !
 ! R10   R(10,11)                1.0908         estimate D2E/DX2                !
 ! R11   R(10,12)                1.0912         estimate D2E/DX2                !
 ! R12   R(10,13)                1.0942         estimate D2E/DX2                !
 ! A1    A(2,1,3)              106.9022         estimate D2E/DX2                !
 ! A2    A(2,1,7)              108.3622         estimate D2E/DX2                !
 ! A3    A(2,1,10)             108.3393         estimate D2E/DX2                !
 ! A4    A(3,1,7)              113.6005         estimate D2E/DX2                !
 ! A5    A(3,1,10)             109.2528         estimate D2E/DX2                !
 ! A6    A(7,1,10)             110.2061         estimate D2E/DX2                !
 ! A7    A(1,3,4)              125.5846         estimate D2E/DX2                !
 ! A8    A(1,3,5)              111.8504         estimate D2E/DX2                !
 ! A9    A(4,3,5)              122.5605         estimate D2E/DX2                !
 ! A10   A(3,5,6)              107.4194         estimate D2E/DX2                !
 ! A11   A(1,7,8)              110.9286         estimate D2E/DX2                !
 ! A12   A(1,7,9)              110.1631         estimate D2E/DX2                !
 ! A13   A(8,7,9)              106.4273         estimate D2E/DX2                !
 ! A14   A(1,10,11)            109.0446         estimate D2E/DX2                !
 ! A15   A(1,10,12)            111.3223         estimate D2E/DX2                !
 ! A16   A(1,10,13)            110.4712         estimate D2E/DX2                !
 ! A17   A(11,10,12)           109.2407         estimate D2E/DX2                !
 ! A18   A(11,10,13)           108.2393         estimate D2E/DX2                !
 ! A19   A(12,10,13)           108.4619         estimate D2E/DX2                !
 ! D1    D(2,1,3,4)            138.1174         estimate D2E/DX2                !
 ! D2    D(2,1,3,5)            -42.6453         estimate D2E/DX2                !
 ! D3    D(7,1,3,4)             18.6416         estimate D2E/DX2                !
 ! D4    D(7,1,3,5)           -162.1211         estimate D2E/DX2                !
 ! D5    D(10,1,3,4)          -104.8523         estimate D2E/DX2                !
 ! D6    D(10,1,3,5)            74.3849         estimate D2E/DX2                !
 ! D7    D(2,1,7,8)            -57.4355         estimate D2E/DX2                !
 ! D8    D(2,1,7,9)           -175.0144         estimate D2E/DX2                !
 ! D9    D(3,1,7,8)             61.205          estimate D2E/DX2                !
 ! D10   D(3,1,7,9)            -56.3738         estimate D2E/DX2                !
 ! D11   D(10,1,7,8)          -175.8228         estimate D2E/DX2                !
 ! D12   D(10,1,7,9)            66.5983         estimate D2E/DX2                !
 ! D13   D(2,1,10,11)          -61.4086         estimate D2E/DX2                !
 ! D14   D(2,1,10,12)           59.1871         estimate D2E/DX2                !
 ! D15   D(2,1,10,13)          179.7559         estimate D2E/DX2                !
 ! D16   D(3,1,10,11)         -177.5263         estimate D2E/DX2                !
 ! D17   D(3,1,10,12)          -56.9306         estimate D2E/DX2                !
 ! D18   D(3,1,10,13)           63.6383         estimate D2E/DX2                !
 ! D19   D(7,1,10,11)           56.9927         estimate D2E/DX2                !
 ! D20   D(7,1,10,12)          177.5884         estimate D2E/DX2                !
 ! D21   D(7,1,10,13)          -61.8427         estimate D2E/DX2                !
 ! D22   D(1,3,5,6)           -178.1628         estimate D2E/DX2                !
 ! D23   D(4,3,5,6)              1.1012         estimate D2E/DX2                !
 --------------------------------------------------------------------------------
 Trust Radius=3.00D-01 FncErr=1.00D-07 GrdErr=1.00D-06
 Number of steps in this run=     64 maximum allowed number of steps=    100.
 GradGradGradGradGradGradGradGradGradGradGradGradGradGradGradGradGradGrad

                          Input orientation:                          
 ---------------------------------------------------------------------
 Center     Atomic      Atomic             Coordinates (Angstroms)
 Number     Number       Type             X           Y           Z
 ---------------------------------------------------------------------
      1          6           0       -0.665450   -0.136964   -0.398314
      2          1           0       -0.642833   -0.492184   -1.433125
      3          6           0        0.781139    0.172453   -0.002051
      4          8           0        1.145273    1.131754    0.630905
      5          8           0        1.639205   -0.783818   -0.436789
      6          1           0        2.525382   -0.540718   -0.127895
      7          7           0       -1.547904    1.017535   -0.329267
      8          1           0       -1.240675    1.747203   -0.964378
      9          1           0       -1.525534    1.420193    0.603377
     10          6           0       -1.203198   -1.270285    0.490520
     11          1           0       -2.218028   -1.517903    0.176463
     12          1           0       -0.577309   -2.161249    0.419414
     13          1           0       -1.236449   -0.952799    1.537158
 ---------------------------------------------------------------------
                    Distance matrix (angstroms):
                    1          2          3          4          5
     1  C    0.000000
     2  H    1.094316   0.000000
     3  C    1.531464   2.125420   0.000000
     4  O    2.438781   3.177218   1.205605   0.000000
     5  O    2.394021   2.507077   1.356366   2.247966   0.000000
     6  H    3.227623   3.426888   1.888606   2.297311   0.969444
     7  N    1.454771   2.077717   2.499135   2.861500   3.662527
     8  H    2.049731   2.364739   2.737452   2.935380   3.870158
     9  H    2.041535   2.929793   2.691494   2.686479   3.994394
    10  C    1.537405   2.149386   2.502342   3.362263   3.029160
    11  H    2.155889   2.474694   3.447343   4.305693   3.974067
    12  H    2.184990   2.494389   2.732980   3.722349   2.746513
    13  H    2.176621   3.063842   2.775972   3.292303   3.492049
                    6          7          8          9         10
     6  H    0.000000
     7  N    4.365817   0.000000
     8  H    4.485250   1.014974   0.000000
     9  H    4.559589   1.016100   1.626634   0.000000
    10  C    3.849287   2.454586   3.350129   2.712067   0.000000
    11  H    4.852572   2.670818   3.594113   3.048640   1.090791
    12  H    3.542931   3.406941   4.198921   3.709407   1.091151
    13  H    4.134439   2.731806   3.680722   2.566439   1.094236
                   11         12         13
    11  H    0.000000
    12  H    1.779011   0.000000
    13  H    1.770404   1.773180   0.000000
 Stoichiometry    C3H7NO2
 Framework group  C1[X(C3H7NO2)]
 Deg. of freedom    33
 Full point group                 C1      NOp   1
 Largest Abelian subgroup         C1      NOp   1
 Largest concise Abelian subgroup C1      NOp   1
                         Standard orientation:                         
 ---------------------------------------------------------------------
 Center     Atomic      Atomic             Coordinates (Angstroms)
 Number     Number       Type             X           Y           Z
 ---------------------------------------------------------------------
      1          6           0        0.665450    0.136964   -0.398314
      2          1           0        0.642833    0.492184   -1.433125
      3          6           0       -0.781139   -0.172453   -0.002051
      4          8           0       -1.145273   -1.131754    0.630905
      5          8           0       -1.639205    0.783818   -0.436789
      6          1           0       -2.525382    0.540718   -0.127895
      7          7           0        1.547904   -1.017535   -0.329267
      8          1           0        1.240675   -1.747203   -0.964378
      9          1           0        1.525534   -1.420193    0.603377
     10          6           0        1.203198    1.270285    0.490520
     11          1           0        2.218028    1.517903    0.176463
     12          1           0        0.577309    2.161249    0.419414
     13          1           0        1.236449    0.952799    1.537158
 ---------------------------------------------------------------------
 Rotational constants (GHZ):      5.0556524      3.0368889      2.2636471
 Standard basis: 6-311++G(d,p) (5D, 7F)
 There are   187 symmetry adapted cartesian basis functions of A   symmetry.
 There are   181 symmetry adapted basis functions of A   symmetry.
   181 basis functions,   279 primitive gaussians,   187 cartesian basis functions
    24 alpha electrons       24 beta electrons
       nuclear repulsion energy       248.5223900601 Hartrees.
 NAtoms=   13 NActive=   13 NUniq=   13 SFac= 1.00D+00 NAtFMM=   60 NAOKFM=F Big=F
 Integral buffers will be    131072 words long.
 Raffenetti 2 integral format.
 Two-electron integral symmetry is turned on.
 One-electron integrals computed using PRISM.
 NBasis=   181 RedAO= T EigKep=  2.72D-05  NBF=   181
 NBsUse=   181 1.00D-06 EigRej= -1.00D+00 NBFU=   181
 ExpMin= 3.60D-02 ExpMax= 8.59D+03 ExpMxC= 1.30D+03 IAcc=3 IRadAn=         5 AccDes= 0.00D+00
 Harris functional with IExCor=  402 and IRadAn=       5 diagonalized for initial guess.
 HarFok:  IExCor=  402 AccDes= 0.00D+00 IRadAn=         5 IDoV= 1 UseB2=F ITyADJ=14
 ICtDFT=  3500011 ScaDFX=  1.000000  1.000000  1.000000  1.000000
 FoFCou: FMM=F IPFlag=           0 FMFlag=      100000 FMFlg1=           0
         NFxFlg=           0 DoJE=T BraDBF=F KetDBF=T FulRan=T
         wScrn=  0.000000 ICntrl=     500 IOpCl=  0 I1Cent=   200000004 NGrid=           0
         NMat0=    1 NMatS0=      1 NMatT0=    0 NMatD0=    1 NMtDS0=    0 NMtDT0=    0
 Petite list used in FoFCou.
 Requested convergence on RMS density matrix=1.00D-08 within 128 cycles.
 Requested convergence on MAX density matrix=1.00D-06.
 Requested convergence on             energy=1.00D-06.
 No special actions if energy rises.
 SCF Done:  E(RB3LYP) =  -323.856079572     A.U. after   13 cycles
            NFock= 13  Conv=0.39D-08     -V/T= 2.0038

 **********************************************************************

            Population analysis using the SCF density.

 **********************************************************************

 Orbital symmetries:
       Occupied  (A) (A) (A) (A) (A) (A) (A) (A) (A) (A) (A) (A)
                 (A) (A) (A) (A) (A) (A) (A) (A) (A) (A) (A) (A)
       Virtual   (A) (A) (A) (A) (A) (A) (A) (A) (A) (A) (A) (A)
                 (A) (A) (A) (A) (A) (A) (A) (A) (A) (A) (A) (A)
                 (A) (A) (A) (A) (A) (A) (A) (A) (A) (A) (A) (A)
                 (A) (A) (A) (A) (A) (A) (A) (A) (A) (A) (A) (A)
                 (A) (A) (A) (A) (A) (A) (A) (A) (A) (A) (A) (A)
                 (A) (A) (A) (A) (A) (A) (A) (A) (A) (A) (A) (A)
                 (A) (A) (A) (A) (A) (A) (A) (A) (A) (A) (A) (A)
                 (A) (A) (A) (A) (A) (A) (A) (A) (A) (A) (A) (A)
                 (A) (A) (A) (A) (A) (A) (A) (A) (A) (A) (A) (A)
                 (A) (A) (A) (A) (A) (A) (A) (A) (A) (A) (A) (A)
                 (A) (A) (A) (A) (A) (A) (A) (A) (A) (A) (A) (A)
                 (A) (A) (A) (A) (A) (A) (A) (A) (A) (A) (A) (A)
                 (A) (A) (A) (A) (A) (A) (A) (A) (A) (A) (A) (A)
                 (A)
 The electronic state is 1-A.
 Alpha  occ. eigenvalues --  -19.18441 -19.12918 -14.30488 -10.31397 -10.22757
 Alpha  occ. eigenvalues --  -10.17601  -1.12533  -1.03701  -0.90537  -0.76426
 Alpha  occ. eigenvalues --   -0.67970  -0.60088  -0.52874  -0.50556  -0.49868
 Alpha  occ. eigenvalues --   -0.46480  -0.44596  -0.42751  -0.39379  -0.38849
 Alpha  occ. eigenvalues --   -0.36950  -0.34163  -0.29831  -0.26140
 Alpha virt. eigenvalues --   -0.01791  -0.01427   0.00114   0.01132   0.01886
 Alpha virt. eigenvalues --    0.04345   0.04552   0.05271   0.06682   0.07215
 Alpha virt. eigenvalues --    0.08471   0.09812   0.10154   0.10584   0.11183
 Alpha virt. eigenvalues --    0.11835   0.12920   0.13440   0.14372   0.15200
 Alpha virt. eigenvalues --    0.16072   0.16483   0.17992   0.19020   0.20106
 Alpha virt. eigenvalues --    0.20617   0.21921   0.22766   0.23108   0.24011
 Alpha virt. eigenvalues --    0.24595   0.25346   0.27164   0.28510   0.28693
 Alpha virt. eigenvalues --    0.29507   0.30969   0.31844   0.33237   0.34424
 Alpha virt. eigenvalues --    0.35251   0.37250   0.40357   0.44831   0.46129
 Alpha virt. eigenvalues --    0.48810   0.51337   0.53824   0.56724   0.57072
 Alpha virt. eigenvalues --    0.58476   0.61339   0.62649   0.64173   0.65830
 Alpha virt. eigenvalues --    0.67539   0.70139   0.71437   0.72199   0.73822
 Alpha virt. eigenvalues --    0.81364   0.84861   0.85129   0.88693   0.95632
 Alpha virt. eigenvalues --    0.95781   1.03750   1.06564   1.09363   1.12537
 Alpha virt. eigenvalues --    1.15142   1.15191   1.18086   1.20642   1.23919
 Alpha virt. eigenvalues --    1.26671   1.28351   1.29144   1.42515   1.43142
 Alpha virt. eigenvalues --    1.45772   1.50026   1.52315   1.54165   1.57567
 Alpha virt. eigenvalues --    1.59243   1.59895   1.62682   1.64559   1.66753
 Alpha virt. eigenvalues --    1.67876   1.70114   1.75228   1.79616   1.82577
 Alpha virt. eigenvalues --    1.87553   1.92117   1.92179   1.94731   1.98405
 Alpha virt. eigenvalues --    2.03803   2.07454   2.12711   2.17577   2.20404
 Alpha virt. eigenvalues --    2.30194   2.35581   2.45826   2.48334   2.51070
 Alpha virt. eigenvalues --    2.52354   2.54369   2.58234   2.60134   2.65146
 Alpha virt. eigenvalues --    2.67650   2.69339   2.72330   2.76248   2.80232
 Alpha virt. eigenvalues --    2.80930   2.86593   2.88646   2.92019   2.95382
 Alpha virt. eigenvalues --    3.00715   3.04753   3.09299   3.13033   3.17784
 Alpha virt. eigenvalues --    3.23480   3.26248   3.36552   3.56348   3.59654
 Alpha virt. eigenvalues --    3.66821   3.76444   3.80059   3.82142   4.03615
 Alpha virt. eigenvalues --    4.07195   4.11142   4.24850   4.72378   4.85499
 Alpha virt. eigenvalues --    4.95263   5.05391   5.17126   5.37821   5.59222
 Alpha virt. eigenvalues --    5.82881  23.78631  23.80395  23.95429  35.59926
 Alpha virt. eigenvalues --   49.85907  49.98929
          Condensed to atoms (all electrons):
               1          2          3          4          5          6
     1  C    7.156124   0.473906  -0.620438  -0.012064  -0.265496  -0.026899
     2  H    0.473906   0.554217  -0.074076  -0.002333   0.004143   0.001621
     3  C   -0.620438  -0.074076   5.819036   0.454289   0.261944   0.029452
     4  O   -0.012064  -0.002333   0.454289   8.058296  -0.150501  -0.001954
     5  O   -0.265496   0.004143   0.261944  -0.150501   8.075776   0.244580
     6  H   -0.026899   0.001621   0.029452  -0.001954   0.244580   0.461844
     7  N   -0.106616  -0.056362   0.059576  -0.039606   0.038864   0.001152
     8  H   -0.064457  -0.015649   0.014398  -0.002112   0.000033  -0.000391
     9  H   -0.005853   0.009309  -0.000779   0.003955  -0.001876  -0.000174
    10  C   -0.186471  -0.090844   0.070655  -0.036645  -0.045620   0.005546
    11  H   -0.020087  -0.008080  -0.005192  -0.000350  -0.002797  -0.000498
    12  H   -0.043194  -0.013867  -0.013735   0.004725   0.009511  -0.001617
    13  H    0.038308   0.009750  -0.025657  -0.003149  -0.000017  -0.000074
               7          8          9         10         11         12
     1  C   -0.106616  -0.064457  -0.005853  -0.186471  -0.020087  -0.043194
     2  H   -0.056362  -0.015649   0.009309  -0.090844  -0.008080  -0.013867
     3  C    0.059576   0.014398  -0.000779   0.070655  -0.005192  -0.013735
     4  O   -0.039606  -0.002112   0.003955  -0.036645  -0.000350   0.004725
     5  O    0.038864   0.000033  -0.001876  -0.045620  -0.002797   0.009511
     6  H    0.001152  -0.000391  -0.000174   0.005546  -0.000498  -0.001617
     7  N    6.678448   0.397835   0.378415  -0.000938  -0.009650   0.012620
     8  H    0.397835   0.461823  -0.048428   0.014524  -0.000070  -0.000070
     9  H    0.378415  -0.048428   0.441382  -0.024428   0.000926   0.000228
    10  C   -0.000938   0.014524  -0.024428   5.532078   0.395591   0.413082
    11  H   -0.009650  -0.000070   0.000926   0.395591   0.523539  -0.019742
    12  H    0.012620  -0.000070   0.000228   0.413082  -0.019742   0.548971
    13  H   -0.021522   0.000973   0.001683   0.352583  -0.034723  -0.037494
              13
     1  C    0.038308
     2  H    0.009750
     3  C   -0.025657
     4  O   -0.003149
     5  O   -0.000017
     6  H   -0.000074
     7  N   -0.021522
     8  H    0.000973
     9  H    0.001683
    10  C    0.352583
    11  H   -0.034723
    12  H   -0.037494
    13  H    0.565301
 Mulliken charges:
               1
     1  C   -0.316764
     2  H    0.208265
     3  C    0.030528
     4  O   -0.272551
     5  O   -0.168544
     6  H    0.287412
     7  N   -0.332215
     8  H    0.241590
     9  H    0.245640
    10  C   -0.399114
    11  H    0.181134
    12  H    0.140582
    13  H    0.154038
 Sum of Mulliken charges =   0.00000
 Mulliken charges with hydrogens summed into heavy atoms:
               1
     1  C   -0.108499
     3  C    0.030528
     4  O   -0.272551
     5  O    0.118867
     7  N    0.155015
    10  C    0.076639
 Electronic spatial extent (au):  <R**2>=            585.8656
 Charge=              0.0000 electrons
 Dipole moment (field-independent basis, Debye):
    X=             -0.7006    Y=              1.0085    Z=             -0.4428  Tot=              1.3054
 Quadrupole moment (field-independent basis, Debye-Ang):
   XX=            -37.0831   YY=            -37.9195   ZZ=            -36.3643
   XY=             -1.6408   XZ=              1.9332   YZ=              2.5772
 Traceless Quadrupole moment (field-independent basis, Debye-Ang):
   XX=              0.0392   YY=             -0.7972   ZZ=              0.7580
   XY=             -1.6408   XZ=              1.9332   YZ=              2.5772
 Octapole moment (field-independent basis, Debye-Ang**2):
  XXX=            -40.1557  YYY=             -5.2115  ZZZ=             -1.5670  XYY=              5.3836
  XXY=              7.7898  XXZ=              3.3170  XZZ=              0.8013  YZZ=             -2.3663
  YYZ=             -2.8808  XYZ=             -4.9247
 Hexadecapole moment (field-independent basis, Debye-Ang**3):
 XXXX=           -376.4033 YYYY=           -239.4448 ZZZZ=            -94.8786 XXXY=             -4.3989
 XXXZ=             11.7063 YYYX=            -14.8340 YYYZ=              3.9388 ZZZX=              0.0551
 ZZZY=             -0.6114 XXYY=           -111.1647 XXZZ=            -87.0810 YYZZ=            -55.9207
 XXYZ=             -0.7167 YYXZ=              0.7271 ZZXY=             -4.0850
 N-N= 2.485223900601D+02 E-N=-1.255628710915D+03  KE= 3.226391932951D+02
 Calling FoFJK, ICntrl=      2127 FMM=F ISym2X=0 I1Cent= 0 IOpClX= 0 NMat=1 NMatS=1 NMatT=0.
 ***** Axes restored to original set *****
 -------------------------------------------------------------------
 Center     Atomic                   Forces (Hartrees/Bohr)
 Number     Number              X              Y              Z
 -------------------------------------------------------------------
      1        6          -0.000014216   -0.000022214   -0.000002979
      2        1           0.000007101    0.000008653    0.000000499
      3        6           0.000009711    0.000017217    0.000010422
      4        8          -0.000000817    0.000003933    0.000007166
      5        8           0.000002500   -0.000018042   -0.000007198
      6        1           0.000000932   -0.000002349    0.000005113
      7        7          -0.000003005   -0.000005044   -0.000008760
      8        1           0.000005874    0.000017158   -0.000005653
      9        1          -0.000001309    0.000007714    0.000008320
     10        6           0.000010894   -0.000020425    0.000002545
     11        1          -0.000004949    0.000004287   -0.000002383
     12        1          -0.000005083    0.000002863   -0.000003088
     13        1          -0.000007633    0.000006249   -0.000004003
 -------------------------------------------------------------------
 Cartesian Forces:  Max     0.000022214 RMS     0.000009006

 GradGradGradGradGradGradGradGradGradGradGradGradGradGradGradGradGradGrad
 Berny optimization.
 FormGI is forming the generalized inverse of G from B-inverse, IUseBI=4.
 Internal  Forces:  Max     0.000016778 RMS     0.000005905
 Search for a local minimum.
 Step number   1 out of a maximum of   64
 All quantities printed in internal units (Hartrees-Bohrs-Radians)
 Mixed Optimization -- En-DIIS/RFO-DIIS
 Second derivative matrix not updated -- first step.
 ITU=  0
     Eigenvalues ---    0.00271   0.00350   0.00805   0.00967   0.02269
     Eigenvalues ---    0.04358   0.04379   0.05383   0.05474   0.05706
     Eigenvalues ---    0.06216   0.16000   0.16000   0.16000   0.16000
     Eigenvalues ---    0.16000   0.16000   0.17141   0.18940   0.24999
     Eigenvalues ---    0.25000   0.28750   0.29289   0.34319   0.34328
     Eigenvalues ---    0.34680   0.34721   0.37627   0.44966   0.45150
     Eigenvalues ---    0.53491   0.53689   1.02056
 RFO step:  Lambda= 0.00000000D+00 EMin= 2.71147274D-03
 Linear search not attempted -- first point.
 Iteration  1 RMS(Cart)=  0.00008332 RMS(Int)=  0.00000000
 Iteration  2 RMS(Cart)=  0.00000000 RMS(Int)=  0.00000000
 Variable       Old X    -DE/DX   Delta X   Delta X   Delta X     New X
                                 (Linear)    (Quad)   (Total)
    R1        2.06796   0.00000   0.00000  -0.00001  -0.00001   2.06795
    R2        2.89405   0.00001   0.00000   0.00004   0.00004   2.89409
    R3        2.74912   0.00002   0.00000   0.00004   0.00004   2.74916
    R4        2.90527   0.00001   0.00000   0.00003   0.00003   2.90530
    R5        2.27826   0.00001   0.00000   0.00001   0.00001   2.27827
    R6        2.56316   0.00002   0.00000   0.00003   0.00003   2.56319
    R7        1.83198   0.00000   0.00000   0.00000   0.00000   1.83199
    R8        1.91802   0.00002   0.00000   0.00003   0.00003   1.91806
    R9        1.92015   0.00001   0.00000   0.00002   0.00002   1.92018
   R10        2.06130   0.00000   0.00000   0.00001   0.00001   2.06130
   R11        2.06198   0.00000   0.00000  -0.00001  -0.00001   2.06197
   R12        2.06781   0.00000   0.00000   0.00000   0.00000   2.06781
    A1        1.86579   0.00000   0.00000  -0.00007  -0.00007   1.86573
    A2        1.89128   0.00000   0.00000  -0.00003  -0.00003   1.89125
    A3        1.89088   0.00000   0.00000   0.00006   0.00006   1.89094
    A4        1.98270   0.00000   0.00000  -0.00001  -0.00001   1.98269
    A5        1.90682   0.00000   0.00000   0.00000   0.00000   1.90682
    A6        1.92346   0.00000   0.00000   0.00004   0.00004   1.92350
    A7        2.19186   0.00000   0.00000   0.00002   0.00002   2.19188
    A8        1.95216  -0.00001   0.00000  -0.00006  -0.00006   1.95210
    A9        2.13908   0.00001   0.00000   0.00004   0.00004   2.13913
   A10        1.87482   0.00000   0.00000   0.00000   0.00000   1.87482
   A11        1.93607   0.00001   0.00000   0.00005   0.00005   1.93612
   A12        1.92271   0.00000   0.00000   0.00003   0.00003   1.92274
   A13        1.85751  -0.00001   0.00000  -0.00003  -0.00003   1.85748
   A14        1.90319   0.00000   0.00000  -0.00001  -0.00001   1.90318
   A15        1.94294   0.00000   0.00000   0.00003   0.00003   1.94297
   A16        1.92809  -0.00001   0.00000  -0.00006  -0.00006   1.92803
   A17        1.90661   0.00000   0.00000   0.00003   0.00003   1.90664
   A18        1.88913   0.00000   0.00000  -0.00004  -0.00004   1.88909
   A19        1.89302   0.00001   0.00000   0.00005   0.00005   1.89307
    D1        2.41060   0.00000   0.00000   0.00002   0.00002   2.41062
    D2       -0.74430   0.00000   0.00000   0.00005   0.00005  -0.74426
    D3        0.32536   0.00000   0.00000   0.00010   0.00010   0.32546
    D4       -2.82955   0.00000   0.00000   0.00013   0.00013  -2.82941
    D5       -1.83002   0.00000   0.00000   0.00005   0.00005  -1.82997
    D6        1.29826   0.00000   0.00000   0.00008   0.00008   1.29834
    D7       -1.00244   0.00000   0.00000  -0.00002  -0.00002  -1.00246
    D8       -3.05458   0.00000   0.00000  -0.00003  -0.00003  -3.05461
    D9        1.06823   0.00000   0.00000  -0.00013  -0.00013   1.06810
   D10       -0.98391   0.00000   0.00000  -0.00014  -0.00014  -0.98405
   D11       -3.06869   0.00000   0.00000  -0.00010  -0.00010  -3.06879
   D12        1.16236   0.00000   0.00000  -0.00011  -0.00011   1.16225
   D13       -1.07178   0.00000   0.00000   0.00000   0.00000  -1.07178
   D14        1.03301   0.00000   0.00000   0.00005   0.00005   1.03306
   D15        3.13733   0.00000   0.00000   0.00009   0.00009   3.13742
   D16       -3.09842   0.00000   0.00000   0.00005   0.00005  -3.09837
   D17       -0.99363   0.00000   0.00000   0.00009   0.00009  -0.99353
   D18        1.11070   0.00000   0.00000   0.00014   0.00014   1.11083
   D19        0.99471   0.00000   0.00000   0.00003   0.00003   0.99474
   D20        3.09950   0.00000   0.00000   0.00007   0.00007   3.09957
   D21       -1.07936   0.00000   0.00000   0.00012   0.00012  -1.07924
   D22       -3.10953   0.00000   0.00000  -0.00001  -0.00001  -3.10954
   D23        0.01922   0.00000   0.00000   0.00002   0.00002   0.01924
         Item               Value     Threshold  Converged?
 Maximum Force            0.000017     0.000450     YES
 RMS     Force            0.000006     0.000300     YES
 Maximum Displacement     0.000235     0.001800     YES
 RMS     Displacement     0.000083     0.001200     YES
 Predicted change in Energy=-4.562452D-09
 Optimization completed.
    -- Stationary point found.
                           ----------------------------
                           !   Optimized Parameters   !
                           ! (Angstroms and Degrees)  !
 --------------------------                            --------------------------
 ! Name  Definition              Value          Derivative Info.                !
 --------------------------------------------------------------------------------
 ! R1    R(1,2)                  1.0943         -DE/DX =    0.0                 !
 ! R2    R(1,3)                  1.5315         -DE/DX =    0.0                 !
 ! R3    R(1,7)                  1.4548         -DE/DX =    0.0                 !
 ! R4    R(1,10)                 1.5374         -DE/DX =    0.0                 !
 ! R5    R(3,4)                  1.2056         -DE/DX =    0.0                 !
 ! R6    R(3,5)                  1.3564         -DE/DX =    0.0                 !
 ! R7    R(5,6)                  0.9694         -DE/DX =    0.0                 !
 ! R8    R(7,8)                  1.015          -DE/DX =    0.0                 !
 ! R9    R(7,9)                  1.0161         -DE/DX =    0.0                 !
 ! R10   R(10,11)                1.0908         -DE/DX =    0.0                 !
 ! R11   R(10,12)                1.0912         -DE/DX =    0.0                 !
 ! R12   R(10,13)                1.0942         -DE/DX =    0.0                 !
 ! A1    A(2,1,3)              106.9022         -DE/DX =    0.0                 !
 ! A2    A(2,1,7)              108.3622         -DE/DX =    0.0                 !
 ! A3    A(2,1,10)             108.3393         -DE/DX =    0.0                 !
 ! A4    A(3,1,7)              113.6005         -DE/DX =    0.0                 !
 ! A5    A(3,1,10)             109.2528         -DE/DX =    0.0                 !
 ! A6    A(7,1,10)             110.2061         -DE/DX =    0.0                 !
 ! A7    A(1,3,4)              125.5846         -DE/DX =    0.0                 !
 ! A8    A(1,3,5)              111.8504         -DE/DX =    0.0                 !
 ! A9    A(4,3,5)              122.5605         -DE/DX =    0.0                 !
 ! A10   A(3,5,6)              107.4194         -DE/DX =    0.0                 !
 ! A11   A(1,7,8)              110.9286         -DE/DX =    0.0                 !
 ! A12   A(1,7,9)              110.1631         -DE/DX =    0.0                 !
 ! A13   A(8,7,9)              106.4273         -DE/DX =    0.0                 !
 ! A14   A(1,10,11)            109.0446         -DE/DX =    0.0                 !
 ! A15   A(1,10,12)            111.3223         -DE/DX =    0.0                 !
 ! A16   A(1,10,13)            110.4712         -DE/DX =    0.0                 !
 ! A17   A(11,10,12)           109.2407         -DE/DX =    0.0                 !
 ! A18   A(11,10,13)           108.2393         -DE/DX =    0.0                 !
 ! A19   A(12,10,13)           108.4619         -DE/DX =    0.0                 !
 ! D1    D(2,1,3,4)            138.1174         -DE/DX =    0.0                 !
 ! D2    D(2,1,3,5)            -42.6453         -DE/DX =    0.0                 !
 ! D3    D(7,1,3,4)             18.6416         -DE/DX =    0.0                 !
 ! D4    D(7,1,3,5)           -162.1211         -DE/DX =    0.0                 !
 ! D5    D(10,1,3,4)          -104.8523         -DE/DX =    0.0                 !
 ! D6    D(10,1,3,5)            74.3849         -DE/DX =    0.0                 !
 ! D7    D(2,1,7,8)            -57.4355         -DE/DX =    0.0                 !
 ! D8    D(2,1,7,9)           -175.0144         -DE/DX =    0.0                 !
 ! D9    D(3,1,7,8)             61.205          -DE/DX =    0.0                 !
 ! D10   D(3,1,7,9)            -56.3738         -DE/DX =    0.0                 !
 ! D11   D(10,1,7,8)          -175.8228         -DE/DX =    0.0                 !
 ! D12   D(10,1,7,9)            66.5983         -DE/DX =    0.0                 !
 ! D13   D(2,1,10,11)          -61.4086         -DE/DX =    0.0                 !
 ! D14   D(2,1,10,12)           59.1871         -DE/DX =    0.0                 !
 ! D15   D(2,1,10,13)          179.7559         -DE/DX =    0.0                 !
 ! D16   D(3,1,10,11)         -177.5263         -DE/DX =    0.0                 !
 ! D17   D(3,1,10,12)          -56.9306         -DE/DX =    0.0                 !
 ! D18   D(3,1,10,13)           63.6383         -DE/DX =    0.0                 !
 ! D19   D(7,1,10,11)           56.9927         -DE/DX =    0.0                 !
 ! D20   D(7,1,10,12)          177.5884         -DE/DX =    0.0                 !
 ! D21   D(7,1,10,13)          -61.8427         -DE/DX =    0.0                 !
 ! D22   D(1,3,5,6)           -178.1628         -DE/DX =    0.0                 !
 ! D23   D(4,3,5,6)              1.1012         -DE/DX =    0.0                 !
 --------------------------------------------------------------------------------
 GradGradGradGradGradGradGradGradGradGradGradGradGradGradGradGradGradGrad

                          Input orientation:                          
 ---------------------------------------------------------------------
 Center     Atomic      Atomic             Coordinates (Angstroms)
 Number     Number       Type             X           Y           Z
 ---------------------------------------------------------------------
      1          6           0       -0.665450   -0.136964   -0.398314
      2          1           0       -0.642833   -0.492184   -1.433125
      3          6           0        0.781139    0.172453   -0.002051
      4          8           0        1.145273    1.131754    0.630905
      5          8           0        1.639205   -0.783818   -0.436789
      6          1           0        2.525382   -0.540718   -0.127895
      7          7           0       -1.547904    1.017535   -0.329267
      8          1           0       -1.240675    1.747203   -0.964378
      9          1           0       -1.525534    1.420193    0.603377
     10          6           0       -1.203198   -1.270285    0.490520
     11          1           0       -2.218028   -1.517903    0.176463
     12          1           0       -0.577309   -2.161249    0.419414
     13          1           0       -1.236449   -0.952799    1.537158
 ---------------------------------------------------------------------
                    Distance matrix (angstroms):
                    1          2          3          4          5
     1  C    0.000000
     2  H    1.094316   0.000000
     3  C    1.531464   2.125420   0.000000
     4  O    2.438781   3.177218   1.205605   0.000000
     5  O    2.394021   2.507077   1.356366   2.247966   0.000000
     6  H    3.227623   3.426888   1.888606   2.297311   0.969444
     7  N    1.454771   2.077717   2.499135   2.861500   3.662527
     8  H    2.049731   2.364739   2.737452   2.935380   3.870158
     9  H    2.041535   2.929793   2.691494   2.686479   3.994394
    10  C    1.537405   2.149386   2.502342   3.362263   3.029160
    11  H    2.155889   2.474694   3.447343   4.305693   3.974067
    12  H    2.184990   2.494389   2.732980   3.722349   2.746513
    13  H    2.176621   3.063842   2.775972   3.292303   3.492049
                    6          7          8          9         10
     6  H    0.000000
     7  N    4.365817   0.000000
     8  H    4.485250   1.014974   0.000000
     9  H    4.559589   1.016100   1.626634   0.000000
    10  C    3.849287   2.454586   3.350129   2.712067   0.000000
    11  H    4.852572   2.670818   3.594113   3.048640   1.090791
    12  H    3.542931   3.406941   4.198921   3.709407   1.091151
    13  H    4.134439   2.731806   3.680722   2.566439   1.094236
                   11         12         13
    11  H    0.000000
    12  H    1.779011   0.000000
    13  H    1.770404   1.773180   0.000000
 Stoichiometry    C3H7NO2
 Framework group  C1[X(C3H7NO2)]
 Deg. of freedom    33
 Full point group                 C1      NOp   1
 Largest Abelian subgroup         C1      NOp   1
 Largest concise Abelian subgroup C1      NOp   1
                         Standard orientation:                         
 ---------------------------------------------------------------------
 Center     Atomic      Atomic             Coordinates (Angstroms)
 Number     Number       Type             X           Y           Z
 ---------------------------------------------------------------------
      1          6           0        0.665450    0.136964   -0.398314
      2          1           0        0.642833    0.492184   -1.433125
      3          6           0       -0.781139   -0.172453   -0.002051
      4          8           0       -1.145273   -1.131754    0.630905
      5          8           0       -1.639205    0.783818   -0.436789
      6          1           0       -2.525382    0.540718   -0.127895
      7          7           0        1.547904   -1.017535   -0.329267
      8          1           0        1.240675   -1.747203   -0.964378
      9          1           0        1.525534   -1.420193    0.603377
     10          6           0        1.203198    1.270285    0.490520
     11          1           0        2.218028    1.517903    0.176463
     12          1           0        0.577309    2.161249    0.419414
     13          1           0        1.236449    0.952799    1.537158
 ---------------------------------------------------------------------
 Rotational constants (GHZ):      5.0556524      3.0368889      2.2636471
 1\1\GINC-KALI\FOpt\RB3LYP\6-311++G(d,p)\C3H7N1O2\ROOT\28-Mar-2016\0\\#
  opt b3lyp/6-311++g(d,p) geom=connectivity\\Ala-R-opt-6-311++g(d,p)\\0
 ,1\C,-0.66545006,-0.13696378,-0.39831385\H,-0.64283252,-0.49218371,-1.
 4331249\C,0.78113918,0.17245325,-0.00205122\O,1.14527325,1.13175363,0.
 63090464\O,1.63920544,-0.78381784,-0.43678893\H,2.52538168,-0.54071794
 ,-0.1278953\N,-1.54790442,1.01753468,-0.32926709\H,-1.24067467,1.74720
 276,-0.96437833\H,-1.52553428,1.42019267,0.60337745\C,-1.20319802,-1.2
 7028473,0.49052008\H,-2.21802773,-1.5179026,0.17646294\H,-0.57730872,-
 2.16124926,0.41941429\H,-1.23644894,-0.95279945,1.53715779\\Version=ES
 64L-G09RevD.01\State=1-A\HF=-323.8560796\RMSD=3.890e-09\RMSF=9.006e-06
 \Dipole=0.2756296,-0.3967885,-0.1742018\Quadrupole=0.0291363,-0.592689
 8,0.5635536,-1.2199091,-1.4372796,-1.9161175\PG=C01 [X(C3H7N1O2)]\\@


 THERE IS SOMETHING FASCINATING ABOUT SCIENCE.
 ONE GETS SUCH WHOLESALE CONJECTURE OUT OF SUCH TRIFLING INVESTMENTS.

                                                       -- MARK TWAIN
 Job cpu time:       0 days  0 hours  2 minutes 15.4 seconds.
 File lengths (MBytes):  RWF=     19 Int=      0 D2E=      0 Chk=      3 Scr=      1
 Normal termination of Gaussian 09 at Mon Mar 28 22:12:36 2016.
