 Entering Gaussian System, Link 0=g09
 Input=Asp-S-opt-freq-p1-6-31g.com
 Output=Asp-S-opt-freq-p1-6-31g.log
 Initial command:
 /usr/local/gau/g09/l1.exe "/tmp/Gau-2914.inp" -scrdir="/tmp/"
 Entering Link 1 = /usr/local/gau/g09/l1.exe PID=      2916.
  
 Copyright (c) 1988,1990,1992,1993,1995,1998,2003,2009,2013,
            Gaussian, Inc.  All Rights Reserved.
  
 This is part of the Gaussian(R) 09 program.  It is based on
 the Gaussian(R) 03 system (copyright 2003, Gaussian, Inc.),
 the Gaussian(R) 98 system (copyright 1998, Gaussian, Inc.),
 the Gaussian(R) 94 system (copyright 1995, Gaussian, Inc.),
 the Gaussian 92(TM) system (copyright 1992, Gaussian, Inc.),
 the Gaussian 90(TM) system (copyright 1990, Gaussian, Inc.),
 the Gaussian 88(TM) system (copyright 1988, Gaussian, Inc.),
 the Gaussian 86(TM) system (copyright 1986, Carnegie Mellon
 University), and the Gaussian 82(TM) system (copyright 1983,
 Carnegie Mellon University). Gaussian is a federally registered
 trademark of Gaussian, Inc.
  
 This software contains proprietary and confidential information,
 including trade secrets, belonging to Gaussian, Inc.
  
 This software is provided under written license and may be
 used, copied, transmitted, or stored only in accord with that
 written license.
  
 The following legend is applicable only to US Government
 contracts under FAR:
  
                    RESTRICTED RIGHTS LEGEND
  
 Use, reproduction and disclosure by the US Government is
 subject to restrictions as set forth in subparagraphs (a)
 and (c) of the Commercial Computer Software - Restricted
 Rights clause in FAR 52.227-19.
  
 Gaussian, Inc.
 340 Quinnipiac St., Bldg. 40, Wallingford CT 06492
  
  
 ---------------------------------------------------------------
 Warning -- This program may not be used in any manner that
 competes with the business of Gaussian, Inc. or will provide
 assistance to any competitor of Gaussian, Inc.  The licensee
 of this program is prohibited from giving any competitor of
 Gaussian, Inc. access to this program.  By using this program,
 the user acknowledges that Gaussian, Inc. is engaged in the
 business of creating and licensing software in the field of
 computational chemistry and represents and warrants to the
 licensee that it is not a competitor of Gaussian, Inc. and that
 it will not use this program in any manner prohibited above.
 ---------------------------------------------------------------
  

 Cite this work as:
 Gaussian 09, Revision D.01,
 M. J. Frisch, G. W. Trucks, H. B. Schlegel, G. E. Scuseria, 
 M. A. Robb, J. R. Cheeseman, G. Scalmani, V. Barone, B. Mennucci, 
 G. A. Petersson, H. Nakatsuji, M. Caricato, X. Li, H. P. Hratchian, 
 A. F. Izmaylov, J. Bloino, G. Zheng, J. L. Sonnenberg, M. Hada, 
 M. Ehara, K. Toyota, R. Fukuda, J. Hasegawa, M. Ishida, T. Nakajima, 
 Y. Honda, O. Kitao, H. Nakai, T. Vreven, J. A. Montgomery, Jr., 
 J. E. Peralta, F. Ogliaro, M. Bearpark, J. J. Heyd, E. Brothers, 
 K. N. Kudin, V. N. Staroverov, T. Keith, R. Kobayashi, J. Normand, 
 K. Raghavachari, A. Rendell, J. C. Burant, S. S. Iyengar, J. Tomasi, 
 M. Cossi, N. Rega, J. M. Millam, M. Klene, J. E. Knox, J. B. Cross, 
 V. Bakken, C. Adamo, J. Jaramillo, R. Gomperts, R. E. Stratmann, 
 O. Yazyev, A. J. Austin, R. Cammi, C. Pomelli, J. W. Ochterski, 
 R. L. Martin, K. Morokuma, V. G. Zakrzewski, G. A. Voth, 
 P. Salvador, J. J. Dannenberg, S. Dapprich, A. D. Daniels, 
 O. Farkas, J. B. Foresman, J. V. Ortiz, J. Cioslowski, 
 and D. J. Fox, Gaussian, Inc., Wallingford CT, 2013.
 
 ******************************************
 Gaussian 09:  ES64L-G09RevD.01 24-Apr-2013
                 3-Apr-2016 
 ******************************************
 %chk=Asp-S-opt-freq-p1-6-31g.chk
 -----------------------
 # opt freq rb3lyp/6-31g
 -----------------------
 1/14=-1,18=20,19=15,26=3,38=1/1,3;
 2/9=110,12=2,17=6,18=5,40=1/2;
 3/5=1,6=6,11=2,16=1,25=1,30=1,71=1,74=-5,116=1/1,2,3;
 4//1;
 5/5=2,38=5/2;
 6/7=2,8=2,9=2,10=2,28=1/1;
 7//1,2,3,16;
 1/14=-1,18=20,19=15,26=3/3(2);
 2/9=110/2;
 99//99;
 2/9=110/2;
 3/5=1,6=6,11=2,16=1,25=1,30=1,71=1,74=-5,116=1/1,2,3;
 4/5=5,16=3,69=1/1;
 5/5=2,38=5/2;
 7//1,2,3,16;
 1/14=-1,18=20,19=15,26=3/3(-5);
 2/9=110/2;
 6/7=2,8=2,9=2,10=2,19=2,28=1/1;
 99/9=1/99;
 -----------------------
 Asp-S-opt-freq-p1-6-31g
 -----------------------
 Symbolic Z-matrix:
 Charge =  0 Multiplicity = 1
 N                    -1.51123   1.90892  -0.10699 
 H                    -1.67725   2.08678   0.87676 
 C                    -0.64383   0.7684   -0.40208 
 H                    -0.53985   0.68774  -1.48664 
 C                     0.73402   0.97756   0.23345 
 C                    -1.28173  -0.51338   0.07699 
 H                     1.11964   1.95636  -0.0708 
 H                     0.65762   0.98594   1.32742 
 C                     1.70937  -0.09465  -0.16581 
 O                    -2.20497  -1.1822   -0.55644 
 O                     1.47577  -1.02893  -0.93911 
 H                    -2.3461    1.97595  -0.67497 
 O                    -1.11059  -1.05536   1.25641 
 H                    -2.10318  -1.62271   0.30103 
 O                     2.93536   0.08462   0.42871 
 H                     3.55532  -0.62817   0.15992 
 

 GradGradGradGradGradGradGradGradGradGradGradGradGradGradGradGradGradGrad
 Berny optimization.
 Initialization pass.
                           ----------------------------
                           !    Initial Parameters    !
                           ! (Angstroms and Degrees)  !
 --------------------------                            --------------------------
 ! Name  Definition              Value          Derivative Info.                !
 --------------------------------------------------------------------------------
 ! R1    R(1,2)                  1.0134         estimate D2E/DX2                !
 ! R2    R(1,3)                  1.463          estimate D2E/DX2                !
 ! R3    R(1,12)                 1.012          estimate D2E/DX2                !
 ! R4    R(3,4)                  1.0925         estimate D2E/DX2                !
 ! R5    R(3,5)                  1.5317         estimate D2E/DX2                !
 ! R6    R(3,6)                  1.5098         estimate D2E/DX2                !
 ! R7    R(5,7)                  1.0951         estimate D2E/DX2                !
 ! R8    R(5,8)                  1.0967         estimate D2E/DX2                !
 ! R9    R(5,9)                  1.5034         estimate D2E/DX2                !
 ! R10   R(6,10)                 1.3042         estimate D2E/DX2                !
 ! R11   R(6,13)                 1.3092         estimate D2E/DX2                !
 ! R12   R(9,11)                 1.2351         estimate D2E/DX2                !
 ! R13   R(9,15)                 1.3743         estimate D2E/DX2                !
 ! R14   R(10,14)                0.9694         estimate D2E/DX2                !
 ! R15   R(15,16)                0.9822         estimate D2E/DX2                !
 ! A1    A(2,1,3)              115.4528         estimate D2E/DX2                !
 ! A2    A(2,1,12)             113.4566         estimate D2E/DX2                !
 ! A3    A(3,1,12)             115.3138         estimate D2E/DX2                !
 ! A4    A(1,3,4)              108.3142         estimate D2E/DX2                !
 ! A5    A(1,3,5)              110.0726         estimate D2E/DX2                !
 ! A6    A(1,3,6)              110.3258         estimate D2E/DX2                !
 ! A7    A(4,3,5)              109.655          estimate D2E/DX2                !
 ! A8    A(4,3,6)              107.0093         estimate D2E/DX2                !
 ! A9    A(5,3,6)              111.3679         estimate D2E/DX2                !
 ! A10   A(3,5,7)              108.8764         estimate D2E/DX2                !
 ! A11   A(3,5,8)              110.6262         estimate D2E/DX2                !
 ! A12   A(3,5,9)              112.087          estimate D2E/DX2                !
 ! A13   A(7,5,8)              107.1473         estimate D2E/DX2                !
 ! A14   A(7,5,9)              109.5847         estimate D2E/DX2                !
 ! A15   A(8,5,9)              108.3941         estimate D2E/DX2                !
 ! A16   A(3,6,10)             125.4768         estimate D2E/DX2                !
 ! A17   A(3,6,13)             125.5967         estimate D2E/DX2                !
 ! A18   A(10,6,13)            108.5284         estimate D2E/DX2                !
 ! A19   A(5,9,11)             125.6651         estimate D2E/DX2                !
 ! A20   A(5,9,15)             111.7667         estimate D2E/DX2                !
 ! A21   A(11,9,15)            122.5652         estimate D2E/DX2                !
 ! A22   A(6,10,14)             74.2813         estimate D2E/DX2                !
 ! A23   A(9,15,16)            110.49           estimate D2E/DX2                !
 ! D1    D(2,1,3,4)           -179.6579         estimate D2E/DX2                !
 ! D2    D(2,1,3,5)            -59.7794         estimate D2E/DX2                !
 ! D3    D(2,1,3,6)             63.5212         estimate D2E/DX2                !
 ! D4    D(12,1,3,4)            44.8793         estimate D2E/DX2                !
 ! D5    D(12,1,3,5)           164.7577         estimate D2E/DX2                !
 ! D6    D(12,1,3,6)           -71.9417         estimate D2E/DX2                !
 ! D7    D(1,3,5,7)            -52.3389         estimate D2E/DX2                !
 ! D8    D(1,3,5,8)             65.1531         estimate D2E/DX2                !
 ! D9    D(1,3,5,9)           -173.742          estimate D2E/DX2                !
 ! D10   D(4,3,5,7)             66.7233         estimate D2E/DX2                !
 ! D11   D(4,3,5,8)           -175.7847         estimate D2E/DX2                !
 ! D12   D(4,3,5,9)            -54.6798         estimate D2E/DX2                !
 ! D13   D(6,3,5,7)           -175.0283         estimate D2E/DX2                !
 ! D14   D(6,3,5,8)            -57.5363         estimate D2E/DX2                !
 ! D15   D(6,3,5,9)             63.5686         estimate D2E/DX2                !
 ! D16   D(1,3,6,10)            80.6884         estimate D2E/DX2                !
 ! D17   D(1,3,6,13)           -91.228          estimate D2E/DX2                !
 ! D18   D(4,3,6,10)           -36.9402         estimate D2E/DX2                !
 ! D19   D(4,3,6,13)           151.1434         estimate D2E/DX2                !
 ! D20   D(5,3,6,10)          -156.7678         estimate D2E/DX2                !
 ! D21   D(5,3,6,13)            31.3158         estimate D2E/DX2                !
 ! D22   D(3,5,9,11)             1.8046         estimate D2E/DX2                !
 ! D23   D(3,5,9,15)          -178.8043         estimate D2E/DX2                !
 ! D24   D(7,5,9,11)          -119.1905         estimate D2E/DX2                !
 ! D25   D(7,5,9,15)            60.2006         estimate D2E/DX2                !
 ! D26   D(8,5,9,11)           124.1879         estimate D2E/DX2                !
 ! D27   D(8,5,9,15)           -56.421          estimate D2E/DX2                !
 ! D28   D(3,6,10,14)         -173.8304         estimate D2E/DX2                !
 ! D29   D(13,6,10,14)          -0.7566         estimate D2E/DX2                !
 ! D30   D(5,9,15,16)          179.6409         estimate D2E/DX2                !
 ! D31   D(11,9,15,16)          -0.9461         estimate D2E/DX2                !
 --------------------------------------------------------------------------------
 Trust Radius=3.00D-01 FncErr=1.00D-07 GrdErr=1.00D-06
 Number of steps in this run=     79 maximum allowed number of steps=    100.
 GradGradGradGradGradGradGradGradGradGradGradGradGradGradGradGradGradGrad

                          Input orientation:                          
 ---------------------------------------------------------------------
 Center     Atomic      Atomic             Coordinates (Angstroms)
 Number     Number       Type             X           Y           Z
 ---------------------------------------------------------------------
      1          7           0       -1.511229    1.908920   -0.106991
      2          1           0       -1.677250    2.086781    0.876758
      3          6           0       -0.643829    0.768402   -0.402075
      4          1           0       -0.539846    0.687737   -1.486640
      5          6           0        0.734019    0.977556    0.233445
      6          6           0       -1.281733   -0.513383    0.076987
      7          1           0        1.119637    1.956360   -0.070797
      8          1           0        0.657621    0.985936    1.327416
      9          6           0        1.709369   -0.094650   -0.165811
     10          8           0       -2.204972   -1.182199   -0.556435
     11          8           0        1.475774   -1.028931   -0.939109
     12          1           0       -2.346100    1.975949   -0.674965
     13          8           0       -1.110589   -1.055363    1.256409
     14          1           0       -2.103178   -1.622709    0.301031
     15          8           0        2.935358    0.084620    0.428712
     16          1           0        3.555321   -0.628165    0.159919
 ---------------------------------------------------------------------
                    Distance matrix (angstroms):
                    1          2          3          4          5
     1  N    0.000000
     2  H    1.013390   0.000000
     3  C    1.462955   2.107486   0.000000
     4  H    2.082860   2.972652   1.092520   0.000000
     5  C    2.454480   2.731016   1.531697   2.159958   0.000000
     6  C    2.440096   2.748985   1.509766   2.106660   2.512098
     7  H    2.631543   2.955917   2.151930   2.523470   1.095135
     8  H    2.759227   2.620415   2.175369   3.072745   1.096667
     9  C    3.793416   4.161103   2.517582   2.723176   1.503442
    10  O    3.199734   3.608152   2.503166   2.671065   3.731772
    11  O    4.271484   4.790260   2.830464   2.703602   2.439482
    12  H    1.011977   1.693366   2.104843   2.362384   3.362905
    13  O    3.287301   3.215324   2.508895   3.299767   2.929470
    14  H    3.604066   3.777988   2.888160   3.313297   3.849108
    15  O    4.836030   5.048321   3.737425   4.013647   2.383560
    16  H    5.672563   5.938400   4.460840   4.605773   3.247074
                    6          7          8          9         10
     6  C    0.000000
     7  H    3.447905   0.000000
     8  H    2.751840   1.763571   0.000000
     9  C    3.030013   2.136224   2.122161   0.000000
    10  O    1.304189   4.597763   4.055138   4.081350   0.000000
    11  O    2.983636   3.129339   3.141051   1.235086   3.703758
    12  H    2.809819   3.518059   3.743260   4.581861   3.163521
    13  O    1.309225   3.975658   2.701576   3.301188   2.121359
    14  H    1.398418   4.830583   3.934528   4.133814   0.969360
    15  O    4.273778   2.655139   2.609238   1.374280   5.385010
    16  H    4.839126   3.558870   3.516395   1.948917   5.831046
                   11         12         13         14         15
    11  O    0.000000
    12  H    4.868860   0.000000
    13  O    3.392679   3.800730   0.000000
    14  H    3.833982   3.736565   1.489920   0.000000
    15  O    2.289392   5.717432   4.284195   5.321477   0.000000
    16  H    2.385999   6.504246   4.812017   5.746968   0.982174
                   16
    16  H    0.000000
 Stoichiometry    C4H7NO4
 Framework group  C1[X(C4H7NO4)]
 Deg. of freedom    42
 Full point group                 C1      NOp   1
 Largest Abelian subgroup         C1      NOp   1
 Largest concise Abelian subgroup C1      NOp   1
                         Standard orientation:                         
 ---------------------------------------------------------------------
 Center     Atomic      Atomic             Coordinates (Angstroms)
 Number     Number       Type             X           Y           Z
 ---------------------------------------------------------------------
      1          7           0       -1.515361    1.901511   -0.121395
      2          1           0       -1.678003    2.091992    0.860554
      3          6           0       -0.646509    0.759125   -0.404744
      4          1           0       -0.546513    0.664361   -1.488544
      5          6           0        0.733293    0.979727    0.222614
      6          6           0       -1.279647   -0.517631    0.093677
      7          1           0        1.115510    1.955279   -0.096024
      8          1           0        0.661083    1.002398    1.316667
      9          6           0        1.709538   -0.095491   -0.166218
     10          8           0       -2.203790   -1.196815   -0.527272
     11          8           0        1.475099   -1.040431   -0.926195
     12          1           0       -2.352560    1.959169   -0.686966
     13          8           0       -1.102737   -1.043590    1.279485
     14          1           0       -2.097698   -1.625723    0.335538
     15          8           0        2.937393    0.094350    0.421131
     16          1           0        3.557938   -0.620545    0.159378
 ---------------------------------------------------------------------
 Rotational constants (GHZ):      2.4986775      1.1188350      0.9315925
 Standard basis: 6-31G (6D, 7F)
 There are    95 symmetry adapted cartesian basis functions of A   symmetry.
 There are    95 symmetry adapted basis functions of A   symmetry.
    95 basis functions,   226 primitive gaussians,    95 cartesian basis functions
    35 alpha electrons       35 beta electrons
       nuclear repulsion energy       469.3553242116 Hartrees.
 NAtoms=   16 NActive=   16 NUniq=   16 SFac= 1.00D+00 NAtFMM=   60 NAOKFM=F Big=F
 Integral buffers will be    131072 words long.
 Raffenetti 2 integral format.
 Two-electron integral symmetry is turned on.
 One-electron integrals computed using PRISM.
 NBasis=    95 RedAO= T EigKep=  3.36D-03  NBF=    95
 NBsUse=    95 1.00D-06 EigRej= -1.00D+00 NBFU=    95
 ExpMin= 1.61D-01 ExpMax= 5.48D+03 ExpMxC= 8.25D+02 IAcc=1 IRadAn=         1 AccDes= 0.00D+00
 Harris functional with IExCor=  402 and IRadAn=       1 diagonalized for initial guess.
 HarFok:  IExCor=  402 AccDes= 0.00D+00 IRadAn=         1 IDoV= 1 UseB2=F ITyADJ=14
 ICtDFT=  3500011 ScaDFX=  1.000000  1.000000  1.000000  1.000000
 FoFCou: FMM=F IPFlag=           0 FMFlag=      100000 FMFlg1=           0
         NFxFlg=           0 DoJE=T BraDBF=F KetDBF=T FulRan=T
         wScrn=  0.000000 ICntrl=     500 IOpCl=  0 I1Cent=   200000004 NGrid=           0
         NMat0=    1 NMatS0=      1 NMatT0=    0 NMatD0=    1 NMtDS0=    0 NMtDT0=    0
 Petite list used in FoFCou.
 Keep R1 ints in memory in canonical form, NReq=11361399.
 Requested convergence on RMS density matrix=1.00D-08 within 128 cycles.
 Requested convergence on MAX density matrix=1.00D-06.
 Requested convergence on             energy=1.00D-06.
 No special actions if energy rises.
 Integral accuracy reduced to 1.0D-05 until final iterations.
 Initial convergence to 1.0D-05 achieved.  Increase integral accuracy.
 SCF Done:  E(RB3LYP) =  -512.061781190     A.U. after   16 cycles
            NFock= 16  Conv=0.54D-08     -V/T= 2.0048

 **********************************************************************

            Population analysis using the SCF density.

 **********************************************************************

 Orbital symmetries:
       Occupied  (A) (A) (A) (A) (A) (A) (A) (A) (A) (A) (A) (A)
                 (A) (A) (A) (A) (A) (A) (A) (A) (A) (A) (A) (A)
                 (A) (A) (A) (A) (A) (A) (A) (A) (A) (A) (A)
       Virtual   (A) (A) (A) (A) (A) (A) (A) (A) (A) (A) (A) (A)
                 (A) (A) (A) (A) (A) (A) (A) (A) (A) (A) (A) (A)
                 (A) (A) (A) (A) (A) (A) (A) (A) (A) (A) (A) (A)
                 (A) (A) (A) (A) (A) (A) (A) (A) (A) (A) (A) (A)
                 (A) (A) (A) (A) (A) (A) (A) (A) (A) (A) (A) (A)
 The electronic state is 1-A.
 Alpha  occ. eigenvalues --  -19.20634 -19.20315 -19.16208 -19.15401 -14.34151
 Alpha  occ. eigenvalues --  -10.34673 -10.34483 -10.26214 -10.21874  -1.20161
 Alpha  occ. eigenvalues --   -1.12756  -1.04140  -1.00680  -0.92616  -0.80327
 Alpha  occ. eigenvalues --   -0.72155  -0.63635  -0.58052  -0.54742  -0.52462
 Alpha  occ. eigenvalues --   -0.51859  -0.49719  -0.48561  -0.47637  -0.46692
 Alpha  occ. eigenvalues --   -0.43546  -0.41688  -0.40341  -0.39353  -0.37925
 Alpha  occ. eigenvalues --   -0.33092  -0.31301  -0.30028  -0.29382  -0.25427
 Alpha virt. eigenvalues --   -0.03662  -0.01924   0.05518   0.06902   0.10799
 Alpha virt. eigenvalues --    0.10953   0.13804   0.15928   0.16683   0.18299
 Alpha virt. eigenvalues --    0.20226   0.20469   0.24641   0.28371   0.30454
 Alpha virt. eigenvalues --    0.32935   0.36061   0.50681   0.54605   0.55800
 Alpha virt. eigenvalues --    0.56672   0.58918   0.61280   0.62481   0.64237
 Alpha virt. eigenvalues --    0.66072   0.67215   0.70712   0.72734   0.73442
 Alpha virt. eigenvalues --    0.78721   0.80136   0.80904   0.82857   0.89331
 Alpha virt. eigenvalues --    0.90775   0.91533   0.92297   0.93080   0.93428
 Alpha virt. eigenvalues --    0.95030   0.95244   0.98845   0.99918   1.00793
 Alpha virt. eigenvalues --    1.05547   1.09357   1.10534   1.13372   1.15739
 Alpha virt. eigenvalues --    1.21562   1.27834   1.28949   1.42924   1.51614
 Alpha virt. eigenvalues --    1.74651   1.76961   1.86902   1.90094   1.99132
          Condensed to atoms (all electrons):
               1          2          3          4          5          6
     1  N    6.888325   0.323660   0.304616  -0.038341  -0.055601  -0.079179
     2  H    0.323660   0.441332  -0.037192   0.005454  -0.006074   0.000385
     3  C    0.304616  -0.037192   5.316758   0.365075   0.229128   0.095635
     4  H   -0.038341   0.005454   0.365075   0.557266  -0.036817  -0.045363
     5  C   -0.055601  -0.006074   0.229128  -0.036817   5.585055  -0.058065
     6  C   -0.079179   0.000385   0.095635  -0.045363  -0.058065   5.107056
     7  H    0.004190  -0.000256  -0.031466  -0.003460   0.350536   0.006499
     8  H   -0.001057   0.003674  -0.037009   0.004579   0.353805  -0.006128
     9  C    0.004830  -0.000017  -0.018177  -0.002409   0.143342   0.006270
    10  O    0.000718  -0.000270  -0.080960   0.000804   0.003544   0.155642
    11  O    0.000196   0.000001   0.009383   0.006087  -0.119365   0.005042
    12  H    0.331115  -0.032517  -0.038516  -0.005793   0.005751   0.001740
    13  O   -0.001599   0.002009  -0.078368   0.002856   0.003194   0.388779
    14  H   -0.001978  -0.000088   0.024906  -0.001271  -0.001094  -0.070078
    15  O   -0.000022   0.000000   0.003820   0.000199  -0.114954  -0.000317
    16  H    0.000001   0.000000  -0.000308  -0.000008   0.010442   0.000020
               7          8          9         10         11         12
     1  N    0.004190  -0.001057   0.004830   0.000718   0.000196   0.331115
     2  H   -0.000256   0.003674  -0.000017  -0.000270   0.000001  -0.032517
     3  C   -0.031466  -0.037009  -0.018177  -0.080960   0.009383  -0.038516
     4  H   -0.003460   0.004579  -0.002409   0.000804   0.006087  -0.005793
     5  C    0.350536   0.353805   0.143342   0.003544  -0.119365   0.005751
     6  C    0.006499  -0.006128   0.006270   0.155642   0.005042   0.001740
     7  H    0.510177  -0.022361  -0.020068  -0.000043   0.001066   0.000017
     8  H   -0.022361   0.510681  -0.020797   0.000185   0.001579  -0.000106
     9  C   -0.020068  -0.020797   4.746134  -0.000658   0.501052  -0.000173
    10  O   -0.000043   0.000185  -0.000658   8.388903  -0.000425   0.001588
    11  O    0.001066   0.001579   0.501052  -0.000425   8.118527   0.000004
    12  H    0.000017  -0.000106  -0.000173   0.001588   0.000004   0.431106
    13  O    0.000137   0.008020  -0.000300  -0.206428  -0.001369  -0.000124
    14  H    0.000018  -0.000144   0.000096   0.196526  -0.000063  -0.000003
    15  O    0.001998   0.002577   0.165841   0.000000  -0.108483   0.000000
    16  H   -0.000191  -0.000284  -0.011689   0.000000   0.005006   0.000000
              13         14         15         16
     1  N   -0.001599  -0.001978  -0.000022   0.000001
     2  H    0.002009  -0.000088   0.000000   0.000000
     3  C   -0.078368   0.024906   0.003820  -0.000308
     4  H    0.002856  -0.001271   0.000199  -0.000008
     5  C    0.003194  -0.001094  -0.114954   0.010442
     6  C    0.388779  -0.070078  -0.000317   0.000020
     7  H    0.000137   0.000018   0.001998  -0.000191
     8  H    0.008020  -0.000144   0.002577  -0.000284
     9  C   -0.000300   0.000096   0.165841  -0.011689
    10  O   -0.206428   0.196526   0.000000   0.000000
    11  O   -0.001369  -0.000063  -0.108483   0.005006
    12  H   -0.000124  -0.000003   0.000000   0.000000
    13  O    8.347788   0.064999  -0.000008  -0.000001
    14  H    0.064999   0.417565   0.000000   0.000000
    15  O   -0.000008   0.000000   8.378422   0.225980
    16  H   -0.000001   0.000000   0.225980   0.381360
 Mulliken charges:
               1
     1  N   -0.679872
     2  H    0.299899
     3  C   -0.027323
     4  H    0.191143
     5  C   -0.292825
     6  C    0.492062
     7  H    0.203208
     8  H    0.202788
     9  C    0.506724
    10  O   -0.459125
    11  O   -0.418236
    12  H    0.305912
    13  O   -0.529584
    14  H    0.370608
    15  O   -0.555053
    16  H    0.389673
 Sum of Mulliken charges =   0.00000
 Mulliken charges with hydrogens summed into heavy atoms:
               1
     1  N   -0.074061
     3  C    0.163820
     5  C    0.113171
     6  C    0.492062
     9  C    0.506724
    10  O   -0.088517
    11  O   -0.418236
    13  O   -0.529584
    15  O   -0.165380
 Electronic spatial extent (au):  <R**2>=           1270.5801
 Charge=              0.0000 electrons
 Dipole moment (field-independent basis, Debye):
    X=              0.2346    Y=              2.3447    Z=              0.0038  Tot=              2.3564
 Quadrupole moment (field-independent basis, Debye-Ang):
   XX=            -43.1553   YY=            -54.7042   ZZ=            -56.3611
   XY=             -5.7231   XZ=             -0.9113   YZ=             -0.4850
 Traceless Quadrupole moment (field-independent basis, Debye-Ang):
   XX=              8.2516   YY=             -3.2973   ZZ=             -4.9543
   XY=             -5.7231   XZ=             -0.9113   YZ=             -0.4850
 Octapole moment (field-independent basis, Debye-Ang**2):
  XXX=             25.2738  YYY=            -13.4322  ZZZ=             -3.7559  XYY=             -3.6116
  XXY=             -5.7956  XXZ=              1.2129  XZZ=             -0.6666  YZZ=              9.4997
  YYZ=              7.2226  XYZ=             -3.7912
 Hexadecapole moment (field-independent basis, Debye-Ang**3):
 XXXX=           -768.0004 YYYY=           -422.3233 ZZZZ=           -175.5730 XXXY=            -95.4868
 XXXZ=            -26.2134 YYYX=             10.2925 YYYZ=              8.4425 ZZZX=              7.0697
 ZZZY=              5.6203 XXYY=           -193.4965 XXZZ=           -194.4033 YYZZ=            -97.6266
 XXYZ=            -21.1925 YYXZ=             -3.1579 ZZXY=             -9.7791
 N-N= 4.693553242116D+02 E-N=-2.139693330654D+03  KE= 5.096281031193D+02
 Calling FoFJK, ICntrl=      2127 FMM=F ISym2X=0 I1Cent= 0 IOpClX= 0 NMat=1 NMatS=1 NMatT=0.
 ***** Axes restored to original set *****
 -------------------------------------------------------------------
 Center     Atomic                   Forces (Hartrees/Bohr)
 Number     Number              X              Y              Z
 -------------------------------------------------------------------
      1        7          -0.001008135    0.000151451   -0.000314449
      2        1           0.000128166   -0.000302099    0.000111910
      3        6          -0.001576570   -0.002008681   -0.003214667
      4        1           0.000633400    0.001066746   -0.001068894
      5        6          -0.000641999   -0.000639245    0.000187268
      6        6           0.066972676    0.045437122    0.053219796
      7        1          -0.000112630   -0.000012106   -0.000192276
      8        1          -0.000332759   -0.000465976   -0.000283782
      9        6          -0.000402591    0.000249617    0.000427399
     10        8          -0.022663423    0.015658784   -0.063981245
     11        8          -0.000061113   -0.000151161   -0.000352306
     12        1          -0.000045982    0.000710198   -0.000038502
     13        8           0.023425064    0.037424576   -0.015354160
     14        1          -0.064250388   -0.097042143    0.030981127
     15        8          -0.000022829   -0.000045444   -0.000189730
     16        1          -0.000040885   -0.000031639    0.000062509
 -------------------------------------------------------------------
 Cartesian Forces:  Max     0.097042143 RMS     0.025391956

 GradGradGradGradGradGradGradGradGradGradGradGradGradGradGradGradGradGrad
 Berny optimization.
 FormGI is forming the generalized inverse of G from B-inverse, IUseBI=4.
 GSVD:  received Info=                   1 from GESDD.
 Internal  Forces:  Max     0.186004813 RMS     0.029632572
 Search for a local minimum.
 Step number   1 out of a maximum of   79
 All quantities printed in internal units (Hartrees-Bohrs-Radians)
 Mixed Optimization -- RFO/linear search
 Second derivative matrix not updated -- first step.
 ITU=  0
     Eigenvalues ---    0.00347   0.00637   0.00720   0.00859   0.01031
     Eigenvalues ---    0.01135   0.02032   0.02564   0.02959   0.04176
     Eigenvalues ---    0.04553   0.05131   0.05416   0.06572   0.09337
     Eigenvalues ---    0.12792   0.16000   0.16000   0.16000   0.16000
     Eigenvalues ---    0.17421   0.18422   0.21946   0.24923   0.24999
     Eigenvalues ---    0.25000   0.25000   0.29267   0.31374   0.32019
     Eigenvalues ---    0.34053   0.34226   0.34523   0.36597   0.45410
     Eigenvalues ---    0.45643   0.50163   0.50965   0.53508   0.64695
     Eigenvalues ---    0.66043   0.89000
 RFO step:  Lambda=-1.52372004D-01 EMin= 3.46654832D-03
 Linear search not attempted -- first point.
 Maximum step size (   0.300) exceeded in Quadratic search.
    -- Step size scaled by   0.458
 Iteration  1 RMS(Cart)=  0.05399889 RMS(Int)=  0.01187941
 Iteration  2 RMS(Cart)=  0.02002637 RMS(Int)=  0.00091350
 Iteration  3 RMS(Cart)=  0.00091266 RMS(Int)=  0.00001534
 Iteration  4 RMS(Cart)=  0.00000151 RMS(Int)=  0.00001531
 Iteration  5 RMS(Cart)=  0.00000000 RMS(Int)=  0.00001531
 Variable       Old X    -DE/DX   Delta X   Delta X   Delta X     New X
                                 (Linear)    (Quad)   (Total)
    R1        1.91503   0.00003   0.00000   0.00003   0.00003   1.91506
    R2        2.76459   0.00094   0.00000   0.00083   0.00083   2.76541
    R3        1.91236   0.00011   0.00000   0.00008   0.00008   1.91244
    R4        2.06456   0.00104   0.00000   0.00096   0.00096   2.06552
    R5        2.89449  -0.00175   0.00000  -0.00180  -0.00180   2.89269
    R6        2.85305  -0.00118   0.00000  -0.00116  -0.00116   2.85189
    R7        2.06951   0.00000   0.00000   0.00000   0.00000   2.06951
    R8        2.07240  -0.00027   0.00000  -0.00025  -0.00025   2.07215
    R9        2.84109  -0.00035   0.00000  -0.00034  -0.00034   2.84076
   R10        2.46456   0.11929   0.00000   0.06726   0.06726   2.53182
   R11        2.47408  -0.02626   0.00000  -0.01506  -0.01506   2.45902
   R12        2.33397   0.00035   0.00000   0.00015   0.00015   2.33413
   R13        2.59701  -0.00012   0.00000  -0.00009  -0.00009   2.59693
   R14        1.83182   0.06476   0.00000   0.04317   0.04317   1.87500
   R15        1.85604  -0.00002   0.00000  -0.00002  -0.00002   1.85603
    A1        2.01503  -0.00072   0.00000  -0.00100  -0.00100   2.01403
    A2        1.98019  -0.00010   0.00000  -0.00007  -0.00007   1.98012
    A3        2.01260   0.00104   0.00000   0.00158   0.00158   2.01419
    A4        1.89044  -0.00063   0.00000  -0.00064  -0.00064   1.88980
    A5        1.92113   0.00125   0.00000   0.00140   0.00140   1.92253
    A6        1.92555   0.00033   0.00000   0.00036   0.00036   1.92591
    A7        1.91384  -0.00011   0.00000  -0.00033  -0.00033   1.91351
    A8        1.86767   0.00146   0.00000   0.00256   0.00256   1.87023
    A9        1.94374  -0.00227   0.00000  -0.00328  -0.00328   1.94046
   A10        1.90025   0.00022   0.00000   0.00027   0.00027   1.90053
   A11        1.93079  -0.00010   0.00000  -0.00034  -0.00034   1.93045
   A12        1.95629  -0.00084   0.00000  -0.00112  -0.00112   1.95517
   A13        1.87007   0.00014   0.00000   0.00046   0.00046   1.87054
   A14        1.91261   0.00029   0.00000   0.00040   0.00040   1.91302
   A15        1.89183   0.00035   0.00000   0.00040   0.00040   1.89223
   A16        2.18998  -0.03918   0.00000  -0.04451  -0.04451   2.14547
   A17        2.19208  -0.02818   0.00000  -0.03210  -0.03210   2.15998
   A18        1.89418   0.06714   0.00000   0.07664   0.07664   1.97082
   A19        2.19327  -0.00016   0.00000  -0.00019  -0.00019   2.19308
   A20        1.95070   0.00021   0.00000   0.00024   0.00024   1.95094
   A21        2.13917  -0.00005   0.00000  -0.00006  -0.00006   2.13911
   A22        1.29645   0.18600   0.00000   0.27289   0.27289   1.56934
   A23        1.92841  -0.00001   0.00000  -0.00002  -0.00002   1.92840
    D1       -3.13562   0.00043   0.00000   0.00086   0.00086  -3.13476
    D2       -1.04335   0.00065   0.00000   0.00090   0.00090  -1.04245
    D3        1.10865  -0.00115   0.00000  -0.00205  -0.00205   1.10660
    D4        0.78329   0.00021   0.00000   0.00029   0.00029   0.78358
    D5        2.87556   0.00043   0.00000   0.00033   0.00033   2.87589
    D6       -1.25562  -0.00137   0.00000  -0.00262  -0.00262  -1.25824
    D7       -0.91349  -0.00009   0.00000  -0.00023  -0.00023  -0.91371
    D8        1.13714   0.00015   0.00000   0.00030   0.00030   1.13744
    D9       -3.03237  -0.00006   0.00000  -0.00019  -0.00019  -3.03256
   D10        1.16454  -0.00016   0.00000  -0.00036  -0.00036   1.16418
   D11       -3.06802   0.00008   0.00000   0.00017   0.00017  -3.06785
   D12       -0.95434  -0.00013   0.00000  -0.00032  -0.00032  -0.95467
   D13       -3.05482   0.00017   0.00000   0.00059   0.00059  -3.05423
   D14       -1.00420   0.00041   0.00000   0.00112   0.00112  -1.00308
   D15        1.10948   0.00021   0.00000   0.00062   0.00062   1.11010
   D16        1.40828   0.00153   0.00000   0.00375   0.00377   1.41205
   D17       -1.59223  -0.00125   0.00000  -0.00221  -0.00223  -1.59446
   D18       -0.64473   0.00126   0.00000   0.00284   0.00286  -0.64187
   D19        2.63795  -0.00152   0.00000  -0.00312  -0.00315   2.63480
   D20       -2.73611   0.00179   0.00000   0.00352   0.00355  -2.73257
   D21        0.54656  -0.00099   0.00000  -0.00244  -0.00246   0.54410
   D22        0.03150   0.00019   0.00000   0.00047   0.00047   0.03196
   D23       -3.12072   0.00011   0.00000   0.00024   0.00024  -3.12049
   D24       -2.08027   0.00027   0.00000   0.00058   0.00058  -2.07969
   D25        1.05070   0.00019   0.00000   0.00035   0.00035   1.05105
   D26        2.16749  -0.00024   0.00000  -0.00042  -0.00042   2.16707
   D27       -0.98473  -0.00032   0.00000  -0.00065  -0.00065  -0.98538
   D28       -3.03391   0.00062   0.00000  -0.00157  -0.00149  -3.03540
   D29       -0.01321  -0.00219   0.00000  -0.00239  -0.00247  -0.01567
   D30        3.13533  -0.00002   0.00000  -0.00006  -0.00006   3.13527
   D31       -0.01651  -0.00010   0.00000  -0.00028  -0.00028  -0.01679
         Item               Value     Threshold  Converged?
 Maximum Force            0.186005     0.000450     NO 
 RMS     Force            0.029633     0.000300     NO 
 Maximum Displacement     0.407261     0.001800     NO 
 RMS     Displacement     0.072155     0.001200     NO 
 Predicted change in Energy=-6.069129D-02
 GradGradGradGradGradGradGradGradGradGradGradGradGradGradGradGradGradGrad

                          Input orientation:                          
 ---------------------------------------------------------------------
 Center     Atomic      Atomic             Coordinates (Angstroms)
 Number     Number       Type             X           Y           Z
 ---------------------------------------------------------------------
      1          7           0       -1.502628    1.911967   -0.103988
      2          1           0       -1.660940    2.102213    0.878728
      3          6           0       -0.633344    0.770032   -0.390080
      4          1           0       -0.537274    0.675620   -1.474777
      5          6           0        0.748113    0.990097    0.231474
      6          6           0       -1.260986   -0.506483    0.114023
      7          1           0        1.129603    1.965502   -0.088489
      8          1           0        0.679922    1.012177    1.325666
      9          6           0        1.721218   -0.085989   -0.162109
     10          8           0       -2.208444   -1.168988   -0.563043
     11          8           0        1.482143   -1.030113   -0.921787
     12          1           0       -2.342372    1.969860   -0.665827
     13          8           0       -1.050120   -0.996287    1.300993
     14          1           0       -2.318692   -1.790642    0.202375
     15          8           0        2.951926    0.101771    0.419804
     16          1           0        3.570246   -0.613876    0.154890
 ---------------------------------------------------------------------
                    Distance matrix (angstroms):
                    1          2          3          4          5
     1  N    0.000000
     2  H    1.013404   0.000000
     3  C    1.463393   2.107258   0.000000
     4  H    2.083153   2.972672   1.093028   0.000000
     5  C    2.455243   2.731168   1.530746   2.159261   0.000000
     6  C    2.440251   2.747733   1.509154   2.108415   2.507993
     7  H    2.632822   2.956574   2.151299   2.522711   1.095138
     8  H    2.759903   2.620605   2.174187   3.072022   1.096537
     9  C    3.793203   4.160596   2.515691   2.721017   1.503263
    10  O    3.193931   3.616521   2.504128   2.650783   3.746217
    11  O    4.270069   4.788767   2.828166   2.700624   2.439274
    12  H    1.012020   1.693375   2.106276   2.363860   3.363954
    13  O    3.261392   3.186238   2.480588   3.280730   2.885002
    14  H    3.803832   4.005548   3.122252   3.474009   4.139885
    15  O    4.836757   5.048852   3.735859   4.011640   2.383565
    16  H    5.672826   5.938551   4.458964   4.603297   3.247003
                    6          7          8          9         10
     6  C    0.000000
     7  H    3.444799   0.000000
     8  H    2.746185   1.763768   0.000000
     9  C    3.024335   2.136362   2.122201   0.000000
    10  O    1.339779   4.603563   4.082569   4.095836   0.000000
    11  O    2.978565   3.129277   3.140947   1.235166   3.710582
    12  H    2.812444   3.519652   3.743991   4.581813   3.143386
    13  O    1.301257   3.931164   2.650959   3.263376   2.201403
    14  H    1.666017   5.107246   4.255498   4.399950   0.992206
    15  O    4.267564   2.655695   2.609871   1.374235   5.404650
    16  H    4.832598   3.559377   3.516921   1.948861   5.849516
                   11         12         13         14         15
    11  O    0.000000
    12  H    4.867471   0.000000
    13  O    3.369607   3.786334   0.000000
    14  H    4.035901   3.859497   1.856674   0.000000
    15  O    2.289386   5.718212   4.242475   5.604277   0.000000
    16  H    2.385929   6.504485   4.775727   6.005549   0.982166
                   16
    16  H    0.000000
 Stoichiometry    C4H7NO4
 Framework group  C1[X(C4H7NO4)]
 Deg. of freedom    42
 Full point group                 C1      NOp   1
 Largest Abelian subgroup         C1      NOp   1
 Largest concise Abelian subgroup C1      NOp   1
                         Standard orientation:                         
 ---------------------------------------------------------------------
 Center     Atomic      Atomic             Coordinates (Angstroms)
 Number     Number       Type             X           Y           Z
 ---------------------------------------------------------------------
      1          7           0       -1.515984    1.895351   -0.138159
      2          1           0       -1.669726    2.105059    0.841317
      3          6           0       -0.647675    0.748163   -0.405591
      4          1           0       -0.556686    0.632228   -1.488638
      5          6           0        0.736622    0.980874    0.204942
      6          6           0       -1.272508   -0.518229    0.126745
      7          1           0        1.116274    1.949816   -0.136146
      8          1           0        0.673580    1.024687    1.298788
      9          6           0        1.708220   -0.102590   -0.171758
     10          8           0       -2.222925   -1.194292   -0.532539
     11          8           0        1.465885   -1.061688   -0.911380
     12          1           0       -2.358385    1.941860   -0.697070
     13          8           0       -1.055887   -0.984287    1.322210
     14          1           0       -2.329356   -1.800632    0.245598
     15          8           0        2.941594    0.096998    0.400495
     16          1           0        3.558898   -0.623626    0.146946
 ---------------------------------------------------------------------
 Rotational constants (GHZ):      2.4988818      1.1146277      0.9325950
 Standard basis: 6-31G (6D, 7F)
 There are    95 symmetry adapted cartesian basis functions of A   symmetry.
 There are    95 symmetry adapted basis functions of A   symmetry.
    95 basis functions,   226 primitive gaussians,    95 cartesian basis functions
    35 alpha electrons       35 beta electrons
       nuclear repulsion energy       467.6094076568 Hartrees.
 NAtoms=   16 NActive=   16 NUniq=   16 SFac= 1.00D+00 NAtFMM=   60 NAOKFM=F Big=F
 Integral buffers will be    131072 words long.
 Raffenetti 2 integral format.
 Two-electron integral symmetry is turned on.
 One-electron integrals computed using PRISM.
 NBasis=    95 RedAO= T EigKep=  3.39D-03  NBF=    95
 NBsUse=    95 1.00D-06 EigRej= -1.00D+00 NBFU=    95
 Initial guess from the checkpoint file:  "Asp-S-opt-freq-p1-6-31g.chk"
 B after Tr=     0.000000    0.000000    0.000000
         Rot=    0.999967    0.007679   -0.002635    0.000948 Ang=   0.94 deg.
 ExpMin= 1.61D-01 ExpMax= 5.48D+03 ExpMxC= 8.25D+02 IAcc=1 IRadAn=         1 AccDes= 0.00D+00
 Harris functional with IExCor=  402 and IRadAn=       1 diagonalized for initial guess.
 HarFok:  IExCor=  402 AccDes= 0.00D+00 IRadAn=         1 IDoV= 1 UseB2=F ITyADJ=14
 ICtDFT=  3500011 ScaDFX=  1.000000  1.000000  1.000000  1.000000
 FoFCou: FMM=F IPFlag=           0 FMFlag=      100000 FMFlg1=           0
         NFxFlg=           0 DoJE=T BraDBF=F KetDBF=T FulRan=T
         wScrn=  0.000000 ICntrl=     500 IOpCl=  0 I1Cent=   200000004 NGrid=           0
         NMat0=    1 NMatS0=      1 NMatT0=    0 NMatD0=    1 NMtDS0=    0 NMtDT0=    0
 Petite list used in FoFCou.
 Keep R1 ints in memory in canonical form, NReq=11361399.
 Requested convergence on RMS density matrix=1.00D-08 within 128 cycles.
 Requested convergence on MAX density matrix=1.00D-06.
 Requested convergence on             energy=1.00D-06.
 No special actions if energy rises.
 Integral accuracy reduced to 1.0D-05 until final iterations.
 Initial convergence to 1.0D-05 achieved.  Increase integral accuracy.
 SCF Done:  E(RB3LYP) =  -512.108562245     A.U. after   16 cycles
            NFock= 16  Conv=0.41D-08     -V/T= 2.0055
 Calling FoFJK, ICntrl=      2127 FMM=F ISym2X=0 I1Cent= 0 IOpClX= 0 NMat=1 NMatS=1 NMatT=0.
 ***** Axes restored to original set *****
 -------------------------------------------------------------------
 Center     Atomic                   Forces (Hartrees/Bohr)
 Number     Number              X              Y              Z
 -------------------------------------------------------------------
      1        7          -0.000541725    0.001029609   -0.000378309
      2        1           0.000037131   -0.000564821    0.000097876
      3        6          -0.003651569   -0.001213099   -0.008150402
      4        1           0.000781845    0.001640572   -0.000941018
      5        6          -0.000495639   -0.000432527    0.000305781
      6        6           0.031423781   -0.006058294    0.070223821
      7        1          -0.000098397   -0.000046586   -0.000292490
      8        1          -0.000387623   -0.000634929   -0.000408825
      9        6          -0.001068491    0.000218822    0.000174338
     10        8          -0.002973757    0.002127147   -0.007336702
     11        8           0.000527720   -0.000109336   -0.000308481
     12        1           0.000131861    0.000472349   -0.000003827
     13        8           0.003774061    0.029468063   -0.041009185
     14        1          -0.027778250   -0.025784534   -0.011988608
     15        8           0.000416741   -0.000083184   -0.000015117
     16        1          -0.000097688   -0.000029253    0.000031150
 -------------------------------------------------------------------
 Cartesian Forces:  Max     0.070223821 RMS     0.014618718

 GradGradGradGradGradGradGradGradGradGradGradGradGradGradGradGradGradGrad
 Berny optimization.
 Using GEDIIS/GDIIS optimizer.
 FormGI is forming the generalized inverse of G from B-inverse, IUseBI=4.
 Internal  Forces:  Max     0.072119172 RMS     0.012934143
 Search for a local minimum.
 Step number   2 out of a maximum of   79
 All quantities printed in internal units (Hartrees-Bohrs-Radians)
 Mixed Optimization -- RFO/linear search
 Update second derivatives using D2CorX and points    1    2
 DE= -4.68D-02 DEPred=-6.07D-02 R= 7.71D-01
 TightC=F SS=  1.41D+00  RLast= 3.00D-01 DXNew= 5.0454D-01 9.0040D-01
 Trust test= 7.71D-01 RLast= 3.00D-01 DXMaxT set to 5.05D-01
 ITU=  1  0
 Use linear search instead of GDIIS.
 Linear search step of   0.600 exceeds DXMaxT=   0.505 but not scaled.
 Quartic linear search produced a step of  2.00000.
 Iteration  1 RMS(Cart)=  0.07346918 RMS(Int)=  0.04484022
 Iteration  2 RMS(Cart)=  0.04490675 RMS(Int)=  0.02057964
 Iteration  3 RMS(Cart)=  0.03474554 RMS(Int)=  0.00293728
 Iteration  4 RMS(Cart)=  0.00285427 RMS(Int)=  0.00010043
 Iteration  5 RMS(Cart)=  0.00000509 RMS(Int)=  0.00010038
 Iteration  6 RMS(Cart)=  0.00000000 RMS(Int)=  0.00010038
 Variable       Old X    -DE/DX   Delta X   Delta X   Delta X     New X
                                 (Linear)    (Quad)   (Total)
    R1        1.91506  -0.00002   0.00005   0.00000   0.00005   1.91511
    R2        2.76541   0.00090   0.00165   0.00000   0.00165   2.76707
    R3        1.91244  -0.00008   0.00016   0.00000   0.00016   1.91260
    R4        2.06552   0.00086   0.00192   0.00000   0.00192   2.06744
    R5        2.89269  -0.00146  -0.00360   0.00000  -0.00360   2.88909
    R6        2.85189   0.00167  -0.00231   0.00000  -0.00231   2.84958
    R7        2.06951   0.00001   0.00001   0.00000   0.00001   2.06952
    R8        2.07215  -0.00040  -0.00049   0.00000  -0.00049   2.07166
    R9        2.84076  -0.00012  -0.00068   0.00000  -0.00068   2.84008
   R10        2.53182   0.04321   0.13451   0.00000   0.13451   2.66633
   R11        2.45902  -0.04788  -0.03011   0.00000  -0.03011   2.42891
   R12        2.33413   0.00017   0.00030   0.00000   0.00030   2.33443
   R13        2.59693   0.00028  -0.00017   0.00000  -0.00017   2.59676
   R14        1.87500   0.01000   0.08635   0.00000   0.08635   1.96134
   R15        1.85603  -0.00005  -0.00003   0.00000  -0.00003   1.85599
    A1        2.01403  -0.00087  -0.00199   0.00000  -0.00199   2.01204
    A2        1.98012   0.00008  -0.00014   0.00000  -0.00014   1.97998
    A3        2.01419   0.00074   0.00316   0.00000   0.00316   2.01735
    A4        1.88980  -0.00072  -0.00128   0.00000  -0.00128   1.88852
    A5        1.92253   0.00090   0.00279   0.00000   0.00279   1.92532
    A6        1.92591   0.00054   0.00072   0.00000   0.00072   1.92663
    A7        1.91351  -0.00018  -0.00065   0.00000  -0.00064   1.91287
    A8        1.87023   0.00177   0.00512   0.00000   0.00512   1.87535
    A9        1.94046  -0.00227  -0.00656   0.00000  -0.00655   1.93390
   A10        1.90053   0.00001   0.00055   0.00000   0.00055   1.90107
   A11        1.93045  -0.00048  -0.00068   0.00000  -0.00068   1.92977
   A12        1.95517   0.00016  -0.00224   0.00000  -0.00224   1.95292
   A13        1.87054   0.00035   0.00092   0.00000   0.00092   1.87146
   A14        1.91302  -0.00014   0.00081   0.00000   0.00081   1.91382
   A15        1.89223   0.00011   0.00079   0.00000   0.00079   1.89302
   A16        2.14547  -0.02878  -0.08902   0.00000  -0.08900   2.05648
   A17        2.15998  -0.00580  -0.06419   0.00000  -0.06413   2.09585
   A18        1.97082   0.03448   0.15328   0.00000   0.15326   2.12408
   A19        2.19308   0.00057  -0.00037   0.00000  -0.00037   2.19271
   A20        1.95094   0.00002   0.00048   0.00000   0.00048   1.95141
   A21        2.13911  -0.00059  -0.00011   0.00000  -0.00011   2.13900
   A22        1.56934   0.07212   0.54577   0.00000   0.54577   2.11512
   A23        1.92840  -0.00012  -0.00003   0.00000  -0.00003   1.92837
    D1       -3.13476   0.00052   0.00172   0.00000   0.00171  -3.13305
    D2       -1.04245   0.00039   0.00179   0.00000   0.00179  -1.04066
    D3        1.10660  -0.00150  -0.00411   0.00000  -0.00411   1.10249
    D4        0.78358   0.00055   0.00058   0.00000   0.00058   0.78416
    D5        2.87589   0.00042   0.00065   0.00000   0.00066   2.87655
    D6       -1.25824  -0.00147  -0.00525   0.00000  -0.00525  -1.26349
    D7       -0.91371   0.00015  -0.00045   0.00000  -0.00045  -0.91417
    D8        1.13744   0.00030   0.00061   0.00000   0.00060   1.13804
    D9       -3.03256   0.00021  -0.00039   0.00000  -0.00039  -3.03295
   D10        1.16418  -0.00030  -0.00071   0.00000  -0.00072   1.16347
   D11       -3.06785  -0.00015   0.00034   0.00000   0.00034  -3.06751
   D12       -0.95467  -0.00024  -0.00065   0.00000  -0.00065  -0.95532
   D13       -3.05423   0.00038   0.00118   0.00000   0.00118  -3.05305
   D14       -1.00308   0.00053   0.00224   0.00000   0.00224  -1.00084
   D15        1.11010   0.00045   0.00124   0.00000   0.00125   1.11135
   D16        1.41205   0.00115   0.00755   0.00000   0.00772   1.41977
   D17       -1.59446  -0.00041  -0.00447   0.00000  -0.00464  -1.59910
   D18       -0.64187   0.00069   0.00572   0.00000   0.00588  -0.63599
   D19        2.63480  -0.00087  -0.00630   0.00000  -0.00648   2.62832
   D20       -2.73257   0.00111   0.00710   0.00000   0.00728  -2.72529
   D21        0.54410  -0.00044  -0.00492   0.00000  -0.00508   0.53902
   D22        0.03196   0.00032   0.00093   0.00000   0.00093   0.03289
   D23       -3.12049   0.00017   0.00048   0.00000   0.00048  -3.12001
   D24       -2.07969   0.00030   0.00116   0.00000   0.00117  -2.07852
   D25        1.05105   0.00014   0.00071   0.00000   0.00071   1.05176
   D26        2.16707  -0.00011  -0.00084   0.00000  -0.00084   2.16623
   D27       -0.98538  -0.00026  -0.00129   0.00000  -0.00129  -0.98667
   D28       -3.03540  -0.00030  -0.00298   0.00000  -0.00248  -3.03788
   D29       -0.01567  -0.00116  -0.00493   0.00000  -0.00544  -0.02111
   D30        3.13527   0.00002  -0.00011   0.00000  -0.00011   3.13516
   D31       -0.01679  -0.00012  -0.00055   0.00000  -0.00055  -0.01734
         Item               Value     Threshold  Converged?
 Maximum Force            0.072119     0.000450     NO 
 RMS     Force            0.012934     0.000300     NO 
 Maximum Displacement     0.760119     0.001800     NO 
 RMS     Displacement     0.146057     0.001200     NO 
 Predicted change in Energy=-2.807499D-02
 GradGradGradGradGradGradGradGradGradGradGradGradGradGradGradGradGradGrad

                          Input orientation:                          
 ---------------------------------------------------------------------
 Center     Atomic      Atomic             Coordinates (Angstroms)
 Number     Number       Type             X           Y           Z
 ---------------------------------------------------------------------
      1          7           0       -1.494597    1.899371   -0.093540
      2          1           0       -1.629904    2.127899    0.884475
      3          6           0       -0.618796    0.754923   -0.352943
      4          1           0       -0.547484    0.617686   -1.436001
      5          6           0        0.773578    1.010559    0.224383
      6          6           0       -1.214970   -0.504218    0.224115
      7          1           0        1.139214    1.974915   -0.143941
      8          1           0        0.731107    1.075621    1.317902
      9          6           0        1.743587   -0.074453   -0.150528
     10          8           0       -2.211044   -1.164974   -0.525583
     11          8           0        1.491647   -1.049252   -0.866298
     12          1           0       -2.348824    1.927769   -0.635619
     13          8           0       -0.914794   -0.870275    1.419084
     14          1           0       -2.720930   -1.982303   -0.139288
     15          8           0        2.987320    0.142953    0.391814
     16          1           0        3.603262   -0.579359    0.139822
 ---------------------------------------------------------------------
                    Distance matrix (angstroms):
                    1          2          3          4          5
     1  N    0.000000
     2  H    1.013432   0.000000
     3  C    1.464268   2.106800   0.000000
     4  H    2.083733   2.972706   1.094044   0.000000
     5  C    2.456762   2.731463   1.528842   2.157875   0.000000
     6  C    2.440561   2.745229   1.507931   2.111916   2.499774
     7  H    2.635377   2.957880   2.150038   2.521198   1.095142
     8  H    2.761248   2.620977   2.171821   3.070583   1.096276
     9  C    3.792765   4.159570   2.511909   2.716707   1.502906
    10  O    3.176503   3.628911   2.500213   2.602724   3.768734
    11  O    4.267223   4.785767   2.823570   2.694679   2.438858
    12  H    1.012106   1.693394   2.109140   2.366803   3.366046
    13  O    3.208605   3.128296   2.422595   3.240441   2.795612
    14  H    4.071042   4.374036   3.457893   3.628398   4.615307
    15  O    4.838198   5.049899   3.732726   4.007632   2.383575
    16  H    5.673335   5.938836   4.455210   4.598350   3.246860
                    6          7          8          9         10
     6  C    0.000000
     7  H    3.438568   0.000000
     8  H    2.734863   1.764162   0.000000
     9  C    3.012991   2.136637   2.122280   0.000000
    10  O    1.410960   4.607471   4.132185   4.119346   0.000000
    11  O    2.968474   3.129153   3.140738   1.235327   3.720134
    12  H    2.817681   3.522837   3.745447   4.581706   3.097766
    13  O    1.285323   3.841498   2.550635   3.188104   2.355598
    14  H    2.141194   5.528138   4.836409   4.855093   1.037899
    15  O    4.255137   2.656805   2.611131   1.374144   5.438316
    16  H    4.819555   3.560389   3.517969   1.948750   5.881485
                   11         12         13         14         15
    11  O    0.000000
    12  H    4.864677   0.000000
    13  O    3.323546   3.755969   0.000000
    14  H    4.375492   3.958974   2.631968   0.000000
    15  O    2.289375   5.719757   4.160338   6.114156   0.000000
    16  H    2.385790   6.504946   4.704676   6.483946   0.982150
                   16
    16  H    0.000000
 Stoichiometry    C4H7NO4
 Framework group  C1[X(C4H7NO4)]
 Deg. of freedom    42
 Full point group                 C1      NOp   1
 Largest Abelian subgroup         C1      NOp   1
 Largest concise Abelian subgroup C1      NOp   1
                         Standard orientation:                         
 ---------------------------------------------------------------------
 Center     Atomic      Atomic             Coordinates (Angstroms)
 Number     Number       Type             X           Y           Z
 ---------------------------------------------------------------------
      1          7           0       -1.523332    1.872911   -0.188174
      2          1           0       -1.654740    2.135998    0.781652
      3          6           0       -0.654380    0.715394   -0.409889
      4          1           0       -0.586764    0.540241   -1.487702
      5          6           0        0.740914    0.983341    0.154662
      6          6           0       -1.255706   -0.519683    0.212081
      7          1           0        1.110698    1.932320   -0.247873
      8          1           0        0.701780    1.086569    1.245365
      9          6           0        1.704074   -0.119300   -0.184796
     10          8           0       -2.257347   -1.200644   -0.511670
     11          8           0        1.444965   -1.116982   -0.865623
     12          1           0       -2.378872    1.887117   -0.728736
     13          8           0       -0.954229   -0.845650    1.418279
     14          1           0       -2.770542   -2.001277   -0.095916
     15          8           0        2.950430    0.110035    0.346499
     16          1           0        3.561806   -0.623935    0.118186
 ---------------------------------------------------------------------
 Rotational constants (GHZ):      2.5066998      1.1063689      0.9352672
 Standard basis: 6-31G (6D, 7F)
 There are    95 symmetry adapted cartesian basis functions of A   symmetry.
 There are    95 symmetry adapted basis functions of A   symmetry.
    95 basis functions,   226 primitive gaussians,    95 cartesian basis functions
    35 alpha electrons       35 beta electrons
       nuclear repulsion energy       465.5164575649 Hartrees.
 NAtoms=   16 NActive=   16 NUniq=   16 SFac= 1.00D+00 NAtFMM=   60 NAOKFM=F Big=F
 Integral buffers will be    131072 words long.
 Raffenetti 2 integral format.
 Two-electron integral symmetry is turned on.
 One-electron integrals computed using PRISM.
 NBasis=    95 RedAO= T EigKep=  3.41D-03  NBF=    95
 NBsUse=    95 1.00D-06 EigRej= -1.00D+00 NBFU=    95
 Initial guess from the checkpoint file:  "Asp-S-opt-freq-p1-6-31g.chk"
 B after Tr=     0.000000    0.000000    0.000000
         Rot=    0.999754    0.021166   -0.006387    0.001543 Ang=   2.54 deg.
 ExpMin= 1.61D-01 ExpMax= 5.48D+03 ExpMxC= 8.25D+02 IAcc=1 IRadAn=         1 AccDes= 0.00D+00
 Harris functional with IExCor=  402 and IRadAn=       1 diagonalized for initial guess.
 HarFok:  IExCor=  402 AccDes= 0.00D+00 IRadAn=         1 IDoV= 1 UseB2=F ITyADJ=14
 ICtDFT=  3500011 ScaDFX=  1.000000  1.000000  1.000000  1.000000
 FoFCou: FMM=F IPFlag=           0 FMFlag=      100000 FMFlg1=           0
         NFxFlg=           0 DoJE=T BraDBF=F KetDBF=T FulRan=T
         wScrn=  0.000000 ICntrl=     500 IOpCl=  0 I1Cent=   200000004 NGrid=           0
         NMat0=    1 NMatS0=      1 NMatT0=    0 NMatD0=    1 NMtDS0=    0 NMtDT0=    0
 Petite list used in FoFCou.
 Keep R1 ints in memory in canonical form, NReq=11361399.
 Requested convergence on RMS density matrix=1.00D-08 within 128 cycles.
 Requested convergence on MAX density matrix=1.00D-06.
 Requested convergence on             energy=1.00D-06.
 No special actions if energy rises.
 Integral accuracy reduced to 1.0D-05 until final iterations.
 Initial convergence to 1.0D-05 achieved.  Increase integral accuracy.
 SCF Done:  E(RB3LYP) =  -512.117742839     A.U. after   16 cycles
            NFock= 16  Conv=0.27D-08     -V/T= 2.0061
 Calling FoFJK, ICntrl=      2127 FMM=F ISym2X=0 I1Cent= 0 IOpClX= 0 NMat=1 NMatS=1 NMatT=0.
 ***** Axes restored to original set *****
 -------------------------------------------------------------------
 Center     Atomic                   Forces (Hartrees/Bohr)
 Number     Number              X              Y              Z
 -------------------------------------------------------------------
      1        7           0.000643128    0.001815238   -0.000203214
      2        1          -0.000147682   -0.000781246    0.000158260
      3        6          -0.007744228    0.002098715   -0.018635006
      4        1           0.000576323    0.002174467   -0.000294022
      5        6           0.000142461   -0.000003989    0.000908141
      6        6          -0.007988725   -0.049081379    0.069871031
      7        1          -0.000167060   -0.000115905   -0.000530050
      8        1          -0.000151482   -0.000587271   -0.000566295
      9        6          -0.001699408    0.000073436   -0.000327327
     10        8          -0.001131072   -0.003046090    0.005612550
     11        8           0.001356357    0.000001345   -0.000112954
     12        1           0.000540646   -0.000304392   -0.000019983
     13        8          -0.017814028    0.010408368   -0.053661756
     14        1           0.032752908    0.037464351   -0.002405290
     15        8           0.001002171   -0.000080068    0.000220751
     16        1          -0.000170309   -0.000035581   -0.000014835
 -------------------------------------------------------------------
 Cartesian Forces:  Max     0.069871031 RMS     0.016840907

 GradGradGradGradGradGradGradGradGradGradGradGradGradGradGradGradGradGrad
 Berny optimization.
 Using GEDIIS/GDIIS optimizer.
 FormGI is forming the generalized inverse of G from B-inverse, IUseBI=4.
 GSVD:  received Info=                   1 from GESDD.
 Internal  Forces:  Max     0.057013239 RMS     0.011726375
 Search for a local minimum.
 Step number   3 out of a maximum of   79
 All quantities printed in internal units (Hartrees-Bohrs-Radians)
 Mixed Optimization -- RFO/linear search
 Update second derivatives using D2CorX and points    2    3
 ITU=  0  1  0
 Use linear search instead of GDIIS.
     Eigenvalues ---    0.00347   0.00637   0.00720   0.00859   0.01031
     Eigenvalues ---    0.01280   0.02032   0.02553   0.02959   0.04198
     Eigenvalues ---    0.04591   0.05145   0.05423   0.06537   0.09303
     Eigenvalues ---    0.12770   0.15997   0.16000   0.16000   0.17363
     Eigenvalues ---    0.18036   0.18403   0.21956   0.23492   0.24999
     Eigenvalues ---    0.25000   0.26363   0.29269   0.31489   0.32019
     Eigenvalues ---    0.34053   0.34226   0.34523   0.36598   0.45410
     Eigenvalues ---    0.45643   0.50163   0.50965   0.54312   0.61236
     Eigenvalues ---    0.67830   0.89000
 RFO step:  Lambda=-9.35862859D-03 EMin= 3.46652859D-03
 Quartic linear search produced a step of -0.41980.
 Iteration  1 RMS(Cart)=  0.04947274 RMS(Int)=  0.00275268
 Iteration  2 RMS(Cart)=  0.00308577 RMS(Int)=  0.00001784
 Iteration  3 RMS(Cart)=  0.00001254 RMS(Int)=  0.00001575
 Iteration  4 RMS(Cart)=  0.00000000 RMS(Int)=  0.00001575
 Variable       Old X    -DE/DX   Delta X   Delta X   Delta X     New X
                                 (Linear)    (Quad)   (Total)
    R1        1.91511   0.00000  -0.00002  -0.00002  -0.00004   1.91507
    R2        2.76707  -0.00006  -0.00069   0.00092   0.00023   2.76729
    R3        1.91260  -0.00045  -0.00007  -0.00063  -0.00070   1.91190
    R4        2.06744   0.00006  -0.00081   0.00112   0.00031   2.06776
    R5        2.88909   0.00000   0.00151  -0.00200  -0.00049   2.88860
    R6        2.84958   0.00869   0.00097   0.01772   0.01869   2.86827
    R7        2.06952   0.00002   0.00000   0.00005   0.00004   2.06956
    R8        2.07166  -0.00059   0.00021  -0.00146  -0.00125   2.07041
    R9        2.84008   0.00040   0.00028   0.00055   0.00084   2.84092
   R10        2.66633  -0.04015  -0.05647  -0.00286  -0.05933   2.60700
   R11        2.42891  -0.05701   0.01264  -0.08197  -0.06933   2.35958
   R12        2.33443  -0.00021  -0.00013  -0.00004  -0.00017   2.33426
   R13        2.59676   0.00082   0.00007   0.00115   0.00122   2.59798
   R14        1.96134  -0.04649  -0.03625  -0.03939  -0.07564   1.88571
   R15        1.85599  -0.00008   0.00001  -0.00013  -0.00012   1.85588
    A1        2.01204  -0.00068   0.00084  -0.00598  -0.00517   2.00688
    A2        1.97998   0.00050   0.00006  -0.00035  -0.00032   1.97967
    A3        2.01735  -0.00042  -0.00133  -0.00147  -0.00282   2.01454
    A4        1.88852  -0.00052   0.00054  -0.00425  -0.00377   1.88475
    A5        1.92532  -0.00004  -0.00117  -0.00370  -0.00490   1.92041
    A6        1.92663   0.00033  -0.00030   0.00074   0.00039   1.92702
    A7        1.91287  -0.00033   0.00027  -0.00402  -0.00375   1.90912
    A8        1.87535   0.00165  -0.00215   0.02094   0.01880   1.89415
    A9        1.93390  -0.00104   0.00275  -0.00904  -0.00630   1.92761
   A10        1.90107  -0.00064  -0.00023  -0.00209  -0.00232   1.89876
   A11        1.92977  -0.00074   0.00029  -0.00339  -0.00310   1.92667
   A12        1.95292   0.00196   0.00094   0.00491   0.00585   1.95877
   A13        1.87146   0.00061  -0.00039   0.00366   0.00326   1.87472
   A14        1.91382  -0.00078  -0.00034  -0.00299  -0.00332   1.91050
   A15        1.89302  -0.00046  -0.00033  -0.00015  -0.00048   1.89254
   A16        2.05648  -0.02542   0.03736  -0.10053  -0.06320   1.99328
   A17        2.09585   0.02165   0.02692   0.04102   0.06790   2.16375
   A18        2.12408   0.00376  -0.06434   0.06144  -0.00293   2.12115
   A19        2.19271   0.00163   0.00016   0.00454   0.00468   2.19739
   A20        1.95141  -0.00031  -0.00020  -0.00070  -0.00091   1.95050
   A21        2.13900  -0.00132   0.00005  -0.00392  -0.00388   2.13512
   A22        2.11512  -0.03512  -0.22912   0.01886  -0.21025   1.90486
   A23        1.92837  -0.00027   0.00001  -0.00122  -0.00121   1.92716
    D1       -3.13305   0.00042  -0.00072  -0.00352  -0.00424  -3.13729
    D2       -1.04066  -0.00033  -0.00075  -0.01323  -0.01396  -1.05462
    D3        1.10249  -0.00144   0.00172  -0.02668  -0.02495   1.07754
    D4        0.78416   0.00091  -0.00024   0.00571   0.00545   0.78960
    D5        2.87655   0.00017  -0.00028  -0.00400  -0.00427   2.87228
    D6       -1.26349  -0.00095   0.00220  -0.01746  -0.01525  -1.27874
    D7       -0.91417   0.00036   0.00019   0.01277   0.01297  -0.90119
    D8        1.13804   0.00028  -0.00025   0.01399   0.01375   1.15179
    D9       -3.03295   0.00051   0.00016   0.01478   0.01495  -3.01801
   D10        1.16347  -0.00051   0.00030   0.00278   0.00309   1.16655
   D11       -3.06751  -0.00059  -0.00014   0.00400   0.00386  -3.06365
   D12       -0.95532  -0.00037   0.00027   0.00478   0.00506  -0.95026
   D13       -3.05305   0.00068  -0.00050   0.02055   0.02004  -3.03301
   D14       -1.00084   0.00060  -0.00094   0.02176   0.02081  -0.98003
   D15        1.11135   0.00083  -0.00052   0.02255   0.02201   1.13336
   D16        1.41977   0.00078  -0.00324   0.03455   0.03134   1.45111
   D17       -1.59910   0.00065   0.00195   0.01289   0.01485  -1.58425
   D18       -0.63599   0.00027  -0.00247   0.02698   0.02450  -0.61149
   D19        2.62832   0.00013   0.00272   0.00532   0.00801   2.63633
   D20       -2.72529   0.00025  -0.00305   0.02419   0.02114  -2.70415
   D21        0.53902   0.00011   0.00213   0.00252   0.00466   0.54368
   D22        0.03289   0.00023  -0.00039   0.01142   0.01103   0.04393
   D23       -3.12001   0.00002  -0.00020   0.00288   0.00267  -3.11733
   D24       -2.07852   0.00028  -0.00049   0.01287   0.01239  -2.06613
   D25        1.05176   0.00007  -0.00030   0.00434   0.00403   1.05580
   D26        2.16623   0.00024   0.00035   0.01024   0.01059   2.17683
   D27       -0.98667   0.00004   0.00054   0.00170   0.00224  -0.98443
   D28       -3.03788  -0.00128   0.00104  -0.02419  -0.02314  -3.06102
   D29       -0.02111   0.00015   0.00228  -0.00393  -0.00166  -0.02277
   D30        3.13516   0.00005   0.00005   0.00277   0.00280   3.13795
   D31       -0.01734  -0.00013   0.00023  -0.00540  -0.00515  -0.02249
         Item               Value     Threshold  Converged?
 Maximum Force            0.057013     0.000450     NO 
 RMS     Force            0.011726     0.000300     NO 
 Maximum Displacement     0.265524     0.001800     NO 
 RMS     Displacement     0.051559     0.001200     NO 
 Predicted change in Energy=-8.958803D-03
 GradGradGradGradGradGradGradGradGradGradGradGradGradGradGradGradGradGrad

                          Input orientation:                          
 ---------------------------------------------------------------------
 Center     Atomic      Atomic             Coordinates (Angstroms)
 Number     Number       Type             X           Y           Z
 ---------------------------------------------------------------------
      1          7           0       -1.495993    1.897375   -0.099576
      2          1           0       -1.636089    2.118971    0.879337
      3          6           0       -0.630437    0.744113   -0.354981
      4          1           0       -0.555065    0.611560   -1.438514
      5          6           0        0.761881    0.996146    0.223377
      6          6           0       -1.233640   -0.513361    0.243928
      7          1           0        1.124998    1.963383   -0.139923
      8          1           0        0.716640    1.052502    1.316604
      9          6           0        1.739288   -0.080877   -0.157087
     10          8           0       -2.182222   -1.120547   -0.552763
     11          8           0        1.503106   -1.047914   -0.888434
     12          1           0       -2.347200    1.930941   -0.645408
     13          8           0       -0.997160   -0.917760    1.401354
     14          1           0       -2.580421   -1.890489   -0.058417
     15          8           0        2.979783    0.139237    0.393159
     16          1           0        3.600904   -0.576418    0.135197
 ---------------------------------------------------------------------
                    Distance matrix (angstroms):
                    1          2          3          4          5
     1  N    0.000000
     2  H    1.013411   0.000000
     3  C    1.464388   2.103595   0.000000
     4  H    2.081206   2.968725   1.094209   0.000000
     5  C    2.452449   2.727871   1.528584   2.155025   0.000000
     6  C    2.449178   2.737677   1.517823   2.134601   2.502226
     7  H    2.622133   2.947321   2.148121   2.517216   1.095166
     8  H    2.759551   2.619904   2.168852   3.066323   1.095613
     9  C    3.792602   4.160129   2.517016   2.717643   1.503348
    10  O    3.127961   3.583803   2.433950   2.536216   3.708170
    11  O    4.276870   4.796740   2.836889   2.700465   2.442072
    12  H    1.011737   1.692890   2.107174   2.362526   3.360805
    13  O    3.229026   3.146818   2.445613   3.255629   2.853926
    14  H    3.940252   4.224560   3.291126   3.502425   4.425273
    15  O    4.833881   5.045987   3.736212   4.009148   2.383738
    16  H    5.670373   5.936747   4.459633   4.599994   3.246658
                    6          7          8          9         10
     6  C    0.000000
     7  H    3.441624   0.000000
     8  H    2.721424   1.765766   0.000000
     9  C    3.030867   2.134630   2.121820   0.000000
    10  O    1.379566   4.540789   4.076773   4.076238   0.000000
    11  O    3.009613   3.125882   3.145228   1.235237   3.701297
    12  H    2.829407   3.508949   3.742761   4.580966   3.057349
    13  O    1.248637   3.896161   2.612705   3.258414   2.294356
    14  H    1.949798   5.346877   4.628443   4.684475   0.997873
    15  O    4.266273   2.655543   2.609332   1.374790   5.397047
    16  H    4.836178   3.557582   3.516828   1.948488   5.849266
                   11         12         13         14         15
    11  O    0.000000
    12  H    4.874166   0.000000
    13  O    3.392845   3.758582   0.000000
    14  H    4.251359   3.873277   2.363016   0.000000
    15  O    2.287440   5.715380   4.236718   5.936292   0.000000
    16  H    2.381362   6.502010   4.781408   6.322424   0.982088
                   16
    16  H    0.000000
 Stoichiometry    C4H7NO4
 Framework group  C1[X(C4H7NO4)]
 Deg. of freedom    42
 Full point group                 C1      NOp   1
 Largest Abelian subgroup         C1      NOp   1
 Largest concise Abelian subgroup C1      NOp   1
                         Standard orientation:                         
 ---------------------------------------------------------------------
 Center     Atomic      Atomic             Coordinates (Angstroms)
 Number     Number       Type             X           Y           Z
 ---------------------------------------------------------------------
      1          7           0       -1.528401    1.865715   -0.177416
      2          1           0       -1.672277    2.110698    0.795355
      3          6           0       -0.660208    0.707997   -0.401832
      4          1           0       -0.580822    0.549398   -1.481571
      5          6           0        0.729683    0.976168    0.175106
      6          6           0       -1.263613   -0.535585    0.225218
      7          1           0        1.092614    1.934913   -0.210220
      8          1           0        0.680509    1.058875    1.266485
      9          6           0        1.710051   -0.108180   -0.175786
     10          8           0       -2.208465   -1.163377   -0.559850
     11          8           0        1.477908   -1.092998   -0.884343
     12          1           0       -2.377730    1.884711   -0.726861
     13          8           0       -1.030598   -0.911495    1.392905
     14          1           0       -2.607237   -1.921772   -0.048412
     15          8           0        2.948267    0.127159    0.373291
     16          1           0        3.571374   -0.593533    0.134883
 ---------------------------------------------------------------------
 Rotational constants (GHZ):      2.5171118      1.1050008      0.9375763
 Standard basis: 6-31G (6D, 7F)
 There are    95 symmetry adapted cartesian basis functions of A   symmetry.
 There are    95 symmetry adapted basis functions of A   symmetry.
    95 basis functions,   226 primitive gaussians,    95 cartesian basis functions
    35 alpha electrons       35 beta electrons
       nuclear repulsion energy       467.0790490366 Hartrees.
 NAtoms=   16 NActive=   16 NUniq=   16 SFac= 1.00D+00 NAtFMM=   60 NAOKFM=F Big=F
 Integral buffers will be    131072 words long.
 Raffenetti 2 integral format.
 Two-electron integral symmetry is turned on.
 One-electron integrals computed using PRISM.
 NBasis=    95 RedAO= T EigKep=  3.46D-03  NBF=    95
 NBsUse=    95 1.00D-06 EigRej= -1.00D+00 NBFU=    95
 Initial guess from the checkpoint file:  "Asp-S-opt-freq-p1-6-31g.chk"
 B after Tr=     0.000000    0.000000    0.000000
         Rot=    0.999933   -0.009842    0.005564   -0.002625 Ang=  -1.33 deg.
 ExpMin= 1.61D-01 ExpMax= 5.48D+03 ExpMxC= 8.25D+02 IAcc=1 IRadAn=         1 AccDes= 0.00D+00
 Harris functional with IExCor=  402 and IRadAn=       1 diagonalized for initial guess.
 HarFok:  IExCor=  402 AccDes= 0.00D+00 IRadAn=         1 IDoV= 1 UseB2=F ITyADJ=14
 ICtDFT=  3500011 ScaDFX=  1.000000  1.000000  1.000000  1.000000
 FoFCou: FMM=F IPFlag=           0 FMFlag=      100000 FMFlg1=           0
         NFxFlg=           0 DoJE=T BraDBF=F KetDBF=T FulRan=T
         wScrn=  0.000000 ICntrl=     500 IOpCl=  0 I1Cent=   200000004 NGrid=           0
         NMat0=    1 NMatS0=      1 NMatT0=    0 NMatD0=    1 NMtDS0=    0 NMtDT0=    0
 Petite list used in FoFCou.
 Keep R1 ints in memory in canonical form, NReq=11361399.
 Requested convergence on RMS density matrix=1.00D-08 within 128 cycles.
 Requested convergence on MAX density matrix=1.00D-06.
 Requested convergence on             energy=1.00D-06.
 No special actions if energy rises.
 Integral accuracy reduced to 1.0D-05 until final iterations.
 Initial convergence to 1.0D-05 achieved.  Increase integral accuracy.
 SCF Done:  E(RB3LYP) =  -512.130108347     A.U. after   14 cycles
            NFock= 14  Conv=0.28D-08     -V/T= 2.0056
 Calling FoFJK, ICntrl=      2127 FMM=F ISym2X=0 I1Cent= 0 IOpClX= 0 NMat=1 NMatS=1 NMatT=0.
 ***** Axes restored to original set *****
 -------------------------------------------------------------------
 Center     Atomic                   Forces (Hartrees/Bohr)
 Number     Number              X              Y              Z
 -------------------------------------------------------------------
      1        7           0.000462070    0.001187570    0.000450523
      2        1          -0.000463660    0.000085429    0.000179518
      3        6          -0.001554948    0.001016890   -0.007395586
      4        1          -0.000691917   -0.000816549    0.001080170
      5        6           0.000388196    0.000419210    0.000091278
      6        6           0.000848415   -0.010562497    0.018906997
      7        1           0.000264696    0.000032867    0.000258108
      8        1           0.000314872   -0.000034258    0.000379069
      9        6          -0.000741156    0.000689823   -0.000842640
     10        8          -0.000897582   -0.004294986    0.007085458
     11        8           0.000057746   -0.000377799    0.000180246
     12        1           0.000004465   -0.000179073   -0.000104392
     13        8          -0.003586517    0.003530822   -0.013993040
     14        1           0.004955631    0.009311995   -0.006857023
     15        8           0.000693828    0.000025583    0.000670932
     16        1          -0.000054139   -0.000035025   -0.000089618
 -------------------------------------------------------------------
 Cartesian Forces:  Max     0.018906997 RMS     0.004529533

 GradGradGradGradGradGradGradGradGradGradGradGradGradGradGradGradGradGrad
 Berny optimization.
 Using GEDIIS/GDIIS optimizer.
 FormGI is forming the generalized inverse of G from B-inverse, IUseBI=4.
 GSVD:  received Info=                   1 from GESDD.
 Internal  Forces:  Max     0.014792087 RMS     0.002806514
 Search for a local minimum.
 Step number   4 out of a maximum of   79
 All quantities printed in internal units (Hartrees-Bohrs-Radians)
 Mixed Optimization -- RFO/linear search
 Update second derivatives using D2CorX and points    2    3    4
 DE= -1.24D-02 DEPred=-8.96D-03 R= 1.38D+00
 TightC=F SS=  1.41D+00  RLast= 2.72D-01 DXNew= 8.4853D-01 8.1720D-01
 Trust test= 1.38D+00 RLast= 2.72D-01 DXMaxT set to 8.17D-01
 ITU=  1  0  1  0
 Use linear search instead of GDIIS.
     Eigenvalues ---    0.00347   0.00640   0.00721   0.00859   0.01031
     Eigenvalues ---    0.01232   0.02032   0.02610   0.02957   0.04175
     Eigenvalues ---    0.04680   0.05197   0.05428   0.06497   0.09345
     Eigenvalues ---    0.12800   0.15950   0.15999   0.16004   0.16109
     Eigenvalues ---    0.17219   0.18382   0.21970   0.22752   0.24557
     Eigenvalues ---    0.25000   0.25002   0.29289   0.31278   0.32021
     Eigenvalues ---    0.34058   0.34226   0.34532   0.36596   0.45409
     Eigenvalues ---    0.45644   0.50070   0.50634   0.50965   0.59357
     Eigenvalues ---    0.64324   0.89001
 RFO step:  Lambda=-1.14778430D-03 EMin= 3.47370605D-03
 Quartic linear search produced a step of  0.14521.
 Iteration  1 RMS(Cart)=  0.02926799 RMS(Int)=  0.00069112
 Iteration  2 RMS(Cart)=  0.00091730 RMS(Int)=  0.00005637
 Iteration  3 RMS(Cart)=  0.00000110 RMS(Int)=  0.00005637
 Iteration  4 RMS(Cart)=  0.00000000 RMS(Int)=  0.00005637
 Variable       Old X    -DE/DX   Delta X   Delta X   Delta X     New X
                                 (Linear)    (Quad)   (Total)
    R1        1.91507   0.00026  -0.00001   0.00072   0.00071   1.91578
    R2        2.76729   0.00095   0.00003   0.00329   0.00332   2.77062
    R3        1.91190   0.00005  -0.00010   0.00025   0.00015   1.91206
[...]
 ! D4    D(12,1,3,4)            45.952          -DE/DX =    0.0                 !
 ! D5    D(12,1,3,5)           165.7386         -DE/DX =    0.0                 !
 ! D6    D(12,1,3,6)           -71.5364         -DE/DX =    0.0                 !
 ! D7    D(1,3,5,7)            -49.6391         -DE/DX =    0.0                 !
 ! D8    D(1,3,5,8)             68.1031         -DE/DX =    0.0                 !
 ! D9    D(1,3,5,9)           -170.7484         -DE/DX =    0.0                 !
 ! D10   D(4,3,5,7)             69.2151         -DE/DX =    0.0                 !
 ! D11   D(4,3,5,8)           -173.0427         -DE/DX =    0.0                 !
 ! D12   D(4,3,5,9)            -51.8942         -DE/DX =    0.0                 !
 ! D13   D(6,3,5,7)           -172.6885         -DE/DX =    0.0                 !
 ! D14   D(6,3,5,8)            -54.9463         -DE/DX =    0.0                 !
 ! D15   D(6,3,5,9)             66.2022         -DE/DX =    0.0                 !
 ! D16   D(1,3,6,10)            75.6349         -DE/DX =    0.0                 !
 ! D17   D(1,3,6,13)           -99.4825         -DE/DX =    0.0                 !
 ! D18   D(4,3,6,10)           -42.3409         -DE/DX =    0.0                 !
 ! D19   D(4,3,6,13)           142.5416         -DE/DX =    0.0                 !
 ! D20   D(5,3,6,10)          -161.8557         -DE/DX =    0.0                 !
 ! D21   D(5,3,6,13)            23.0269         -DE/DX =    0.0                 !
 ! D22   D(3,5,9,11)             6.0057         -DE/DX =    0.0                 !
 ! D23   D(3,5,9,15)          -174.9952         -DE/DX =    0.0                 !
 ! D24   D(7,5,9,11)          -114.8597         -DE/DX =    0.0                 !
 ! D25   D(7,5,9,15)            64.1394         -DE/DX =    0.0                 !
 ! D26   D(8,5,9,11)           128.5939         -DE/DX =    0.0                 !
 ! D27   D(8,5,9,15)           -52.4069         -DE/DX =    0.0                 !
 ! D28   D(3,6,10,14)         -177.0727         -DE/DX =    0.0                 !
 ! D29   D(13,6,10,14)          -1.7291         -DE/DX =    0.0                 !
 ! D30   D(5,9,15,16)         -179.9553         -DE/DX =    0.0                 !
 ! D31   D(11,9,15,16)          -0.9126         -DE/DX =    0.0                 !
 --------------------------------------------------------------------------------
 GradGradGradGradGradGradGradGradGradGradGradGradGradGradGradGradGradGrad

 1\1\GINC-KALI\Freq\RB3LYP\6-31G\C4H7N1O4\ROOT\03-Apr-2016\0\\#N Geom=A
 llCheck Guess=TCheck SCRF=Check GenChk RB3LYP/6-31G Freq\\Asp-S-opt-fr
 eq-p1-6-31g\\0,1\N,-1.4989430854,1.8812781596,-0.1280850876\H,-1.64234
 94104,2.1341521625,0.8432904032\C,-0.6270393697,0.7245521851,-0.347952
 393\H,-0.5548800055,0.5531641015,-1.4246297009\C,0.7648470453,0.998557
 2814,0.2236829015\C,-1.2220606938,-0.5372566582,0.2745217703\H,1.11133
 35862,1.9726234062,-0.1387891631\H,0.7326648807,1.0511710159,1.3179746
 41\C,1.7584017622,-0.0595120788,-0.168383686\O,-2.2611866365,-1.023659
 7262,-0.4888895254\O,1.5542501855,-0.9935697595,-0.9502283086\H,-2.355
 9582259,1.8755665292,-0.6667183212\O,-0.9097532448,-1.0348415725,1.360
 4320574\H,-2.6678888948,-1.8071472734,-0.0582115226\O,2.977258701,0.13
 63945517,0.4402016001\H,3.609676126,-0.5646111945,0.1696383149\\Versio
 n=ES64L-G09RevD.01\State=1-A\HF=-512.1310128\RMSD=4.313e-09\RMSF=5.824
 e-06\ZeroPoint=0.1225735\Thermal=0.1321104\Dipole=-0.4145111,0.3831245
 ,0.0615967\DipoleDeriv=-0.5222573,-0.078001,0.1344508,-0.0345987,-0.86
 85956,0.1946635,0.0785036,0.2194059,-0.2518351,0.1969963,0.1090618,0.0
 044014,0.075304,0.3075564,0.0303944,0.0045861,-0.0516725,0.026739,0.45
 35266,-0.111438,-0.096123,-0.0790867,0.3312626,0.0072371,-0.0528511,-0
 .0227991,0.1528985,0.0668163,-0.0034985,-0.0018238,-0.0081429,0.037019
 5,-0.0329112,0.0056195,-0.0086871,-0.0443528,-0.1076209,0.1111463,0.00
 04348,0.1388543,-0.1568549,-0.1018316,0.0365935,-0.070291,0.0538541,1.
 0296034,0.5235929,0.4391142,0.4348345,0.8058337,-0.1734548,0.549866,-0
 .1175829,1.0103661,0.0303768,-0.0340031,0.0237785,-0.0548616,0.0072268
 ,0.033261,0.0179423,0.040629,0.0932546,0.0634034,0.0379662,0.0189445,0
 .0303771,0.1117339,0.0070867,-0.0173357,-0.0243825,-0.0272862,1.625250
 6,-0.1468184,0.3119107,-0.0325365,0.8578353,0.4213439,0.4427699,0.3796
 478,0.7080088,-0.9582918,-0.28185,-0.3548555,-0.282784,-0.5416379,-0.2
 604732,-0.3075339,-0.2392544,-0.5693988,-0.7575047,0.1073418,-0.012501
 ,-0.1052975,-0.7015679,-0.3200991,-0.1949842,-0.2454187,-0.5874376,0.0
 513514,0.0679171,-0.0764162,-0.0241787,0.2949952,-0.129827,-0.0110138,
 -0.1212691,0.2142602,-0.6056595,-0.1903795,-0.0645779,-0.027954,-0.590
 3339,0.2667389,-0.2980666,0.1859368,-0.8101211,0.3544544,-0.0386792,-0
 .0024363,-0.0771004,0.2412918,0.1056673,0.0318512,0.1602018,0.2490972,
 -1.2398772,-0.1292127,-0.334602,-0.0661338,-0.3430877,0.0523973,-0.333
 0518,0.0377591,-0.5436232,0.319432,0.0568542,0.0103008,0.1133049,0.207
 3229,-0.1001931,0.047105,-0.1222232,0.3255764\Polar=63.2690348,-0.4860
 092,56.7139419,7.2237341,2.608923,49.3869345\PG=C01 [X(C4H7N1O4)]\NIma
 g=0\\0.54010613,-0.16753137,0.26635071,0.14716877,0.16424393,0.6667681
 2,-0.05984899,0.04321717,0.04984047,0.05935798,0.03233183,-0.04436841,
 -0.07810534,-0.03781762,0.05974847,0.02617773,-0.11517215,-0.40786971,
 -0.03947402,0.10910982,0.42429445,-0.12585876,0.05926467,-0.00163525,-
 0.00209186,0.00615160,-0.00089126,0.49968905,0.08684976,-0.14240232,-0
 .03626135,0.00178340,-0.01329680,0.00825304,0.00535225,0.43766818,-0.0
 0385940,-0.02992511,-0.09975995,0.02499799,-0.02949453,-0.00399699,0.0
 1910388,0.03864254,0.63119378,-0.00320121,0.01137008,0.02306254,-0.002
 74898,0.00258006,0.00064116,-0.05143075,-0.00095333,0.01256262,0.06121
 405,0.00520534,-0.01202830,-0.03269699,0.00428977,-0.00283244,-0.00086
 678,-0.00133857,-0.05270455,-0.03301607,-0.00412863,0.06924972,0.00021
 361,-0.00307936,-0.00238885,0.00037645,0.00067511,0.00190680,0.0182908
 0,-0.03666513,-0.31265287,-0.01814521,0.04096457,0.33813268,-0.0303149
 5,0.00643519,-0.01304604,0.00146573,-0.00127673,0.00043020,-0.15826213
 ,-0.02390443,-0.03383081,-0.00079141,-0.00122482,-0.00125184,0.5018313
 0,0.03359772,-0.00074739,0.01374798,-0.00034103,0.00077709,0.00004999,
 -0.02599893,-0.08417903,-0.01095376,-0.00420322,-0.00036145,-0.0008478
 6,0.02569164,0.55260239,0.00551175,-0.00050684,0.00470324,0.00158793,0
 .00004711,0.00109353,-0.03881664,-0.01146863,-0.10662167,-0.03257873,-
 0.00723445,-0.01080948,-0.00258787,-0.01383376,0.57144068,-0.00078938,
 0.02634256,-0.00677052,0.00108023,0.00034037,-0.00126639,-0.09790987,-
 0.04493226,0.02479384,0.00059308,-0.00228640,-0.00228985,-0.02110964,-
 0.02976531,0.01161023,0.43473658,0.01040915,-0.04158199,0.00680506,-0.
 00146174,0.00035073,0.00029550,-0.03725654,-0.11990416,0.02696286,0.00
 024507,0.00372267,-0.00032493,-0.01215096,-0.00919243,0.00002997,0.108
 21827,0.50913393,-0.00441852,-0.00472650,0.00415134,0.00043797,-0.0041
 4437,0.00200034,0.02100627,0.02431215,-0.09949325,0.01588611,0.0328774
 6,-0.01842830,-0.00458388,-0.00901798,0.00624632,0.15993631,-0.2403038
 6,0.74510843,0.00357163,0.00100044,0.00026816,-0.00063473,-0.00037296,
 0.00035124,-0.01351969,-0.02918580,0.01106503,0.00108404,0.00031759,-0
 .00008561,-0.07277916,-0.07088671,0.02726039,-0.00389307,0.00116863,-0
 .00269424,0.08193976,0.00169971,0.00092794,0.00020329,-0.00003198,-0.0
 0003663,-0.00012478,-0.00203326,-0.00615696,0.00302389,-0.00009490,0.0
 0002504,-0.00025535,-0.07545922,-0.25564502,0.08150204,0.00012586,0.00
 029023,-0.00088576,0.08054784,0.28200388,0.00144020,-0.00022091,-0.000
 15196,0.00044022,0.00031371,-0.00010469,-0.00767828,-0.01252995,0.0040
 5317,0.00040016,-0.00033364,0.00049146,0.02858255,0.08030372,-0.074952
 68,-0.00237749,0.00084423,-0.00198676,-0.03053299,-0.08614932,0.082309
 51,0.00203209,-0.00128311,0.00066851,-0.00042422,0.00068219,0.00051190
 ,-0.00078610,-0.00241071,-0.03481175,-0.00543714,-0.00084090,-0.001264
 41,-0.05106735,0.00209006,0.01049462,0.00013444,0.00081995,-0.00263927
 ,-0.00013948,0.00005390,0.01045113,0.05663114,-0.00000100,-0.00017455,
 0.00063288,0.00053591,0.00042255,-0.00008397,0.00022643,-0.00002672,-0
 .00695507,-0.00099340,-0.00020302,-0.00049327,0.00167166,-0.04430021,-
 0.01050800,-0.00121026,0.00032834,-0.00322093,-0.00214824,0.00163362,0
 .03113710,-0.00326144,0.05040367,0.00013407,0.00023625,0.00110388,-0.0
 0099029,0.00038132,0.00002465,-0.00000740,-0.00151174,-0.01254811,-0.0
 0159854,-0.00008007,0.00070019,0.01001319,-0.01264745,-0.30937681,-0.0
 0036163,0.00165512,-0.00189639,0.00027693,-0.00162112,-0.01143769,-0.0
 0906777,0.01473659,0.34018327,-0.00161508,-0.00226732,-0.00294364,-0.0
 0013203,-0.00011017,0.00029021,-0.03035395,0.02520433,0.00634438,-0.00
 007866,0.00097134,-0.00026417,-0.13987895,0.05234420,0.02362259,-0.006
 82224,-0.00399096,-0.00070395,0.00918485,-0.00822842,-0.00245621,0.000
 14745,0.00249942,-0.00104819,0.55657298,-0.00358128,-0.00041549,-0.002
 79683,0.00131459,-0.00012475,-0.00017655,0.00403851,0.00402120,0.00858
 867,-0.00137497,0.00088209,-0.00229927,0.05034962,-0.13713661,-0.01413
 341,-0.00378128,0.00586808,-0.00143765,0.02269797,-0.02575965,-0.01234
 156,0.00007985,-0.00322564,-0.00278706,-0.05126296,0.67244472,-0.00477
 103,-0.00102635,-0.00299616,0.00049127,0.00013930,-0.00006625,-0.00524
 982,0.01165379,0.00509665,-0.00268157,0.00120356,-0.00165012,0.0205842
 1,-0.01342603,-0.09454377,-0.00167383,0.00164157,0.00219581,-0.0097516
 9,0.00668247,0.00376201,0.02647981,-0.03038822,-0.01124383,0.09360175,
 0.32348963,0.49448328,0.00149943,-0.00254790,0.00003276,-0.00058777,-0
 .00039814,0.00015256,-0.01651901,-0.01026103,-0.01495688,-0.00034547,0
 .00018007,-0.00012921,0.00041381,-0.00308785,0.00199863,-0.17023271,-0
 .06428355,-0.07329567,-0.00124245,-0.00032364,-0.00016499,0.00075644,0
 .00101485,0.00006768,0.00291435,-0.00125393,-0.00069024,0.29828459,-0.
 00177460,-0.00116126,0.00029871,-0.00004547,0.00002252,0.00007661,-0.0
 3202199,-0.01415601,-0.01531889,-0.00079337,-0.00071620,-0.00078450,-0
 .00073331,-0.00424891,0.00367588,-0.08161876,-0.12613525,-0.02537983,-
 0.00170537,-0.00028204,-0.00061339,0.00021000,0.00023982,-0.00016337,0
 .00218794,-0.00254391,-0.00145409,0.23408083,0.40612498,-0.00076206,-0
 .00013471,0.00162978,-0.00015752,0.00065397,0.00003828,0.00674633,0.00
 509241,0.00585471,-0.00043705,-0.00142300,0.00183520,0.00111529,0.0018
 7278,-0.00027550,-0.04863215,0.00287736,-0.12404952,0.00035963,0.00012
 192,0.00045330,0.00058924,0.00108256,0.00046019,0.00104158,-0.00024425
 ,-0.00138070,0.05817265,-0.13737770,0.28765922,-0.00011180,0.00123297,
 0.00128065,-0.00038682,0.00016719,-0.00017433,0.00041286,0.00038828,-0
 .00041613,0.00010028,-0.00012892,0.00180383,0.01224055,0.01821393,0.00
 940476,0.00271263,0.00068862,-0.00066892,-0.00215831,0.00319131,0.0018
 4508,-0.00132741,0.00244306,0.00176089,-0.11723690,-0.05123877,-0.0573
 1680,-0.00096626,-0.00017058,0.00004513,0.11574392,0.00117164,0.000849
 97,0.00023886,-0.00079308,-0.00015951,0.00020627,-0.00410462,-0.001182
 37,-0.00139935,0.00065453,-0.00031578,0.00045723,-0.00013309,-0.021847
 75,-0.03418513,0.00135154,-0.00389452,0.00103342,0.00052491,0.00053052
 ,-0.00070533,0.00326355,-0.00454317,0.00085666,-0.04308568,-0.41914141
 ,-0.27978912,0.00051690,0.00166456,0.00028807,0.07705658,0.45037620,0.
 00079195,0.00049901,0.00132087,-0.00074646,0.00001557,0.00015830,-0.00
 279006,0.00062554,-0.00244472,0.00149303,-0.00027954,0.00139924,-0.004
 90579,-0.02577956,0.00325581,0.00004068,-0.00026942,-0.00170388,0.0029
 7731,-0.00091778,-0.00254599,-0.00095774,0.00108803,0.00089041,-0.0506
 2147,-0.28338607,-0.30293221,0.00059867,0.00091724,0.00090111,0.091372
 86,0.34668603,0.32421564,-0.32521672,0.02913787,-0.19791933,0.00507581
 ,-0.00223592,0.01300929,-0.01683915,-0.01096623,-0.01037398,0.00042894
 ,-0.00002096,0.00047369,-0.00228936,0.00533055,0.00214676,0.00098872,-
 0.00018020,-0.00085476,0.00036354,0.00023837,0.00005188,0.00018587,-0.
 00009730,-0.00006561,-0.00055449,-0.00129226,-0.00158466,-0.00030480,-
 0.00017699,0.00012107,0.00011966,0.00037542,0.00042128,0.33871847,-0.0
 0096256,-0.02595318,-0.03660915,-0.01057328,-0.00081001,-0.00091026,0.
 02943867,-0.00765574,0.01739995,-0.00059390,0.00141744,0.00010311,0.00
 000704,-0.00298457,-0.00142918,0.00532702,0.00004526,0.00226634,0.0000
 3896,0.00020871,-0.00029603,-0.00000594,-0.00017735,0.00014363,0.00082
 987,0.00056985,0.00010824,-0.00135752,0.00066676,-0.00033155,-0.000259
 17,0.00004988,0.00021588,-0.02045940,0.03513754,-0.16908140,-0.0179735
 0,-0.16540041,-0.03568273,-0.00004913,-0.01693868,0.00786655,-0.000175
 04,0.00593218,0.00051932,0.00006652,0.00038781,0.00197979,-0.00215003,
 0.00018776,-0.00071289,0.00081919,-0.00118382,-0.00008784,-0.00015697,
 -0.00016433,0.00013428,-0.00005993,0.00020923,0.00024816,0.00019215,0.
 00082147,0.00028463,-0.00068388,-0.00039643,0.00015024,-0.00002565,-0.
 00022928,0.19367304,0.02021987,0.17632891,0.00245882,-0.00455126,0.001
 26735,-0.00032020,0.00003015,0.00023528,0.01283807,-0.00297809,0.00239
 397,-0.00037883,-0.00105743,0.00220101,-0.00001082,-0.00089805,0.00010
 719,-0.12000370,0.03778662,-0.12495525,0.00026182,0.00001306,0.0011580
 0,0.00008687,0.00081347,0.00174831,0.00221569,0.00093015,-0.00006121,-
 0.01466760,0.00865523,-0.06645648,-0.00157576,-0.00111397,0.00080999,-
 0.00000515,-0.00107938,-0.00001303,0.11631532,-0.00016878,-0.00094267,
 -0.00030562,0.00035864,0.00067661,-0.00056559,0.00290581,-0.00165215,0
 .03790479,-0.00230917,-0.00611751,0.00189204,0.00131561,-0.00037521,0.
 00122385,0.03422371,-0.19686599,0.21605415,-0.00015390,0.00016984,0.00
 035954,0.00007482,-0.00009097,0.00047647,0.00156701,-0.00390799,-0.000
 78421,-0.00113528,0.03045530,-0.00788602,0.00003263,0.00274706,-0.0004
 1205,-0.00020024,-0.00027024,-0.00001648,-0.04272197,0.17465067,0.0009
 0753,0.00613220,-0.00106295,-0.00084293,0.00072460,-0.00053201,-0.0124
 3739,0.01155209,-0.01526563,0.00069090,0.00143686,0.00013493,-0.002483
 80,-0.00201617,-0.00081113,-0.11740729,0.22445162,-0.52310182,-0.00027
 361,-0.00014633,0.00073366,0.00162078,0.00129287,0.00129454,0.00005441
 ,0.00048160,-0.00099390,-0.05235032,0.00648204,-0.05294872,0.00055670,
 -0.00016484,0.00071534,0.00071411,-0.00043756,0.00037605,0.17772316,-0
 .24988941,0.59357618,0.00069519,-0.00074078,0.00024815,0.00010933,0.00
 000012,0.00005865,-0.00184755,0.00018308,-0.00649988,0.00027662,0.0005
 5973,-0.00018800,0.00012327,-0.00084164,0.00058174,-0.02162594,-0.0426
 4763,0.01933236,-0.00028142,-0.00007711,-0.00017749,-0.00010796,-0.000
 16104,-0.00005412,-0.00039406,-0.00092624,-0.00057624,-0.09776744,-0.1
 2511867,0.04813180,0.00044317,0.00071451,0.00014688,0.00022937,-0.0003
 5177,-0.00000754,0.00320320,0.00743094,0.00242305,0.11678497,0.0010931
 0,0.00163257,-0.00063176,-0.00013791,-0.00036205,-0.00011617,-0.004902
 22,0.00455426,-0.00184249,0.00029999,0.00038308,0.00015282,0.00035008,
 -0.00095390,0.00078439,-0.01274447,-0.02071035,0.01229214,-0.00034847,
 0.00003175,-0.00026051,-0.00017461,-0.00013397,-0.00008535,0.00003410,
 -0.00007134,0.00007964,-0.15148634,-0.29069725,0.13527669,0.00005894,-
 0.00006436,-0.00006785,-0.00000505,-0.00011034,0.00027481,0.00625451,0
 .00079200,0.00036868,0.16177296,0.30568222,0.00026412,0.00116773,-0.00
 043006,-0.00010620,-0.00022546,-0.00000405,-0.00409877,0.00002709,-0.0
 0062264,-0.00042008,-0.00027029,0.00045279,-0.00040231,-0.00064921,0.0
 0083496,-0.01601094,-0.02522287,0.01312426,-0.00022657,-0.00001718,-0.
 00007637,0.00013131,-0.00000157,-0.00000236,-0.00010589,0.00029106,0.0
 0019715,0.08044486,0.17012580,-0.12011112,0.00006260,-0.00029109,-0.00
 011841,0.00006899,-0.00038581,0.00009332,0.00403794,0.00169577,-0.0025
 5084,-0.06367567,-0.14617692,0.10929888,-0.00287693,0.00105044,-0.0011
 2548,0.00004003,-0.00011104,-0.00005004,0.00211774,0.00418065,0.002699
 21,0.00082517,-0.00058456,0.00039706,-0.03598870,0.00303943,-0.0145341
 6,0.00271684,0.00231793,-0.00134624,-0.00208494,0.00005798,-0.00086529
 ,-0.00125163,-0.00083942,-0.00084226,-0.23296772,-0.00708478,-0.071320
 47,-0.00145991,-0.00092884,-0.00003035,-0.01644967,-0.03315819,-0.0416
 1098,-0.00073798,-0.00005222,0.00060735,-0.00083066,-0.00094820,0.0009
 0018,0.00029242,-0.00005871,0.00003130,0.49120517,0.00166139,0.0002074
 0,0.00107566,-0.00026224,-0.00001821,0.00001322,0.00071061,-0.00321477
 ,-0.00305279,0.00018647,-0.00040919,0.00044703,0.02905332,0.00483959,0
 .00735904,0.00040131,-0.00142327,0.00038296,-0.00088577,0.00168188,0.0
 0051526,0.00100718,0.00007372,0.00067672,0.02726404,-0.09547098,-0.017
 35970,0.00022396,0.00069977,0.00004557,-0.04977838,-0.00172770,-0.0398
 7057,0.00052388,-0.00019481,-0.00021161,-0.00018956,0.00081999,-0.0003
 8011,0.00022478,0.00001115,-0.00006235,-0.17638108,0.33973315,0.000218
 92,0.00041016,0.00054889,-0.00014924,0.00000275,-0.00002083,0.00124551
 ,-0.00173714,0.00036914,0.00054400,-0.00039746,0.00051167,0.00360513,-
 0.00171263,0.00810213,0.00105589,-0.00002756,-0.00138806,0.00080076,-0
 .00077928,-0.00010055,-0.00192609,0.00140838,0.00112094,-0.04730753,-0
 .03042341,-0.09861895,-0.00012567,0.00019974,0.00049038,-0.05385116,-0
 .03356764,-0.01912253,0.00015104,-0.00008775,-0.00003222,-0.00009927,-
 0.00000737,0.00070565,0.00024694,-0.00005857,-0.00009811,0.04515148,0.
 15329014,0.16842818,-0.00052947,-0.00012963,-0.00039711,0.00004650,0.0
 0003906,-0.00000218,0.00036111,0.00165011,0.00078792,-0.00010974,0.000
 08735,-0.00013815,-0.00358217,-0.00428480,-0.00580918,-0.00057597,0.00
 031734,-0.00043831,0.00032760,0.00032050,-0.00011647,0.00056700,-0.000
 49270,0.00003473,-0.04100124,0.04238579,0.01452051,0.00022478,-0.00004
 607,0.00015291,0.00843987,-0.00324095,0.00297984,-0.00016274,0.0000535
 7,0.00012207,0.00041294,-0.00027163,0.00020451,-0.00013316,-0.00000591
 ,0.00000533,-0.20254924,0.16624011,0.05043930,0.23826392,-0.00000004,-
 0.00019303,0.00016068,-0.00003513,0.00001083,0.00001179,-0.00043243,0.
 00028793,-0.00056463,0.00010870,0.00000838,0.00005776,0.00000838,0.003
 75343,-0.00132288,0.00000811,-0.00003127,-0.00010175,-0.00060911,0.000
 37688,-0.00002292,-0.00030480,-0.00022612,-0.00026659,-0.00395674,0.00
 401182,-0.00077048,0.00011859,0.00006711,0.00008591,-0.00189769,-0.003
 34160,0.00093552,0.00002846,0.00006079,-0.00007032,0.00010650,-0.00008
 874,0.00011188,-0.00002125,0.00001654,-0.00000471,0.20950061,-0.245607
 71,-0.08651236,-0.20262215,0.24089476,0.00006378,0.00007616,-0.0001660
 7,-0.00002292,-0.00004439,0.00001687,-0.00065446,0.00019033,0.00090622
 ,0.00006134,0.00004933,-0.00002316,-0.00321802,-0.00294002,0.00152662,
 0.00006604,-0.00023384,0.00040531,0.00029310,-0.00047975,-0.00028209,-
 0.00041456,0.00033252,0.00051789,-0.01975202,0.01698296,0.00786953,-0.
 00003947,-0.00000036,-0.00016017,0.00414461,0.00036160,-0.00375968,-0.
 00003282,0.00003027,0.00000844,-0.00009695,0.00026014,-0.00026936,0.00
 000938,0.00001045,0.00001261,0.08193870,-0.10286848,-0.06089573,-0.062
 34572,0.08827310,0.05429276\\-0.00000943,-0.00000103,-0.00000016,0.000
 00386,-0.00000022,-0.00000104,0.00000134,-0.00000448,-0.00001351,-0.00
 000166,-0.00000299,0.00000371,-0.00000509,0.00000166,-0.00000174,0.000
 01064,0.00000879,0.00000639,-0.00000479,0.00000190,-0.00000465,0.00000
 002,0.00000363,-0.00000031,-0.00000130,-0.00000062,-0.00000202,-0.0000
 0987,-0.00001257,-0.00000191,0.00000293,0.00000491,0.00000112,-0.00000
 697,-0.00000826,0.00000487,0.00000698,-0.00000474,0.00001501,0.0000077
 5,0.00000057,0.00000375,0.00000181,0.00000567,-0.00000560,0.00000379,0
 .00000780,-0.00000389\\\@


 I KNOW YOU BELIEVE YOU UNDERSTAND WHAT YOU THINK I SAID,
 BUT I AM NOT SURE YOU REALIZE THAT WHAT YOU HEARD IS NOT WHAT I MEANT.
 Job cpu time:       0 days  0 hours  2 minutes 31.6 seconds.
 File lengths (MBytes):  RWF=     26 Int=      0 D2E=      0 Chk=      2 Scr=      1
 Normal termination of Gaussian 09 at Sun Apr  3 00:29:38 2016.
