 Entering Link 1 = c:\G09w02\l1.exe PID=      2632.
  
 Copyright (c) 1988,1990,1992,1993,1995,1998,2003,2009,2010,
            Gaussian, Inc.  All Rights Reserved.
  
 This is part of the Gaussian(R) 09 program.  It is based on
 the Gaussian(R) 03 system (copyright 2003, Gaussian, Inc.),
 the Gaussian(R) 98 system (copyright 1998, Gaussian, Inc.),
 the Gaussian(R) 94 system (copyright 1995, Gaussian, Inc.),
 the Gaussian 92(TM) system (copyright 1992, Gaussian, Inc.),
 the Gaussian 90(TM) system (copyright 1990, Gaussian, Inc.),
 the Gaussian 88(TM) system (copyright 1988, Gaussian, Inc.),
 the Gaussian 86(TM) system (copyright 1986, Carnegie Mellon
 University), and the Gaussian 82(TM) system (copyright 1983,
 Carnegie Mellon University). Gaussian is a federally registered
 trademark of Gaussian, Inc.
  
 This software contains proprietary and confidential information,
 including trade secrets, belonging to Gaussian, Inc.
  
 This software is provided under written license and may be
 used, copied, transmitted, or stored only in accord with that
 written license.
  
 The following legend is applicable only to US Government
 contracts under FAR:
  
                    RESTRICTED RIGHTS LEGEND
  
 Use, reproduction and disclosure by the US Government is
 subject to restrictions as set forth in subparagraphs (a)
 and (c) of the Commercial Computer Software - Restricted
 Rights clause in FAR 52.227-19.
  
 Gaussian, Inc.
 340 Quinnipiac St., Bldg. 40, Wallingford CT 06492
  
  
 ---------------------------------------------------------------
 Warning -- This program may not be used in any manner that
 competes with the business of Gaussian, Inc. or will provide
 assistance to any competitor of Gaussian, Inc.  The licensee
 of this program is prohibited from giving any competitor of
 Gaussian, Inc. access to this program.  By using this program,
 the user acknowledges that Gaussian, Inc. is engaged in the
 business of creating and licensing software in the field of
 computational chemistry and represents and warrants to the
 licensee that it is not a competitor of Gaussian, Inc. and that
 it will not use this program in any manner prohibited above.
 ---------------------------------------------------------------
  

 Cite this work as:
 Gaussian 09, Revision B.01,
 M. J. Frisch, G. W. Trucks, H. B. Schlegel, G. E. Scuseria, 
 M. A. Robb, J. R. Cheeseman, G. Scalmani, V. Barone, B. Mennucci, 
 G. A. Petersson, H. Nakatsuji, M. Caricato, X. Li, H. P. Hratchian, 
 A. F. Izmaylov, J. Bloino, G. Zheng, J. L. Sonnenberg, M. Hada, 
 M. Ehara, K. Toyota, R. Fukuda, J. Hasegawa, M. Ishida, T. Nakajima, 
 Y. Honda, O. Kitao, H. Nakai, T. Vreven, J. A. Montgomery, Jr., 
 J. E. Peralta, F. Ogliaro, M. Bearpark, J. J. Heyd, E. Brothers, 
 K. N. Kudin, V. N. Staroverov, T. Keith, R. Kobayashi, J. Normand, 
 K. Raghavachari, A. Rendell, J. C. Burant, S. S. Iyengar, J. Tomasi, 
 M. Cossi, N. Rega, J. M. Millam, M. Klene, J. E. Knox, J. B. Cross, 
 V. Bakken, C. Adamo, J. Jaramillo, R. Gomperts, R. E. Stratmann, 
 O. Yazyev, A. J. Austin, R. Cammi, C. Pomelli, J. W. Ochterski, 
 R. L. Martin, K. Morokuma, V. G. Zakrzewski, G. A. Voth, 
 P. Salvador, J. J. Dannenberg, S. Dapprich, A. D. Daniels, 
 O. Farkas, J. B. Foresman, J. V. Ortiz, J. Cioslowski, 
 and D. J. Fox, Gaussian, Inc., Wallingford CT, 2010.
 
 ******************************************
 Gaussian 09:  IA32W-G09RevB.01 12-Aug-2010
                07-Apr-2016 
 ******************************************
 %chk=E:\YangJ\Amiano\Asp\ts1\s\Asp-S-ts1-6-31++gdp-cpcm.chk
 ----------------------------------------------------------------------
 # opt=(calcfc,ts) freq rb3lyp/6-311++g(d,p) scrf=(cpcm,solvent=water) 
 iop(1/11=1)
 ----------------------------------------------------------------------
 1/5=1,10=4,11=1,14=-1,18=20,26=3,38=1/1,3;
 2/9=110,12=2,17=6,18=5,40=1/2;
 3/5=4,6=6,7=1111,11=2,16=1,25=1,30=1,70=2101,71=2,72=1,74=-5,116=1/1,2,3;
 4//1;
 5/5=2,38=5,53=1/2;
 8/6=4,10=90,11=11/1;
 11/6=1,8=1,9=11,15=111,16=1/1,2,10;
 10/6=1,7=6,13=1/2;
 6/7=2,8=2,9=2,10=2,28=1/1;
 7/10=1,18=20,25=1/1,2,3,16;
 1/5=1,10=4,11=1,14=-1,18=20/3(2);
 2/9=110/2;
 99//99;
 2/9=110/2;
 3/5=4,6=6,7=1111,11=2,16=1,25=1,30=1,70=2105,71=1,72=1,74=-5,116=1/1,2,3;
 4/5=5,16=3/1;
 5/5=2,38=5,53=1/2;
 7//1,2,3,16;
 1/5=1,11=1,14=-1,18=20/3(-5);
 2/9=110/2;
 6/7=2,8=2,9=2,10=2,19=2,28=1/1;
 99/9=1/99;
 ----------------------------
 Asp-S-opt-freq-ts1-6-31++gdp
 ----------------------------
 Symbolic Z-matrix:
 Charge =  0 Multiplicity = 1
 N
 H                    1    B1
 C                    1    B2       2    A1
 H                    3    B3       1    A2       2    D1       0
 C                    3    B4       1    A3       2    D2       0
 C                    3    B5       1    A4       5    D3       0
 H                    5    B6       3    A5       1    D4       0
 H                    5    B7       3    A6       1    D5       0
 C                    5    B8       3    A7       1    D6       0
 O                    6    B9       3    A8       1    D7       0
 O                    9    B10      5    A9       3    D8       0
 H                    1    B11      3    A10      6    D9       0
 O                    6    B12      3    A11      1    D10      0
 H                    13   B13      6    A12      3    D11      0
 O                    9    B14      5    A13      3    D12      0
 H                    15   B15      9    A14      5    D13      0
       Variables:
  B1                    1.01579                  
  B2                    1.46734                  
  B3                    1.09092                  
  B4                    1.52712                  
  B5                    1.51292                  
  B6                    1.09359                  
  B7                    1.09369                  
  B8                    1.50948                  
  B9                    1.2729                   
  B10                   1.20574                  
  B11                   1.01462                  
  B12                   1.27722                  
  B13                   1.30381                  
  B14                   1.35166                  
  B15                   0.96944                  
  A1                  111.41019                  
  A2                  108.00338                  
  A3                  109.59026                  
  A4                  110.47231                  
  A5                  108.77703                  
  A6                  111.1019                   
  A7                  112.80103                  
  A8                  124.67153                  
  A9                  125.46981                  
  A10                 111.10102                  
  A11                 125.17901                  
  A12                  72.0139                   
  A13                 111.53321                  
  A14                 107.39522                  
  D1                  174.79758                  
  D2                  -65.71022                  
  D3                  123.85581                  
  D4                  -51.2912                   
  D5                   66.03695                  
  D6                 -171.82128                  
  D7                   81.46339                  
  D8                    4.80559                  
  D9                  -62.34648                  
  D10                 -92.64714                  
  D11                 175.2978                   
  D12                -175.95796                  
  D13                -179.71045                  
 

 GradGradGradGradGradGradGradGradGradGradGradGradGradGradGradGradGradGrad
 Berny optimization.
 Initialization pass.
                           ----------------------------
                           !    Initial Parameters    !
                           ! (Angstroms and Degrees)  !
 --------------------------                            --------------------------
 ! Name  Definition              Value          Derivative Info.                !
 --------------------------------------------------------------------------------
 ! R1    R(1,2)                  1.0158         calculate D2E/DX2 analytically  !
 ! R2    R(1,3)                  1.4673         calculate D2E/DX2 analytically  !
 ! R3    R(1,12)                 1.0146         calculate D2E/DX2 analytically  !
 ! R4    R(3,4)                  1.0909         calculate D2E/DX2 analytically  !
 ! R5    R(3,5)                  1.5271         calculate D2E/DX2 analytically  !
 ! R6    R(3,6)                  1.5129         calculate D2E/DX2 analytically  !
 ! R7    R(5,7)                  1.0936         calculate D2E/DX2 analytically  !
 ! R8    R(5,8)                  1.0937         calculate D2E/DX2 analytically  !
 ! R9    R(5,9)                  1.5095         calculate D2E/DX2 analytically  !
 ! R10   R(6,10)                 1.2729         calculate D2E/DX2 analytically  !
 ! R11   R(6,13)                 1.2772         calculate D2E/DX2 analytically  !
 ! R12   R(6,14)                 1.5175         calculate D2E/DX2 analytically  !
 ! R13   R(9,11)                 1.2057         calculate D2E/DX2 analytically  !
 ! R14   R(9,15)                 1.3517         calculate D2E/DX2 analytically  !
 ! R15   R(10,14)                1.3093         calculate D2E/DX2 analytically  !
 ! R16   R(13,14)                1.3038         calculate D2E/DX2 analytically  !
 ! R17   R(15,16)                0.9694         calculate D2E/DX2 analytically  !
 ! A1    A(2,1,3)              111.4102         calculate D2E/DX2 analytically  !
 ! A2    A(2,1,12)             108.0174         calculate D2E/DX2 analytically  !
 ! A3    A(3,1,12)             111.101          calculate D2E/DX2 analytically  !
 ! A4    A(1,3,4)              108.0034         calculate D2E/DX2 analytically  !
 ! A5    A(1,3,5)              109.5903         calculate D2E/DX2 analytically  !
 ! A6    A(1,3,6)              110.4723         calculate D2E/DX2 analytically  !
 ! A7    A(4,3,5)              109.7228         calculate D2E/DX2 analytically  !
 ! A8    A(4,3,6)              106.9516         calculate D2E/DX2 analytically  !
 ! A9    A(5,3,6)              111.9896         calculate D2E/DX2 analytically  !
 ! A10   A(3,5,7)              108.777          calculate D2E/DX2 analytically  !
 ! A11   A(3,5,8)              111.1019         calculate D2E/DX2 analytically  !
 ! A12   A(3,5,9)              112.801          calculate D2E/DX2 analytically  !
 ! A13   A(7,5,8)              106.8351         calculate D2E/DX2 analytically  !
 ! A14   A(7,5,9)              108.5801         calculate D2E/DX2 analytically  !
 ! A15   A(8,5,9)              108.5439         calculate D2E/DX2 analytically  !
 ! A16   A(3,6,10)             124.6715         calculate D2E/DX2 analytically  !
 ! A17   A(3,6,13)             125.179          calculate D2E/DX2 analytically  !
 ! A18   A(10,6,13)            109.9331         calculate D2E/DX2 analytically  !
 ! A19   A(5,9,11)             125.4698         calculate D2E/DX2 analytically  !
 ! A20   A(5,9,15)             111.5332         calculate D2E/DX2 analytically  !
 ! A21   A(11,9,15)            122.9924         calculate D2E/DX2 analytically  !
 ! A22   A(10,14,13)           106.0823         calculate D2E/DX2 analytically  !
 ! A23   A(9,15,16)            107.3952         calculate D2E/DX2 analytically  !
 ! A24   L(3,6,14,1,-1)        176.1669         calculate D2E/DX2 analytically  !
 ! A25   L(3,6,14,1,-2)        180.4609         calculate D2E/DX2 analytically  !
 ! D1    D(2,1,3,4)            174.7976         calculate D2E/DX2 analytically  !
 ! D2    D(2,1,3,5)            -65.7102         calculate D2E/DX2 analytically  !
 ! D3    D(2,1,3,6)             58.1456         calculate D2E/DX2 analytically  !
 ! D4    D(12,1,3,4)            54.3055         calculate D2E/DX2 analytically  !
 ! D5    D(12,1,3,5)           173.7977         calculate D2E/DX2 analytically  !
 ! D6    D(12,1,3,6)           -62.3465         calculate D2E/DX2 analytically  !
 ! D7    D(1,3,5,7)            -51.2912         calculate D2E/DX2 analytically  !
 ! D8    D(1,3,5,8)             66.037          calculate D2E/DX2 analytically  !
 ! D9    D(1,3,5,9)           -171.8213         calculate D2E/DX2 analytically  !
 ! D10   D(4,3,5,7)             67.1395         calculate D2E/DX2 analytically  !
 ! D11   D(4,3,5,8)           -175.5323         calculate D2E/DX2 analytically  !
 ! D12   D(4,3,5,9)            -53.3906         calculate D2E/DX2 analytically  !
 ! D13   D(6,3,5,7)           -174.2533         calculate D2E/DX2 analytically  !
 ! D14   D(6,3,5,8)            -56.9252         calculate D2E/DX2 analytically  !
 ! D15   D(6,3,5,9)             65.2166         calculate D2E/DX2 analytically  !
 ! D16   D(1,3,6,10)            81.4634         calculate D2E/DX2 analytically  !
 ! D17   D(1,3,6,13)           -92.6471         calculate D2E/DX2 analytically  !
 ! D18   D(4,3,6,10)           -35.8392         calculate D2E/DX2 analytically  !
 ! D19   D(4,3,6,13)           150.0503         calculate D2E/DX2 analytically  !
 ! D20   D(5,3,6,10)          -156.0752         calculate D2E/DX2 analytically  !
 ! D21   D(5,3,6,13)            29.8143         calculate D2E/DX2 analytically  !
 ! D22   D(3,5,9,11)             4.8056         calculate D2E/DX2 analytically  !
 ! D23   D(3,5,9,15)          -175.958          calculate D2E/DX2 analytically  !
 ! D24   D(7,5,9,11)          -115.8371         calculate D2E/DX2 analytically  !
 ! D25   D(7,5,9,15)            63.3993         calculate D2E/DX2 analytically  !
 ! D26   D(8,5,9,11)           128.3753         calculate D2E/DX2 analytically  !
 ! D27   D(8,5,9,15)           -52.3883         calculate D2E/DX2 analytically  !
 ! D28   D(5,9,15,16)         -179.7104         calculate D2E/DX2 analytically  !
 ! D29   D(11,9,15,16)          -0.4518         calculate D2E/DX2 analytically  !
 ! D30   D(13,10,14,6)          -0.4277         calculate D2E/DX2 analytically  !
 --------------------------------------------------------------------------------
 Trust Radius=3.00D-01 FncErr=1.00D-07 GrdErr=1.00D-06
 Number of steps in this run=     82 maximum allowed number of steps=    100.
 Search for a saddle point of order  1.
 GradGradGradGradGradGradGradGradGradGradGradGradGradGradGradGradGradGrad

                          Input orientation:                          
 ---------------------------------------------------------------------
 Center     Atomic      Atomic             Coordinates (Angstroms)
 Number     Number       Type             X           Y           Z
 ---------------------------------------------------------------------
      1          7           0        0.000000    0.000000    0.000000
      2          1           0        0.000000    0.000000    1.015789
      3          6           0        1.366083    0.000000   -0.535643
      4          1           0        1.302815   -0.094076   -1.620658
      5          6           0        2.058820    1.311364   -0.171575
      6          6           0        2.131779   -1.203896   -0.032395
      7          1           0        1.414357    2.143874   -0.467439
      8          1           0        2.205057    1.392594    0.909245
      9          6           0        3.397051    1.474181   -0.850654
     10          8           0        2.052193   -2.372650   -0.530346
     11          8           0        3.863745    0.719588   -1.667100
     12          1           0       -0.515404   -0.815672   -0.313828
     13          8           0        2.866343   -1.224754    1.012242
     14          1           0        2.818772   -2.434885    0.529296
     15          8           0        4.026222    2.599171   -0.443819
     16          1           0        4.870852    2.646247   -0.917313
 ---------------------------------------------------------------------
                    Distance matrix (angstroms):
                    1          2          3          4          5
     1  N    0.000000
     2  H    1.015789   0.000000
     3  C    1.467343   2.067154   0.000000
     4  H    2.081516   2.942283   1.090922   0.000000
     5  C    2.447009   2.714452   1.527124   2.155608   0.000000
     6  C    2.448448   2.663182   1.512916   2.107478   2.520164
     7  H    2.610575   2.965901   2.145501   2.520074   1.093590
     8  H    2.761942   2.610163   2.175062   3.069957   1.093689
     9  C    3.799576   4.146900   2.529283   2.727299   1.509477
    10  O    3.181546   3.497356   2.469867   2.634815   3.701449
    11  O    4.269140   4.758595   2.834840   2.687483   2.417550
    12  H    1.014618   1.642816   2.062648   2.352536   3.342327
    13  O    3.277282   3.117043   2.479263   3.264232   2.912973
    14  H    3.762220   3.756437   3.028707   3.521337   3.886275
    15  O    4.812809   5.009652   3.720277   4.006928   2.367115
    16  H    5.618655   5.870665   4.408140   4.553565   3.200869
                    6          7          8          9         10
     6  C    0.000000
     7  H    3.451307   0.000000
     8  H    2.762936   1.756385   0.000000
     9  C    3.072874   2.127537   2.127146   0.000000
    10  O    1.272901   4.561774   4.033963   4.087708   0.000000
    11  O    3.061333   3.076894   3.137154   1.205735   3.759770
    12  H    2.690261   3.536451   3.711234   4.564966   3.010584
    13  O    1.277217   3.955423   2.701558   3.322090   2.088081
    14  H    1.517495   4.891921   3.894946   4.185626   1.309335
    15  O    4.268665   2.651357   2.569679   1.351656   5.350073
    16  H    4.807203   3.521665   3.466183   1.884216   5.769221
                   11         12         13         14         15
    11  O    0.000000
    12  H    4.833768   0.000000
    13  O    3.457478   3.655410   0.000000
    14  H    3.983318   3.801242   1.303809   0.000000
    15  O    2.248476   5.683698   4.252979   5.267505   0.000000
    16  H    2.299665   6.431239   4.767168   5.667593   0.969439
                   16
    16  H    0.000000
 Stoichiometry    C4H7NO4
 Framework group  C1[X(C4H7NO4)]
 Deg. of freedom    42
 Full point group                 C1      NOp   1
 Largest Abelian subgroup         C1      NOp   1
 Largest concise Abelian subgroup C1      NOp   1
                         Standard orientation:                         
 ---------------------------------------------------------------------
 Center     Atomic      Atomic             Coordinates (Angstroms)
 Number     Number       Type             X           Y           Z
 ---------------------------------------------------------------------
      1          7           0       -1.501979    1.908583   -0.118272
      2          1           0       -1.704009    1.989288    0.873947
      3          6           0       -0.646405    0.749816   -0.398180
      4          1           0       -0.541713    0.661588   -1.480477
      5          6           0        0.726215    0.961520    0.236802
      6          6           0       -1.304554   -0.523281    0.086565
      7          1           0        1.107922    1.939969   -0.067955
      8          1           0        0.657416    0.974286    1.328250
      9          6           0        1.727298   -0.092915   -0.168809
     10          8           0       -2.198509   -1.165188   -0.553026
     11          8           0        1.532635   -0.969994   -0.972946
     12          1           0       -2.384717    1.839021   -0.613635
     13          8           0       -1.126494   -1.052397    1.235310
     14          1           0       -2.039488   -1.742898    0.611157
     15          8           0        2.905170    0.067703    0.474458
     16          1           0        3.500703   -0.633172    0.167983
 ---------------------------------------------------------------------
 Rotational constants (GHZ):      2.5347472      1.1147983      0.9373568
 Standard basis: 6-311++G(d,p) (5D, 7F)
 There are   247 symmetry adapted basis functions of A   symmetry.
 Integral buffers will be    262144 words long.
 Raffenetti 2 integral format.
 Two-electron integral symmetry is turned on.
   247 basis functions,   387 primitive gaussians,   256 cartesian basis functions
    35 alpha electrons       35 beta electrons
       nuclear repulsion energy       471.2774943294 Hartrees.
 NAtoms=   16 NActive=   16 NUniq=   16 SFac= 1.00D+00 NAtFMM=   50 NAOKFM=F Big=F
 ------------------------------------------------------------------------------
 Polarizable Continuum Model (PCM)
 =================================
 Model                : C-PCM.
 Atomic radii         : UFF (Universal Force Field).
 Polarization charges : Total charges.
 Charge compensation  : None.
 Solution method      : Matrix inversion.
 Cavity type          : Scaled VdW (van der Waals Surface) (Alpha=1.100).
 Cavity algorithm     : GePol (No added spheres)
                        Default sphere list used, NSphG=   16.
                        Lebedev-Laikov grids with approx.  5.0 points / Ang**2.
                        Smoothing algorithm: Karplus/York (Gamma=1.0000).
                        Polarization charges: spherical gaussians, with
                                              point-specific exponents (IZeta= 3).
                        Self-potential: point-specific (ISelfS= 7).
                        Self-field    : sphere-specific E.n sum rule (ISelfD= 2).
 1st derivatives      : Analytical E(r).r(x)/FMM algorithm (CHGder, D1EAlg=3).
                        Cavity 1st derivative terms included.
 2nd derivatives      : Analytical E(r).r(xy)/FMM algorithm (CHGder, D2EAlg=3).
                        Cavity 2nd derivative terms included.
 Solvent              : Water, Eps=  78.355300 Eps(inf)=   1.777849
 ------------------------------------------------------------------------------
 Spheres list:
 ISph  on   Nord    Re0     Alpha      Xe            Ye            Ze
    1   N      1    1.830   1.100     -1.501979      1.908583     -0.118272
    2   H      2    1.443   1.100     -1.704009      1.989288      0.873947
    3   C      3    1.926   1.100     -0.646405      0.749816     -0.398180
    4   H      4    1.443   1.100     -0.541713      0.661588     -1.480477
    5   C      5    1.926   1.100      0.726215      0.961520      0.236802
    6   C      6    1.926   1.100     -1.304554     -0.523281      0.086565
    7   H      7    1.443   1.100      1.107922      1.939969     -0.067955
    8   H      8    1.443   1.100      0.657416      0.974286      1.328250
    9   C      9    1.926   1.100      1.727298     -0.092915     -0.168809
   10   O     10    1.750   1.100     -2.198509     -1.165188     -0.553026
   11   O     11    1.750   1.100      1.532635     -0.969994     -0.972946
   12   H     12    1.443   1.100     -2.384717      1.839021     -0.613635
   13   O     13    1.750   1.100     -1.126494     -1.052397      1.235310
   14   H     14    1.443   1.100     -2.039488     -1.742898      0.611157
   15   O     15    1.750   1.100      2.905170      0.067703      0.474458
   16   H     16    1.443   1.100      3.500703     -0.633172      0.167983
 ------------------------------------------------------------------------------
 One-electron integrals computed using PRISM.
 NBasis=   247 RedAO= T  NBF=   247
 NBsUse=   247 1.00D-06 NBFU=   247
 Harris functional with IExCor=  402 diagonalized for initial guess.
 ExpMin= 3.60D-02 ExpMax= 8.59D+03 ExpMxC= 1.30D+03 IAcc=3 IRadAn=         0 AccDes= 0.00D+00
 HarFok:  IExCor=  402 AccDes= 0.00D+00 IRadAn=         0 IDoV= 1
 ScaDFX=  1.000000  1.000000  1.000000  1.000000
 FoFCou: FMM=F IPFlag=           0 FMFlag=      100000 FMFlg1=           0
         NFxFlg=           0 DoJE=T BraDBF=F KetDBF=T FulRan=T
         Omega=  0.000000  0.000000  1.000000  0.000000  0.000000 ICntrl=     500 IOpCl=  0
         NMat0=    1 NMatS0=    1 NMatT0=    0 NMatD0=    1 NMtDS0=    0 NMtDT0=    0
         I1Cent=           4 NGrid=           0.
 Petite list used in FoFCou.
 Initial guess orbital symmetries:
       Occupied  (A) (A) (A) (A) (A) (A) (A) (A) (A) (A) (A) (A)
                 (A) (A) (A) (A) (A) (A) (A) (A) (A) (A) (A) (A)
                 (A) (A) (A) (A) (A) (A) (A) (A) (A) (A) (A)
       Virtual   (A) (A) (A) (A) (A) (A) (A) (A) (A) (A) (A) (A)
                 (A) (A) (A) (A) (A) (A) (A) (A) (A) (A) (A) (A)
                 (A) (A) (A) (A) (A) (A) (A) (A) (A) (A) (A) (A)
                 (A) (A) (A) (A) (A) (A) (A) (A) (A) (A) (A) (A)
                 (A) (A) (A) (A) (A) (A) (A) (A) (A) (A) (A) (A)
                 (A) (A) (A) (A) (A) (A) (A) (A) (A) (A) (A) (A)
                 (A) (A) (A) (A) (A) (A) (A) (A) (A) (A) (A) (A)
                 (A) (A) (A) (A) (A) (A) (A) (A) (A) (A) (A) (A)
                 (A) (A) (A) (A) (A) (A) (A) (A) (A) (A) (A) (A)
                 (A) (A) (A) (A) (A) (A) (A) (A) (A) (A) (A) (A)
                 (A) (A) (A) (A) (A) (A) (A) (A) (A) (A) (A) (A)
                 (A) (A) (A) (A) (A) (A) (A) (A) (A) (A) (A) (A)
                 (A) (A) (A) (A) (A) (A) (A) (A) (A) (A) (A) (A)
                 (A) (A) (A) (A) (A) (A) (A) (A) (A) (A) (A) (A)
                 (A) (A) (A) (A) (A) (A) (A) (A) (A) (A) (A) (A)
                 (A) (A) (A) (A) (A) (A) (A) (A) (A) (A) (A) (A)
                 (A) (A) (A) (A) (A) (A) (A) (A) (A) (A) (A) (A)
                 (A) (A) (A) (A) (A) (A) (A) (A)
 The electronic state of the initial guess is 1-A.
 Requested convergence on RMS density matrix=1.00D-08 within 128 cycles.
 Requested convergence on MAX density matrix=1.00D-06.
 Requested convergence on             energy=1.00D-06.
 No special actions if energy rises.
 Error on total polarization charges =  0.01161
 SCF Done:  E(RB3LYP) =  -512.442129335     A.U. after   13 cycles
             Convg  =    0.8013D-08             -V/T =  2.0035
 Range of M.O.s used for correlation:     1   247
 NBasis=   247 NAE=    35 NBE=    35 NFC=     0 NFV=     0
 NROrb=    247 NOA=    35 NOB=    35 NVA=   212 NVB=   212

 **** Warning!!: The largest alpha MO coefficient is  0.93127916D+02

 Symmetrizing basis deriv contribution to polar:
 IMax=3 JMax=2 DiffMx= 0.00D+00
 G2DrvN: will do    17 centers at a time, making    1 passes doing MaxLOS=2.
 Calling FoFCou, ICntrl=  3107 FMM=F I1Cent=   0 AccDes= 0.00D+00.
 FoFDir/FoFCou used for L=0 through L=2.
 G2PCM: DoFxE=T DoFxN=T DoGrad=T DoPD/DQ/DG=FFF NFrqRd=   0 IEInf=0 DoCFld=F IF1Alg=4.
 End of G2Drv Frequency-dependent properties file   721 does not exist.
 End of G2Drv Frequency-dependent properties file   722 does not exist.
          IDoAtm=1111111111111111
 NEqPCM:  Using equilibrium solvation (IEInf=0, Eps=  78.3553, EpsInf=   1.7778)
          Differentiating once with respect to nuclear coordinates.
          There are    51 degrees of freedom in the 1st order CPHF.  IDoFFX=5.
     45 vectors produced by pass  0 Test12= 1.45D-10 1.96D-07 XBig12= 2.30D-01 1.11D-01.
 AX will form    45 AO Fock derivatives at one time.
     45 vectors produced by pass  1 Test12= 1.45D-10 1.96D-07 XBig12= 6.46D-02 1.25D-01.
     45 vectors produced by pass  2 Test12= 1.45D-10 1.96D-07 XBig12= 2.63D-04 2.80D-03.
     45 vectors produced by pass  3 Test12= 1.45D-10 1.96D-07 XBig12= 1.40D-06 2.07D-04.
     32 vectors produced by pass  4 Test12= 1.45D-10 1.96D-07 XBig12= 3.62D-09 5.85D-06.
      1 vectors produced by pass  5 Test12= 1.45D-10 1.96D-07 XBig12= 7.43D-12 3.09D-07.
 Inverted reduced A of dimension   213 with in-core refinement.
 End of Minotr Frequency-dependent properties file   721 does not exist.
 End of Minotr Frequency-dependent properties file   722 does not exist.

 **********************************************************************

            Population analysis using the SCF density.

 **********************************************************************

 Orbital symmetries:
       Occupied  (A) (A) (A) (A) (A) (A) (A) (A) (A) (A) (A) (A)
                 (A) (A) (A) (A) (A) (A) (A) (A) (A) (A) (A) (A)
                 (A) (A) (A) (A) (A) (A) (A) (A) (A) (A) (A)
       Virtual   (A) (A) (A) (A) (A) (A) (A) (A) (A) (A) (A) (A)
                 (A) (A) (A) (A) (A) (A) (A) (A) (A) (A) (A) (A)
                 (A) (A) (A) (A) (A) (A) (A) (A) (A) (A) (A) (A)
                 (A) (A) (A) (A) (A) (A) (A) (A) (A) (A) (A) (A)
                 (A) (A) (A) (A) (A) (A) (A) (A) (A) (A) (A) (A)
                 (A) (A) (A) (A) (A) (A) (A) (A) (A) (A) (A) (A)
                 (A) (A) (A) (A) (A) (A) (A) (A) (A) (A) (A) (A)
                 (A) (A) (A) (A) (A) (A) (A) (A) (A) (A) (A) (A)
                 (A) (A) (A) (A) (A) (A) (A) (A) (A) (A) (A) (A)
                 (A) (A) (A) (A) (A) (A) (A) (A) (A) (A) (A) (A)
                 (A) (A) (A) (A) (A) (A) (A) (A) (A) (A) (A) (A)
                 (A) (A) (A) (A) (A) (A) (A) (A) (A) (A) (A) (A)
                 (A) (A) (A) (A) (A) (A) (A) (A) (A) (A) (A) (A)
                 (A) (A) (A) (A) (A) (A) (A) (A) (A) (A) (A) (A)
                 (A) (A) (A) (A) (A) (A) (A) (A) (A) (A) (A) (A)
                 (A) (A) (A) (A) (A) (A) (A) (A) (A) (A) (A) (A)
                 (A) (A) (A) (A) (A) (A) (A) (A) (A) (A) (A) (A)
                 (A) (A) (A) (A) (A) (A) (A) (A)
 The electronic state is 1-A.
 Alpha  occ. eigenvalues --  -19.18686 -19.16006 -19.15906 -19.13826 -14.32447
 Alpha  occ. eigenvalues --  -10.33086 -10.32933 -10.24556 -10.20450  -1.15606
 Alpha  occ. eigenvalues --   -1.13173  -1.04547  -1.00902  -0.92336  -0.79977
 Alpha  occ. eigenvalues --   -0.71338  -0.63165  -0.57567  -0.54063  -0.53852
 Alpha  occ. eigenvalues --   -0.51647  -0.49770  -0.48856  -0.48338  -0.48094
 Alpha  occ. eigenvalues --   -0.44485  -0.43035  -0.41125  -0.40000  -0.38386
 Alpha  occ. eigenvalues --   -0.34895  -0.33118  -0.31844  -0.30879  -0.27858
 Alpha virt. eigenvalues --   -0.03650  -0.02068  -0.01366   0.00099   0.01203
 Alpha virt. eigenvalues --    0.01781   0.02742   0.04533   0.05167   0.06337
 Alpha virt. eigenvalues --    0.06918   0.07672   0.07888   0.09097   0.09402
 Alpha virt. eigenvalues --    0.10491   0.10595   0.10989   0.11593   0.12154
 Alpha virt. eigenvalues --    0.13353   0.13454   0.13812   0.15297   0.16012
 Alpha virt. eigenvalues --    0.16224   0.17085   0.18486   0.19145   0.19908
 Alpha virt. eigenvalues --    0.20669   0.21596   0.22248   0.22385   0.23013
 Alpha virt. eigenvalues --    0.23836   0.24277   0.24650   0.26034   0.26597
 Alpha virt. eigenvalues --    0.27249   0.27964   0.28767   0.29015   0.29416
 Alpha virt. eigenvalues --    0.30685   0.30892   0.32177   0.33066   0.34167
 Alpha virt. eigenvalues --    0.35041   0.35740   0.36409   0.37163   0.38735
 Alpha virt. eigenvalues --    0.39015   0.40245   0.40788   0.45317   0.45970
 Alpha virt. eigenvalues --    0.49327   0.50972   0.53054   0.53986   0.54865
 Alpha virt. eigenvalues --    0.57027   0.59009   0.61078   0.62467   0.64991
 Alpha virt. eigenvalues --    0.65348   0.65691   0.68100   0.70395   0.70905
 Alpha virt. eigenvalues --    0.72664   0.73753   0.74916   0.77934   0.83925
 Alpha virt. eigenvalues --    0.86014   0.86676   0.89861   0.92890   0.96787
 Alpha virt. eigenvalues --    1.00094   1.02815   1.04848   1.07117   1.09647
 Alpha virt. eigenvalues --    1.11630   1.13185   1.13756   1.14969   1.16010
 Alpha virt. eigenvalues --    1.16644   1.17249   1.18506   1.19911   1.23529
 Alpha virt. eigenvalues --    1.25339   1.26527   1.30075   1.33784   1.34251
 Alpha virt. eigenvalues --    1.38600   1.41366   1.43989   1.46845   1.49041
 Alpha virt. eigenvalues --    1.50095   1.51854   1.52051   1.56959   1.58091
 Alpha virt. eigenvalues --    1.59251   1.60224   1.63148   1.66531   1.67488
 Alpha virt. eigenvalues --    1.70321   1.72647   1.74506   1.77330   1.80583
 Alpha virt. eigenvalues --    1.83636   1.84754   1.87700   1.90594   1.94419
 Alpha virt. eigenvalues --    1.96131   1.98274   2.02065   2.06369   2.09034
 Alpha virt. eigenvalues --    2.12807   2.18929   2.24482   2.27580   2.30797
 Alpha virt. eigenvalues --    2.40333   2.45802   2.52436   2.55283   2.55892
 Alpha virt. eigenvalues --    2.57213   2.59469   2.60958   2.64539   2.67577
 Alpha virt. eigenvalues --    2.69491   2.72998   2.77451   2.78113   2.80822
 Alpha virt. eigenvalues --    2.82982   2.86974   2.89756   2.91719   2.92212
 Alpha virt. eigenvalues --    2.94845   3.01002   3.01652   3.03887   3.05128
 Alpha virt. eigenvalues --    3.09722   3.12047   3.15937   3.20717   3.21790
 Alpha virt. eigenvalues --    3.23495   3.30486   3.33301   3.35493   3.38574
 Alpha virt. eigenvalues --    3.40600   3.57776   3.58339   3.61969   3.68488
 Alpha virt. eigenvalues --    3.74548   3.79245   3.80956   4.02041   4.05481
 Alpha virt. eigenvalues --    4.06485   4.07312   4.14612   4.33826   4.72024
 Alpha virt. eigenvalues --    4.83005   4.95351   4.98719   5.01846   5.05333
 Alpha virt. eigenvalues --    5.07213   5.18220   5.29328   5.37365   5.51205
 Alpha virt. eigenvalues --    5.59092   5.80284   5.84022  23.76789  23.78661
 Alpha virt. eigenvalues --   23.81732  23.90064  35.58517  49.85439  49.88111
 Alpha virt. eigenvalues --   49.96679  49.99494
          Condensed to atoms (all electrons):
              1          2          3          4          5          6
     1  N    6.634456   0.370324   0.106739  -0.038425  -0.043026  -0.100261
     2  H    0.370324   0.431312  -0.008100   0.007369  -0.021096  -0.001996
     3  C    0.106739  -0.008100   7.634528   0.561624  -0.595747  -1.147951
     4  H   -0.038425   0.007369   0.561624   0.476459  -0.040213  -0.186923
     5  C   -0.043026  -0.021096  -0.595747  -0.040213   7.243079  -0.083542
     6  C   -0.100261  -0.001996  -1.147951  -0.186923  -0.083542   6.796187
     7  H    0.003071   0.000015  -0.074610  -0.004216   0.399682   0.004315
     8  H   -0.003625   0.001465   0.057883   0.010541   0.446117  -0.104388
     9  C    0.025214  -0.000477  -0.011552  -0.052700  -0.722834   0.236043
    10  O   -0.019283  -0.002902  -0.084817  -0.002991   0.019512   0.288057
    11  O   -0.000397  -0.000393   0.071878  -0.005756  -0.139651   0.005216
    12  H    0.394772  -0.040645  -0.067028  -0.013222   0.012445   0.019281
    13  O   -0.006017   0.004218  -0.159167   0.002542   0.065669   0.317078
    14  H   -0.001751   0.001415   0.010825  -0.002710  -0.000095   0.000165
    15  O    0.000633   0.000153   0.018504  -0.000648  -0.268801   0.004031
    16  H    0.000228  -0.000129  -0.001920  -0.001403  -0.045757   0.001328
              7          8          9         10         11         12
     1  N    0.003071  -0.003625   0.025214  -0.019283  -0.000397   0.394772
     2  H    0.000015   0.001465  -0.000477  -0.002902  -0.000393  -0.040645
     3  C   -0.074610   0.057883  -0.011552  -0.084817   0.071878  -0.067028
     4  H   -0.004216   0.010541  -0.052700  -0.002991  -0.005756  -0.013222
     5  C    0.399682   0.446117  -0.722834   0.019512  -0.139651   0.012445
     6  C    0.004315  -0.104388   0.236043   0.288057   0.005216   0.019281
     7  H    0.450620  -0.020543  -0.004893   0.001405   0.004568   0.001024
     8  H   -0.020543   0.442865  -0.077949  -0.001765   0.000198  -0.000553
     9  C   -0.004893  -0.077949   5.849789  -0.015894   0.447583   0.002277
    10  O    0.001405  -0.001765  -0.015894   8.217102  -0.002760   0.000916
    11  O    0.004568   0.000198   0.447583  -0.002760   8.057521   0.000473
    12  H    0.001024  -0.000553   0.002277   0.000916   0.000473   0.415203
    13  O    0.002632  -0.010660  -0.025952  -0.233816  -0.003384  -0.000331
    14  H   -0.000002  -0.002660   0.000311   0.131252   0.001752   0.000433
    15  O    0.000178  -0.008361   0.296225  -0.000181  -0.121301   0.000018
    16  H    0.000922   0.000834   0.045845  -0.000242  -0.003685   0.000070
             13         14         15         16
     1  N   -0.006017  -0.001751   0.000633   0.000228
     2  H    0.004218   0.001415   0.000153  -0.000129
     3  C   -0.159167   0.010825   0.018504  -0.001920
     4  H    0.002542  -0.002710  -0.000648  -0.001403
     5  C    0.065669  -0.000095  -0.268801  -0.045757
     6  C    0.317078   0.000165   0.004031   0.001328
     7  H    0.002632  -0.000002   0.000178   0.000922
     8  H   -0.010660  -0.002660  -0.008361   0.000834
     9  C   -0.025952   0.000311   0.296225   0.045845
    10  O   -0.233816   0.131252  -0.000181  -0.000242
    11  O   -0.003384   0.001752  -0.121301  -0.003685
    12  H   -0.000331   0.000433   0.000018   0.000070
    13  O    8.181952   0.149462  -0.000350   0.000506
    14  H    0.149462   0.383206   0.000332  -0.000046
    15  O   -0.000350   0.000332   7.995394   0.271757
    16  H    0.000506  -0.000046   0.271757   0.416659
 Mulliken atomic charges:
              1
     1  N   -0.322652
     2  H    0.259465
     3  C   -0.311089
     4  H    0.290672
     5  C   -0.225742
     6  C   -0.046640
     7  H    0.235834
     8  H    0.270599
     9  C    0.008964
    10  O   -0.293593
    11  O   -0.311863
    12  H    0.274869
    13  O   -0.284384
    14  H    0.328111
    15  O   -0.187583
    16  H    0.315032
 Sum of Mulliken atomic charges =   0.00000
 Mulliken charges with hydrogens summed into heavy atoms:
              1
     1  N    0.211682
     3  C   -0.020417
     5  C    0.280691
     6  C   -0.046640
     9  C    0.008964
    10  O   -0.293593
    11  O   -0.311863
    13  O    0.043727
    15  O    0.127449
 Sum of Mulliken charges with hydrogens summed into heavy atoms =   0.00000
 APT atomic charges:
              1
     1  N   -1.036169
     2  H    0.464075
     3  C   -0.705920
     4  H    0.449251
     5  C   -0.753950
     6  C    0.218564
     7  H    0.506906
     8  H    0.402165
     9  C    0.006655
    10  O   -0.250990
    11  O   -0.318307
    12  H    0.649035
    13  O   -0.388600
    14  H    0.436045
    15  O   -0.508545
    16  H    0.829785
 Sum of APT charges=   0.00000
 APT Atomic charges with hydrogens summed into heavy atoms:
              1
     1  N    0.076941
     2  H    0.000000
     3  C   -0.256669
     4  H    0.000000
     5  C    0.155121
     6  C    0.218564
     7  H    0.000000
     8  H    0.000000
     9  C    0.006655
    10  O   -0.250990
    11  O   -0.318307
    12  H    0.000000
    13  O    0.047446
    14  H    0.000000
    15  O    0.321240
    16  H    0.000000
 Sum of APT charges=   0.00000
 Electronic spatial extent (au):  <R**2>=           1267.9073
 Charge=              0.0000 electrons
 Dipole moment (field-independent basis, Debye):
    X=              0.6570    Y=              2.3875    Z=              1.1845  Tot=              2.7450
 Quadrupole moment (field-independent basis, Debye-Ang):
   XX=            -44.9930   YY=            -56.2402   ZZ=            -56.9113
   XY=             -4.4998   XZ=             -1.9401   YZ=             -1.7350
 Traceless Quadrupole moment (field-independent basis, Debye-Ang):
   XX=              7.7219   YY=             -3.5254   ZZ=             -4.1964
   XY=             -4.4998   XZ=             -1.9401   YZ=             -1.7350
 Octapole moment (field-independent basis, Debye-Ang**2):
  XXX=             29.9146  YYY=            -18.9201  ZZZ=             -0.9520  XYY=             -0.7788
  XXY=             -3.2791  XXZ=              5.4532  XZZ=             -2.2092  YZZ=              8.6287
  YYZ=              9.8667  XYZ=             -2.4129
 Hexadecapole moment (field-independent basis, Debye-Ang**3):
 XXXX=           -802.7961 YYYY=           -447.3050 ZZZZ=           -190.4340 XXXY=            -91.2496
 XXXZ=            -28.9579 YYYX=             22.0271 YYYZ=              4.4546 ZZZX=              4.7138
 ZZZY=              2.6945 XXYY=           -203.7908 XXZZ=           -202.9544 YYZZ=           -101.0052
 XXYZ=            -24.6332 YYXZ=             -8.8316 ZZXY=             -5.8652
 N-N= 4.712774943294D+02 E-N=-2.145354339983D+03  KE= 5.106366860038D+02
  Exact polarizability:   0.000   0.000   0.000   0.000   0.000   0.000
 Approx polarizability:  94.951   4.362 101.161  14.772   7.495 103.431
 D2PCM: C-PCM CHGder 2nd derivatives, FixD1E=F FixD2E=F DoIter=F DoCFld=F I1PDM=0
 Calling FoFJK, ICntrl=    100147 FMM=F ISym2X=0 I1Cent= 0 IOpClX= 0 NMat=1 NMatS=1 NMatT=0.
 ***** Axes restored to original set *****
 -------------------------------------------------------------------
 Center     Atomic                   Forces (Hartrees/Bohr)
 Number     Number              X              Y              Z
 -------------------------------------------------------------------
      1        7           0.000388892    0.000148285   -0.000529757
      2        1          -0.000308648   -0.000363003    0.000246485
      3        6          -0.000828723    0.001095418   -0.000433228
      4        1          -0.000346067    0.000028186    0.000116563
      5        6           0.001144312   -0.000925497   -0.000191773
      6        6          -0.003460456    0.004913557    0.000729603
      7        1           0.000558681   -0.000097029   -0.000140848
      8        1          -0.000257756    0.000330449   -0.000176175
      9        6          -0.003211366    0.008044872    0.005911908
     10        8           0.001767979   -0.002301189   -0.000800637
     11        8           0.002983251   -0.004415544   -0.003943305
     12        1          -0.000203452   -0.000373609    0.000315430
     13        8           0.001330354   -0.002559368   -0.000839260
     14        1           0.000452825   -0.000698605    0.001465862
     15        8          -0.001731214   -0.004513578   -0.001562838
     16        1           0.001721389    0.001686654   -0.000168033
 -------------------------------------------------------------------
 Cartesian Forces:  Max     0.008044872 RMS     0.002278241

 GradGradGradGradGradGradGradGradGradGradGradGradGradGradGradGradGradGrad
 Berny optimization.
 Internal  Forces:  Max     0.006588929 RMS     0.001141491
 Search for a saddle point.
 Step number   1 out of a maximum of   82
 All quantities printed in internal units (Hartrees-Bohrs-Radians)
 Swaping is turned off.
 Second derivative matrix not updated -- analytic derivatives used.
 ITU=  0
     Eigenvalues ---   -0.09842   0.00068   0.00149   0.00350   0.00430
     Eigenvalues ---    0.01819   0.02800   0.03172   0.03577   0.04041
     Eigenvalues ---    0.04291   0.04978   0.05204   0.05824   0.07440
     Eigenvalues ---    0.07706   0.07942   0.11334   0.13810   0.14995
     Eigenvalues ---    0.15233   0.15715   0.15973   0.18732   0.19356
     Eigenvalues ---    0.21423   0.22092   0.24226   0.28040   0.29800
     Eigenvalues ---    0.33071   0.33409   0.33880   0.34549   0.36181
     Eigenvalues ---    0.39344   0.44710   0.45221   0.46018   0.51220
     Eigenvalues ---    0.53672   0.86612
 Eigenvectors required to have negative eigenvalues:
                          R15       R16       A25       R11       R10
   1                   -0.64438   0.64270  -0.37675  -0.10056   0.09946
                          A16       A17       A24       A8        A9
   1                    0.06035  -0.06021  -0.03288   0.01551  -0.01469
 RFO step:  Lambda0=3.579302460D-06 Lambda=-5.63605102D-04.
 Linear search not attempted -- option 19 set.
 Iteration  1 RMS(Cart)=  0.05826236 RMS(Int)=  0.00315687
 Iteration  2 RMS(Cart)=  0.00295791 RMS(Int)=  0.00005017
 Iteration  3 RMS(Cart)=  0.00000538 RMS(Int)=  0.00004995
 Iteration  4 RMS(Cart)=  0.00000000 RMS(Int)=  0.00004995
 Variable       Old X    -DE/DX   Delta X   Delta X   Delta X     New X
                                 (Linear)    (Quad)   (Total)
    R1        1.91956   0.00025   0.00000   0.00068   0.00068   1.92025
    R2        2.77288   0.00013   0.00000  -0.00054  -0.00054   2.77234
    R3        1.91735   0.00031   0.00000   0.00094   0.00094   1.91829
    R4        2.06154  -0.00010   0.00000  -0.00094  -0.00094   2.06061
    R5        2.88585   0.00057   0.00000   0.00157   0.00157   2.88741
    R6        2.85900   0.00075   0.00000   0.00011   0.00011   2.85910
    R7        2.06659  -0.00036   0.00000  -0.00123  -0.00123   2.06535
    R8        2.06677  -0.00019   0.00000   0.00066   0.00066   2.06743
    R9        2.85250  -0.00023   0.00000  -0.00260  -0.00260   2.84990
   R10        2.40543   0.00226   0.00000   0.00648   0.00650   2.41193
   R11        2.41359   0.00046   0.00000   0.00175   0.00175   2.41534
   R12        2.86765   0.00232   0.00000   0.01183   0.01181   2.87946
   R13        2.27851   0.00659   0.00000   0.01010   0.01010   2.28861
   R14        2.55426  -0.00288   0.00000  -0.01394  -0.01394   2.54032
   R15        2.47428  -0.00008   0.00000  -0.00494  -0.00497   2.46931
   R16        2.46384  -0.00136   0.00000   0.00080   0.00083   2.46467
   R17        1.83197   0.00166   0.00000   0.00269   0.00269   1.83467
    A1        1.94447   0.00036   0.00000   0.00238   0.00238   1.94685
    A2        1.88526  -0.00044   0.00000  -0.00439  -0.00439   1.88087
    A3        1.93908   0.00016   0.00000   0.00054   0.00054   1.93962
    A4        1.88501  -0.00020   0.00000  -0.00177  -0.00177   1.88324
    A5        1.91271   0.00081   0.00000   0.00330   0.00330   1.91601
    A6        1.92811  -0.00037   0.00000  -0.00071  -0.00071   1.92739
    A7        1.91502  -0.00022   0.00000   0.00023   0.00023   1.91526
    A8        1.86666   0.00008   0.00000   0.00018   0.00018   1.86683
    A9        1.95459  -0.00013   0.00000  -0.00134  -0.00134   1.95324
   A10        1.89852  -0.00020   0.00000   0.00090   0.00090   1.89941
   A11        1.93909   0.00005   0.00000   0.00066   0.00066   1.93975
   A12        1.96875   0.00087   0.00000   0.00403   0.00403   1.97278
   A13        1.86462   0.00002   0.00000  -0.00416  -0.00416   1.86046
   A14        1.89508  -0.00047   0.00000   0.00038   0.00038   1.89546
   A15        1.89445  -0.00032   0.00000  -0.00226  -0.00227   1.89218
   A16        2.17593   0.00080   0.00000   0.00540   0.00530   2.18123
   A17        2.18479   0.00148   0.00000   0.00445   0.00451   2.18929
   A18        1.91869  -0.00221   0.00000  -0.00907  -0.00908   1.90962
   A19        2.18986  -0.00011   0.00000  -0.00551  -0.00553   2.18433
   A20        1.94662   0.00055   0.00000   0.00443   0.00441   1.95103
   A21        2.14662  -0.00044   0.00000   0.00122   0.00120   2.14782
   A22        1.85149   0.00022   0.00000  -0.00169  -0.00172   1.84977
   A23        1.87440   0.00318   0.00000   0.02039   0.02039   1.89479
   A24        3.07469  -0.00028   0.00000   0.00090   0.00116   3.07586
   A25        3.14964  -0.00024   0.00000  -0.01525  -0.01515   3.13449
    D1        3.05079  -0.00020   0.00000  -0.01036  -0.01036   3.04044
    D2       -1.14686  -0.00012   0.00000  -0.00924  -0.00924  -1.15610
    D3        1.01483   0.00002   0.00000  -0.00915  -0.00915   1.00568
    D4        0.94781   0.00001   0.00000  -0.00677  -0.00677   0.94104
    D5        3.03334   0.00009   0.00000  -0.00564  -0.00564   3.02770
    D6       -1.08815   0.00023   0.00000  -0.00556  -0.00556  -1.09371
    D7       -0.89520  -0.00024   0.00000  -0.04450  -0.04450  -0.93970
    D8        1.15256  -0.00031   0.00000  -0.04864  -0.04864   1.10392
    D9       -2.99885  -0.00007   0.00000  -0.04819  -0.04819  -3.04704
   D10        1.17181  -0.00014   0.00000  -0.04454  -0.04454   1.12727
   D11       -3.06362  -0.00020   0.00000  -0.04868  -0.04868  -3.11230
   D12       -0.93184   0.00004   0.00000  -0.04824  -0.04824  -0.98008
   D13       -3.04129  -0.00026   0.00000  -0.04501  -0.04501  -3.08630
   D14       -0.99353  -0.00032   0.00000  -0.04915  -0.04915  -1.04268
   D15        1.13824  -0.00008   0.00000  -0.04871  -0.04871   1.08954
   D16        1.42180   0.00023   0.00000   0.12671   0.12665   1.54845
   D17       -1.61700  -0.00068   0.00000   0.11657   0.11664  -1.50036
   D18       -0.62551   0.00062   0.00000   0.12910   0.12904  -0.49647
   D19        2.61887  -0.00028   0.00000   0.11897   0.11904   2.73791
   D20       -2.72403   0.00092   0.00000   0.12949   0.12943  -2.59459
   D21        0.52036   0.00001   0.00000   0.11936   0.11943   0.63978
   D22        0.08387  -0.00047   0.00000  -0.09057  -0.09056  -0.00669
   D23       -3.07105  -0.00013   0.00000  -0.07931  -0.07932   3.13282
   D24       -2.02174  -0.00045   0.00000  -0.09455  -0.09454  -2.11628
   D25        1.10653  -0.00011   0.00000  -0.08329  -0.08330   1.02323
   D26        2.24057  -0.00005   0.00000  -0.08862  -0.08862   2.15195
   D27       -0.91435   0.00029   0.00000  -0.07737  -0.07738  -0.99172
   D28       -3.13654   0.00004   0.00000  -0.00356  -0.00358  -3.14012
   D29       -0.00789   0.00037   0.00000   0.00731   0.00733  -0.00056
   D30       -0.00746   0.00125   0.00000   0.00744   0.00767   0.00021
         Item               Value     Threshold  Converged?
 Maximum Force            0.006589     0.000450     NO 
 RMS     Force            0.001141     0.000300     NO 
 Maximum Displacement     0.217648     0.001800     NO 
 RMS     Displacement     0.058452     0.001200     NO 
 Predicted change in Energy=-3.244711D-04
 GradGradGradGradGradGradGradGradGradGradGradGradGradGradGradGradGradGrad

                          Input orientation:                          
 ---------------------------------------------------------------------
 Center     Atomic      Atomic             Coordinates (Angstroms)
 Number     Number       Type             X           Y           Z
 ---------------------------------------------------------------------
      1          7           0       -0.002139    0.004937    0.029863
      2          1           0        0.014124   -0.007802    1.045804
      3          6           0        1.353601    0.008606   -0.530689
      4          1           0        1.268647   -0.082437   -1.613982
      5          6           0        2.056011    1.318493   -0.176491
      6          6           0        2.128837   -1.196824   -0.045885
      7          1           0        1.428410    2.153462   -0.498139
      8          1           0        2.180025    1.419584    0.905784
      9          6           0        3.410043    1.456319   -0.826079
     10          8           0        2.146360   -2.335572   -0.622071
     11          8           0        3.922243    0.633208   -1.551926
     12          1           0       -0.524807   -0.807567   -0.281766
     13          8           0        2.786845   -1.263933    1.047811
     14          1           0        2.826157   -2.441665    0.488826
     15          8           0        4.000417    2.621014   -0.506650
     16          1           0        4.863914    2.661263   -0.948608
 ---------------------------------------------------------------------
                    Distance matrix (angstroms):
                    1          2          3          4          5
     1  N    0.000000
     2  H    1.016151   0.000000
     3  C    1.467059   2.068767   0.000000
     4  H    2.079605   2.941745   1.090427   0.000000
     5  C    2.450304   2.724402   1.527953   2.156137   0.000000
     6  C    2.447657   2.660370   1.512972   2.107299   2.519758
     7  H    2.634656   3.009158   2.146407   2.503971   1.092938
     8  H    2.744139   2.597723   2.176531   3.071790   1.094038
     9  C    3.805540   4.144861   2.532209   2.752115   1.508100
    10  O    3.243308   3.570259   2.476285   2.613596   3.682241
    11  O    4.277564   4.736295   2.833897   2.749103   2.417490
    12  H    1.015115   1.640887   2.063133   2.348849   3.345420
    13  O    3.228727   3.043986   2.482983   3.284204   2.949908
    14  H    3.767727   3.760511   3.035072   3.523293   3.895454
    15  O    4.811668   5.021088   3.718990   3.999674   2.363531
    16  H    5.629560   5.884052   4.419677   4.571275   3.206793
                    6          7          8          9         10
     6  C    0.000000
     7  H    3.452469   0.000000
     8  H    2.784579   1.753426   0.000000
     9  C    3.047845   2.126129   2.124534   0.000000
    10  O    1.276340   4.547773   4.054216   4.002119   0.000000
    11  O    2.972117   3.104970   3.113526   1.211079   3.582184
    12  H    2.692394   3.553810   3.699539   4.572144   3.096085
    13  O    1.278143   3.989222   2.754934   3.361490   2.084978
    14  H    1.523746   4.903365   3.937078   4.155019   1.306703
    15  O    4.276798   2.614172   2.598506   1.344281   5.293259
    16  H    4.814602   3.501925   3.490531   1.892259   5.697376
                   11         12         13         14         15
    11  O    0.000000
    12  H    4.844109   0.000000
    13  O    3.412756   3.597650   0.000000
    14  H    3.849795   3.806974   1.304248   0.000000
    15  O    2.247239   5.681847   4.356824   5.291557   0.000000
    16  H    2.315976   6.443274   4.868991   5.679661   0.970863
                   16
    16  H    0.000000
 Stoichiometry    C4H7NO4
 Framework group  C1[X(C4H7NO4)]
 Deg. of freedom    42
 Full point group                 C1      NOp   1
 Largest Abelian subgroup         C1      NOp   1
 Largest concise Abelian subgroup C1      NOp   1
                         Standard orientation:                         
 ---------------------------------------------------------------------
 Center     Atomic      Atomic             Coordinates (Angstroms)
 Number     Number       Type             X           Y           Z
 ---------------------------------------------------------------------
      1          7           0       -1.499325    1.920472   -0.150233
      2          1           0       -1.702731    2.011061    0.841222
      3          6           0       -0.643089    0.760329   -0.420772
      4          1           0       -0.548263    0.658665   -1.502300
      5          6           0        0.735879    0.979531    0.199743
      6          6           0       -1.295367   -0.507187    0.086202
      7          1           0        1.135297    1.932640   -0.156014
      8          1           0        0.670798    1.055124    1.289224
      9          6           0        1.717959   -0.112058   -0.144229
     10          8           0       -2.097130   -1.237192   -0.587083
     11          8           0        1.473256   -1.079205   -0.830859
     12          1           0       -2.383996    1.845080   -0.642301
     13          8           0       -1.207287   -0.960399    1.278044
     14          1           0       -2.032244   -1.728564    0.621973
     15          8           0        2.924483    0.111093    0.404948
     16          1           0        3.517545   -0.615380    0.153770
 ---------------------------------------------------------------------
 Rotational constants (GHZ):      2.5088884      1.1353640      0.9386330
 Standard basis: 6-311++G(d,p) (5D, 7F)
 There are   247 symmetry adapted basis functions of A   symmetry.
 Integral buffers will be    262144 words long.
 Raffenetti 2 integral format.
 Two-electron integral symmetry is turned on.
   247 basis functions,   387 primitive gaussians,   256 cartesian basis functions
    35 alpha electrons       35 beta electrons
       nuclear repulsion energy       471.7475734888 Hartrees.
 NAtoms=   16 NActive=   16 NUniq=   16 SFac= 1.00D+00 NAtFMM=   50 NAOKFM=F Big=F
 ------------------------------------------------------------------------------
 Polarizable Continuum Model (PCM)
 =================================
 Model                : C-PCM.
 Atomic radii         : UFF (Universal Force Field).
 Polarization charges : Total charges.
 Charge compensation  : None.
 Solution method      : Matrix inversion.
 Cavity type          : Scaled VdW (van der Waals Surface) (Alpha=1.100).
 Cavity algorithm     : GePol (No added spheres)
                        Default sphere list used, NSphG=   16.
                        Lebedev-Laikov grids with approx.  5.0 points / Ang**2.
                        Smoothing algorithm: Karplus/York (Gamma=1.0000).
                        Polarization charges: spherical gaussians, with
                                              point-specific exponents (IZeta= 3).
                        Self-potential: point-specific (ISelfS= 7).
                        Self-field    : sphere-specific E.n sum rule (ISelfD= 2).
 1st derivatives      : Analytical E(r).r(x)/FMM algorithm (CHGder, D1EAlg=3).
                        Cavity 1st derivative terms included.
 Solvent              : Water, Eps=  78.355300 Eps(inf)=   1.777849
 ------------------------------------------------------------------------------
 Spheres list:
 ISph  on   Nord    Re0     Alpha      Xe            Ye            Ze
    1   N      1    1.830   1.100     -1.499325      1.920472     -0.150233
    2   H      2    1.443   1.100     -1.702731      2.011061      0.841222
    3   C      3    1.926   1.100     -0.643089      0.760329     -0.420772
    4   H      4    1.443   1.100     -0.548263      0.658665     -1.502300
    5   C      5    1.926   1.100      0.735879      0.979531      0.199743
    6   C      6    1.926   1.100     -1.295367     -0.507187      0.086202
    7   H      7    1.443   1.100      1.135297      1.932640     -0.156014
    8   H      8    1.443   1.100      0.670798      1.055124      1.289224
    9   C      9    1.926   1.100      1.717959     -0.112058     -0.144229
   10   O     10    1.750   1.100     -2.097130     -1.237192     -0.587083
   11   O     11    1.750   1.100      1.473256     -1.079205     -0.830859
   12   H     12    1.443   1.100     -2.383996      1.845080     -0.642301
   13   O     13    1.750   1.100     -1.207287     -0.960399      1.278044
   14   H     14    1.443   1.100     -2.032244     -1.728564      0.621973
   15   O     15    1.750   1.100      2.924483      0.111093      0.404948
   16   H     16    1.443   1.100      3.517545     -0.615380      0.153770
 ------------------------------------------------------------------------------
 One-electron integrals computed using PRISM.
 NBasis=   247 RedAO= T  NBF=   247
 NBsUse=   247 1.00D-06 NBFU=   247
 Initial guess read from the read-write file.
 B after Tr=     0.000000    0.000000    0.000000
         Rot=    1.000000    0.000000    0.000000    0.000000 Ang=   0.00 deg.
 Initial guess orbital symmetries:
       Occupied  (A) (A) (A) (A) (A) (A) (A) (A) (A) (A) (A) (A)
                 (A) (A) (A) (A) (A) (A) (A) (A) (A) (A) (A) (A)
                 (A) (A) (A) (A) (A) (A) (A) (A) (A) (A) (A)
       Virtual   (A) (A) (A) (A) (A) (A) (A) (A) (A) (A) (A) (A)
                 (A) (A) (A) (A) (A) (A) (A) (A) (A) (A) (A) (A)
                 (A) (A) (A) (A) (A) (A) (A) (A) (A) (A) (A) (A)
                 (A) (A) (A) (A) (A) (A) (A) (A) (A) (A) (A) (A)
                 (A) (A) (A) (A) (A) (A) (A) (A) (A) (A) (A) (A)
                 (A) (A) (A) (A) (A) (A) (A) (A) (A) (A) (A) (A)
                 (A) (A) (A) (A) (A) (A) (A) (A) (A) (A) (A) (A)
                 (A) (A) (A) (A) (A) (A) (A) (A) (A) (A) (A) (A)
                 (A) (A) (A) (A) (A) (A) (A) (A) (A) (A) (A) (A)
                 (A) (A) (A) (A) (A) (A) (A) (A) (A) (A) (A) (A)
                 (A) (A) (A) (A) (A) (A) (A) (A) (A) (A) (A) (A)
                 (A) (A) (A) (A) (A) (A) (A) (A) (A) (A) (A) (A)
                 (A) (A) (A) (A) (A) (A) (A) (A) (A) (A) (A) (A)
                 (A) (A) (A) (A) (A) (A) (A) (A) (A) (A) (A) (A)
                 (A) (A) (A) (A) (A) (A) (A) (A) (A) (A) (A) (A)
                 (A) (A) (A) (A) (A) (A) (A) (A) (A) (A) (A) (A)
                 (A) (A) (A) (A) (A) (A) (A) (A) (A) (A) (A) (A)
                 (A) (A) (A) (A) (A) (A) (A) (A)
 Harris functional with IExCor=  402 diagonalized for initial guess.
 ExpMin= 3.60D-02 ExpMax= 8.59D+03 ExpMxC= 1.30D+03 IAcc=3 IRadAn=         0 AccDes= 0.00D+00
 HarFok:  IExCor=  402 AccDes= 0.00D+00 IRadAn=         0 IDoV= 1
 ScaDFX=  1.000000  1.000000  1.000000  1.000000
 FoFCou: FMM=F IPFlag=           0 FMFlag=      100000 FMFlg1=           0
         NFxFlg=           0 DoJE=T BraDBF=F KetDBF=T FulRan=T
         Omega=  0.000000  0.000000  1.000000  0.000000  0.000000 ICntrl=     500 IOpCl=  0
         NMat0=    1 NMatS0=    1 NMatT0=    0 NMatD0=    1 NMtDS0=    0 NMtDT0=    0
         I1Cent=           4 NGrid=           0.
 Petite list used in FoFCou.
 Requested convergence on RMS density matrix=1.00D-08 within 128 cycles.
 Requested convergence on MAX density matrix=1.00D-06.
 Requested convergence on             energy=1.00D-06.
 No special actions if energy rises.
 Error on total polarization charges =  0.01160
 SCF Done:  E(RB3LYP) =  -512.442445768     A.U. after   12 cycles
             Convg  =    0.5874D-08             -V/T =  2.0036
 D1PCM: C-PCM CHGder 1st derivatives, ID1Alg=3 FixD1E=F DoIter=F DoCFld=F I1PDM=0.
 Calling FoFJK, ICntrl=      2127 FMM=F ISym2X=0 I1Cent= 0 IOpClX= 0 NMat=1 NMatS=1 NMatT=0.
 ***** Axes restored to original set *****
 -------------------------------------------------------------------
 Center     Atomic                   Forces (Hartrees/Bohr)
 Number     Number              X              Y              Z
 -------------------------------------------------------------------
      1        7          -0.000037462    0.000125413   -0.000032009
      2        1           0.000052133   -0.000014446    0.000015405
      3        6          -0.000171027   -0.000103820    0.000174989
      4        1          -0.000084791   -0.000020003   -0.000030784
      5        6           0.000061962    0.000078947   -0.000078216
      6        6           0.000001596   -0.000095667   -0.000067108
      7        1           0.000028383    0.000010871   -0.000015085
      8        1          -0.000052031   -0.000046508   -0.000015495
      9        6          -0.000030286    0.000060545    0.000064434
     10        8          -0.000046318   -0.000034205    0.000006481
     11        8           0.000093556   -0.000105977    0.000017286
     12        1           0.000103053    0.000011491    0.000000061
     13        8          -0.000048030   -0.000065785    0.000083831
     14        1           0.000064433    0.000018131   -0.000073385
     15        8           0.000026517    0.000098020   -0.000033105
     16        1           0.000038312    0.000082994   -0.000017302
 -------------------------------------------------------------------
 Cartesian Forces:  Max     0.000174989 RMS     0.000068211

 GradGradGradGradGradGradGradGradGradGradGradGradGradGradGradGradGradGrad
 Berny optimization.
 Internal  Forces:  Max     0.000418482 RMS     0.000096587
 Search for a saddle point.
 Step number   2 out of a maximum of   82
 All quantities printed in internal units (Hartrees-Bohrs-Radians)
 Swaping is turned off.
 Update second derivatives using D2CorX and points    1    2
 ITU=  0  0
     Eigenvalues ---   -0.09839   0.00081   0.00165   0.00350   0.00422
     Eigenvalues ---    0.01818   0.02799   0.03164   0.03576   0.04040
     Eigenvalues ---    0.04289   0.04978   0.05204   0.05823   0.07440
     Eigenvalues ---    0.07706   0.07934   0.11334   0.13810   0.14993
     Eigenvalues ---    0.15228   0.15670   0.15975   0.18739   0.19356
     Eigenvalues ---    0.21424   0.22090   0.24226   0.28040   0.29801
     Eigenvalues ---    0.33071   0.33409   0.33879   0.34549   0.36181
     Eigenvalues ---    0.39347   0.44710   0.45221   0.46018   0.51220
     Eigenvalues ---    0.53671   0.86612
 Eigenvectors required to have negative eigenvalues:
                          R15       R16       A25       R11       R10
   1                   -0.64412   0.64239  -0.37782  -0.10047   0.09934
                          A17       A16       A24       D30       A8
   1                   -0.06130   0.06060  -0.02078   0.01733   0.01550
 RFO step:  Lambda0=4.625764494D-10 Lambda=-3.57969605D-05.
 Linear search not attempted -- option 19 set.
 Iteration  1 RMS(Cart)=  0.02830907 RMS(Int)=  0.00072793
 Iteration  2 RMS(Cart)=  0.00080665 RMS(Int)=  0.00000569
 Iteration  3 RMS(Cart)=  0.00000059 RMS(Int)=  0.00000567
 Variable       Old X    -DE/DX   Delta X   Delta X   Delta X     New X
                                 (Linear)    (Quad)   (Total)
    R1        1.92025   0.00001   0.00000   0.00011   0.00011   1.92036
    R2        2.77234  -0.00012   0.00000   0.00005   0.00005   2.77239
    R3        1.91829  -0.00006   0.00000  -0.00003  -0.00003   1.91825
    R4        2.06061   0.00004   0.00000   0.00014   0.00014   2.06074
    R5        2.88741   0.00022   0.00000   0.00099   0.00099   2.88840
    R6        2.85910   0.00012   0.00000  -0.00014  -0.00014   2.85896
    R7        2.06535   0.00000   0.00000  -0.00060  -0.00060   2.06475
    R8        2.06743  -0.00003   0.00000   0.00079   0.00079   2.06823
    R9        2.84990   0.00011   0.00000  -0.00046  -0.00046   2.84944
   R10        2.41193   0.00002   0.00000  -0.00002  -0.00002   2.41191
   R11        2.41534   0.00005   0.00000   0.00024   0.00024   2.41558
   R12        2.87946   0.00001   0.00000  -0.00019  -0.00019   2.87927
   R13        2.28861   0.00010   0.00000   0.00018   0.00018   2.28879
   R14        2.54032   0.00018   0.00000   0.00042   0.00042   2.54074
   R15        2.46931   0.00000   0.00000  -0.00021  -0.00020   2.46911
   R16        2.46467  -0.00001   0.00000  -0.00003  -0.00004   2.46463
   R17        1.83467   0.00004   0.00000   0.00001   0.00001   1.83468
    A1        1.94685  -0.00006   0.00000  -0.00098  -0.00098   1.94587
    A2        1.88087   0.00006   0.00000  -0.00026  -0.00026   1.88061
    A3        1.93962  -0.00013   0.00000  -0.00111  -0.00111   1.93852
    A4        1.88324   0.00004   0.00000  -0.00076  -0.00076   1.88248
    A5        1.91601  -0.00016   0.00000  -0.00215  -0.00214   1.91386
    A6        1.92739  -0.00002   0.00000  -0.00037  -0.00037   1.92702
    A7        1.91526  -0.00001   0.00000   0.00072   0.00072   1.91597
    A8        1.86683  -0.00010   0.00000   0.00022   0.00022   1.86706
    A9        1.95324   0.00024   0.00000   0.00230   0.00230   1.95555
   A10        1.89941  -0.00015   0.00000   0.00072   0.00071   1.90012
   A11        1.93975  -0.00011   0.00000  -0.00265  -0.00265   1.93711
   A12        1.97278   0.00042   0.00000   0.00265   0.00264   1.97542
   A13        1.86046   0.00006   0.00000  -0.00087  -0.00087   1.85960
   A14        1.89546  -0.00012   0.00000   0.00309   0.00309   1.89854
   A15        1.89218  -0.00012   0.00000  -0.00301  -0.00301   1.88918
   A16        2.18123  -0.00003   0.00000   0.00044   0.00046   2.18168
   A17        2.18929   0.00004   0.00000  -0.00063  -0.00065   2.18864
   A18        1.90962  -0.00002   0.00000  -0.00004  -0.00004   1.90958
   A19        2.18433   0.00005   0.00000  -0.00004  -0.00004   2.18430
   A20        1.95103  -0.00006   0.00000  -0.00037  -0.00037   1.95066
   A21        2.14782   0.00002   0.00000   0.00041   0.00040   2.14822
   A22        1.84977   0.00002   0.00000   0.00022   0.00022   1.84999
   A23        1.89479   0.00014   0.00000   0.00105   0.00105   1.89584
   A24        3.07586   0.00011   0.00000  -0.00103  -0.00101   3.07484
   A25        3.13449  -0.00005   0.00000  -0.00336  -0.00339   3.13111
    D1        3.04044  -0.00003   0.00000  -0.00050  -0.00050   3.03993
    D2       -1.15610  -0.00011   0.00000  -0.00132  -0.00132  -1.15741
    D3        1.00568   0.00007   0.00000  -0.00013  -0.00013   1.00555
    D4        0.94104   0.00002   0.00000   0.00125   0.00125   0.94229
    D5        3.02770  -0.00006   0.00000   0.00043   0.00043   3.02813
    D6       -1.09371   0.00013   0.00000   0.00162   0.00162  -1.09209
    D7       -0.93970   0.00003   0.00000  -0.00471  -0.00471  -0.94441
    D8        1.10392  -0.00005   0.00000  -0.00687  -0.00687   1.09705
    D9       -3.04704   0.00001   0.00000  -0.01085  -0.01085  -3.05790
   D10        1.12727  -0.00003   0.00000  -0.00650  -0.00650   1.12077
   D11       -3.11230  -0.00011   0.00000  -0.00865  -0.00865  -3.12095
   D12       -0.98008  -0.00005   0.00000  -0.01264  -0.01264  -0.99272
   D13       -3.08630   0.00000   0.00000  -0.00430  -0.00430  -3.09060
   D14       -1.04268  -0.00008   0.00000  -0.00646  -0.00646  -1.04914
   D15        1.08954  -0.00002   0.00000  -0.01044  -0.01044   1.07910
   D16        1.54845   0.00002   0.00000   0.03717   0.03716   1.58561
   D17       -1.50036   0.00004   0.00000   0.04056   0.04057  -1.45979
   D18       -0.49647   0.00004   0.00000   0.03814   0.03814  -0.45833
   D19        2.73791   0.00006   0.00000   0.04154   0.04154   2.77945
   D20       -2.59459  -0.00003   0.00000   0.03576   0.03576  -2.55884
   D21        0.63978  -0.00001   0.00000   0.03916   0.03916   0.67894
   D22       -0.00669  -0.00007   0.00000  -0.06282  -0.06282  -0.06951
   D23        3.13282  -0.00009   0.00000  -0.06002  -0.06001   3.07281
   D24       -2.11628  -0.00008   0.00000  -0.06760  -0.06760  -2.18389
   D25        1.02323  -0.00010   0.00000  -0.06479  -0.06480   0.95843
   D26        2.15195  -0.00002   0.00000  -0.06661  -0.06661   2.08534
   D27       -0.99172  -0.00004   0.00000  -0.06381  -0.06381  -1.05553
   D28       -3.14012   0.00004   0.00000  -0.00663  -0.00663   3.13644
   D29       -0.00056   0.00002   0.00000  -0.00389  -0.00389  -0.00445
   D30        0.00021  -0.00014   0.00000  -0.00145  -0.00144  -0.00123
         Item               Value     Threshold  Converged?
 Maximum Force            0.000418     0.000450     YES
 RMS     Force            0.000097     0.000300     YES
 Maximum Displacement     0.127725     0.001800     NO 
 RMS     Displacement     0.028303     0.001200     NO 
 Predicted change in Energy=-1.851628D-05
 GradGradGradGradGradGradGradGradGradGradGradGradGradGradGradGradGradGrad

                          Input orientation:                          
 ---------------------------------------------------------------------
 Center     Atomic      Atomic             Coordinates (Angstroms)
 Number     Number       Type             X           Y           Z
 ---------------------------------------------------------------------
      1          7           0        0.000403    0.009971    0.036544
      2          1           0        0.021745   -0.006312    1.052399
      3          6           0        1.353875    0.009929   -0.529536
      4          1           0        1.263321   -0.077607   -1.612737
      5          6           0        2.060079    1.317918   -0.173612
      6          6           0        2.125634   -1.200364   -0.051590
      7          1           0        1.435924    2.155233   -0.494787
      8          1           0        2.180255    1.416316    0.909769
      9          6           0        3.418895    1.452024   -0.813353
     10          8           0        2.167089   -2.326050   -0.651697
     11          8           0        3.960718    0.601638   -1.484337
     12          1           0       -0.525465   -0.800480   -0.274991
     13          8           0        2.752726   -1.287586    1.058870
     14          1           0        2.817174   -2.451882    0.474689
     15          8           0        3.977693    2.646459   -0.551128
     16          1           0        4.848619    2.681878   -0.978700
 ---------------------------------------------------------------------
                    Distance matrix (angstroms):
                    1          2          3          4          5
     1  N    0.000000
     2  H    1.016210   0.000000
     3  C    1.467083   2.068176   0.000000
     4  H    2.079125   2.941011   1.090499   0.000000
     5  C    2.448909   2.722406   1.528477   2.157173   0.000000
     6  C    2.447301   2.659117   1.512896   2.107450   2.522089
     7  H    2.635372   3.010974   2.147154   2.503034   1.092620
     8  H    2.737167   2.589089   2.175414   3.071744   1.094458
     9  C    3.806302   4.141063   2.534659   2.761392   1.507858
    10  O    3.259631   3.589934   2.476497   2.606893   3.676754
    11  O    4.283368   4.724419   2.838554   2.784566   2.417331
    12  H    1.015097   1.640764   2.062396   2.347736   3.344088
    13  O    3.209998   3.016614   2.482612   3.289355   2.964359
    14  H    3.766549   3.758855   3.034836   3.522640   3.899344
    15  O    4.807833   5.025735   3.719701   3.989406   2.363214
    16  H    5.628055   5.886463   4.422024   4.568492   3.206948
                    6          7          8          9         10
     6  C    0.000000
     7  H    3.454295   0.000000
     8  H    2.788227   1.752942   0.000000
     9  C    3.047617   2.127948   2.122417   0.000000
    10  O    1.276329   4.543250   4.055077   3.983339   0.000000
    11  O    2.944063   3.125292   3.092812   1.211176   3.532951
    12  H    2.690379   3.554096   3.693069   4.574012   3.117550
    13  O    1.278269   4.000103   2.767859   3.384445   2.085045
    14  H    1.523646   4.906450   3.944353   4.154709   1.306595
    15  O    4.298570   2.589413   2.622642   1.344504   5.292848
    16  H    4.831768   3.486834   3.505442   1.893143   5.690068
                   11         12         13         14         15
    11  O    0.000000
    12  H    4.853276   0.000000
    13  O    3.390621   3.572533   0.000000
    14  H    3.803874   3.802945   1.304226   0.000000
    15  O    2.247768   5.677681   4.423725   5.328432   0.000000
    16  H    2.317636   6.442267   4.929615   5.709168   0.970869
                   16
    16  H    0.000000
 Stoichiometry    C4H7NO4
 Framework group  C1[X(C4H7NO4)]
 Deg. of freedom    42
 Full point group                 C1      NOp   1
 Largest Abelian subgroup         C1      NOp   1
 Largest concise Abelian subgroup C1      NOp   1
                         Standard orientation:                         
 ---------------------------------------------------------------------
 Center     Atomic      Atomic             Coordinates (Angstroms)
 Number     Number       Type             X           Y           Z
 ---------------------------------------------------------------------
      1          7           0       -1.485274    1.929393   -0.158838
      2          1           0       -1.689534    2.021189    0.832390
      3          6           0       -0.636888    0.762915   -0.426990
      4          1           0       -0.541466    0.660324   -1.508450
      5          6           0        0.742470    0.976282    0.195978
      6          6           0       -1.299686   -0.499182    0.079629
      7          1           0        1.150087    1.923904   -0.164132
      8          1           0        0.671967    1.061004    1.284871
      9          6           0        1.717836   -0.126613   -0.129475
     10          8           0       -2.075387   -1.244927   -0.606788
     11          8           0        1.452672   -1.130424   -0.753174
     12          1           0       -2.369781    1.858366   -0.651813
     13          8           0       -1.251468   -0.929330    1.282384
     14          1           0       -2.049333   -1.713936    0.612450
     15          8           0        2.943178    0.130910    0.360330
     16          1           0        3.530623   -0.606854    0.129682
 ---------------------------------------------------------------------
 Rotational constants (GHZ):      2.5124987      1.1385124      0.9345038
 Standard basis: 6-311++G(d,p) (5D, 7F)
 There are   247 symmetry adapted basis functions of A   symmetry.
 Integral buffers will be    262144 words long.
 Raffenetti 2 integral format.
 Two-electron integral symmetry is turned on.
   247 basis functions,   387 primitive gaussians,   256 cartesian basis functions
    35 alpha electrons       35 beta electrons
       nuclear repulsion energy       471.7712035267 Hartrees.
 NAtoms=   16 NActive=   16 NUniq=   16 SFac= 1.00D+00 NAtFMM=   50 NAOKFM=F Big=F
 ------------------------------------------------------------------------------
 Polarizable Continuum Model (PCM)
 =================================
 Model                : C-PCM.
 Atomic radii         : UFF (Universal Force Field).
 Polarization charges : Total charges.
 Charge compensation  : None.
 Solution method      : Matrix inversion.
 Cavity type          : Scaled VdW (van der Waals Surface) (Alpha=1.100).
 Cavity algorithm     : GePol (No added spheres)
                        Default sphere list used, NSphG=   16.
                        Lebedev-Laikov grids with approx.  5.0 points / Ang**2.
                        Smoothing algorithm: Karplus/York (Gamma=1.0000).
                        Polarization charges: spherical gaussians, with
                                              point-specific exponents (IZeta= 3).
                        Self-potential: point-specific (ISelfS= 7).
                        Self-field    : sphere-specific E.n sum rule (ISelfD= 2).
 1st derivatives      : Analytical E(r).r(x)/FMM algorithm (CHGder, D1EAlg=3).
                        Cavity 1st derivative terms included.
 Solvent              : Water, Eps=  78.355300 Eps(inf)=   1.777849
 ------------------------------------------------------------------------------
 Spheres list:
 ISph  on   Nord    Re0     Alpha      Xe            Ye            Ze
    1   N      1    1.830   1.100     -1.485274      1.929393     -0.158838
    2   H      2    1.443   1.100     -1.689534      2.021189      0.832390
    3   C      3    1.926   1.100     -0.636888      0.762915     -0.426990
    4   H      4    1.443   1.100     -0.541466      0.660324     -1.508450
    5   C      5    1.926   1.100      0.742470      0.976282      0.195978
    6   C      6    1.926   1.100     -1.299686     -0.499182      0.079629
    7   H      7    1.443   1.100      1.150087      1.923904     -0.164132
    8   H      8    1.443   1.100      0.671967      1.061004      1.284871
    9   C      9    1.926   1.100      1.717836     -0.126613     -0.129475
   10   O     10    1.750   1.100     -2.075387     -1.244927     -0.606788
   11   O     11    1.750   1.100      1.452672     -1.130424     -0.753174
   12   H     12    1.443   1.100     -2.369781      1.858366     -0.651813
   13   O     13    1.750   1.100     -1.251468     -0.929330      1.282384
   14   H     14    1.443   1.100     -2.049333     -1.713936      0.612450
   15   O     15    1.750   1.100      2.943178      0.130910      0.360330
   16   H     16    1.443   1.100      3.530623     -0.606854      0.129682
 ------------------------------------------------------------------------------
 One-electron integrals computed using PRISM.
 NBasis=   247 RedAO= T  NBF=   247
 NBsUse=   247 1.00D-06 NBFU=   247
 Initial guess read from the read-write file.
 B after Tr=     0.000000    0.000000    0.000000
         Rot=    1.000000    0.000000    0.000000    0.000000 Ang=   0.00 deg.
 Initial guess orbital symmetries:
       Occupied  (A) (A) (A) (A) (A) (A) (A) (A) (A) (A) (A) (A)
                 (A) (A) (A) (A) (A) (A) (A) (A) (A) (A) (A) (A)
                 (A) (A) (A) (A) (A) (A) (A) (A) (A) (A) (A)
       Virtual   (A) (A) (A) (A) (A) (A) (A) (A) (A) (A) (A) (A)
                 (A) (A) (A) (A) (A) (A) (A) (A) (A) (A) (A) (A)
                 (A) (A) (A) (A) (A) (A) (A) (A) (A) (A) (A) (A)
                 (A) (A) (A) (A) (A) (A) (A) (A) (A) (A) (A) (A)
                 (A) (A) (A) (A) (A) (A) (A) (A) (A) (A) (A) (A)
                 (A) (A) (A) (A) (A) (A) (A) (A) (A) (A) (A) (A)
                 (A) (A) (A) (A) (A) (A) (A) (A) (A) (A) (A) (A)
                 (A) (A) (A) (A) (A) (A) (A) (A) (A) (A) (A) (A)
                 (A) (A) (A) (A) (A) (A) (A) (A) (A) (A) (A) (A)
                 (A) (A) (A) (A) (A) (A) (A) (A) (A) (A) (A) (A)
                 (A) (A) (A) (A) (A) (A) (A) (A) (A) (A) (A) (A)
                 (A) (A) (A) (A) (A) (A) (A) (A) (A) (A) (A) (A)
                 (A) (A) (A) (A) (A) (A) (A) (A) (A) (A) (A) (A)
                 (A) (A) (A) (A) (A) (A) (A) (A) (A) (A) (A) (A)
                 (A) (A) (A) (A) (A) (A) (A) (A) (A) (A) (A) (A)
[...]
 ! D4    D(12,1,3,4)            54.0045         -DE/DX =    0.0                 !
 ! D5    D(12,1,3,5)           173.4949         -DE/DX =    0.0                 !
 ! D6    D(12,1,3,6)           -62.5617         -DE/DX =    0.0                 !
 ! D7    D(1,3,5,7)            -53.9486         -DE/DX =    0.0                 !
 ! D8    D(1,3,5,8)             63.0426         -DE/DX =    0.0                 !
 ! D9    D(1,3,5,9)           -174.9788         -DE/DX =    0.0                 !
 ! D10   D(4,3,5,7)             64.3723         -DE/DX =    0.0                 !
 ! D11   D(4,3,5,8)           -178.6364         -DE/DX =    0.0                 !
 ! D12   D(4,3,5,9)            -56.6579         -DE/DX =    0.0                 !
 ! D13   D(6,3,5,7)           -176.9518         -DE/DX =    0.0                 !
 ! D14   D(6,3,5,8)            -59.9605         -DE/DX =    0.0                 !
 ! D15   D(6,3,5,9)             62.018          -DE/DX =    0.0                 !
 ! D16   D(1,3,6,10)            90.2335         -DE/DX =    0.0                 !
 ! D17   D(1,3,6,13)           -84.309          -DE/DX =    0.0                 !
 ! D18   D(4,3,6,10)           -26.8892         -DE/DX =    0.0                 !
 ! D19   D(4,3,6,13)           158.5683         -DE/DX =    0.0                 !
 ! D20   D(5,3,6,10)          -147.2043         -DE/DX =    0.0                 !
 ! D21   D(5,3,6,13)            38.2531         -DE/DX =    0.0                 !
 ! D22   D(3,5,9,11)            -3.3844         -DE/DX =    0.0                 !
 ! D23   D(3,5,9,15)           176.622          -DE/DX =    0.0                 !
 ! D24   D(7,5,9,11)          -124.4695         -DE/DX =    0.0                 !
 ! D25   D(7,5,9,15)            55.537          -DE/DX =    0.0                 !
 ! D26   D(8,5,9,11)           120.107          -DE/DX =    0.0                 !
 ! D27   D(8,5,9,15)           -59.8865         -DE/DX =    0.0                 !
 ! D28   D(5,9,15,16)          179.7933         -DE/DX =    0.0                 !
 ! D29   D(11,9,15,16)          -0.2004         -DE/DX =    0.0                 !
 ! D30   D(13,10,14,6)          -0.0691         -DE/DX =    0.0                 !
 --------------------------------------------------------------------------------
 GradGradGradGradGradGradGradGradGradGradGradGradGradGradGradGradGradGrad


 Test job not archived.
 1|1|UNPC-WIN-20150318OUM|Freq|RB3LYP|6-311++G(d,p)|C4H7N1O4|ADMINISTRA
 TOR|07-Apr-2016|0||#N Geom=AllCheck Guess=TCheck SCRF=Check Test GenCh
 k RB3LYP/6-311++G(d,p) Freq||Asp-S-opt-freq-ts1-6-31++gdp||0,1|N,-0.00
 0054,0.0096802559,0.034307507|H,0.0196414799,-0.0056413037,1.050208258
 9|C,1.3542877331,0.0091762582,-0.5295944496|H,1.2655143863,-0.07893783
 11,-1.6129390553|C,2.0600222633,1.3174826722,-0.1737042836|C,2.1258516
 823,-1.2007784517,-0.0500173939|H,1.4346835804,2.1541787442,-0.4941948
 392|H,2.1814696618,1.4153518527,0.909503108|C,3.4177202887,1.453573852
 5,-0.8157374907|O,2.1592227401,-2.329969009,-0.6440271967|O,3.95491953
 11,0.6084975067,-1.4969763048|H,-0.5256327036,-0.8009387677,-0.2773033
 465|O,2.76165518,-1.2835367856,1.0557811789|H,2.8180241973,-2.45128908
 88,0.4777910177|O,3.9810298128,2.6435322771,-0.5432614033|H,4.85033134
 79,2.6807045341,-0.9740313218||Version=IA32W-G09RevB.01|State=1-A|HF=-
 512.4424608|RMSD=7.488e-009|RMSF=2.667e-006|ZeroPoint=0.1179836|Therma
 l=0.1272886|Dipole=-0.5819906,0.9247919,0.4054411|DipoleDeriv=-0.82998
 88,0.1549615,0.0354147,0.17431,-0.6590081,0.1156243,0.0306604,0.107891
 9,-0.3655339,0.2050964,-0.0649249,-0.0833706,-0.0774208,0.325636,0.058
 9871,-0.0194215,0.0205795,0.0879091,0.4911331,0.1017883,-0.0954698,0.1
 454242,0.3486941,-0.1044661,-0.1062007,-0.0826613,0.2814213,0.0552205,
 0.0012914,-0.0028551,0.0062848,0.022158,-0.0209797,0.0001791,-0.007974
 5,-0.0636813,-0.2427854,-0.0055297,0.1626303,0.0662202,0.027093,-0.062
 2643,0.1694727,0.0153567,-0.0022895,0.7039431,-0.2317308,0.4980117,-0.
 3203271,1.5328002,0.3763963,0.559367,0.2782322,1.424342,0.0465479,0.03
 50178,-0.0005128,0.0084912,-0.0206263,0.0525536,-0.0351175,0.0502661,0
 .1147271,0.0583038,-0.0336979,-0.0024907,-0.0651469,0.1050875,0.030129
 7,-0.0079469,-0.0351542,-0.0316277,1.4683488,0.3607965,-0.4424091,0.33
 13444,2.1770964,0.655356,-0.4332119,0.6539378,0.9016194,-0.5567203,0.0
 295473,-0.2151491,0.0751589,-1.2758025,-0.4870149,-0.2299576,-0.402851
 2,-1.0899949,-0.9153345,0.2432618,0.3893272,-0.0008397,-1.2229779,-0.3
 428754,0.2777107,-0.4696966,-0.8245151,0.2705754,-0.0596754,0.0717576,
 -0.1370735,0.125229,-0.0701945,0.0996407,-0.0452879,0.2180775,-0.70783
 38,0.008935,-0.4096617,0.0736397,-0.9149038,-0.1979395,-0.4959876,-0.2
 104873,-1.3044797,0.4040098,0.0976409,0.1658868,0.0975633,0.5256803,0.
 2801009,0.1573526,0.2978684,0.7911998,-0.8025728,-0.6869674,-0.1246457
 ,-0.4400676,-1.4597143,-0.227319,-0.0264864,-0.1213759,-0.4955733,0.35
 20568,0.0492856,0.0535365,0.0624389,0.3635583,-0.0560945,0.059947,-0.0
 486438,0.3583993|Polar=90.6514596,-2.0997424,97.2667433,-1.0312854,8.0
 965947,81.7542111|PG=C01 [X(C4H7N1O4)]|NImag=1||0.43145753,0.20522024,
 0.37433686,-0.00933652,0.11647969,0.62937846,-0.05187824,-0.02193408,-
 0.02743804,0.05922511,-0.02168210,-0.02617381,0.03023079,0.01668510,0.
 02937516,-0.00440856,-0.01241989,-0.42489532,0.00566172,0.00503760,0.4
 4537185,-0.18003451,-0.02192245,0.04940094,-0.00268574,0.00658005,-0.0
 0336265,0.43228905,0.00146664,-0.06552209,-0.02114122,0.00123551,-0.00
 342938,0.00246459,0.01971095,0.48271786,0.03516556,-0.01118441,-0.1113
 4247,0.03918329,-0.00066068,-0.01248918,0.02541930,0.02222031,0.625608
 67,-0.00363200,0.00414256,0.03936657,-0.00566314,-0.00077846,0.0027488
 8,-0.04942752,-0.00159773,-0.03168005,0.06319810,-0.00115478,0.0012944
 0,-0.00067091,-0.00012182,0.00067208,0.00008916,-0.00155392,-0.0544388
 1,-0.02123703,0.00070593,0.05989177,0.00463770,-0.00175989,-0.01298927
 ,0.00194192,0.00062629,0.00108190,-0.02703304,-0.01746167,-0.31022433,
 0.02434528,0.02081628,0.33603563,-0.02954856,-0.03372209,-0.00817394,0
 .00169087,0.00009947,-0.00008733,-0.09102122,-0.03193056,-0.01314426,-
 0.00198346,-0.00417525,-0.00217534,0.50421200,-0.00602578,0.00051190,0
 .00020518,0.00084853,0.00055439,0.00029280,-0.03869307,-0.15949215,-0.
 02429358,-0.00148071,-0.00363898,-0.00243375,-0.02789778,0.53690682,0.
 01183023,0.01226205,0.00482547,0.00045448,0.00153410,0.00081062,-0.016
 47060,-0.02843373,-0.09322459,-0.01475536,-0.02885892,-0.00485725,0.02
 131473,-0.00389215,0.54618478,-0.04008090,0.01975227,0.00235709,0.0006
 1197,-0.00000611,-0.00029618,-0.08630458,0.03193922,-0.02195436,-0.001
 65823,0.00310377,-0.00311100,0.01290696,-0.00884845,0.00868222,0.37291
 496,0.00333892,0.00769233,-0.00571664,0.00096600,-0.00064862,-0.001083
 51,0.03443775,-0.15833593,0.03797565,-0.00112759,0.00184660,-0.0011380
 8,0.01024384,-0.03286453,0.00705094,-0.14401522,0.71659933,0.01369809,
 -0.01304954,0.00401460,0.00310034,-0.00227622,0.00095061,-0.02147474,0
 .03521371,-0.10178620,-0.01904488,0.02872127,-0.01302301,0.00594983,-0
 .00490566,0.00379188,0.18911216,0.01867733,0.57240449,0.00145350,0.000
 13430,-0.00008950,-0.00008116,-0.00005947,0.00010503,0.00831580,-0.013
 08624,0.00558124,0.00050990,0.00066911,0.00004109,-0.13559636,0.116749
 26,-0.04762747,-0.00343582,-0.00186301,-0.00073435,0.14635995,0.001275
 24,0.00288178,0.00020719,-0.00000183,-0.00016273,0.00002617,0.01497587
 ,-0.02375187,0.00901326,0.00030725,0.00097126,-0.00020050,0.11336257,-
 0.19963563,0.06201860,-0.00431343,-0.00161295,-0.00238209,-0.12496167,
 0.21862289,0.00042316,0.00083784,-0.00002851,-0.00005013,0.00017617,-0
 .00003779,0.00469417,-0.00813753,0.00206915,0.00050100,0.00012112,0.00
 045281,-0.04664645,0.06199839,-0.06491256,-0.00167016,-0.00104732,-0.0
 0061940,0.04929006,-0.06558978,0.07104776,0.00117913,0.00063997,-0.000
 37186,-0.00059936,-0.00043057,0.00016511,-0.00270293,-0.00127600,-0.01
 582863,-0.00113665,-0.00287652,0.00007230,-0.04882332,-0.00675320,-0.0
 2569318,0.00020032,0.00080001,0.00014052,-0.00147738,-0.00168337,-0.01
 910567,0.05373063,0.00198395,0.00129870,0.00052619,-0.00074788,0.00001
 690,0.00023386,-0.00358427,-0.00398353,-0.03053059,-0.00263813,-0.0044
 2409,-0.00059184,-0.00716432,-0.04578653,-0.01852379,-0.00036173,0.000
 94204,-0.00190999,0.00181615,0.00193092,0.02415456,0.00720481,0.050886
 06,-0.00010250,0.00022558,0.00111516,-0.00055172,-0.00058138,0.0002426
 3,-0.00076741,-0.00150881,-0.00635754,-0.00013457,-0.00071768,0.001067
 11,-0.02759661,-0.02034671,-0.30259102,-0.00109566,0.00027685,-0.00069
 316,-0.00094144,-0.00035399,-0.00897818,0.02957050,0.02430892,0.328441
 76,0.00251541,0.00088976,-0.00015240,-0.00080458,-0.00053122,0.0004144
 6,-0.01984446,-0.01055572,0.00166389,0.00043157,0.00113402,0.00125048,
 -0.16780145,-0.01425834,0.03204141,0.00570741,-0.00404692,0.00036152,-
 0.01658666,0.00107371,0.01070082,0.00728951,0.00485017,-0.00114065,0.6
 0772077,-0.00165148,-0.00503876,-0.00302816,0.00037543,0.00022335,-0.0
 0009816,-0.02515966,-0.00086452,0.01489739,-0.00096321,0.00015500,-0.0
 0106278,-0.01535841,-0.08520684,0.01293232,-0.00487115,-0.00629422,0.0
 0259317,0.02512290,0.00216102,-0.01354753,0.00181513,-0.00162715,-0.00
 197120,-0.06267005,0.66340147,-0.00345065,-0.00432766,-0.00104358,0.00
 006138,0.00000311,-0.00002739,-0.00514270,0.00776432,0.00368884,-0.001
 50935,-0.00115830,-0.00053126,0.03292042,0.01142086,-0.10415335,-0.003
 47999,0.00087697,0.00160379,-0.01218179,-0.00527756,0.00439208,0.03365
 369,0.00109803,-0.01588068,-0.22659630,0.23854569,0.46268495,0.0012686
 1,0.00011426,0.00004503,-0.00041030,0.00009977,-0.00002529,0.01072752,
 0.01968914,0.00720288,0.00064019,-0.00068472,0.00098114,-0.00403786,0.
 00226829,-0.00250274,-0.09446925,0.00041899,-0.02974401,0.00117564,0.0
 0141286,0.00059356,0.00007824,0.00039376,0.00041235,-0.00190275,0.0004
 9929,0.00107843,0.06710557,0.00424609,-0.00491555,0.00088407,-0.000199
 53,0.00026445,0.00053631,-0.00172484,-0.01920215,-0.02040791,-0.000913
 14,0.00125217,-0.00061385,0.00468581,-0.00231175,0.00314121,0.02965851
 ,-0.36567928,-0.11733702,-0.00102895,-0.00202374,-0.00017780,0.0000020
 0,0.00034791,-0.00014953,0.00288403,0.00124988,-0.00111751,0.02307834,
 0.42691854,-0.00196152,0.00133803,0.00121729,-0.00090195,0.00030968,0.
 00016219,0.00055065,0.00676595,0.01115596,0.00156069,-0.00186157,0.002
 33018,-0.00119806,0.00158753,0.00027566,-0.01564961,-0.16502425,-0.199
 50103,0.00009735,0.00050480,0.00054265,0.00007850,0.00101558,0.0006297
 8,0.00057719,-0.00004357,-0.00080497,0.03921780,0.26438717,0.27711528,
 -0.00126028,-0.00077885,0.00048607,0.00005064,0.00021696,-0.00022687,0
 .00225258,0.00395316,0.00055959,0.00020848,-0.00031067,0.00038731,-0.0
 1242171,0.02692502,0.03241466,-0.00248722,0.00233511,-0.00142229,-0.00
 291535,-0.00031682,0.00216099,-0.00682496,-0.00007144,0.00201795,-0.23
 937341,0.17127900,0.16597238,0.00067548,-0.00137525,0.00027425,0.22291
 965,-0.00020361,0.00126477,0.00092996,-0.00037987,-0.00028848,0.000068
 33,-0.00171286,-0.00256822,0.00001102,0.00062871,0.00054961,0.00107228
 ,0.00841627,0.00254667,-0.01630047,0.00347032,0.00235094,-0.00222611,-
 0.00167950,0.00121280,0.00100553,0.00217614,0.00096214,0.00087887,0.18
 698189,-0.35919620,-0.23150158,-0.00120080,-0.00076369,0.00089013,-0.2
 0433463,0.44337963,0.00112145,0.00101534,0.00065378,-0.00029074,-0.000
 18698,0.00011043,-0.00256134,-0.00251660,-0.00131602,0.00070210,0.0006
 2095,0.00075677,0.02336905,-0.02605700,0.00143924,0.00067231,-0.001072
 30,-0.00038821,0.00482754,0.00218593,-0.00351421,-0.00087070,0.0002038
 6,0.00063927,0.17381526,-0.22367020,-0.27401168,-0.00032858,0.00088235
 ,0.00044888,-0.19722654,0.30253631,0.27711602,-0.13103655,-0.14870670,
 -0.04421984,-0.00017389,0.00013945,-0.00073052,-0.02103362,-0.02717740
 ,-0.01026466,0.00133423,0.00002555,0.00007935,-0.00451742,0.00173369,0
 .00303434,-0.00221028,-0.00102063,-0.00182263,0.00016244,0.00002586,0.
 00013008,0.00007482,0.00022368,-0.00002550,0.00048688,-0.00145379,-0.0
 0065048,0.00068973,-0.00064838,0.00056993,0.00001962,0.00026093,-0.000
 00282,0.15691700,-0.18978792,-0.28350878,-0.11850488,0.00380288,-0.001
 25027,0.00503369,0.00991007,-0.00197765,0.00089401,-0.00019255,0.00027
 348,0.00017952,-0.00156704,0.00020898,0.00108014,0.00145818,0.00211931
 ,0.00002327,0.00003775,0.00046375,-0.00006176,0.00016148,0.00005304,0.
 00000679,0.00051134,-0.00008388,-0.00099319,-0.00042519,0.00018872,-0.
 00042180,-0.00028682,0.00020639,0.00038789,0.17667866,0.28375363,-0.04
 347576,-0.09425852,-0.09046151,-0.02140018,-0.03349613,-0.01106699,0.0
 0710794,0.01518579,0.00542451,-0.00025355,0.00047845,0.00034043,0.0038
 5749,-0.00043106,-0.00130137,-0.00058979,0.00049521,-0.00028613,-0.000
 02807,-0.00031293,-0.00017518,0.00018431,0.00011574,0.00021019,-0.0002
 7290,0.00064379,0.00124461,0.00010626,-0.00047708,-0.00005750,0.000279
 52,-0.00005852,-0.00030782,0.05357343,0.11183983,0.09644466,0.00110549
 ,0.00105615,-0.00091518,0.00027809,-0.00050415,-0.00001797,-0.00216512
 ,0.00155684,-0.02222714,-0.00205035,0.00447778,-0.00031972,-0.00099733
 ,-0.00045944,-0.00092880,-0.16634695,0.02964077,-0.14298852,0.00050017
 ,0.00031723,0.00022418,-0.00002498,0.00006882,0.00038442,-0.00163227,0
 .00114510,0.00112544,0.03968343,-0.03583610,-0.04023120,0.00090551,-0.
 00144978,0.00042653,0.00035883,0.00003444,0.00015490,0.17281472,0.0043
 0167,-0.00207695,0.00062921,-0.00116277,0.00103083,-0.00000921,0.01082
 952,0.00897668,0.02593993,0.00434217,-0.00560976,0.00290934,0.00061535
 ,0.00194145,0.00076654,0.00467408,-0.13223735,-0.02632226,0.00000873,-
 0.00004481,0.00072295,-0.00007934,0.00093838,0.00088265,0.00254602,0.0
 0204955,-0.00082249,-0.07051994,0.01988368,-0.14503724,-0.00096971,-0.
 00099804,0.00107983,0.00036301,-0.00039256,-0.00030370,0.02046453,0.09
 506847,-0.00352508,0.00343285,-0.00040077,-0.00047102,-0.00032290,-0.0
 0020431,-0.00871781,-0.00307430,-0.00655840,-0.00088434,0.00190035,0.0
 0080256,-0.00055209,-0.00159761,-0.00034669,-0.16013461,0.02379275,-0.
 35192231,0.00024797,0.00014215,0.00040525,0.00036405,0.00086598,0.0005
 8915,-0.00018312,-0.00053132,-0.00043702,-0.06028741,-0.08210704,-0.10
 686772,0.00038220,0.00109648,-0.00025185,0.00063752,0.00008058,0.00023
 570,0.22678580,0.06408703,0.49714305,0.00150281,-0.00175964,0.00009006
 ,0.00019647,0.00001333,0.00017847,0.00458879,0.00161969,-0.00561267,-0
 .00077875,0.00079126,-0.00079147,-0.00030205,-0.00025039,-0.00011563,0
 .00661715,0.06724412,0.00575905,0.00004238,0.00006407,0.00009739,-0.00
 000098,-0.00020155,0.00000693,-0.00023863,-0.00012248,0.00008143,-0.02
 193381,-0.02128370,0.01705743,0.00002275,-0.00006432,-0.00008727,-0.00
 038453,0.00005382,-0.00007772,-0.04296698,0.02576877,0.00582203,0.0535
 7496,0.00070134,-0.00043413,-0.00074003,0.00059036,-0.00022945,-0.0001
 0288,-0.00101178,-0.00180300,-0.00425334,-0.00077513,0.00122240,-0.000
 54203,0.00051100,-0.00043707,0.00012268,0.06820786,-0.03692581,0.08671
 514,-0.00013312,-0.00021020,-0.00034859,-0.00002179,-0.00068671,-0.000
 32516,-0.00026241,-0.00081013,0.00000910,0.02474844,-0.05393232,0.0353
 6403,0.00003321,0.00049060,-0.00027542,-0.00020711,0.00019960,0.000025
 44,-0.02060879,0.01254943,-0.00839999,-0.07189602,0.08078340,-0.001428
 05,0.00024767,-0.00049604,0.00072131,-0.00036087,-0.00002905,-0.003817
 39,-0.00508773,-0.00435455,-0.00115573,0.00154418,-0.00141941,0.000806
 81,-0.00141194,0.00025616,0.00587113,0.08577987,0.08588845,-0.00022055
 ,-0.00036708,-0.00034763,0.00001882,-0.00077189,-0.00033884,-0.0005640
 2,-0.00028464,0.00050634,0.04361066,-0.04750681,0.01324858,0.00002049,
 -0.00025475,-0.00030719,-0.00052079,0.00028906,0.00008711,-0.02110050,
 0.07551251,-0.03229274,-0.02237765,-0.10735806,-0.06035188,-0.00286424
 ,-0.00295054,-0.00092289,0.00023607,0.00013807,-0.00011256,-0.00298509
 ,0.00411500,0.00514071,0.00004357,-0.00004234,-0.00026031,-0.02376525,
 -0.03988375,-0.00067910,-0.00165388,0.00288053,-0.00095476,0.00096263,
 -0.00188698,-0.00106374,-0.00107658,-0.00209897,-0.00045173,-0.1506254
 6,-0.07668616,0.00898647,0.00063178,-0.00157562,-0.00003495,0.03665933
 ,0.00044268,-0.00422489,-0.00066275,-0.00038539,0.00078708,0.00046344,
 -0.00127263,0.00055425,0.00006272,0.00016467,0.00015000,0.53244681,-0.
 00171257,-0.00115255,-0.00009307,0.00002910,0.00004149,-0.00007113,-0.
 00005971,0.00289181,0.00105909,0.00036675,-0.00002927,0.00026066,-0.01
 451145,-0.00859011,-0.00173137,0.00035910,0.00305695,-0.00164130,-0.00
 152882,-0.00108329,-0.00003511,-0.00015587,-0.00085156,-0.00050267,-0.
 06044859,-0.20469089,-0.03565706,0.00004931,-0.00129283,0.00024341,-0.
 00267696,-0.09326742,-0.05618525,-0.00013907,-0.00020501,0.00044698,0.
 00003559,-0.00109472,0.00064469,0.00002326,0.00024509,0.00002204,0.106
 24762,0.34698707,0.00078075,0.00119094,0.00047474,-0.00003998,-0.00003
 931,0.00002390,0.00220608,-0.00180111,-0.00096108,0.00015916,0.0001225
 5,0.00014417,0.01129358,0.01155103,0.01076732,0.00131044,0.00011974,-0
 .00043302,0.00116438,0.00077104,-0.00001607,-0.00168959,-0.00006249,0.
 00144753,0.01631731,-0.02753041,-0.08515935,-0.00037985,0.00010078,0.0
 0012651,-0.00577106,-0.05804126,0.00383233,0.00025685,0.00015105,-0.00
 029843,-0.00037953,-0.00002076,0.00011531,-0.00003016,0.00010072,-0.00
 005859,-0.20556258,0.09248048,0.18649617,-0.00014722,-0.00017516,-0.00
 012560,0.00000718,0.00001988,-0.00000574,0.00003105,0.00033749,0.00079
 531,-0.00003593,0.00001259,-0.00004569,0.00200615,-0.00397388,-0.00099
 921,-0.00031164,-0.00023267,0.00006467,0.00061032,0.00034947,-0.000279
 25,0.00011448,0.00032695,0.00041563,-0.02534185,-0.01130047,0.00913162
 ,0.00007780,0.00003073,-0.00000650,0.00156890,0.00864842,0.00065863,-0
 .00002453,-0.00000370,0.00004703,0.00007430,0.00009053,-0.00003835,-0.
 00000231,-0.00004074,-0.00001451,-0.38787310,-0.02587768,0.18036421,0.
 40924642,-0.00031586,-0.00045811,-0.00019737,0.00001487,0.00000410,0.0
 0000226,-0.00102164,0.00078295,0.00055689,-0.00002671,0.00001214,-0.00
 005999,-0.00160743,-0.00470662,-0.00316816,-0.00020722,-0.00000881,0.0
 0010631,-0.00019742,0.00028082,-0.00007112,0.00047712,-0.00001650,-0.0
 0012253,-0.04809769,-0.00542770,0.02113725,0.00005821,0.00001598,-0.00
 001788,0.00637871,0.00411848,0.00105128,-0.00009775,-0.00004876,0.0001
 0670,0.00006102,0.00001569,-0.00000970,-0.00000023,-0.00002169,0.00000
 842,0.01279382,-0.04096476,-0.01909297,0.03178822,0.04642278,0.0000316
 9,-0.00003007,-0.00002203,0.00001933,0.00000672,-0.00000411,-0.0000314
 0,-0.00045197,0.00066723,0.00003414,0.00009009,0.00003296,0.00006216,-
 0.00168633,0.00303569,-0.00002399,0.00003678,-0.00000136,0.00046850,-0
 .00038521,-0.00028018,-0.00068817,-0.00013214,0.00045684,-0.00823295,0
 .00215560,0.00792866,0.00001976,-0.00003733,-0.00002176,-0.00030864,-0
 .00010623,-0.00489975,-0.00004425,0.00001581,-0.00003228,0.00000729,-0
 .00001431,-0.00000921,-0.00000023,0.00000840,0.00000927,0.19864900,0.0
 0075960,-0.11650144,-0.18996223,-0.00022940,0.10964146||0.00000033,-0.
 00000748,-0.00000151,-0.00000152,-0.00000235,-0.00000273,0.00000478,0.
 00000029,-0.00000372,0.00000303,-0.00000065,-0.00000031,-0.00000503,0.
 00000144,0.00000187,0.00000411,0.00000324,0.00000390,-0.00000305,-0.00
 000264,-0.00000326,-0.00000153,0.00000048,-0.00000112,-0.00000119,0.00
 000165,0.00000191,0.00000413,-0.00000112,0.00000006,0.00000072,0.00000
 173,-0.00000076,-0.00000141,-0.00000348,-0.00000348,-0.00000193,0.0000
 0246,0.00000213,0.00000163,0.00000059,0.00000376,-0.00000119,0.0000021
 6,0.00000206,-0.00000187,0.00000370,0.00000120|||@


     SCHOPENHAUER'S LAW OF ENTROPY
 IF YOU PUT A SPOONFUL OF WINE IN A BARREL FULL
 OF SEWAGE, YOU GET SEWAGE.
 IF YOU PUT A SPOONFUL OF SEWAGE IN A BARREL FULL
 OF WINE, YOU GET SEWAGE.
 Job cpu time:  0 days  0 hours 52 minutes 21.0 seconds.
 File lengths (MBytes):  RWF=    123 Int=      0 D2E=      0 Chk=     11 Scr=      1
 Normal termination of Gaussian 09 at Thu Apr 07 12:35:13 2016.
