 Entering Link 1 = c:\G09w02\l1.exe PID=      4812.
  
 Copyright (c) 1988,1990,1992,1993,1995,1998,2003,2009,2010,
            Gaussian, Inc.  All Rights Reserved.
  
 This is part of the Gaussian(R) 09 program.  It is based on
 the Gaussian(R) 03 system (copyright 2003, Gaussian, Inc.),
 the Gaussian(R) 98 system (copyright 1998, Gaussian, Inc.),
 the Gaussian(R) 94 system (copyright 1995, Gaussian, Inc.),
 the Gaussian 92(TM) system (copyright 1992, Gaussian, Inc.),
 the Gaussian 90(TM) system (copyright 1990, Gaussian, Inc.),
 the Gaussian 88(TM) system (copyright 1988, Gaussian, Inc.),
 the Gaussian 86(TM) system (copyright 1986, Carnegie Mellon
 University), and the Gaussian 82(TM) system (copyright 1983,
 Carnegie Mellon University). Gaussian is a federally registered
 trademark of Gaussian, Inc.
  
 This software contains proprietary and confidential information,
 including trade secrets, belonging to Gaussian, Inc.
  
 This software is provided under written license and may be
 used, copied, transmitted, or stored only in accord with that
 written license.
  
 The following legend is applicable only to US Government
 contracts under FAR:
  
                    RESTRICTED RIGHTS LEGEND
  
 Use, reproduction and disclosure by the US Government is
 subject to restrictions as set forth in subparagraphs (a)
 and (c) of the Commercial Computer Software - Restricted
 Rights clause in FAR 52.227-19.
  
 Gaussian, Inc.
 340 Quinnipiac St., Bldg. 40, Wallingford CT 06492
  
  
 ---------------------------------------------------------------
 Warning -- This program may not be used in any manner that
 competes with the business of Gaussian, Inc. or will provide
 assistance to any competitor of Gaussian, Inc.  The licensee
 of this program is prohibited from giving any competitor of
 Gaussian, Inc. access to this program.  By using this program,
 the user acknowledges that Gaussian, Inc. is engaged in the
 business of creating and licensing software in the field of
 computational chemistry and represents and warrants to the
 licensee that it is not a competitor of Gaussian, Inc. and that
 it will not use this program in any manner prohibited above.
 ---------------------------------------------------------------
  

 Cite this work as:
 Gaussian 09, Revision B.01,
 M. J. Frisch, G. W. Trucks, H. B. Schlegel, G. E. Scuseria, 
 M. A. Robb, J. R. Cheeseman, G. Scalmani, V. Barone, B. Mennucci, 
 G. A. Petersson, H. Nakatsuji, M. Caricato, X. Li, H. P. Hratchian, 
 A. F. Izmaylov, J. Bloino, G. Zheng, J. L. Sonnenberg, M. Hada, 
 M. Ehara, K. Toyota, R. Fukuda, J. Hasegawa, M. Ishida, T. Nakajima, 
 Y. Honda, O. Kitao, H. Nakai, T. Vreven, J. A. Montgomery, Jr., 
 J. E. Peralta, F. Ogliaro, M. Bearpark, J. J. Heyd, E. Brothers, 
 K. N. Kudin, V. N. Staroverov, T. Keith, R. Kobayashi, J. Normand, 
 K. Raghavachari, A. Rendell, J. C. Burant, S. S. Iyengar, J. Tomasi, 
 M. Cossi, N. Rega, J. M. Millam, M. Klene, J. E. Knox, J. B. Cross, 
 V. Bakken, C. Adamo, J. Jaramillo, R. Gomperts, R. E. Stratmann, 
 O. Yazyev, A. J. Austin, R. Cammi, C. Pomelli, J. W. Ochterski, 
 R. L. Martin, K. Morokuma, V. G. Zakrzewski, G. A. Voth, 
 P. Salvador, J. J. Dannenberg, S. Dapprich, A. D. Daniels, 
 O. Farkas, J. B. Foresman, J. V. Ortiz, J. Cioslowski, 
 and D. J. Fox, Gaussian, Inc., Wallingford CT, 2010.
 
 ******************************************
 Gaussian 09:  IA32W-G09RevB.01 12-Aug-2010
                19-Apr-2016 
 ******************************************
 %chk=Asp-S-opt-freq-cpcm-w-6-311++gdp.chk
 -----------------------------------------------------------------
 #p opt freq rb3lyp/6-311++g(d,p) scrf=(cpcm,solvent=water) nosymm
 -----------------------------------------------------------------
 1/14=-1,18=20,19=15,26=3,38=1/1,3;
 2/9=110,12=2,15=1,17=6,18=5,40=1/2;
 3/5=4,6=6,7=1111,11=2,16=1,25=1,30=1,70=2101,71=1,72=1,74=-5,116=1/1,2,3;
 4//1;
 5/5=2,38=5,53=1/2;
 6/7=2,8=2,9=2,10=2,28=1/1;
 7/30=1/1,2,3,16;
 1/14=-1,18=20,19=15/3(2);
 2/9=110,15=1/2;
 99//99;
 2/9=110,15=1/2;
 3/5=4,6=6,7=1111,11=2,16=1,25=1,30=1,70=2105,71=1,72=1,74=-5,116=1/1,2,3;
 4/5=5,16=3/1;
 5/5=2,38=5,53=1/2;
 7/30=1/1,2,3,16;
 1/14=-1,18=20,19=15/3(-5);
 2/9=110,15=1/2;
 6/7=2,8=2,9=2,10=2,19=2,28=1/1;
 99/9=1/99;
 Leave Link    1 at Tue Apr 19 11:59:28 2016, MaxMem=          0 cpu:       0.0
 (Enter c:\G09w02\l101.exe)
 --------------------------------
 Asp-S-opt-freq-cpcm-w-6-311++gdp
 --------------------------------
 Symbolic Z-matrix:
 Charge =  0 Multiplicity = 1
 N                     1.62819   1.81001   0.07315 
 H                     2.05212   1.75748  -0.84899 
 C                     0.74027   0.67876   0.2925 
 H                     0.43416   0.67673   1.34337 
 C                    -0.5432    0.83345  -0.54881 
 C                     1.40732  -0.67606   0.02146 
 H                    -0.77033   1.90372  -0.58276 
 H                    -0.40833   0.49904  -1.57941 
 C                    -1.75279   0.15807   0.05918 
 O                     2.54941  -0.82861  -0.33112 
 O                    -1.97433   0.0495    1.23798 
 H                     2.39702   1.78734   0.73493 
 O                     0.55724  -1.71007   0.21934 
 H                     1.04082  -2.52877   0.03004 
 O                    -2.6159   -0.27154  -0.89154 
 H                    -3.38375  -0.64523  -0.43244 
 
 NAtoms=     16 NQM=     16 NQMF=      0 NMic=      0 NMicF=      0 NTot=     16.
                    Isotopes and Nuclear Properties:
 (Nuclear quadrupole moments (NQMom) in fm**2, nuclear magnetic moments (NMagM)
  in nuclear magnetons)

  Atom         1           2           3           4           5           6           7           8           9          10
 IAtWgt=          14           1          12           1          12          12           1           1          12          16
 AtmWgt=  14.0030740   1.0078250  12.0000000   1.0078250  12.0000000  12.0000000   1.0078250   1.0078250  12.0000000  15.9949146
 NucSpn=           2           1           0           1           0           0           1           1           0           0
 AtZEff=   0.0000000   0.0000000   0.0000000   0.0000000   0.0000000   0.0000000   0.0000000   0.0000000   0.0000000   0.0000000
 NQMom=    2.0440000   0.0000000   0.0000000   0.0000000   0.0000000   0.0000000   0.0000000   0.0000000   0.0000000   0.0000000
 NMagM=    0.4037610   2.7928460   0.0000000   2.7928460   0.0000000   0.0000000   2.7928460   2.7928460   0.0000000   0.0000000

  Atom        11          12          13          14          15          16
 IAtWgt=          16           1          16           1          16           1
 AtmWgt=  15.9949146   1.0078250  15.9949146   1.0078250  15.9949146   1.0078250
 NucSpn=           0           1           0           1           0           1
 AtZEff=   0.0000000   0.0000000   0.0000000   0.0000000   0.0000000   0.0000000
 NQMom=    0.0000000   0.0000000   0.0000000   0.0000000   0.0000000   0.0000000
 NMagM=    0.0000000   2.7928460   0.0000000   2.7928460   0.0000000   2.7928460
 Leave Link  101 at Tue Apr 19 11:59:28 2016, MaxMem=   33554432 cpu:       0.0
 (Enter c:\G09w02\l103.exe)

 GradGradGradGradGradGradGradGradGradGradGradGradGradGradGradGradGradGrad
 Berny optimization.
 Initialization pass.
                           ----------------------------
                           !    Initial Parameters    !
                           ! (Angstroms and Degrees)  !
 --------------------------                            --------------------------
 ! Name  Definition              Value          Derivative Info.                !
 --------------------------------------------------------------------------------
 ! R1    R(1,2)                  1.0163         estimate D2E/DX2                !
 ! R2    R(1,3)                  1.4547         estimate D2E/DX2                !
 ! R3    R(1,12)                 1.0147         estimate D2E/DX2                !
 ! R4    R(3,4)                  1.0945         estimate D2E/DX2                !
 ! R5    R(3,5)                  1.5424         estimate D2E/DX2                !
 ! R6    R(3,6)                  1.5343         estimate D2E/DX2                !
 ! R7    R(5,7)                  1.0946         estimate D2E/DX2                !
 ! R8    R(5,8)                  1.0919         estimate D2E/DX2                !
 ! R9    R(5,9)                  1.5129         estimate D2E/DX2                !
 ! R10   R(6,10)                 1.205          estimate D2E/DX2                !
 ! R11   R(6,13)                 1.3531         estimate D2E/DX2                !
 ! R12   R(9,11)                 1.2043         estimate D2E/DX2                !
 ! R13   R(9,15)                 1.354          estimate D2E/DX2                !
 ! R14   R(13,14)                0.9695         estimate D2E/DX2                !
 ! R15   R(15,16)                0.9695         estimate D2E/DX2                !
 ! A1    A(2,1,3)              110.5629         estimate D2E/DX2                !
 ! A2    A(2,1,12)             105.9361         estimate D2E/DX2                !
 ! A3    A(3,1,12)             110.2894         estimate D2E/DX2                !
 ! A4    A(1,3,4)              108.4764         estimate D2E/DX2                !
 ! A5    A(1,3,5)              110.3447         estimate D2E/DX2                !
 ! A6    A(1,3,6)              113.2458         estimate D2E/DX2                !
 ! A7    A(4,3,5)              106.9273         estimate D2E/DX2                !
 ! A8    A(4,3,6)              106.8317         estimate D2E/DX2                !
 ! A9    A(5,3,6)              110.7307         estimate D2E/DX2                !
 ! A10   A(3,5,7)              106.7161         estimate D2E/DX2                !
 ! A11   A(3,5,8)              112.4171         estimate D2E/DX2                !
 ! A12   A(3,5,9)              113.6611         estimate D2E/DX2                !
 ! A13   A(7,5,8)              107.2056         estimate D2E/DX2                !
 ! A14   A(7,5,9)              106.4424         estimate D2E/DX2                !
 ! A15   A(8,5,9)              109.9598         estimate D2E/DX2                !
 ! A16   A(3,6,10)             125.1394         estimate D2E/DX2                !
 ! A17   A(3,6,13)             112.0751         estimate D2E/DX2                !
 ! A18   A(10,6,13)            122.785          estimate D2E/DX2                !
 ! A19   A(5,9,11)             125.4967         estimate D2E/DX2                !
 ! A20   A(5,9,15)             111.661          estimate D2E/DX2                !
 ! A21   A(11,9,15)            122.7784         estimate D2E/DX2                !
 ! A22   A(6,13,14)            107.6613         estimate D2E/DX2                !
 ! A23   A(9,15,16)            107.136          estimate D2E/DX2                !
 ! D1    D(2,1,3,4)            170.7246         estimate D2E/DX2                !
 ! D2    D(2,1,3,5)            -72.4481         estimate D2E/DX2                !
 ! D3    D(2,1,3,6)             52.3132         estimate D2E/DX2                !
 ! D4    D(12,1,3,4)            53.8951         estimate D2E/DX2                !
 ! D5    D(12,1,3,5)           170.7225         estimate D2E/DX2                !
 ! D6    D(12,1,3,6)           -64.5163         estimate D2E/DX2                !
 ! D7    D(1,3,5,7)            -34.6912         estimate D2E/DX2                !
 ! D8    D(1,3,5,8)             82.5662         estimate D2E/DX2                !
 ! D9    D(1,3,5,9)           -151.708          estimate D2E/DX2                !
 ! D10   D(4,3,5,7)             83.0939         estimate D2E/DX2                !
 ! D11   D(4,3,5,8)           -159.6487         estimate D2E/DX2                !
 ! D12   D(4,3,5,9)            -33.923          estimate D2E/DX2                !
 ! D13   D(6,3,5,7)           -160.8778         estimate D2E/DX2                !
 ! D14   D(6,3,5,8)            -43.6204         estimate D2E/DX2                !
 ! D15   D(6,3,5,9)             82.1054         estimate D2E/DX2                !
 ! D16   D(1,3,6,10)             0.3912         estimate D2E/DX2                !
 ! D17   D(1,3,6,13)          -179.368          estimate D2E/DX2                !
 ! D18   D(4,3,6,10)          -118.969          estimate D2E/DX2                !
 ! D19   D(4,3,6,13)            61.2718         estimate D2E/DX2                !
 ! D20   D(5,3,6,10)           124.9433         estimate D2E/DX2                !
 ! D21   D(5,3,6,13)           -54.8159         estimate D2E/DX2                !
 ! D22   D(3,5,9,11)            33.3526         estimate D2E/DX2                !
 ! D23   D(3,5,9,15)          -149.4989         estimate D2E/DX2                !
 ! D24   D(7,5,9,11)           -83.8235         estimate D2E/DX2                !
 ! D25   D(7,5,9,15)            93.325          estimate D2E/DX2                !
 ! D26   D(8,5,9,11)           160.3718         estimate D2E/DX2                !
 ! D27   D(8,5,9,15)           -22.4797         estimate D2E/DX2                !
 ! D28   D(3,6,13,14)          179.9084         estimate D2E/DX2                !
 ! D29   D(10,6,13,14)           0.1427         estimate D2E/DX2                !
 ! D30   D(5,9,15,16)         -176.8544         estimate D2E/DX2                !
 ! D31   D(11,9,15,16)           0.3845         estimate D2E/DX2                !
 --------------------------------------------------------------------------------
 Trust Radius=3.00D-01 FncErr=1.00D-07 GrdErr=1.00D-06
 Number of steps in this run=     79 maximum allowed number of steps=    100.
 GradGradGradGradGradGradGradGradGradGradGradGradGradGradGradGradGradGrad

 Leave Link  103 at Tue Apr 19 11:59:28 2016, MaxMem=   33554432 cpu:       0.0
 (Enter c:\G09w02\l202.exe)
                          Input orientation:                          
 ---------------------------------------------------------------------
 Center     Atomic      Atomic             Coordinates (Angstroms)
 Number     Number       Type             X           Y           Z
 ---------------------------------------------------------------------
      1          7           0        1.628190    1.810012    0.073149
      2          1           0        2.052123    1.757482   -0.848988
      3          6           0        0.740268    0.678764    0.292504
      4          1           0        0.434163    0.676730    1.343374
      5          6           0       -0.543203    0.833445   -0.548806
      6          6           0        1.407317   -0.676057    0.021458
      7          1           0       -0.770327    1.903723   -0.582763
      8          1           0       -0.408329    0.499044   -1.579406
      9          6           0       -1.752790    0.158073    0.059177
     10          8           0        2.549412   -0.828610   -0.331122
     11          8           0       -1.974325    0.049499    1.237980
     12          1           0        2.397017    1.787340    0.734927
     13          8           0        0.557241   -1.710074    0.219336
     14          1           0        1.040816   -2.528766    0.030037
     15          8           0       -2.615904   -0.271535   -0.891542
     16          1           0       -3.383746   -0.645228   -0.432439
 ---------------------------------------------------------------------
                    Distance matrix (angstroms):
                    1          2          3          4          5
     1  N    0.000000
     2  H    1.016275   0.000000
     3  C    1.454732   2.046363   0.000000
     4  H    2.079303   2.931258   1.094547   0.000000
     5  C    2.460784   2.771222   1.542409   2.135451   0.000000
     6  C    2.496397   2.663750   1.534262   2.127093   2.531467
     7  H    2.488350   2.838747   2.132725   2.581920   1.094638
     8  H    2.932062   2.858496   2.203547   3.046967   1.091857
     9  C    3.762994   4.226137   2.557518   2.588616   1.512902
    10  O    2.823900   2.683906   2.435998   3.089379   3.517681
    11  O    4.175446   4.846125   2.942603   2.491052   2.419770
    12  H    1.014672   1.621305   2.041934   2.335906   3.347055
    13  O    3.682297   3.924275   2.396956   2.641106   2.875849
    14  H    4.378568   4.490807   3.232254   3.516829   3.761468
    15  O    4.824500   5.090108   3.683602   3.898328   2.373718
    16  H    5.603867   5.957785   4.391582   4.413334   3.204481
                    6          7          8          9         10
     6  C    0.000000
     7  H    3.429647   0.000000
     8  H    2.690762   1.759961   0.000000
     9  C    3.268558   2.103477   2.146809   0.000000
    10  O    1.204976   4.306929   3.474062   4.431119   0.000000
    11  O    3.666314   2.864064   3.254550   1.204343   4.867993
    12  H    2.748976   3.432480   3.858213   4.509107   2.828936
    13  O    1.353136   3.932598   3.007989   2.975209   2.246937
    14  H    1.888631   4.827289   3.722628   3.876105   2.301484
    15  O    4.145300   2.869363   2.437281   1.354029   5.225408
    16  H    4.812614   3.653725   3.387919   1.883347   5.936856
                   11         12         13         14         15
    11  O    0.000000
    12  H    4.730939   0.000000
    13  O    3.246931   3.985287   0.000000
    14  H    4.147005   4.578747   0.969503   0.000000
    15  O    2.247120   5.658069   3.656815   4.394997   0.000000
    16  H    2.293341   6.379448   4.134016   4.830978   0.969538
                   16
    16  H    0.000000
 Symmetry turned off by external request.
 Stoichiometry    C4H7NO4
 Framework group  C1[X(C4H7NO4)]
 Deg. of freedom    42
 Full point group                 C1      NOp   1
 Rotational constants (GHZ):      2.6260487      1.0916065      0.9118764
 Leave Link  202 at Tue Apr 19 11:59:28 2016, MaxMem=   33554432 cpu:       0.0
 (Enter c:\G09w02\l301.exe)
 Standard basis: 6-311++G(d,p) (5D, 7F)
 Ernie: Thresh=  0.10000D-02 Tol=  0.10000D-05 Strict=F.
 Integral buffers will be    262144 words long.
 Raffenetti 2 integral format.
 Two-electron integral symmetry is turned off.
   247 basis functions,   387 primitive gaussians,   256 cartesian basis functions
    35 alpha electrons       35 beta electrons
       nuclear repulsion energy       469.3824053950 Hartrees.
 IExCor=  402 DFT=T Ex+Corr=B3LYP ExCW=0 ScaHFX=  0.200000
 ScaDFX=  0.800000  0.720000  1.000000  0.810000 ScalE2=  1.000000  1.000000
 IRadAn=      0 IRanWt=     -1 IRanGd=            0 ICorTp=0
 NAtoms=   16 NActive=   16 NUniq=   16 SFac= 1.00D+00 NAtFMM=   50 NAOKFM=F Big=F
 ------------------------------------------------------------------------------
 Polarizable Continuum Model (PCM)
 =================================
 Model                : C-PCM.
 Atomic radii         : UFF (Universal Force Field).
 Polarization charges : Total charges.
 Charge compensation  : None.
 Solution method      : Matrix inversion.
 Cavity type          : Scaled VdW (van der Waals Surface) (Alpha=1.100).
 Cavity algorithm     : GePol (No added spheres)
                        Default sphere list used, NSphG=   16.
                        Lebedev-Laikov grids with approx.  5.0 points / Ang**2.
                        Smoothing algorithm: Karplus/York (Gamma=1.0000).
                        Polarization charges: spherical gaussians, with
                                              point-specific exponents (IZeta= 3).
                        Self-potential: point-specific (ISelfS= 7).
                        Self-field    : sphere-specific E.n sum rule (ISelfD= 2).
 1st derivatives      : Analytical E(r).r(x)/FMM algorithm (CHGder, D1EAlg=3).
                        Cavity 1st derivative terms included.
 Solvent              : Water, Eps=  78.355300 Eps(inf)=   1.777849
 ------------------------------------------------------------------------------
 Spheres list:
 ISph  on   Nord    Re0     Alpha      Xe            Ye            Ze
    1   N      1    1.830   1.100      1.628190      1.810012      0.073149
    2   H      2    1.443   1.100      2.052123      1.757482     -0.848988
    3   C      3    1.926   1.100      0.740268      0.678764      0.292504
    4   H      4    1.443   1.100      0.434163      0.676730      1.343374
    5   C      5    1.926   1.100     -0.543203      0.833445     -0.548806
    6   C      6    1.926   1.100      1.407317     -0.676057      0.021458
    7   H      7    1.443   1.100     -0.770327      1.903723     -0.582763
    8   H      8    1.443   1.100     -0.408329      0.499044     -1.579406
    9   C      9    1.926   1.100     -1.752790      0.158073      0.059177
   10   O     10    1.750   1.100      2.549412     -0.828610     -0.331122
   11   O     11    1.750   1.100     -1.974325      0.049499      1.237980
   12   H     12    1.443   1.100      2.397017      1.787340      0.734927
   13   O     13    1.750   1.100      0.557241     -1.710074      0.219336
   14   H     14    1.443   1.100      1.040816     -2.528766      0.030037
   15   O     15    1.750   1.100     -2.615904     -0.271535     -0.891542
   16   H     16    1.443   1.100     -3.383746     -0.645228     -0.432439
 ------------------------------------------------------------------------------
 GePol: Number of generator spheres                  =      16
 GePol: Total number of spheres                      =      16
 GePol: Number of exposed spheres                    =      16 (100.00%)
 GePol: Number of points                             =    1391
 GePol: Average weight of points                     =       0.13
 GePol: Minimum weight of points                     =   0.27D-09
 GePol: Maximum weight of points                     =    0.20577
 GePol: Number of points with low weight             =      72
 GePol: Fraction of low-weight points (<1% of avg)   =       5.18%
 GePol: Cavity surface area                          =    185.855 Ang**2
 GePol: Cavity volume                                =    179.313 Ang**3
 Leave Link  301 at Tue Apr 19 11:59:29 2016, MaxMem=   33554432 cpu:       0.0
 (Enter c:\G09w02\l302.exe)
 NPDir=0 NMtPBC=     1 NCelOv=     1 NCel=       1 NClECP=     1 NCelD=      1
         NCelK=      1 NCelE2=     1 NClLst=     1 CellRange=     0.0.
 One-electron integrals computed using PRISM.
 NBasis=   247 RedAO= T  NBF=   247
 NBsUse=   247 1.00D-06 NBFU=   247
 Precomputing XC quadrature grid using
 IXCGrd= 2 IRadAn=           0 IRanWt=          -1 IRanGd=           0 AccXCQ= 0.00D+00.
 NRdTot=    1039 NPtTot=      132510 NUsed=      137358 NTot=      137374
 NSgBfM=   256   256   256   256   256 NAtAll=    16    16.
 Leave Link  302 at Tue Apr 19 11:59:30 2016, MaxMem=   33554432 cpu:       0.0
 (Enter c:\G09w02\l303.exe)
 DipDrv:  MaxL=1.
 Leave Link  303 at Tue Apr 19 11:59:31 2016, MaxMem=   33554432 cpu:       1.0
 (Enter c:\G09w02\l401.exe)
 Harris functional with IExCor=  402 diagonalized for initial guess.
 ExpMin= 3.60D-02 ExpMax= 8.59D+03 ExpMxC= 1.30D+03 IAcc=3 IRadAn=         0 AccDes= 0.00D+00
 HarFok:  IExCor=  402 AccDes= 0.00D+00 IRadAn=         0 IDoV= 1
 ScaDFX=  1.000000  1.000000  1.000000  1.000000
 FoFCou: FMM=F IPFlag=           0 FMFlag=      100000 FMFlg1=           0
         NFxFlg=           0 DoJE=T BraDBF=F KetDBF=T FulRan=T
         Omega=  0.000000  0.000000  1.000000  0.000000  0.000000 ICntrl=     500 IOpCl=  0
         NMat0=    1 NMatS0=    1 NMatT0=    0 NMatD0=    1 NMtDS0=    0 NMtDT0=    0
         I1Cent=           4 NGrid=           0.
 Symmetry not used in FoFCou.
 Harris En= -512.499089318944    
 Leave Link  401 at Tue Apr 19 11:59:38 2016, MaxMem=   33554432 cpu:       7.0
 (Enter c:\G09w02\l502.exe)
 Closed shell SCF:
 Requested convergence on RMS density matrix=1.00D-08 within 128 cycles.
 Requested convergence on MAX density matrix=1.00D-06.
 Requested convergence on             energy=1.00D-06.
 No special actions if energy rises.
 Using DIIS extrapolation, IDIIS=  1040.
 Two-electron integral symmetry not used.
       137218 words used for storage of precomputed grid.
 IEnd=      354922 IEndB=      354922 NGot=    33554432 MDV=    33281943
 LenX=    33281943 LenY=    33215966
 Fock matrices will be formed incrementally for  20 cycles.

 Cycle   1  Pass 1  IDiag  1:
 FoFCou: FMM=F IPFlag=           0 FMFlag=      100000 FMFlg1=           0
         NFxFlg=           0 DoJE=F BraDBF=F KetDBF=F FulRan=T
         Omega=  0.000000  0.000000  1.000000  0.000000  0.000000 ICntrl=       0 IOpCl=  0
         NMat0=    1 NMatS0=    1 NMatT0=    0 NMatD0=    1 NMtDS0=    0 NMtDT0=    0
         I1Cent=           0 NGrid=           0.
 Symmetry not used in FoFCou.
 E= -512.233619542441    
 DIIS: error= 2.87D-02 at cycle   1 NSaved=   1.
 NSaved= 1 IEnMin= 1 EnMin= -512.233619542441     IErMin= 1 ErrMin= 2.87D-02
 ErrMax= 2.87D-02 EMaxC= 1.00D-01 BMatC= 3.92D-01 BMatP= 3.92D-01
 IDIUse=3 WtCom= 7.13D-01 WtEn= 2.87D-01
 Coeff-Com:  0.100D+01
 Coeff-En:   0.100D+01
 Coeff:      0.100D+01
 Gap=     0.158 Goal=   None    Shift=    0.000
 GapD=    0.158 DampG=1.000 DampE=0.500 DampFc=0.5000 IDamp=-1.
 Damping current iteration by 5.00D-01
 RMSDP=8.03D-03 MaxDP=5.65D-01              OVMax= 2.08D-01

 Cycle   2  Pass 1  IDiag  1:
 RMSU=  2.81D-03    CP:  1.04D+00
 E= -512.296841883151     Delta-E=       -0.063222340710 Rises=F Damp=T
 DIIS: error= 1.08D-02 at cycle   2 NSaved=   2.
 NSaved= 2 IEnMin= 2 EnMin= -512.296841883151     IErMin= 2 ErrMin= 1.08D-02
 ErrMax= 1.08D-02 EMaxC= 1.00D-01 BMatC= 5.04D-02 BMatP= 3.92D-01
 IDIUse=3 WtCom= 8.92D-01 WtEn= 1.08D-01
 Coeff-Com:  0.222D+00 0.778D+00
 Coeff-En:   0.381D+00 0.619D+00
 Coeff:      0.239D+00 0.761D+00
 Gap=     0.248 Goal=   None    Shift=    0.000
 RMSDP=3.39D-03 MaxDP=3.65D-01 DE=-6.32D-02 OVMax= 1.66D-01

 Cycle   3  Pass 1  IDiag  1:
 RMSU=  1.59D-03    CP:  9.31D-01  5.48D-01
 E= -512.479222848604     Delta-E=       -0.182380965453 Rises=F Damp=F
 DIIS: error= 9.84D-03 at cycle   3 NSaved=   3.
 NSaved= 3 IEnMin= 3 EnMin= -512.479222848604     IErMin= 3 ErrMin= 9.84D-03
 ErrMax= 9.84D-03 EMaxC= 1.00D-01 BMatC= 2.68D-02 BMatP= 5.04D-02
 IDIUse=3 WtCom= 9.02D-01 WtEn= 9.84D-02
 Coeff-Com:  0.864D-01 0.441D+00 0.473D+00
 Coeff-En:   0.000D+00 0.000D+00 0.100D+01
 Coeff:      0.779D-01 0.397D+00 0.525D+00
 Gap=     0.249 Goal=   None    Shift=    0.000
 RMSDP=1.05D-03 MaxDP=3.95D-02 DE=-1.82D-01 OVMax= 5.42D-02

 Cycle   4  Pass 1  IDiag  1:
 RMSU=  7.04D-04    CP:  9.37D-01  5.55D-01  8.59D-01
 E= -512.495403308166     Delta-E=       -0.016180459562 Rises=F Damp=F
 DIIS: error= 5.14D-03 at cycle   4 NSaved=   4.
 NSaved= 4 IEnMin= 4 EnMin= -512.495403308166     IErMin= 4 ErrMin= 5.14D-03
 ErrMax= 5.14D-03 EMaxC= 1.00D-01 BMatC= 6.59D-03 BMatP= 2.68D-02
 IDIUse=3 WtCom= 9.49D-01 WtEn= 5.14D-02
 Coeff-Com:  0.601D-02 0.961D-01 0.340D+00 0.557D+00
 Coeff-En:   0.000D+00 0.000D+00 0.218D+00 0.782D+00
 Coeff:      0.570D-02 0.912D-01 0.334D+00 0.569D+00
 Gap=     0.242 Goal=   None    Shift=    0.000
 RMSDP=3.99D-04 MaxDP=2.45D-02 DE=-1.62D-02 OVMax= 1.99D-02

 Cycle   5  Pass 1  IDiag  1:
 RMSU=  1.18D-04    CP:  9.30D-01  5.37D-01  9.37D-01  7.18D-01
 E= -512.499837915449     Delta-E=       -0.004434607282 Rises=F Damp=F
 DIIS: error= 8.56D-04 at cycle   5 NSaved=   5.
 NSaved= 5 IEnMin= 5 EnMin= -512.499837915449     IErMin= 5 ErrMin= 8.56D-04
 ErrMax= 8.56D-04 EMaxC= 1.00D-01 BMatC= 3.41D-04 BMatP= 6.59D-03
 IDIUse=3 WtCom= 9.91D-01 WtEn= 8.56D-03
 Coeff-Com: -0.217D-02 0.198D-01 0.151D+00 0.318D+00 0.513D+00
 Coeff-En:   0.000D+00 0.000D+00 0.000D+00 0.000D+00 0.100D+01
 Coeff:     -0.216D-02 0.197D-01 0.150D+00 0.315D+00 0.517D+00
 Gap=     0.244 Goal=   None    Shift=    0.000
 RMSDP=1.21D-04 MaxDP=1.09D-02 DE=-4.43D-03 OVMax= 3.56D-03

 Cycle   6  Pass 1  IDiag  1:
 RMSU=  6.53D-05    CP:  9.26D-01  5.34D-01  9.52D-01  7.10D-01  7.72D-01
 E= -512.500106034922     Delta-E=       -0.000268119474 Rises=F Damp=F
 DIIS: error= 1.91D-04 at cycle   6 NSaved=   6.
 NSaved= 6 IEnMin= 6 EnMin= -512.500106034922     IErMin= 6 ErrMin= 1.91D-04
 ErrMax= 1.91D-04 EMaxC= 1.00D-01 BMatC= 1.16D-05 BMatP= 3.41D-04
 IDIUse=3 WtCom= 9.98D-01 WtEn= 1.91D-03
 Coeff-Com: -0.111D-02 0.999D-03 0.378D-01 0.876D-01 0.224D+00 0.651D+00
 Coeff-En:   0.000D+00 0.000D+00 0.000D+00 0.000D+00 0.000D+00 0.100D+01
 Coeff:     -0.111D-02 0.997D-03 0.378D-01 0.875D-01 0.224D+00 0.651D+00
 Gap=     0.244 Goal=   None    Shift=    0.000
 RMSDP=2.66D-05 MaxDP=8.03D-04 DE=-2.68D-04 OVMax= 5.96D-04

 Cycle   7  Pass 1  IDiag  1:
 RMSU=  9.73D-06    CP:  9.26D-01  5.33D-01  9.54D-01  7.18D-01  7.77D-01
                    CP:  7.77D-01
 E= -512.500114857249     Delta-E=       -0.000008822327 Rises=F Damp=F
 DIIS: error= 4.95D-05 at cycle   7 NSaved=   7.
 NSaved= 7 IEnMin= 7 EnMin= -512.500114857249     IErMin= 7 ErrMin= 4.95D-05
 ErrMax= 4.95D-05 EMaxC= 1.00D-01 BMatC= 1.02D-06 BMatP= 1.16D-05
 IDIUse=1 WtCom= 1.00D+00 WtEn= 0.00D+00
 Coeff-Com: -0.330D-03-0.521D-03 0.120D-01 0.289D-01 0.922D-01 0.333D+00
 Coeff-Com:  0.534D+00
 Coeff:     -0.330D-03-0.521D-03 0.120D-01 0.289D-01 0.922D-01 0.333D+00
 Coeff:      0.534D+00
 Gap=     0.244 Goal=   None    Shift=    0.000
 RMSDP=5.35D-06 MaxDP=1.57D-04 DE=-8.82D-06 OVMax= 1.97D-04

 Cycle   8  Pass 1  IDiag  1:
 RMSU=  3.15D-06    CP:  9.26D-01  5.33D-01  9.54D-01  7.18D-01  7.83D-01
                    CP:  7.76D-01  8.05D-01
 E= -512.500115628953     Delta-E=       -0.000000771704 Rises=F Damp=F
 DIIS: error= 1.31D-05 at cycle   8 NSaved=   8.
 NSaved= 8 IEnMin= 8 EnMin= -512.500115628953     IErMin= 8 ErrMin= 1.31D-05
 ErrMax= 1.31D-05 EMaxC= 1.00D-01 BMatC= 6.35D-08 BMatP= 1.02D-06
 IDIUse=1 WtCom= 1.00D+00 WtEn= 0.00D+00
 Coeff-Com:  0.135D-04-0.383D-03 0.150D-02 0.364D-02 0.183D-01 0.754D-01
 Coeff-Com:  0.222D+00 0.679D+00
 Coeff:      0.135D-04-0.383D-03 0.150D-02 0.364D-02 0.183D-01 0.754D-01
 Coeff:      0.222D+00 0.679D+00
 Gap=     0.244 Goal=   None    Shift=    0.000
 RMSDP=1.74D-06 MaxDP=1.19D-04 DE=-7.72D-07 OVMax= 7.00D-05

 Cycle   9  Pass 1  IDiag  1:
 RMSU=  8.56D-07    CP:  9.26D-01  5.33D-01  9.54D-01  7.18D-01  7.85D-01
                    CP:  7.78D-01  8.06D-01  8.90D-01
 E= -512.500115661821     Delta-E=       -0.000000032868 Rises=F Damp=F
 DIIS: error= 8.18D-06 at cycle   9 NSaved=   9.
 NSaved= 9 IEnMin= 9 EnMin= -512.500115661821     IErMin= 9 ErrMin= 8.18D-06
 ErrMax= 8.18D-06 EMaxC= 1.00D-01 BMatC= 2.32D-08 BMatP= 6.35D-08
 IDIUse=1 WtCom= 1.00D+00 WtEn= 0.00D+00
 Coeff-Com:  0.401D-04-0.198D-03-0.193D-03-0.483D-03 0.250D-02 0.130D-01
 Coeff-Com:  0.808D-01 0.431D+00 0.474D+00
 Coeff:      0.401D-04-0.198D-03-0.193D-03-0.483D-03 0.250D-02 0.130D-01
 Coeff:      0.808D-01 0.431D+00 0.474D+00
 Gap=     0.244 Goal=   None    Shift=    0.000
 RMSDP=6.53D-07 MaxDP=1.42D-05 DE=-3.29D-08 OVMax= 3.78D-05

 Cycle  10  Pass 1  IDiag  1:
 RMSU=  3.46D-07    CP:  9.26D-01  5.33D-01  9.54D-01  7.18D-01  7.85D-01
                    CP:  7.78D-01  8.15D-01  9.25D-01  7.26D-01
 E= -512.500115677578     Delta-E=       -0.000000015757 Rises=F Damp=F
 DIIS: error= 2.35D-06 at cycle  10 NSaved=  10.
 NSaved=10 IEnMin=10 EnMin= -512.500115677578     IErMin=10 ErrMin= 2.35D-06
 ErrMax= 2.35D-06 EMaxC= 1.00D-01 BMatC= 1.68D-09 BMatP= 2.32D-08
 IDIUse=1 WtCom= 1.00D+00 WtEn= 0.00D+00
 Coeff-Com:  0.180D-04-0.769D-04-0.197D-03-0.506D-03-0.362D-04 0.707D-03
 Coeff-Com:  0.240D-01 0.177D+00 0.269D+00 0.531D+00
 Coeff:      0.180D-04-0.769D-04-0.197D-03-0.506D-03-0.362D-04 0.707D-03
 Coeff:      0.240D-01 0.177D+00 0.269D+00 0.531D+00
 Gap=     0.244 Goal=   None    Shift=    0.000
 RMSDP=3.00D-07 MaxDP=2.47D-05 DE=-1.58D-08 OVMax= 1.16D-05

 Cycle  11  Pass 1  IDiag  1:
 RMSU=  1.09D-07    CP:  9.26D-01  5.33D-01  9.54D-01  7.18D-01  7.86D-01
                    CP:  7.78D-01  8.20D-01  9.37D-01  7.53D-01  6.97D-01
 E= -512.500115678683     Delta-E=       -0.000000001105 Rises=F Damp=F
 DIIS: error= 5.27D-07 at cycle  11 NSaved=  11.
 NSaved=11 IEnMin=11 EnMin= -512.500115678683     IErMin=11 ErrMin= 5.27D-07
 ErrMax= 5.27D-07 EMaxC= 1.00D-01 BMatC= 1.79D-10 BMatP= 1.68D-09
 IDIUse=1 WtCom= 1.00D+00 WtEn= 0.00D+00
 Coeff-Com:  0.394D-05-0.115D-04-0.944D-04-0.255D-03-0.496D-03-0.180D-02
 Coeff-Com:  0.124D-02 0.348D-01 0.763D-01 0.287D+00 0.603D+00
 Coeff:      0.394D-05-0.115D-04-0.944D-04-0.255D-03-0.496D-03-0.180D-02
 Coeff:      0.124D-02 0.348D-01 0.763D-01 0.287D+00 0.603D+00
 Gap=     0.244 Goal=   None    Shift=    0.000
 RMSDP=6.59D-08 MaxDP=2.95D-06 DE=-1.11D-09 OVMax= 2.68D-06

 Cycle  12  Pass 1  IDiag  1:
 RMSU=  3.35D-08    CP:  9.26D-01  5.33D-01  9.54D-01  7.18D-01  7.86D-01
                    CP:  7.78D-01  8.21D-01  9.43D-01  7.62D-01  7.40D-01
                    CP:  9.24D-01
 E= -512.500115678840     Delta-E=       -0.000000000157 Rises=F Damp=F
 DIIS: error= 8.16D-08 at cycle  12 NSaved=  12.
 NSaved=12 IEnMin=12 EnMin= -512.500115678840     IErMin=12 ErrMin= 8.16D-08
 ErrMax= 8.16D-08 EMaxC= 1.00D-01 BMatC= 4.40D-12 BMatP= 1.79D-10
 IDIUse=1 WtCom= 1.00D+00 WtEn= 0.00D+00
 Coeff-Com: -0.856D-06 0.191D-05-0.883D-05-0.321D-04-0.127D-03-0.504D-03
 Coeff-Com: -0.122D-02-0.259D-02 0.145D-02 0.439D-01 0.185D+00 0.774D+00
 Coeff:     -0.856D-06 0.191D-05-0.883D-05-0.321D-04-0.127D-03-0.504D-03
 Coeff:     -0.122D-02-0.259D-02 0.145D-02 0.439D-01 0.185D+00 0.774D+00
 Gap=     0.244 Goal=   None    Shift=    0.000
 RMSDP=1.76D-08 MaxDP=5.77D-07 DE=-1.57D-10 OVMax= 4.63D-07

 Cycle  13  Pass 1  IDiag  1:
 RMSU=  7.21D-09    CP:  9.26D-01  5.33D-01  9.54D-01  7.18D-01  7.86D-01
                    CP:  7.78D-01  8.21D-01  9.44D-01  7.65D-01  7.52D-01
                    CP:  9.47D-01  8.35D-01
 E= -512.500115678845     Delta-E=       -0.000000000005 Rises=F Damp=F
 DIIS: error= 2.59D-08 at cycle  13 NSaved=  13.
 NSaved=13 IEnMin=13 EnMin= -512.500115678845     IErMin=13 ErrMin= 2.59D-08
 ErrMax= 2.59D-08 EMaxC= 1.00D-01 BMatC= 3.72D-13 BMatP= 4.40D-12
 IDIUse=1 WtCom= 1.00D+00 WtEn= 0.00D+00
 Coeff-Com: -0.530D-06 0.123D-05 0.331D-06-0.346D-05-0.345D-04-0.143D-03
 Coeff-Com: -0.580D-03-0.260D-02-0.261D-02 0.730D-02 0.550D-01 0.328D+00
 Coeff-Com:  0.615D+00
 Coeff:     -0.530D-06 0.123D-05 0.331D-06-0.346D-05-0.345D-04-0.143D-03
 Coeff:     -0.580D-03-0.260D-02-0.261D-02 0.730D-02 0.550D-01 0.328D+00
 Coeff:      0.615D+00
 Gap=     0.244 Goal=   None    Shift=    0.000
 RMSDP=5.86D-09 MaxDP=6.04D-07 DE=-5.00D-12 OVMax= 1.52D-07

 Error on total polarization charges =  0.01180
 SCF Done:  E(RB3LYP) =  -512.500115679     A.U. after   13 cycles
             Convg  =    0.5858D-08             -V/T =  2.0036
 KE= 5.106751206746D+02 PE=-2.141855786008D+03 EE= 6.492981442590D+02
 Leave Link  502 at Tue Apr 19 12:05:48 2016, MaxMem=   33554432 cpu:     369.0
 (Enter c:\G09w02\l601.exe)
 Copying SCF densities to generalized density rwf, IOpCl= 0 IROHF=0.

 **********************************************************************

            Population analysis using the SCF density.

 **********************************************************************

 Alpha  occ. eigenvalues --  -19.18669 -19.18523 -19.13682 -19.13359 -14.31073
 Alpha  occ. eigenvalues --  -10.32597 -10.32257 -10.23554 -10.20215  -1.13092
 Alpha  occ. eigenvalues --   -1.12798  -1.04363  -1.04163  -0.91240  -0.79398
 Alpha  occ. eigenvalues --   -0.71213  -0.63944  -0.59856  -0.54184  -0.52227
 Alpha  occ. eigenvalues --   -0.51215  -0.51067  -0.48433  -0.47776  -0.46187
 Alpha  occ. eigenvalues --   -0.44425  -0.43254  -0.40627  -0.39535  -0.37710
 Alpha  occ. eigenvalues --   -0.34849  -0.34445  -0.30729  -0.30373  -0.27220
 Alpha virt. eigenvalues --   -0.02801  -0.01610  -0.00553   0.00318   0.00867
 Alpha virt. eigenvalues --    0.01821   0.03192   0.04410   0.05134   0.06068
 Alpha virt. eigenvalues --    0.07135   0.07722   0.08793   0.09123   0.09470
 Alpha virt. eigenvalues --    0.10394   0.10769   0.11201   0.11845   0.12645
 Alpha virt. eigenvalues --    0.13806   0.14209   0.14396   0.15191   0.15277
 Alpha virt. eigenvalues --    0.16308   0.18180   0.18963   0.19540   0.20533
 Alpha virt. eigenvalues --    0.20857   0.21116   0.22030   0.22879   0.23433
 Alpha virt. eigenvalues --    0.23537   0.24386   0.25279   0.25430   0.26970
 Alpha virt. eigenvalues --    0.27074   0.28467   0.28812   0.29017   0.30451
 Alpha virt. eigenvalues --    0.31035   0.31547   0.31817   0.32357   0.33350
 Alpha virt. eigenvalues --    0.34399   0.35293   0.35895   0.36843   0.37841
 Alpha virt. eigenvalues --    0.38159   0.40010   0.43229   0.47352   0.48494
 Alpha virt. eigenvalues --    0.51151   0.53444   0.53921   0.54829   0.56288
 Alpha virt. eigenvalues --    0.57842   0.59116   0.60618   0.61264   0.63798
 Alpha virt. eigenvalues --    0.66567   0.67738   0.68381   0.69764   0.71617
 Alpha virt. eigenvalues --    0.71859   0.73634   0.74509   0.75650   0.84724
 Alpha virt. eigenvalues --    0.85462   0.86412   0.88560   0.90712   0.97447
 Alpha virt. eigenvalues --    0.99242   1.02063   1.06005   1.08343   1.10182
 Alpha virt. eigenvalues --    1.12380   1.12750   1.14670   1.15590   1.16329
 Alpha virt. eigenvalues --    1.16665   1.18887   1.20912   1.21395   1.23454
 Alpha virt. eigenvalues --    1.26098   1.27197   1.28731   1.32434   1.36032
 Alpha virt. eigenvalues --    1.40763   1.42567   1.45581   1.47066   1.50451
 Alpha virt. eigenvalues --    1.51887   1.55273   1.56718   1.57236   1.59489
 Alpha virt. eigenvalues --    1.62751   1.64012   1.65553   1.67913   1.69595
 Alpha virt. eigenvalues --    1.70408   1.70840   1.74181   1.80211   1.82493
 Alpha virt. eigenvalues --    1.84344   1.86504   1.90639   1.92857   1.94304
 Alpha virt. eigenvalues --    1.96740   1.99145   2.02359   2.05078   2.08494
 Alpha virt. eigenvalues --    2.13320   2.17262   2.20553   2.22530   2.28995
 Alpha virt. eigenvalues --    2.39119   2.46176   2.50980   2.53191   2.55837
 Alpha virt. eigenvalues --    2.57100   2.59005   2.60882   2.64212   2.67027
 Alpha virt. eigenvalues --    2.70639   2.74558   2.78148   2.79718   2.82706
 Alpha virt. eigenvalues --    2.84819   2.85320   2.88382   2.89905   2.91433
 Alpha virt. eigenvalues --    2.93883   2.95955   3.01120   3.03858   3.04918
 Alpha virt. eigenvalues --    3.06750   3.11185   3.13053   3.16319   3.17573
 Alpha virt. eigenvalues --    3.21904   3.22667   3.33726   3.36371   3.37724
 Alpha virt. eigenvalues --    3.55535   3.58618   3.59801   3.64117   3.69785
 Alpha virt. eigenvalues --    3.77078   3.81428   3.82956   3.97506   4.04676
 Alpha virt. eigenvalues --    4.05470   4.12466   4.17185   4.29804   4.71717
 Alpha virt. eigenvalues --    4.85504   4.95382   4.99285   5.03656   5.05866
 Alpha virt. eigenvalues --    5.16559   5.17430   5.36989   5.41328   5.58695
 Alpha virt. eigenvalues --    5.60159   5.82648   5.84086  23.76532  23.80237
 Alpha virt. eigenvalues --   23.81615  23.90280  35.59781  49.85293  49.85705
 Alpha virt. eigenvalues --   49.98929  50.00462
          Condensed to atoms (all electrons):
              1          2          3          4          5          6
     1  N    6.675683   0.387234   0.005286  -0.030539  -0.102103   0.092200
     2  H    0.387234   0.422256  -0.019398   0.007664  -0.011547  -0.007835
     3  C    0.005286  -0.019398   7.973589   0.483850  -0.592580  -1.252718
     4  H   -0.030539   0.007664   0.483850   0.499646  -0.037648  -0.093789
     5  C   -0.102103  -0.011547  -0.592580  -0.037648   6.999728   0.023398
     6  C    0.092200  -0.007835  -1.252718  -0.093789   0.023398   6.368247
     7  H   -0.001509   0.000118  -0.031350  -0.007754   0.405996  -0.011383
     8  H   -0.003779   0.002507   0.019943   0.016854   0.456035  -0.060988
     9  C    0.017475  -0.004236   0.076193  -0.104000  -0.523112   0.118878
    10  O   -0.015927  -0.004039  -0.072527  -0.011381  -0.028852   0.494851
    11  O   -0.001228  -0.000262   0.023431   0.004225  -0.118116  -0.007694
    12  H    0.390671  -0.043587  -0.043040  -0.014122   0.001411   0.004699
    13  O    0.037847  -0.001143  -0.297337  -0.001168  -0.048666   0.283541
    14  H    0.002273  -0.000178  -0.058727   0.002466   0.000758   0.072744
    15  O   -0.001719   0.000270  -0.011481   0.002829  -0.212847  -0.004246
    16  H   -0.000489  -0.000120   0.009607  -0.000956  -0.039461  -0.002455
              7          8          9         10         11         12
     1  N   -0.001509  -0.003779   0.017475  -0.015927  -0.001228   0.390671
     2  H    0.000118   0.002507  -0.004236  -0.004039  -0.000262  -0.043587
     3  C   -0.031350   0.019943   0.076193  -0.072527   0.023431  -0.043040
     4  H   -0.007754   0.016854  -0.104000  -0.011381   0.004225  -0.014122
     5  C    0.405996   0.456035  -0.523112  -0.028852  -0.118116   0.001411
     6  C   -0.011383  -0.060988   0.118878   0.494851  -0.007694   0.004699
     7  H    0.452003  -0.024679  -0.018127   0.002122   0.002103   0.001873
     8  H   -0.024679   0.486674  -0.132636  -0.002809   0.004073  -0.000635
     9  C   -0.018127  -0.132636   5.825923   0.014721   0.459245   0.009942
    10  O    0.002122  -0.002809   0.014721   8.084676  -0.000344  -0.001196
    11  O    0.002103   0.004073   0.459245  -0.000344   8.095265   0.000914
    12  H    0.001873  -0.000635   0.009942  -0.001196   0.000914   0.420288
    13  O    0.000011  -0.000807   0.028588  -0.130593  -0.001430   0.000191
    14  H   -0.000911  -0.000027  -0.010093  -0.012082   0.001105  -0.000409
    15  O    0.002068  -0.008664   0.297434   0.000171  -0.133741   0.000018
    16  H   -0.001515   0.001325   0.034944   0.000052  -0.002980   0.000107
             13         14         15         16
     1  N    0.037847   0.002273  -0.001719  -0.000489
     2  H   -0.001143  -0.000178   0.000270  -0.000120
     3  C   -0.297337  -0.058727  -0.011481   0.009607
     4  H   -0.001168   0.002466   0.002829  -0.000956
     5  C   -0.048666   0.000758  -0.212847  -0.039461
     6  C    0.283541   0.072744  -0.004246  -0.002455
     7  H    0.000011  -0.000911   0.002068  -0.001515
     8  H   -0.000807  -0.000027  -0.008664   0.001325
     9  C    0.028588  -0.010093   0.297434   0.034944
    10  O   -0.130593  -0.012082   0.000171   0.000052
    11  O   -0.001430   0.001105  -0.133741  -0.002980
    12  H    0.000191  -0.000409   0.000018   0.000107
    13  O    8.079423   0.238659   0.000360  -0.000165
    14  H    0.238659   0.438263  -0.000292  -0.000197
    15  O    0.000360  -0.000292   7.959680   0.277644
    16  H   -0.000165  -0.000197   0.277644   0.417544
 Mulliken atomic charges:
              1
     1  N   -0.451375
     2  H    0.272298
     3  C   -0.212742
     4  H    0.283822
     5  C   -0.172394
     6  C   -0.017449
     7  H    0.230932
     8  H    0.247613
     9  C   -0.091139
    10  O   -0.316843
    11  O   -0.324566
    12  H    0.272876
    13  O   -0.187311
    14  H    0.326649
    15  O   -0.167485
    16  H    0.307116
 Sum of Mulliken atomic charges =   0.00000
 Mulliken charges with hydrogens summed into heavy atoms:
              1
     1  N    0.093798
     3  C    0.071080
     5  C    0.306151
     6  C   -0.017449
     9  C   -0.091139
    10  O   -0.316843
    11  O   -0.324566
    13  O    0.139338
    15  O    0.139631
 Sum of Mulliken charges with hydrogens summed into heavy atoms =   0.00000
 Electronic spatial extent (au):  <R**2>=           1281.8395
 Charge=              0.0000 electrons
 Dipole moment (field-independent basis, Debye):
    X=             -0.7177    Y=             -1.0648    Z=             -1.5600  Tot=              2.0205
 Quadrupole moment (field-independent basis, Debye-Ang):
   XX=            -53.4718   YY=            -49.9653   ZZ=            -55.7535
   XY=              2.5343   XZ=              5.4201   YZ=             -0.9522
 Traceless Quadrupole moment (field-independent basis, Debye-Ang):
   XX=             -0.4083   YY=              3.0982   ZZ=             -2.6900
   XY=              2.5343   XZ=              5.4201   YZ=             -0.9522
 Octapole moment (field-independent basis, Debye-Ang**2):
  XXX=            -53.7170  YYY=            -44.0939  ZZZ=             -4.1136  XYY=              0.0000
  XXY=              2.1468  XXZ=              0.7699  XZZ=             15.8247  YZZ=              1.4747
  YYZ=             -3.0871  XYZ=             -1.9362
 Hexadecapole moment (field-independent basis, Debye-Ang**3):
 XXXX=           -913.6780 YYYY=           -381.9981 ZZZZ=           -177.7366 XXXY=             92.2785
 XXXZ=             39.6862 YYYX=            -42.6443 YYYZ=             -4.2203 ZZZX=              6.9171
 ZZZY=             -0.2925 XXYY=           -209.6431 XXZZ=           -217.0987 YYZZ=            -93.6069
 XXYZ=             -1.2557 YYXZ=              1.7661 ZZXY=              5.7491
 N-N= 4.693824053950D+02 E-N=-2.141855781916D+03  KE= 5.106751206746D+02
 No NMR shielding tensors so no spin-rotation constants.
 Leave Link  601 at Tue Apr 19 12:05:48 2016, MaxMem=   33554432 cpu:       0.0
 (Enter c:\G09w02\l701.exe)
 Compute integral first derivatives.
 ... and contract with generalized density number  0.
 D1PCM: C-PCM CHGder 1st derivatives, ID1Alg=3 FixD1E=F DoIter=F DoCFld=F I1PDM=0.
 GePol: Maximum number of non-zero 1st derivatives   =     203
 Leave Link  701 at Tue Apr 19 12:05:56 2016, MaxMem=   33554432 cpu:       7.0
 (Enter c:\G09w02\l702.exe)
 L702 exits ... SP integral derivatives will be done elsewhere.
 Leave Link  702 at Tue Apr 19 12:05:56 2016, MaxMem=   33554432 cpu:       0.0
 (Enter c:\G09w02\l703.exe)
 Compute integral first derivatives, UseDBF=F ICtDFT=           0.
 Integral derivatives from FoFDir, PRISM(SPDF).
 Calling FoFJK, ICntrl=      2127 FMM=F ISym2X=0 I1Cent= 0 IOpClX= 0 NMat=1 NMatS=1 NMatT=0.
 FoFCou: FMM=F IPFlag=           0 FMFlag=      100000 FMFlg1=         800
         NFxFlg=           0 DoJE=F BraDBF=F KetDBF=F FulRan=T
         Omega=  0.000000  0.000000  1.000000  0.000000  0.000000 ICntrl=    2127 IOpCl=  0
         NMat0=    1 NMatS0=    1 NMatT0=    0 NMatD0=    1 NMtDS0=    0 NMtDT0=    0
         I1Cent=           0 NGrid=           0.
 Symmetry not used in FoFCou.
 Leave Link  703 at Tue Apr 19 12:07:22 2016, MaxMem=   33554432 cpu:      86.0
 (Enter c:\G09w02\l716.exe)
 Dipole        =-2.82358008D-01-4.18936445D-01-6.13743852D-01
 -------------------------------------------------------------------
 Center     Atomic                   Forces (Hartrees/Bohr)
 Number     Number              X              Y              Z
 -------------------------------------------------------------------
      1        7           0.000757123    0.000855406    0.000319956
      2        1          -0.000349604    0.000276880   -0.000541947
      3        6          -0.000516086   -0.000255825   -0.000265616
      4        1           0.001166615   -0.000140482   -0.000089505
      5        6          -0.000157903   -0.000942235   -0.000094609
      6        6          -0.006716140   -0.001065311    0.001869449
      7        1          -0.000692233   -0.000370184   -0.000200884
      8        1          -0.000001558    0.000411502    0.000528388
      9        6           0.000448260    0.001270425   -0.010933696
     10        8           0.004194016   -0.000489897   -0.001085435
     11        8          -0.001538585   -0.001105581    0.006777115
     12        1           0.000205047   -0.000368295    0.000591195
     13        8           0.002826320    0.003768207   -0.000135059
     14        1          -0.000544867   -0.002144702   -0.000157652
     15        8           0.003189212    0.001150062    0.004243486
     16        1          -0.002269620   -0.000849971   -0.000825184
 -------------------------------------------------------------------
 Cartesian Forces:  Max     0.010933696 RMS     0.002537433
 Leave Link  716 at Tue Apr 19 12:07:22 2016, MaxMem=   33554432 cpu:       0.0
 (Enter c:\G09w02\l103.exe)

 GradGradGradGradGradGradGradGradGradGradGradGradGradGradGradGradGradGrad
 Berny optimization.
 Internal  Forces:  Max     0.007013460 RMS     0.001335983
 Search for a local minimum.
 Step number   1 out of a maximum of   79
 All quantities printed in internal units (Hartrees-Bohrs-Radians)
 RMS Force = .13360D-02 SwitMx=.10000D-02 MixMth= 1
 Mixed Optimization -- RFO/linear search
 Second derivative matrix not updated -- first step.
 ITU=  0
     Eigenvalues ---    0.00230   0.00313   0.00595   0.00792   0.00968
     Eigenvalues ---    0.01009   0.02300   0.02312   0.03825   0.04195
     Eigenvalues ---    0.04416   0.05390   0.05400   0.06246   0.09540
     Eigenvalues ---    0.12978   0.16000   0.16000   0.16000   0.16000
     Eigenvalues ---    0.17463   0.19031   0.21991   0.24981   0.25000
     Eigenvalues ---    0.25000   0.25000   0.28307   0.29033   0.31061
     Eigenvalues ---    0.34282   0.34292   0.34599   0.37632   0.44938
     Eigenvalues ---    0.45199   0.53472   0.53479   0.54173   0.54360
     Eigenvalues ---    1.02362   1.02671
 RFO step:  Lambda=-3.87813421D-04 EMin= 2.30000000D-03
 Linear search not attempted -- first point.
 Iteration  1 RMS(Cart)=  0.03295595 RMS(Int)=  0.00046999
 Iteration  2 RMS(Cart)=  0.00066203 RMS(Int)=  0.00002262
 Iteration  3 RMS(Cart)=  0.00000029 RMS(Int)=  0.00002262
 Variable       Old X    -DE/DX   Delta X   Delta X   Delta X     New X
                                 (Linear)    (Quad)   (Total)
    R1        1.92048   0.00034   0.00000   0.00075   0.00075   1.92123
    R2        2.74904   0.00091   0.00000   0.00242   0.00242   2.75147
    R3        1.91745   0.00055   0.00000   0.00121   0.00121   1.91866
    R4        2.06839  -0.00041   0.00000  -0.00120  -0.00120   2.06719
    R5        2.91473   0.00109   0.00000   0.00385   0.00385   2.91858
    R6        2.89934  -0.00026   0.00000  -0.00089  -0.00089   2.89845
    R7        2.06857  -0.00021   0.00000  -0.00062  -0.00062   2.06794
    R8        2.06331  -0.00062   0.00000  -0.00179  -0.00179   2.06152
    R9        2.85897  -0.00038   0.00000  -0.00121  -0.00121   2.85776
   R10        2.27707   0.00435   0.00000   0.00425   0.00425   2.28132
   R11        2.55706  -0.00271   0.00000  -0.00498  -0.00498   2.55208
   R12        2.27588   0.00701   0.00000   0.00683   0.00683   2.28271
   R13        2.55874  -0.00308   0.00000  -0.00568  -0.00568   2.55306
   R14        1.83209   0.00157   0.00000   0.00293   0.00293   1.83502
   R15        1.83216   0.00173   0.00000   0.00324   0.00324   1.83540
    A1        1.92969   0.00013   0.00000   0.00159   0.00159   1.93128
    A2        1.84893   0.00042   0.00000   0.00421   0.00421   1.85315
    A3        1.92491  -0.00069   0.00000  -0.00350  -0.00349   1.92142
    A4        1.89327  -0.00055   0.00000  -0.00591  -0.00593   1.88734
    A5        1.92588   0.00035   0.00000   0.00441   0.00441   1.93028
    A6        1.97651   0.00051   0.00000   0.00285   0.00284   1.97935
    A7        1.86623   0.00077   0.00000   0.00883   0.00884   1.87507
    A8        1.86456  -0.00042   0.00000  -0.00845  -0.00844   1.85612
    A9        1.93261  -0.00067   0.00000  -0.00189  -0.00189   1.93072
   A10        1.86255   0.00034   0.00000   0.00488   0.00489   1.86743
   A11        1.96205  -0.00054   0.00000  -0.00242  -0.00242   1.95963
   A12        1.98376   0.00130   0.00000   0.00667   0.00666   1.99042
   A13        1.87109   0.00001   0.00000  -0.00291  -0.00291   1.86818
   A14        1.85777  -0.00082   0.00000  -0.00495  -0.00498   1.85279
   A15        1.91916  -0.00035   0.00000  -0.00178  -0.00178   1.91738
   A16        2.18410   0.00028   0.00000   0.00115   0.00105   2.18515
   A17        1.95608  -0.00072   0.00000  -0.00283  -0.00293   1.95315
   A18        2.14300   0.00044   0.00000   0.00177   0.00167   2.14468
   A19        2.19033   0.00032   0.00000   0.00145   0.00143   2.19176
   A20        1.94885   0.00038   0.00000   0.00171   0.00169   1.95054
   A21        2.14289  -0.00070   0.00000  -0.00260  -0.00263   2.14026
   A22        1.87904   0.00286   0.00000   0.01784   0.01784   1.89689
   A23        1.86988   0.00342   0.00000   0.02134   0.02134   1.89121
    D1        2.97971  -0.00021   0.00000   0.01084   0.01085   2.99055
    D2       -1.26446   0.00060   0.00000   0.02051   0.02050  -1.24396
    D3        0.91304   0.00037   0.00000   0.02359   0.02359   0.93663
    D4        0.94065  -0.00039   0.00000   0.00683   0.00684   0.94749
    D5        2.97967   0.00042   0.00000   0.01651   0.01649   2.99616
    D6       -1.12602   0.00019   0.00000   0.01959   0.01959  -1.10643
    D7       -0.60548   0.00006   0.00000  -0.03217  -0.03217  -0.63765
    D8        1.44105  -0.00002   0.00000  -0.03401  -0.03402   1.40703
    D9       -2.64780   0.00012   0.00000  -0.03298  -0.03300  -2.68080
   D10        1.45026   0.00004   0.00000  -0.03173  -0.03171   1.41855
   D11       -2.78640  -0.00004   0.00000  -0.03357  -0.03356  -2.81996
   D12       -0.59207   0.00010   0.00000  -0.03254  -0.03253  -0.62460
   D13       -2.80785  -0.00037   0.00000  -0.03774  -0.03774  -2.84558
   D14       -0.76132  -0.00045   0.00000  -0.03958  -0.03959  -0.80091
   D15        1.43301  -0.00031   0.00000  -0.03855  -0.03856   1.39445
   D16        0.00683  -0.00028   0.00000  -0.01132  -0.01132  -0.00450
   D17       -3.13056  -0.00050   0.00000  -0.03694  -0.03694   3.11569
   D18       -2.07640   0.00037   0.00000  -0.00009  -0.00009  -2.07649
   D19        1.06940   0.00016   0.00000  -0.02570  -0.02570   1.04370
   D20        2.18067   0.00004   0.00000  -0.00481  -0.00481   2.17586
   D21       -0.95672  -0.00017   0.00000  -0.03042  -0.03042  -0.98714
   D22        0.58211   0.00011   0.00000  -0.00867  -0.00868   0.57343
   D23       -2.60925   0.00023   0.00000   0.00366   0.00366  -2.60559
   D24       -1.46300  -0.00050   0.00000  -0.01518  -0.01517  -1.47817
   D25        1.62883  -0.00038   0.00000  -0.00285  -0.00283   1.62600
   D26        2.79902   0.00012   0.00000  -0.00816  -0.00817   2.79085
   D27       -0.39234   0.00024   0.00000   0.00417   0.00417  -0.38817
   D28        3.13999  -0.00005   0.00000   0.00575   0.00576  -3.13743
   D29        0.00249  -0.00026   0.00000  -0.01916  -0.01916  -0.01667
   D30       -3.08669   0.00014   0.00000   0.00310   0.00311  -3.08358
   D31        0.00671   0.00029   0.00000   0.01517   0.01516   0.02187
         Item               Value     Threshold  Converged?
 Maximum Force            0.007013     0.000450     NO 
 RMS     Force            0.001336     0.000300     NO 
 Maximum Displacement     0.110478     0.001800     NO 
 RMS     Displacement     0.032960     0.001200     NO 
 Predicted change in Energy=-1.974055D-04
 GradGradGradGradGradGradGradGradGradGradGradGradGradGradGradGradGradGrad

 Leave Link  103 at Tue Apr 19 12:07:22 2016, MaxMem=   33554432 cpu:       0.0
 (Enter c:\G09w02\l202.exe)
                          Input orientation:                          
 ---------------------------------------------------------------------
 Center     Atomic      Atomic             Coordinates (Angstroms)
 Number     Number       Type             X           Y           Z
 ---------------------------------------------------------------------
      1          7           0        1.642459    1.812692    0.065947
      2          1           0        2.044421    1.770286   -0.866926
      3          6           0        0.746258    0.687388    0.290650
      4          1           0        0.460502    0.685233    1.346575
      5          6           0       -0.546840    0.848685   -0.538325
      6          6           0        1.397206   -0.674149    0.016788
      7          1           0       -0.791688    1.915230   -0.544822
      8          1           0       -0.412450    0.545229   -1.577525
      9          6           0       -1.748432    0.144651    0.051126
     10          8           0        2.534102   -0.839973   -0.353835
     11          8           0       -1.964856   -0.008963    1.229567
     12          1           0        2.423882    1.770767    0.712847
     13          8           0        0.550531   -1.696539    0.265204
     14          1           0        1.009441   -2.532242    0.080970
     15          8           0       -2.606205   -0.269320   -0.907057
     16          1           0       -3.380406   -0.665134   -0.474305
 ---------------------------------------------------------------------
                    Distance matrix (angstroms):
                    1          2          3          4          5
     1  N    0.000000
     2  H    1.016673   0.000000
     3  C    1.456014   2.048872   0.000000
     4  H    2.075619   2.930141   1.093909   0.000000
     5  C    2.467284   2.769831   1.544448   2.143433   0.000000
     6  C    2.499389   2.678637   1.533792   2.119827   2.531105
     7  H    2.511698   2.858020   2.137964   2.580360   1.094309
     8  H    2.920637   2.835830   2.202928   3.054833   1.090909
     9  C    3.778985   4.227440   2.564257   2.617214   1.512263
    10  O    2.829820   2.704903   2.438151   3.085039   3.518211
    11  O    4.205373   4.861616   2.952390   2.525462   2.423174
    12  H    1.015311   1.624707   2.041171   2.331277   3.352738
    13  O    3.680587   3.941104   2.392084   2.617310   2.885836
    14  H    4.390831   4.525642   3.237167   3.500748   3.773090
    15  O    4.830390   5.078378   3.686299   3.923611   2.372105
    16  H    5.626782   5.959377   4.409516   4.460008   3.213229
                    6          7          8          9         10
     6  C    0.000000
     7  H    3.436793   0.000000
     8  H    2.702512   1.757043   0.000000
     9  C    3.250639   2.098920   2.144252   0.000000
    10  O    1.207224   4.323020   3.478271   4.412887   0.000000
    11  O    3.635487   2.868327   3.255282   1.207957   4.841318
    12  H    2.741564   3.455791   3.846105   4.526625   2.822397
    13  O    1.350501   3.937331   3.057533   2.953141   2.247547
    14  H    1.899208   4.838976   3.774017   3.843502   2.318926
    15  O    4.128520   2.862856   2.434251   1.351022   5.201390
    16  H    4.802795   3.655778   3.389814   1.896093   5.918318
                   11         12         13         14         15
    11  O    0.000000
    12  H    4.763975   0.000000
    13  O    3.178848   3.966364   0.000000
    14  H    4.066036   4.573379   0.971051   0.000000
    15  O    2.245947   5.664611   3.657339   4.378345   0.000000
    16  H    2.310308   6.405677   4.130731   4.802622   0.971252
                   16
    16  H    0.000000
 Symmetry turned off by external request.
 Stoichiometry    C4H7NO4
 Framework group  C1[X(C4H7NO4)]
 Deg. of freedom    42
 Full point group                 C1      NOp   1
 Rotational constants (GHZ):      2.6156918      1.0962648      0.9156739
 Leave Link  202 at Tue Apr 19 12:07:22 2016, MaxMem=   33554432 cpu:       0.0
 (Enter c:\G09w02\l301.exe)
 Standard basis: 6-311++G(d,p) (5D, 7F)
 Ernie: Thresh=  0.10000D-02 Tol=  0.10000D-05 Strict=F.
 Integral buffers will be    262144 words long.
 Raffenetti 2 integral format.
 Two-electron integral symmetry is turned off.
   247 basis functions,   387 primitive gaussians,   256 cartesian basis functions
    35 alpha electrons       35 beta electrons
       nuclear repulsion energy       469.4862425378 Hartrees.
 IExCor=  402 DFT=T Ex+Corr=B3LYP ExCW=0 ScaHFX=  0.200000
 ScaDFX=  0.800000  0.720000  1.000000  0.810000 ScalE2=  1.000000  1.000000
 IRadAn=      0 IRanWt=     -1 IRanGd=            0 ICorTp=0
 NAtoms=   16 NActive=   16 NUniq=   16 SFac= 1.00D+00 NAtFMM=   50 NAOKFM=F Big=F
 ------------------------------------------------------------------------------
 Polarizable Continuum Model (PCM)
 =================================
 Model                : C-PCM.
 Atomic radii         : UFF (Universal Force Field).
 Polarization charges : Total charges.
 Charge compensation  : None.
 Solution method      : Matrix inversion.
 Cavity type          : Scaled VdW (van der Waals Surface) (Alpha=1.100).
 Cavity algorithm     : GePol (No added spheres)
                        Default sphere list used, NSphG=   16.
                        Lebedev-Laikov grids with approx.  5.0 points / Ang**2.
                        Smoothing algorithm: Karplus/York (Gamma=1.0000).
                        Polarization charges: spherical gaussians, with
                                              point-specific exponents (IZeta= 3).
                        Self-potential: point-specific (ISelfS= 7).
                        Self-field    : sphere-specific E.n sum rule (ISelfD= 2).
 1st derivatives      : Analytical E(r).r(x)/FMM algorithm (CHGder, D1EAlg=3).
                        Cavity 1st derivative terms included.
 Solvent              : Water, Eps=  78.355300 Eps(inf)=   1.777849
 ------------------------------------------------------------------------------
 Spheres list:
 ISph  on   Nord    Re0     Alpha      Xe            Ye            Ze
    1   N      1    1.830   1.100      1.642459      1.812692      0.065947
    2   H      2    1.443   1.100      2.044421      1.770286     -0.866926
    3   C      3    1.926   1.100      0.746258      0.687388      0.290650
    4   H      4    1.443   1.100      0.460502      0.685233      1.346575
    5   C      5    1.926   1.100     -0.546840      0.848685     -0.538325
    6   C      6    1.926   1.100      1.397206     -0.674149      0.016788
    7   H      7    1.443   1.100     -0.791688      1.915230     -0.544822
    8   H      8    1.443   1.100     -0.412450      0.545229     -1.577525
    9   C      9    1.926   1.100     -1.748432      0.144651      0.051126
   10   O     10    1.750   1.100      2.534102     -0.839973     -0.353835
   11   O     11    1.750   1.100     -1.964856     -0.008963      1.229567
   12   H     12    1.443   1.100      2.423882      1.770767      0.712847
   13   O     13    1.750   1.100      0.550531     -1.696539      0.265204
   14   H     14    1.443   1.100      1.009441     -2.532242      0.080970
   15   O     15    1.750   1.100     -2.606205     -0.269320     -0.907057
   16   H     16    1.443   1.100     -3.380406     -0.665134     -0.474305
 ------------------------------------------------------------------------------
 GePol: Number of generator spheres                  =      16
 GePol: Total number of spheres                      =      16
 GePol: Number of exposed spheres                    =      16 (100.00%)
 GePol: Number of points                             =    1394
 GePol: Average weight of points                     =       0.13
 GePol: Minimum weight of points                     =   0.27D-10
 GePol: Maximum weight of points                     =    0.20577
 GePol: Number of points with low weight             =      75
 GePol: Fraction of low-weight points (<1% of avg)   =       5.38%
 GePol: Cavity surface area                          =    185.807 Ang**2
 GePol: Cavity volume                                =    179.352 Ang**3
 Leave Link  301 at Tue Apr 19 12:07:22 2016, MaxMem=   33554432 cpu:       0.0
 (Enter c:\G09w02\l302.exe)
 NPDir=0 NMtPBC=     1 NCelOv=     1 NCel=       1 NClECP=     1 NCelD=      1
         NCelK=      1 NCelE2=     1 NClLst=     1 CellRange=     0.0.
 One-electron integrals computed using PRISM.
 NBasis=   247 RedAO= T  NBF=   247
 NBsUse=   247 1.00D-06 NBFU=   247
 Precomputing XC quadrature grid using
 IXCGrd= 2 IRadAn=           0 IRanWt=          -1 IRanGd=           0 AccXCQ= 0.00D+00.
 NRdTot=    1039 NPtTot=      132510 NUsed=      137358 NTot=      137374
 NSgBfM=   256   256   256   256   256 NAtAll=    16    16.
 Leave Link  302 at Tue Apr 19 12:07:23 2016, MaxMem=   33554432 cpu:       1.0
 (Enter c:\G09w02\l303.exe)
 DipDrv:  MaxL=1.
 Leave Link  303 at Tue Apr 19 12:07:23 2016, MaxMem=   33554432 cpu:       0.0
 (Enter c:\G09w02\l401.exe)
 Initial guess read from the read-write file.
 B after Tr=     0.000000    0.000000    0.000000
         Rot=    1.000000    0.000000    0.000000    0.000000 Ang=   0.00 deg.
 Guess basis will be translated and rotated to current coordinates.
 Generating alternative initial guess.
 Harris functional with IExCor=  402 diagonalized for initial guess.
 ExpMin= 3.60D-02 ExpMax= 8.59D+03 ExpMxC= 1.30D+03 IAcc=3 IRadAn=         0 AccDes= 0.00D+00
 HarFok:  IExCor=  402 AccDes= 0.00D+00 IRadAn=         0 IDoV= 1
 ScaDFX=  1.000000  1.000000  1.000000  1.000000
 FoFCou: FMM=F IPFlag=           0 FMFlag=      100000 FMFlg1=           0
         NFxFlg=           0 DoJE=T BraDBF=F KetDBF=T FulRan=T
         Omega=  0.000000  0.000000  1.000000  0.000000  0.000000 ICntrl=     500 IOpCl=  0
         NMat0=    1 NMatS0=    1 NMatT0=    0 NMatD0=    1 NMtDS0=    0 NMtDT0=    0
         I1Cent=           4 NGrid=           0.
 Symmetry not used in FoFCou.
 Harris En= -512.499532322944    
 Leave Link  401 at Tue Apr 19 12:07:31 2016, MaxMem=   33554432 cpu:       8.0
 (Enter c:\G09w02\l502.exe)
 Closed shell SCF:
 Requested convergence on RMS density matrix=1.00D-08 within 128 cycles.
 Requested convergence on MAX density matrix=1.00D-06.
 Requested convergence on             energy=1.00D-06.
 No special actions if energy rises.
 Using DIIS extrapolation, IDIIS=  1040.
 Two-electron integral symmetry not used.
       137218 words used for storage of precomputed grid.
 IEnd=      354922 IEndB=      354922 NGot=    33554432 MDV=    33281943
 LenX=    33281943 LenY=    33215966
 Fock matrices will be formed incrementally for  20 cycles.

 Cycle   1  Pass 1  IDiag  1:
 FoFCou: FMM=F IPFlag=           0 FMFlag=      100000 FMFlg1=           0
         NFxFlg=           0 DoJE=F BraDBF=F KetDBF=F FulRan=T
         Omega=  0.000000  0.000000  1.000000  0.000000  0.000000 ICntrl=       0 IOpCl=  0
         NMat0=    1 NMatS0=    1 NMatT0=    0 NMatD0=    1 NMtDS0=    0 NMtDT0=    0
         I1Cent=           0 NGrid=           0.
 Symmetry not used in FoFCou.
 E= -512.497238042358    
 DIIS: error= 1.85D-03 at cycle   1 NSaved=   1.
 NSaved= 1 IEnMin= 1 EnMin= -512.497238042358     IErMin= 1 ErrMin= 1.85D-03
 ErrMax= 1.85D-03 EMaxC= 1.00D-01 BMatC= 2.01D-03 BMatP= 2.01D-03
 IDIUse=3 WtCom= 9.81D-01 WtEn= 1.85D-02
 Coeff-Com:  0.100D+01
 Coeff-En:   0.100D+01
 Coeff:      0.100D+01
 Gap=     0.249 Goal=   None    Shift=    0.000
 GapD=    0.249 DampG=1.000 DampE=1.000 DampFc=1.0000 IDamp=-1.
 RMSDP=5.09D-04 MaxDP=3.64D-02              OVMax= 1.34D-02

 Cycle   2  Pass 1  IDiag  1:
 RMSU=  3.51D-04    CP:  9.93D-01
 E= -512.500219888300     Delta-E=       -0.002981845943 Rises=F Damp=F
 DIIS: error= 2.99D-04 at cycle   2 NSaved=   2.
 NSaved= 2 IEnMin= 2 EnMin= -512.500219888300     IErMin= 2 ErrMin= 2.99D-04
 ErrMax= 2.99D-04 EMaxC= 1.00D-01 BMatC= 4.97D-05 BMatP= 2.01D-03
 IDIUse=3 WtCom= 9.97D-01 WtEn= 2.99D-03
 Coeff-Com: -0.418D-01 0.104D+01
 Coeff-En:   0.000D+00 0.100D+01
 Coeff:     -0.416D-01 0.104D+01
 Gap=     0.244 Goal=   None    Shift=    0.000
 RMSDP=8.56D-05 MaxDP=4.95D-03 DE=-2.98D-03 OVMax= 3.54D-03

 Cycle   3  Pass 1  IDiag  1:
 RMSU=  5.99D-05    CP:  9.94D-01  1.00D+00
 E= -512.500216253245     Delta-E=        0.000003635056 Rises=F Damp=F
 DIIS: error= 4.72D-04 at cycle   3 NSaved=   3.
 NSaved= 3 IEnMin= 2 EnMin= -512.500219888300     IErMin= 2 ErrMin= 2.99D-04
 ErrMax= 4.72D-04 EMaxC= 1.00D-01 BMatC= 7.68D-05 BMatP= 4.97D-05
 IDIUse=3 WtCom= 3.15D-01 WtEn= 6.85D-01
 Coeff-Com: -0.396D-01 0.606D+00 0.433D+00
 Coeff-En:   0.000D+00 0.524D+00 0.476D+00
 Coeff:     -0.125D-01 0.550D+00 0.462D+00
 Gap=     0.244 Goal=   None    Shift=    0.000
 RMSDP=4.03D-05 MaxDP=1.33D-03 DE= 3.64D-06 OVMax= 3.75D-03

 Cycle   4  Pass 1  IDiag  1:
 RMSU=  2.19D-05    CP:  9.94D-01  1.01D+00  7.00D-01
 E= -512.500258590468     Delta-E=       -0.000042337223 Rises=F Damp=F
 DIIS: error= 2.50D-04 at cycle   4 NSaved=   4.
 NSaved= 4 IEnMin= 4 EnMin= -512.500258590468     IErMin= 4 ErrMin= 2.50D-04
 ErrMax= 2.50D-04 EMaxC= 1.00D-01 BMatC= 1.56D-05 BMatP= 4.97D-05
 IDIUse=3 WtCom= 9.97D-01 WtEn= 2.50D-03
 Coeff-Com: -0.121D-01 0.153D+00 0.318D+00 0.541D+00
 Coeff-En:   0.000D+00 0.000D+00 0.211D+00 0.789D+00
 Coeff:     -0.121D-01 0.153D+00 0.317D+00 0.542D+00
 Gap=     0.244 Goal=   None    Shift=    0.000
 RMSDP=1.43D-05 MaxDP=4.37D-04 DE=-4.23D-05 OVMax= 1.32D-03

 Cycle   5  Pass 1  IDiag  1:
 RMSU=  5.63D-06    CP:  9.94D-01  1.01D+00  7.55D-01  6.58D-01
 E= -512.500269415227     Delta-E=       -0.000010824759 Rises=F Damp=F
 DIIS: error= 2.62D-05 at cycle   5 NSaved=   5.
 NSaved= 5 IEnMin= 5 EnMin= -512.500269415227     IErMin= 5 ErrMin= 2.62D-05
 ErrMax= 2.62D-05 EMaxC= 1.00D-01 BMatC= 4.04D-07 BMatP= 1.56D-05
 IDIUse=1 WtCom= 1.00D+00 WtEn= 0.00D+00
 Coeff-Com: -0.414D-02 0.448D-01 0.141D+00 0.282D+00 0.536D+00
 Coeff:     -0.414D-02 0.448D-01 0.141D+00 0.282D+00 0.536D+00
 Gap=     0.244 Goal=   None    Shift=    0.000
 RMSDP=3.48D-06 MaxDP=1.65D-04 DE=-1.08D-05 OVMax= 1.28D-04

 Cycle   6  Pass 1  IDiag  1:
 RMSU=  1.86D-06    CP:  9.94D-01  1.01D+00  7.61D-01  6.70D-01  7.40D-01
 E= -512.500269714750     Delta-E=       -0.000000299523 Rises=F Damp=F
 DIIS: error= 7.95D-06 at cycle   6 NSaved=   6.
 NSaved= 6 IEnMin= 6 EnMin= -512.500269714750     IErMin= 6 ErrMin= 7.95D-06
 ErrMax= 7.95D-06 EMaxC= 1.00D-01 BMatC= 3.17D-08 BMatP= 4.04D-07
 IDIUse=1 WtCom= 1.00D+00 WtEn= 0.00D+00
 Coeff-Com:  0.319D-03-0.101D-01 0.705D-02 0.335D-01 0.236D+00 0.733D+00
 Coeff:      0.319D-03-0.101D-01 0.705D-02 0.335D-01 0.236D+00 0.733D+00
 Gap=     0.244 Goal=   None    Shift=    0.000
 RMSDP=1.66D-06 MaxDP=1.86D-04 DE=-3.00D-07 OVMax= 4.73D-05

 Cycle   7  Pass 1  IDiag  1:
 RMSU=  5.90D-07    CP:  9.94D-01  1.01D+00  7.71D-01  6.90D-01  7.89D-01
                    CP:  8.66D-01
 E= -512.500269737672     Delta-E=       -0.000000022923 Rises=F Damp=F
 DIIS: error= 2.95D-06 at cycle   7 NSaved=   7.
 NSaved= 7 IEnMin= 7 EnMin= -512.500269737672     IErMin= 7 ErrMin= 2.95D-06
 ErrMax= 2.95D-06 EMaxC= 1.00D-01 BMatC= 4.12D-09 BMatP= 3.17D-08
 IDIUse=1 WtCom= 1.00D+00 WtEn= 0.00D+00
 Coeff-Com:  0.392D-03-0.820D-02-0.420D-02 0.269D-02 0.986D-01 0.404D+00
 Coeff-Com:  0.506D+00
 Coeff:      0.392D-03-0.820D-02-0.420D-02 0.269D-02 0.986D-01 0.404D+00
 Coeff:      0.506D+00
 Gap=     0.244 Goal=   None    Shift=    0.000
 RMSDP=4.09D-07 MaxDP=1.99D-05 DE=-2.29D-08 OVMax= 1.70D-05

 Cycle   8  Pass 1  IDiag  1:
 RMSU=  1.99D-07    CP:  9.94D-01  1.01D+00  7.71D-01  6.91D-01  8.09D-01
                    CP:  8.51D-01  7.24D-01
 E= -512.500269741021     Delta-E=       -0.000000003349 Rises=F Damp=F
 DIIS: error= 1.26D-06 at cycle   8 NSaved=   8.
 NSaved= 8 IEnMin= 8 EnMin= -512.500269741021     IErMin= 8 ErrMin= 1.26D-06
 ErrMax= 1.26D-06 EMaxC= 1.00D-01 BMatC= 3.00D-10 BMatP= 4.12D-09
 IDIUse=1 WtCom= 1.00D+00 WtEn= 0.00D+00
 Coeff-Com:  0.165D-03-0.299D-02-0.298D-02-0.229D-02 0.228D-01 0.121D+00
 Coeff-Com:  0.244D+00 0.620D+00
 Coeff:      0.165D-03-0.299D-02-0.298D-02-0.229D-02 0.228D-01 0.121D+00
 Coeff:      0.244D+00 0.620D+00
 Gap=     0.244 Goal=   None    Shift=    0.000
 RMSDP=1.07D-07 MaxDP=4.51D-06 DE=-3.35D-09 OVMax= 7.82D-06

 Cycle   9  Pass 1  IDiag  1:
 RMSU=  7.00D-08    CP:  9.94D-01  1.01D+00  7.71D-01  6.91D-01  8.11D-01
                    CP:  8.56D-01  7.28D-01  9.13D-01
 E= -512.500269741174     Delta-E=       -0.000000000153 Rises=F Damp=F
 DIIS: error= 7.13D-07 at cycle   9 NSaved=   9.
 NSaved= 9 IEnMin= 9 EnMin= -512.500269741174     IErMin= 9 ErrMin= 7.13D-07
 ErrMax= 7.13D-07 EMaxC= 1.00D-01 BMatC= 1.14D-10 BMatP= 3.00D-10
 IDIUse=1 WtCom= 1.00D+00 WtEn= 0.00D+00
 Coeff-Com:  0.254D-04-0.216D-03-0.109D-02-0.204D-02-0.528D-02-0.354D-02
 Coeff-Com:  0.551D-01 0.415D+00 0.542D+00
 Coeff:      0.254D-04-0.216D-03-0.109D-02-0.204D-02-0.528D-02-0.354D-02
 Coeff:      0.551D-01 0.415D+00 0.542D+00
 Gap=     0.244 Goal=   None    Shift=    0.000
 RMSDP=7.39D-08 MaxDP=6.02D-06 DE=-1.53D-10 OVMax= 3.50D-06

 Cycle  10  Pass 1  IDiag  1:
 RMSU=  3.05D-08    CP:  9.94D-01  1.01D+00  7.72D-01  6.91D-01  8.11D-01
                    CP:  8.61D-01  7.51D-01  9.72D-01  6.40D-01
 E= -512.500269741257     Delta-E=       -0.000000000083 Rises=F Damp=F
 DIIS: error= 1.31D-07 at cycle  10 NSaved=  10.
 NSaved=10 IEnMin=10 EnMin= -512.500269741257     IErMin=10 ErrMin= 1.31D-07
 ErrMax= 1.31D-07 EMaxC= 1.00D-01 BMatC= 8.15D-12 BMatP= 1.14D-10
 IDIUse=1 WtCom= 1.00D+00 WtEn= 0.00D+00
 Coeff-Com: -0.258D-05 0.190D-03-0.266D-03-0.865D-03-0.487D-02-0.133D-01
 Coeff-Com:  0.635D-02 0.157D+00 0.294D+00 0.563D+00
 Coeff:     -0.258D-05 0.190D-03-0.266D-03-0.865D-03-0.487D-02-0.133D-01
 Coeff:      0.635D-02 0.157D+00 0.294D+00 0.563D+00
 Gap=     0.244 Goal=   None    Shift=    0.000
 RMSDP=1.92D-08 MaxDP=1.16D-06 DE=-8.29D-11 OVMax= 7.16D-07

 Cycle  11  Pass 1  IDiag  1:
 RMSU=  7.47D-09    CP:  9.94D-01  1.01D+00  7.72D-01  6.91D-01  8.11D-01
                    CP:  8.61D-01  7.52D-01  9.87D-01  6.97D-01  7.39D-01
 E= -512.500269741263     Delta-E=       -0.000000000006 Rises=F Damp=F
 DIIS: error= 4.22D-08 at cycle  11 NSaved=  11.
 NSaved=11 IEnMin=11 EnMin= -512.500269741263     IErMin=11 ErrMin= 4.22D-08
 ErrMax= 4.22D-08 EMaxC= 1.00D-01 BMatC= 8.03D-13 BMatP= 8.15D-12
 IDIUse=1 WtCom= 1.00D+00 WtEn= 0.00D+00
 Coeff-Com: -0.400D-05 0.125D-03-0.313D-04-0.275D-03-0.199D-02-0.660D-02
 Coeff-Com: -0.202D-02 0.397D-01 0.101D+00 0.295D+00 0.576D+00
 Coeff:     -0.400D-05 0.125D-03-0.313D-04-0.275D-03-0.199D-02-0.660D-02
 Coeff:     -0.202D-02 0.397D-01 0.101D+00 0.295D+00 0.576D+00
 Gap=     0.244 Goal=   None    Shift=    0.000
 RMSDP=5.09D-09 MaxDP=4.31D-07 DE=-5.91D-12 OVMax= 1.98D-07

 Error on total polarization charges =  0.01183
 SCF Done:  E(RB3LYP) =  -512.500269741     A.U. after   11 cycles
             Convg  =    0.5092D-08             -V/T =  2.0036
 KE= 5.106468352044D+02 PE=-2.142067314486D+03 EE= 6.494339670031D+02
 Leave Link  502 at Tue Apr 19 12:12:27 2016, MaxMem=   33554432 cpu:     296.0
 (Enter c:\G09w02\l701.exe)
 Compute integral first derivatives.
 ... and contract with generalized density number  0.
 D1PCM: C-PCM CHGder 1st derivatives, ID1Alg=3 FixD1E=F DoIter=F DoCFld=F I1PDM=0.
 GePol: Maximum number of non-zero 1st derivatives   =     203
 Leave Link  701 at Tue Apr 19 12:12:34 2016, MaxMem=   33554432 cpu:       7.0
 (Enter c:\G09w02\l702.exe)
 L702 exits ... SP integral derivatives will be done elsewhere.
 Leave Link  702 at Tue Apr 19 12:12:34 2016, MaxMem=   33554432 cpu:       0.0
 (Enter c:\G09w02\l703.exe)
 Compute integral first derivatives, UseDBF=F ICtDFT=           0.
 Integral derivatives from FoFDir, PRISM(SPDF).
 Calling FoFJK, ICntrl=      2127 FMM=F ISym2X=0 I1Cent= 0 IOpClX= 0 NMat=1 NMatS=1 NMatT=0.
 FoFCou: FMM=F IPFlag=           0 FMFlag=      100000 FMFlg1=         800
         NFxFlg=           0 DoJE=F BraDBF=F KetDBF=F FulRan=T
         Omega=  0.000000  0.000000  1.000000  0.000000  0.000000 ICntrl=    2127 IOpCl=  0
         NMat0=    1 NMatS0=    1 NMatT0=    0 NMatD0=    1 NMtDS0=    0 NMtDT0=    0
         I1Cent=           0 NGrid=           0.
 Symmetry not used in FoFCou.
 Leave Link  703 at Tue Apr 19 12:13:56 2016, MaxMem=   33554432 cpu:      82.0
 (Enter c:\G09w02\l716.exe)
 Dipole        =-3.20671484D-01-4.01447738D-01-6.33621553D-01
 -------------------------------------------------------------------
 Center     Atomic                   Forces (Hartrees/Bohr)
 Number     Number              X              Y              Z
 -------------------------------------------------------------------
      1        7          -0.000164686    0.000030136   -0.000201985
      2        1          -0.000247317    0.000155568   -0.000033843
      3        6          -0.000852364   -0.000064796   -0.000941090
      4        1          -0.000051352   -0.000144197   -0.000014319
      5        6           0.000113513    0.000172247    0.000875526
      6        6          -0.001394174   -0.002112365    0.003251031
      7        1          -0.000123939    0.000209127   -0.000145162
      8        1           0.000277105    0.000078759   -0.000081749
      9        6          -0.000677820   -0.001790463   -0.003295447
     10        8           0.000985765    0.000116921   -0.001375551
     11        8          -0.000529692    0.000711916    0.001965035
     12        1          -0.000077323   -0.000209646   -0.000091571
     13        8           0.001194323    0.001442901   -0.001098167
     14        1          -0.000061682    0.000181330   -0.000073876
     15        8           0.001294739    0.000987012    0.001243474
     16        1           0.000314904    0.000235550    0.000017693
 -------------------------------------------------------------------
 Cartesian Forces:  Max     0.003295447 RMS     0.001030446
 Leave Link  716 at Tue Apr 19 12:13:56 2016, MaxMem=   33554432 cpu:       0.0
 (Enter c:\G09w02\l103.exe)

 GradGradGradGradGradGradGradGradGradGradGradGradGradGradGradGradGradGrad
 Berny optimization.
 Using GEDIIS/GDIIS optimizer.
 Internal  Forces:  Max     0.002291312 RMS     0.000596179
 Search for a local minimum.
 Step number   2 out of a maximum of   79
 All quantities printed in internal units (Hartrees-Bohrs-Radians)
 RMS Force = .59618D-03 SwitMx=.10000D-02 MixMth= 2
 Mixed Optimization -- En-DIIS/RFO-DIIS
 Update second derivatives using D2CorX and points    1    2
 DE= -1.54D-04 DEPred=-1.97D-04 R= 7.80D-01
 SS=  1.41D+00  RLast= 1.35D-01 DXNew= 5.0454D-01 4.0503D-01
 Trust test= 7.80D-01 RLast= 1.35D-01 DXMaxT set to 4.05D-01
 ITU=  1  0
 Use linear search instead of GDIIS.
     Eigenvalues ---    0.00263   0.00307   0.00602   0.00852   0.00925
     Eigenvalues ---    0.01326   0.02285   0.02308   0.03790   0.04251
     Eigenvalues ---    0.04408   0.05300   0.05409   0.06147   0.09562
     Eigenvalues ---    0.12351   0.14901   0.16000   0.16000   0.16110
     Eigenvalues ---    0.17467   0.20072   0.21609   0.24952   0.24993
     Eigenvalues ---    0.24999   0.25615   0.28708   0.29406   0.31045
     Eigenvalues ---    0.34270   0.34325   0.34606   0.37694   0.44922
     Eigenvalues ---    0.45162   0.48795   0.53476   0.54259   0.54648
     Eigenvalues ---    0.93903   1.02461
 RFO step:  Lambda=-3.35759550D-04 EMin= 2.63463216D-03
 Quartic linear search produced a step of -0.16928.
 Iteration  1 RMS(Cart)=  0.02848672 RMS(Int)=  0.00066329
 Iteration  2 RMS(Cart)=  0.00080233 RMS(Int)=  0.00019810
 Iteration  3 RMS(Cart)=  0.00000037 RMS(Int)=  0.00019810
 Variable       Old X    -DE/DX   Delta X   Delta X   Delta X     New X
                                 (Linear)    (Quad)   (Total)
    R1        1.92123  -0.00007  -0.00013   0.00066   0.00054   1.92177
    R2        2.75147  -0.00027  -0.00041   0.00196   0.00155   2.75302
    R3        1.91866  -0.00011  -0.00020   0.00107   0.00087   1.91953
    R4        2.06719   0.00000   0.00020  -0.00127  -0.00107   2.06612
    R5        2.91858  -0.00080  -0.00065   0.00169   0.00104   2.91962
    R6        2.89845   0.00051   0.00015   0.00052   0.00067   2.89912
    R7        2.06794   0.00023   0.00011  -0.00009   0.00001   2.06795
    R8        2.06152   0.00009   0.00030  -0.00167  -0.00136   2.06016
    R9        2.85776  -0.00042   0.00020  -0.00238  -0.00218   2.85558
   R10        2.28132   0.00133  -0.00072   0.00557   0.00485   2.28617
   R11        2.55208  -0.00215   0.00084  -0.00854  -0.00770   2.54438
   R12        2.28271   0.00192  -0.00116   0.00876   0.00760   2.29031
   R13        2.55306  -0.00229   0.00096  -0.00951  -0.00855   2.54451
   R14        1.83502  -0.00017  -0.00050   0.00281   0.00232   1.83734
   R15        1.83540  -0.00034  -0.00055   0.00289   0.00234   1.83774
    A1        1.93128   0.00005  -0.00027   0.00203   0.00176   1.93304
    A2        1.85315   0.00012  -0.00071   0.00522   0.00451   1.85765
    A3        1.92142  -0.00026   0.00059  -0.00495  -0.00435   1.91706
    A4        1.88734   0.00029   0.00100  -0.00511  -0.00411   1.88322
    A5        1.93028  -0.00086  -0.00075  -0.00035  -0.00110   1.92919
[...]
 ! D5    D(12,1,3,5)           176.3429         -DE/DX =    0.0                 !
 ! D6    D(12,1,3,6)           -59.01           -DE/DX =    0.0                 !
 ! D7    D(1,3,5,7)            -36.4872         -DE/DX =    0.0                 !
 ! D8    D(1,3,5,8)             80.5487         -DE/DX =    0.0                 !
 ! D9    D(1,3,5,9)           -153.4793         -DE/DX =    0.0                 !
 ! D10   D(4,3,5,7)             81.3548         -DE/DX =    0.0                 !
 ! D11   D(4,3,5,8)           -161.6094         -DE/DX =    0.0                 !
 ! D12   D(4,3,5,9)            -35.6373         -DE/DX =    0.0                 !
 ! D13   D(6,3,5,7)           -162.7699         -DE/DX =    0.0                 !
 ! D14   D(6,3,5,8)            -45.7341         -DE/DX =    0.0                 !
 ! D15   D(6,3,5,9)             80.238          -DE/DX =    0.0                 !
 ! D16   D(1,3,6,10)            -1.6817         -DE/DX =    0.0                 !
 ! D17   D(1,3,6,13)           178.1504         -DE/DX =    0.0                 !
 ! D18   D(4,3,6,10)          -120.624          -DE/DX =    0.0                 !
 ! D19   D(4,3,6,13)            59.2081         -DE/DX =    0.0                 !
 ! D20   D(5,3,6,10)           122.7478         -DE/DX =    0.0                 !
 ! D21   D(5,3,6,13)           -57.4201         -DE/DX =    0.0                 !
 ! D22   D(3,5,9,11)            35.7579         -DE/DX =    0.0                 !
 ! D23   D(3,5,9,15)          -147.0584         -DE/DX =    0.0                 !
 ! D24   D(7,5,9,11)           -81.8324         -DE/DX =    0.0                 !
 ! D25   D(7,5,9,15)            95.3513         -DE/DX =    0.0                 !
 ! D26   D(8,5,9,11)           162.7493         -DE/DX =    0.0                 !
 ! D27   D(8,5,9,15)           -20.067          -DE/DX =    0.0                 !
 ! D28   D(3,6,13,14)          179.5338         -DE/DX =    0.0                 !
 ! D29   D(10,6,13,14)          -0.6299         -DE/DX =    0.0                 !
 ! D30   D(5,9,15,16)         -176.183          -DE/DX =    0.0                 !
 ! D31   D(11,9,15,16)           1.083          -DE/DX =    0.0                 !
 --------------------------------------------------------------------------------
 GradGradGradGradGradGradGradGradGradGradGradGradGradGradGradGradGradGrad

 Leave Link  103 at Tue Apr 19 13:50:47 2016, MaxMem=   33554432 cpu:       0.0
 (Enter c:\G09w02\l9999.exe)
 1|1|UNPC-WIN-20150318OUM|Freq|RB3LYP|6-311++G(d,p)|C4H7N1O4|ADMINISTRA
 TOR|19-Apr-2016|0||#P Geom=AllCheck Guess=TCheck SCRF=Check GenChk RB3
 LYP/6-311++G(d,p) Freq||Asp-S-opt-freq-cpcm-w-6-311++gdp||0,1|N,1.6392
 442215,1.8101573741,0.0822842989|H,1.9831254572,1.8104171117,-0.874447
 626|C,0.7451877956,0.6827421248,0.3043228928|H,0.4572602603,0.67655014
 14,1.3597900862|C,-0.5411704855,0.8508485749,-0.5299608916|C,1.3964607
 138,-0.6785237396,0.0242143781|H,-0.7831016462,1.9185106759,-0.5350450
 364|H,-0.397031941,0.5508011141,-1.5690293998|C,-1.7503868264,0.152276
 1688,0.0485316299|O,2.5262145124,-0.8400990659,-0.3728512332|O,-1.9967
 317006,0.0427065115,1.2278958797|H,2.45794496,1.7282263753,0.677206882
 9|O,0.5546957358,-1.6990876237,0.2778646745|H,1.0073134624,-2.53489723
 67,0.0795695474|O,-2.578390698,-0.2965704023,-0.9142341265|H,-3.362710
 8213,-0.6802161043,-0.489235957||Version=IA32W-G09RevB.01|HF=-512.5003
 806|RMSD=2.791e-009|RMSF=4.837e-006|ZeroPoint=0.1224503|Thermal=0.1320
 983|Dipole=-0.3311411,-0.4433124,-0.6907542|DipoleDeriv=-0.5842774,-0.
 1176282,0.0079997,-0.0729262,-0.8529034,-0.0336871,-0.014679,-0.008049
 9,-0.3168171,0.1940833,-0.0925253,0.046696,-0.029224,0.3028207,-0.1211
 268,0.0481017,-0.0276589,0.0860466,0.3804746,0.4384414,0.0408385,0.224
 0198,0.4878028,0.0090392,0.1036547,-0.0892669,0.1722877,0.0998014,-0.0
 109457,0.0173545,0.0133701,0.0147198,0.0136076,0.0035892,0.0370472,-0.
 0371468,-0.1420477,-0.2038764,0.0543846,-0.2367786,-0.1278675,0.106791
 ,0.0832204,0.034972,0.052206,2.0613654,0.2535666,-0.5810815,0.1747481,
 1.6111944,-0.1119451,-0.6733958,-0.0727775,0.5070722,0.0254177,0.05229
 47,0.0243467,0.0714695,-0.0081195,0.0048035,0.0116581,-0.0016891,0.108
 9549,0.0118339,-0.0120834,0.0463783,0.0159804,0.1044721,-0.0694849,0.0
 077159,-0.0249222,-0.0709859,1.6105557,0.5733356,0.2288725,0.6780987,0
 .726404,0.1526967,0.1650307,0.1543589,2.2947152,-1.5441149,-0.0477298,
 0.322196,0.2928531,-0.8293352,-0.0690287,0.4160964,0.0054503,-0.554972
 1,-0.8539002,-0.1470392,0.3042694,-0.1721786,-0.5398305,0.1144227,0.05
 7515,-0.014253,-1.5943896,0.0761729,-0.0510135,-0.065646,0.0392063,0.2
 911912,0.122968,-0.0270669,0.0971302,0.2030486,-0.9133454,-0.3871536,0
 .1359784,-0.6640663,-1.3539884,0.2390438,0.1307218,0.1225848,-0.483153
 9,0.2829834,0.0628174,0.046492,0.0326065,0.3758738,-0.0199469,0.047626
 3,-0.0216863,0.4003998,-1.0875548,-0.2932533,-0.6858407,-0.3445155,-0.
 6116382,-0.3601363,-0.4277753,-0.2237743,-1.0461032,0.3825522,-0.01720
 72,0.0567615,-0.0226632,0.4092039,0.0219835,0.0679868,0.0325347,0.2788
 376|Polar=98.3416312,6.3837631,85.7875256,-3.9272157,-0.2496141,81.890
 3487|PG=C01 [X(C4H7N1O4)]|NImag=0||0.54863122,0.09904569,0.25111465,0.
 05388207,-0.05495464,0.66237671,-0.09464585,-0.02162202,0.12547760,0.0
 9469216,-0.00637283,-0.02375585,-0.03556832,0.02129168,0.03301601,0.10
 280742,0.00810312,-0.38092219,-0.11664359,-0.00201816,0.40409723,-0.12
 914091,-0.04527990,0.00932678,-0.00889276,-0.01259908,0.00261785,0.480
 34827,-0.09425620,-0.14208980,0.03068611,0.00301688,-0.00685462,-0.001
 33512,0.03370866,0.44730525,0.00727396,0.01590134,-0.10540405,0.024641
 65,0.03242850,-0.00390065,-0.04551333,-0.02026216,0.57079136,-0.007742
 85,-0.00526595,0.02202858,-0.00234184,-0.00298017,0.00054306,-0.059872
 23,0.00131911,0.06426995,0.07443017,-0.01096794,-0.00546383,0.03119407
 ,-0.00422954,-0.00330825,0.00061201,0.00338495,-0.05067465,-0.01088009
 ,0.00281897,0.06002782,0.00254555,0.00289053,-0.00237844,0.00016647,0.
 00008422,0.00178746,0.06448069,-0.00243980,-0.28741285,-0.07059211,0.0
 0179063,0.31275810,-0.02891329,-0.00627976,-0.01805265,0.00095040,0.00
 075200,0.00007425,-0.12600423,0.00798833,-0.03695473,0.00489391,-0.001
 43717,-0.00059281,0.45960972,-0.02616219,-0.00045521,-0.01634462,0.000
 45783,0.00093457,0.00001944,0.01749644,-0.07300312,0.01339703,-0.00181
 442,0.00066735,-0.00178792,-0.00830087,0.52746867,0.00409277,-0.001062
 73,0.00500542,0.00071115,0.00003034,0.00121531,-0.04188851,0.00689354,
 -0.11095371,-0.02873392,0.00432991,-0.01943098,-0.01875189,0.04027842,
 0.56882042,0.00124453,-0.02245841,-0.00100951,0.00030059,-0.00232135,0
 .00052000,-0.08355943,0.02985830,-0.00044701,-0.00503099,0.00596402,0.
 00404499,-0.01926062,0.02325888,0.00218443,0.84834964,-0.00235295,-0.0
 3545655,-0.00305948,0.00093018,-0.00058224,-0.00091603,0.02531333,-0.1
 3527818,-0.00916457,0.00343731,0.00261392,-0.00233438,0.01199900,-0.00
 080753,0.00591734,-0.06994452,0.55904714,-0.00104483,0.00371279,0.0030
 9490,-0.00073645,0.00330196,0.00020219,0.00032504,-0.01127534,-0.09629
 465,0.01726184,-0.03142009,-0.00679651,-0.00861770,0.01864910,0.005104
 97,-0.21245346,0.03653575,0.30557073,0.00204191,0.00038747,0.00094534,
 -0.00049904,0.00015834,0.00017876,-0.01186376,0.02808057,-0.00279011,0
 .00078570,-0.00047302,0.00021592,-0.05265999,0.05032722,0.00335640,-0.
 00237430,-0.00384823,-0.00460075,0.06366124,-0.00222394,0.00056561,-0.
 00146586,0.00019522,-0.00011117,0.00015077,0.00271687,-0.00497113,0.00
 041090,0.00008372,0.00007025,0.00014687,0.05697030,-0.29409093,-0.0005
 6428,-0.00054752,0.00074021,0.00105756,-0.05771907,0.32035674,0.001879
 23,-0.00000927,0.00114798,-0.00000618,-0.00015732,0.00012869,-0.007324
 64,0.01868103,-0.00140740,0.00053008,0.00005416,0.00041091,0.00231187,
 -0.00068552,-0.04394273,-0.00174195,-0.00160541,-0.00219948,0.00008637
 ,-0.00048643,0.04609123,0.00087990,0.00061744,0.00031043,-0.00032891,-
 0.00036383,0.00017744,0.00385459,-0.00638596,-0.02731257,-0.00455004,0
 .00045814,-0.00255462,-0.05685644,0.00871084,0.03300122,0.00165396,-0.
 00115976,-0.00118188,-0.00123278,0.00165223,0.00584759,0.06204290,-0.0
 0052206,0.00004302,-0.00026478,-0.00027802,0.00000957,-0.00035328,0.00
 000591,0.00038561,0.00620700,0.00093489,0.00033725,0.00137576,0.011145
 50,-0.06756438,-0.07598024,0.00013793,0.00025421,0.00121214,0.00514655
 ,-0.00738294,-0.03013410,-0.01080496,0.07098787,-0.00042753,-0.0001358
 1,0.00042367,-0.00042499,-0.00040359,-0.00007913,0.00161977,-0.0022178
 0,-0.01384996,-0.00236966,0.00035414,-0.00045984,0.03753294,-0.0714502
 8,-0.28731787,0.00011060,-0.00173750,-0.00047976,0.00004257,-0.0001791
 4,0.00113777,-0.03636269,0.07801644,0.31185000,0.00075398,0.00180456,-
 0.00019248,-0.00048101,-0.00012471,0.00011797,-0.02748133,-0.01535040,
 0.00133996,-0.00041373,-0.00085953,0.00162282,-0.15205605,-0.03071981,
 0.03633703,-0.00598328,0.00579526,0.00307575,0.00833511,0.00112778,-0.
 00368683,-0.00035492,-0.00272129,-0.00016620,0.51799014,0.00192220,0.0
 0032264,0.00134678,-0.00034023,-0.00030758,0.00013926,-0.00018686,-0.0
 0138398,-0.01005278,-0.00148428,0.00060193,0.00047008,-0.03162231,-0.1
 0381256,0.01858923,0.00095730,0.00730716,0.00191519,-0.02870057,-0.018
 39630,0.01548133,0.01335394,0.00380274,-0.00458324,0.15175045,0.307098
 16,-0.00594346,-0.00037658,-0.00581244,0.00059948,0.00033351,-0.000123
 95,-0.00707963,-0.01018985,0.01350011,-0.00250736,-0.00112746,-0.00249
 625,0.02404949,0.01350693,-0.09134264,-0.00116809,-0.00394262,-0.00142
 443,-0.00020251,0.00152552,-0.00201248,0.02374117,0.01731236,-0.013328
 75,-0.10528178,-0.04676680,0.89598302,0.00328761,-0.00308221,-0.002168
 87,0.00082024,0.00068633,-0.00102688,-0.02954946,0.00567333,0.02041676
 ,-0.00130994,0.00475007,-0.00104939,0.00219015,0.00203062,0.00325676,-
 0.61203675,0.10944081,0.18887987,-0.00145577,0.00045147,-0.00086360,-0
 .00036794,-0.00032697,-0.00055902,0.00392747,0.00146910,-0.00017836,0.
 72369725,0.00524825,-0.00143956,-0.00154034,-0.00075920,0.00164384,-0.
 00091725,0.03099598,0.00176267,-0.01274381,0.00218368,-0.00441476,-0.0
 0072078,0.00067848,-0.00373031,-0.00318055,0.08707603,-0.12854806,-0.0
 3166984,0.00170572,-0.00006341,0.00088873,0.00000681,0.00030999,0.0005
 0104,-0.00258421,-0.00254398,0.00145926,-0.07616792,0.11157201,-0.0009
 4154,0.00121884,-0.00035803,-0.00008661,-0.00113243,0.00027382,0.01955
 797,-0.00325257,0.01847578,-0.00151905,0.00249087,0.00012212,0.0004228
 0,-0.00475828,-0.00291530,0.18815120,-0.03925969,-0.14183562,0.0017425
 4,-0.00012435,0.00087370,0.00024586,0.00004034,0.00004763,-0.00209919,
 -0.00113007,0.00094766,-0.24291117,0.02921227,0.11363829,-0.00125493,-
 0.00058372,0.00047242,-0.00003745,-0.00009734,-0.00012978,0.00270471,0
 .00145992,0.00132748,0.00025456,0.00017140,0.00162421,0.00101217,-0.00
 905123,0.03266553,0.00235039,-0.00289199,-0.00068573,-0.00224944,-0.00
 092575,0.00225006,-0.00474210,-0.00352564,0.00296883,-0.13713873,-0.02
 961728,0.12559289,-0.00205726,0.00127302,0.00072995,0.11304668,-0.0006
 4909,-0.00005055,-0.00040073,0.00013159,0.00008210,-0.00001422,0.00004
 459,0.00055479,0.00192605,0.00026140,-0.00063305,0.00021074,-0.0114207
 3,0.01477851,0.02173851,-0.00052970,-0.00270963,0.00033428,0.00258379,
 0.00217963,-0.00192663,-0.00547925,-0.00156530,0.00142876,-0.02817536,
 -0.09026782,0.05818786,-0.00005882,0.00091207,0.00006852,0.03923934,0.
 05269096,0.00118767,0.00007393,0.00210966,-0.00066294,-0.00028738,0.00
 005337,-0.00447746,-0.00121538,-0.00424801,0.00109016,0.00020557,0.001
 93782,0.01554121,0.01022169,-0.02888799,0.00036959,0.00260044,0.001041
 13,0.00104253,-0.00118244,-0.00064081,0.00436067,0.00230804,-0.0000897
 0,0.14472041,0.06599103,-0.64594993,0.00031901,-0.00090843,-0.00060523
 ,-0.13039188,-0.05873581,0.78193906,-0.29266728,0.00249041,-0.18862738
 ,0.01037080,0.00121585,0.01107323,-0.01902581,0.00696532,-0.01292891,0
 .00036408,0.00057466,0.00024597,-0.00313795,-0.00381511,0.00224092,0.0
 0027199,0.00042070,0.00001766,0.00048822,-0.00048171,0.00035219,-0.000
 07611,-0.00011814,-0.00017644,0.00044673,0.00044520,-0.00192324,0.0007
 6861,0.00031286,-0.00023916,-0.00021522,-0.00014843,0.00051733,0.30337
 238,0.03786496,-0.02842255,0.05298745,0.00140896,-0.00207312,-0.002714
 54,-0.02848376,-0.00522640,-0.01979510,0.00055079,0.00096683,0.0001656
 9,-0.00153533,-0.00294943,0.00154348,-0.00338822,-0.00106581,-0.000818
 63,-0.00013041,0.00042768,0.00015188,0.00005153,0.00001208,0.00000660,
 -0.00041433,0.00086186,-0.00081252,0.00121606,0.00114479,0.00028744,0.
 00003852,-0.00012061,0.00014007,-0.00767046,0.03574788,-0.16555191,0.0
 2520219,-0.18084671,-0.03306932,0.00417405,-0.02280781,0.00625498,-0.0
 0183565,0.00553220,0.00040367,-0.00040697,0.00053316,0.00149717,0.0016
 9168,0.00089325,-0.00096266,-0.00032334,0.00029885,-0.00004847,0.00011
 861,-0.00023839,0.00041204,0.00014886,0.00021744,-0.00006469,-0.000161
 40,0.00062072,0.00063556,0.00138524,0.00016815,0.00013408,0.00005308,-
 0.00012437,0.18943706,-0.03129922,0.19584756,0.00114458,0.00223419,0.0
 0001971,-0.00014327,0.00068488,-0.00026062,0.00979533,0.00472802,-0.00
 019959,0.00008666,-0.00027103,-0.00007939,-0.00075342,0.00025779,-0.00
 073638,-0.14669933,-0.04377906,0.02794034,0.00051666,0.00016890,0.0002
 9192,-0.00001016,-0.00007869,0.00036070,0.00005913,-0.00052991,0.00135
 011,-0.08407251,-0.05532242,0.03690464,-0.00112524,0.00165160,-0.00087
 292,0.00001897,0.00068487,0.00039679,0.37155856,0.00159133,-0.01326383
 ,-0.00108572,-0.00037465,0.00131148,-0.00069804,-0.02171589,-0.0290111
 2,0.00587703,-0.00086635,-0.00140835,0.00063936,-0.00131241,-0.0026685
 4,-0.00196417,-0.06069116,-0.21531344,0.01587904,0.00098423,-0.0001768
 3,0.00053120,0.00011908,0.00026672,0.00053083,-0.00238289,-0.00273714,
 0.00046935,-0.05158768,0.01401326,0.01738658,0.00215234,-0.00007616,-0
 .00039460,0.00031784,0.00104749,0.00095790,-0.07304280,0.60201646,0.00
 021461,-0.00108780,0.00071176,0.00013628,-0.00050466,0.00003852,-0.000
 59070,-0.00386918,0.01072805,-0.00096491,0.00193924,0.00073009,0.00013
 924,-0.00082363,-0.00023538,0.02665473,0.00930369,-0.07109753,0.000308
 65,-0.00012087,0.00034043,0.00006294,-0.00009602,0.00020216,-0.0002333
 8,-0.00011820,-0.00099767,0.03674024,0.01856498,0.01578464,0.00042829,
 -0.00054882,0.00052855,-0.00004247,0.00001398,-0.00011992,-0.11993366,
 0.04995733,0.08084589,0.00022099,-0.00146115,-0.00000784,0.00001233,0.
 00001157,-0.00002857,-0.00189865,-0.00242903,0.00199495,-0.00028479,0.
 00007220,0.00008316,-0.00015819,-0.00017084,0.00014468,0.01929763,-0.0
 2974768,-0.00695835,0.00011369,-0.00002010,-0.00004660,0.00003367,-0.0
 0003175,-0.00002064,0.00070985,-0.00029516,0.00056370,-0.00231251,0.00
 392331,-0.00085149,-0.00040114,0.00037644,-0.00018370,0.00005762,0.000
 07263,0.00002396,-0.15036145,0.20546111,0.05702940,0.13504574,0.000008
 98,-0.00131124,-0.00016325,0.00005248,-0.00004387,-0.00002304,-0.00565
 165,0.00048422,0.00200101,0.00015621,0.00043212,-0.00040312,0.00012337
 ,0.00070899,0.00009713,0.01186803,-0.04746709,-0.00638669,-0.00013563,
 0.00010232,-0.00008987,0.00009375,-0.00006834,0.00010975,0.00085823,-0
 .00032910,0.00025452,0.00650142,0.00836385,-0.00163347,-0.00037523,0.0
 0026395,0.00002761,0.00002453,-0.00002729,-0.00001037,0.16230602,-0.35
 505089,-0.07293117,-0.17570411,0.39397118,0.00020713,0.00064159,0.0004
 9244,-0.00001906,-0.00022666,0.00005113,0.00165875,0.00053652,0.003571
 68,-0.00049721,0.00062111,0.00028822,0.00045589,-0.00012512,-0.0000658
 5,-0.00477637,0.00866527,0.00514740,0.00008678,-0.00002946,-0.00000815
 ,-0.00002217,-0.00006618,-0.00000690,0.00023485,-0.00006514,-0.0003882
 0,-0.00092830,-0.00066557,-0.00479740,0.00017816,-0.00014023,0.0001742
 8,0.00001281,0.00011188,0.00000803,0.05500942,-0.08852766,-0.03773684,
 -0.05160893,0.07925341,0.03320089,-0.00353542,-0.00054017,-0.00208170,
 0.00019179,0.00005731,-0.00002187,0.00038536,-0.00344602,0.00457747,0.
 00085286,0.00007009,-0.00009285,-0.02935636,-0.02081499,-0.02424800,0.
 00170273,-0.00353403,-0.00134334,-0.00295351,-0.00088485,0.00007264,-0
 .00048329,0.00062376,-0.00186851,-0.17417243,-0.05856003,-0.05953436,-
 0.00170554,0.00144142,0.00097711,0.02529631,-0.00300875,-0.03913568,-0
 .00095554,-0.00026998,0.00044733,-0.00024346,0.00138931,0.00004566,-0.
 00013987,-0.00017532,0.00001729,0.50041276,-0.00192277,-0.00032126,-0.
 00109373,0.00010505,0.00003183,-0.00003044,0.00057044,-0.00149909,0.00
 396499,0.00064832,0.00020083,-0.00006646,-0.02444971,-0.00064470,-0.01
 343435,0.00080637,-0.00252045,-0.00092764,0.00050421,0.00047768,-0.000
 69852,-0.00116139,0.00011703,-0.00059894,-0.05778865,-0.09235574,-0.03
 367708,-0.00095321,0.00095417,0.00054213,-0.00229392,0.02622475,-0.022
 53657,-0.00048032,-0.00024017,0.00024633,0.00023954,0.00100787,0.00032
 423,-0.00006829,-0.00004056,0.00002396,0.23318169,0.15621991,0.0000707
 7,-0.00010271,0.00053107,-0.00008834,-0.00006534,-0.00001724,0.0014380
 2,0.00145977,0.00031066,0.00100657,0.00027286,0.00037879,0.00311118,-0
 .00042144,0.00676122,0.00058211,-0.00057433,-0.00027069,-0.00020045,0.
 00077090,0.00029810,-0.00056407,0.00020922,0.00151246,-0.04332831,-0.0
 2485496,-0.16643683,-0.00056213,0.00029325,0.00015353,-0.04130204,-0.0
 2447334,-0.10571929,0.00012178,0.00006125,0.00000652,-0.00026761,0.000
 42859,0.00027353,-0.00014270,-0.00011046,0.00008198,-0.06252082,-0.021
 73524,0.40565249,-0.00030418,-0.00000647,-0.00032251,0.00003184,0.0000
 0137,0.00000133,0.00020031,-0.00093084,0.00030408,-0.00012153,-0.00002
 626,-0.00006861,0.00050018,-0.00169017,-0.00363219,-0.00022677,-0.0000
 7837,0.00012200,-0.00065395,-0.00056355,0.00004786,0.00053768,0.000412
 97,-0.00025973,-0.03414094,-0.01856157,0.00792194,0.00017636,-0.000011
 81,-0.00008386,0.00455668,0.00518139,0.00657600,-0.00008148,0.00000417
 ,0.00005441,0.00022895,-0.00004144,0.00000508,0.00006509,0.00004893,-0
 .00000903,-0.31529639,-0.14693736,0.14264604,0.34452817,-0.00025142,-0
 .00001571,-0.00027293,0.00001379,0.00000731,-0.00000449,-0.00032001,-0
 .00050045,0.00078464,0.00001676,-0.00001542,-0.00002143,-0.00329869,0.
 00516861,-0.00323159,-0.00004601,-0.00021366,-0.00009959,0.00112883,0.
 00027260,0.00000474,0.00029141,0.00005488,0.00035876,-0.02021511,-0.00
 786029,0.00384359,-0.00004241,0.00006343,0.00004386,0.00502753,-0.0022
 6366,0.00369224,-0.00005321,-0.00008325,0.00005901,0.00006810,0.000043
 03,-0.00000310,0.00001086,0.00001175,-0.00000772,-0.14552945,-0.087612
 09,0.06884199,0.16319902,0.09294294,-0.00025190,-0.00001478,-0.0001717
 6,0.00000486,0.00001130,0.00000325,-0.00040558,-0.00036412,0.00056144,
 0.00005033,-0.00002995,0.00002820,-0.00216626,-0.00136750,-0.00270813,
 -0.00005858,-0.00010515,-0.00006149,-0.00016358,-0.00002831,0.00002061
 ,-0.00016137,0.00006443,0.00022079,-0.03239593,-0.01620031,0.01926205,
 -0.00000049,0.00004178,0.00002625,0.00413753,0.00229197,-0.00151853,-0
 .00008136,-0.00002972,0.00001132,0.00007654,0.00001299,0.00000371,0.00
 000896,0.00000801,-0.00001271,0.18470962,0.08969732,-0.14351630,-0.153
 30280,-0.07398798,0.12785130||0.00000393,-0.00000226,-0.00000993,0.000
 00454,-0.00000602,-0.00000350,-0.00000260,-0.00000064,0.00000191,-0.00
 000086,0.00000489,-0.00000086,-0.00000219,-0.00000260,-0.00000280,0.00
 000436,-0.00000057,0.00000273,0.00000439,-0.00000065,-0.00000593,0.000
 00402,-0.00000482,-0.00000250,0.00000125,0.00000270,-0.00001049,-0.000
 00412,-0.00000422,0.00000915,-0.00000294,0.00001120,0.00000156,-0.0000
 0169,0.00000122,-0.00000151,-0.00000504,0.00000075,0.00001078,-0.00000
 443,-0.00000027,0.00001376,0.00000164,-0.00000199,-0.00000125,-0.00000
 025,0.00000326,-0.00000113|||@


 LIFE IS A CONTINUAL STRUGGLE AGAINST THE TENDENCY TO PRODUCE ENTROPY.
 Job cpu time:  0 days  0 hours 33 minutes 58.0 seconds.
 File lengths (MBytes):  RWF=    123 Int=      0 D2E=      0 Chk=      8 Scr=      1
 Normal termination of Gaussian 09 at Tue Apr 19 13:50:47 2016.
