 Entering Link 1 = c:\G09w01\l1.exe PID=      4024.
  
 Copyright (c) 1988,1990,1992,1993,1995,1998,2003,2009,2010,
            Gaussian, Inc.  All Rights Reserved.
  
 This is part of the Gaussian(R) 09 program.  It is based on
 the Gaussian(R) 03 system (copyright 2003, Gaussian, Inc.),
 the Gaussian(R) 98 system (copyright 1998, Gaussian, Inc.),
 the Gaussian(R) 94 system (copyright 1995, Gaussian, Inc.),
 the Gaussian 92(TM) system (copyright 1992, Gaussian, Inc.),
 the Gaussian 90(TM) system (copyright 1990, Gaussian, Inc.),
 the Gaussian 88(TM) system (copyright 1988, Gaussian, Inc.),
 the Gaussian 86(TM) system (copyright 1986, Carnegie Mellon
 University), and the Gaussian 82(TM) system (copyright 1983,
 Carnegie Mellon University). Gaussian is a federally registered
 trademark of Gaussian, Inc.
  
 This software contains proprietary and confidential information,
 including trade secrets, belonging to Gaussian, Inc.
  
 This software is provided under written license and may be
 used, copied, transmitted, or stored only in accord with that
 written license.
  
 The following legend is applicable only to US Government
 contracts under FAR:
  
                    RESTRICTED RIGHTS LEGEND
  
 Use, reproduction and disclosure by the US Government is
 subject to restrictions as set forth in subparagraphs (a)
 and (c) of the Commercial Computer Software - Restricted
 Rights clause in FAR 52.227-19.
  
 Gaussian, Inc.
 340 Quinnipiac St., Bldg. 40, Wallingford CT 06492
  
  
 ---------------------------------------------------------------
 Warning -- This program may not be used in any manner that
 competes with the business of Gaussian, Inc. or will provide
 assistance to any competitor of Gaussian, Inc.  The licensee
 of this program is prohibited from giving any competitor of
 Gaussian, Inc. access to this program.  By using this program,
 the user acknowledges that Gaussian, Inc. is engaged in the
 business of creating and licensing software in the field of
 computational chemistry and represents and warrants to the
 licensee that it is not a competitor of Gaussian, Inc. and that
 it will not use this program in any manner prohibited above.
 ---------------------------------------------------------------
  

 Cite this work as:
 Gaussian 09, Revision B.01,
 M. J. Frisch, G. W. Trucks, H. B. Schlegel, G. E. Scuseria, 
 M. A. Robb, J. R. Cheeseman, G. Scalmani, V. Barone, B. Mennucci, 
 G. A. Petersson, H. Nakatsuji, M. Caricato, X. Li, H. P. Hratchian, 
 A. F. Izmaylov, J. Bloino, G. Zheng, J. L. Sonnenberg, M. Hada, 
 M. Ehara, K. Toyota, R. Fukuda, J. Hasegawa, M. Ishida, T. Nakajima, 
 Y. Honda, O. Kitao, H. Nakai, T. Vreven, J. A. Montgomery, Jr., 
 J. E. Peralta, F. Ogliaro, M. Bearpark, J. J. Heyd, E. Brothers, 
 K. N. Kudin, V. N. Staroverov, T. Keith, R. Kobayashi, J. Normand, 
 K. Raghavachari, A. Rendell, J. C. Burant, S. S. Iyengar, J. Tomasi, 
 M. Cossi, N. Rega, J. M. Millam, M. Klene, J. E. Knox, J. B. Cross, 
 V. Bakken, C. Adamo, J. Jaramillo, R. Gomperts, R. E. Stratmann, 
 O. Yazyev, A. J. Austin, R. Cammi, C. Pomelli, J. W. Ochterski, 
 R. L. Martin, K. Morokuma, V. G. Zakrzewski, G. A. Voth, 
 P. Salvador, J. J. Dannenberg, S. Dapprich, A. D. Daniels, 
 O. Farkas, J. B. Foresman, J. V. Ortiz, J. Cioslowski, 
 and D. J. Fox, Gaussian, Inc., Wallingford CT, 2010.
 
 ******************************************
 Gaussian 09:  IA32W-G09RevB.01 12-Aug-2010
                19-Apr-2016 
 ******************************************
 %chk=Ala-S-opt-freq-cpcm-w-pb1-6-311++gdp.chk
 -----------------------------------------------------------------
 #p opt freq rb3lyp/6-311++g(d,p) scrf=(cpcm,solvent=water) nosymm
 -----------------------------------------------------------------
 1/14=-1,18=20,19=15,26=3,38=1/1,3;
 2/9=110,12=2,15=1,17=6,18=5,40=1/2;
 3/5=4,6=6,7=1111,11=2,16=1,25=1,30=1,70=2101,71=1,72=1,74=-5,116=1/1,2,3;
 4//1;
 5/5=2,38=5,53=1/2;
 6/7=2,8=2,9=2,10=2,28=1/1;
 7/30=1/1,2,3,16;
 1/14=-1,18=20,19=15/3(2);
 2/9=110,15=1/2;
 99//99;
 2/9=110,15=1/2;
 3/5=4,6=6,7=1111,11=2,16=1,25=1,30=1,70=2105,71=1,72=1,74=-5,116=1/1,2,3;
 4/5=5,16=3/1;
 5/5=2,38=5,53=1/2;
 7/30=1/1,2,3,16;
 1/14=-1,18=20,19=15/3(-5);
 2/9=110,15=1/2;
 6/7=2,8=2,9=2,10=2,19=2,28=1/1;
 99/9=1/99;
 Leave Link    1 at Tue Apr 19 11:58:35 2016, MaxMem=          0 cpu:       1.0
 (Enter c:\G09w01\l101.exe)
 ------------------------------------
 Ala-S-opt-freq-cpcm-w-pb1-6-311++gdp
 ------------------------------------
 Symbolic Z-matrix:
 Charge =  0 Multiplicity = 1
 N                    -1.38438  -1.20044  -0.48312 
 H                    -2.13567  -1.61934   0.05296 
 C                    -0.75235  -0.1172    0.27128 
 H                     0.40159  -1.10804   0.93544 
 C                    -1.54185   1.16788   0.40784 
 C                     0.66409  -0.03829   0.04274 
 H                    -2.46542   0.97862   0.96279 
 H                    -0.98384   1.93808   0.94735 
 H                    -1.83      1.58095  -0.57075 
 O                     1.29064  -1.0586    0.5261 
 H                    -1.79554  -0.84855  -1.34755 
 O                     1.31497   0.99095  -0.45121 
 H                     2.26685   0.91154  -0.27414 
 
 NAtoms=     13 NQM=     13 NQMF=      0 NMic=      0 NMicF=      0 NTot=     13.
                    Isotopes and Nuclear Properties:
 (Nuclear quadrupole moments (NQMom) in fm**2, nuclear magnetic moments (NMagM)
  in nuclear magnetons)

  Atom         1           2           3           4           5           6           7           8           9          10
 IAtWgt=          14           1          12           1          12          12           1           1           1          16
 AtmWgt=  14.0030740   1.0078250  12.0000000   1.0078250  12.0000000  12.0000000   1.0078250   1.0078250   1.0078250  15.9949146
 NucSpn=           2           1           0           1           0           0           1           1           1           0
 AtZEff=   0.0000000   0.0000000   0.0000000   0.0000000   0.0000000   0.0000000   0.0000000   0.0000000   0.0000000   0.0000000
 NQMom=    2.0440000   0.0000000   0.0000000   0.0000000   0.0000000   0.0000000   0.0000000   0.0000000   0.0000000   0.0000000
 NMagM=    0.4037610   2.7928460   0.0000000   2.7928460   0.0000000   0.0000000   2.7928460   2.7928460   2.7928460   0.0000000

  Atom        11          12          13
 IAtWgt=           1          16           1
 AtmWgt=   1.0078250  15.9949146   1.0078250
 NucSpn=           1           0           1
 AtZEff=   0.0000000   0.0000000   0.0000000
 NQMom=    0.0000000   0.0000000   0.0000000
 NMagM=    2.7928460   0.0000000   2.7928460
 Leave Link  101 at Tue Apr 19 11:58:35 2016, MaxMem=   33554432 cpu:       0.0
 (Enter c:\G09w01\l103.exe)

 GradGradGradGradGradGradGradGradGradGradGradGradGradGradGradGradGradGrad
 Berny optimization.
 Initialization pass.
                           ----------------------------
                           !    Initial Parameters    !
                           ! (Angstroms and Degrees)  !
 --------------------------                            --------------------------
 ! Name  Definition              Value          Derivative Info.                !
 --------------------------------------------------------------------------------
 ! R1    R(1,2)                  1.0136         estimate D2E/DX2                !
 ! R2    R(1,3)                  1.4635         estimate D2E/DX2                !
 ! R3    R(1,11)                 1.0199         estimate D2E/DX2                !
 ! R4    R(3,5)                  1.5144         estimate D2E/DX2                !
 ! R5    R(3,6)                  1.4369         estimate D2E/DX2                !
 ! R6    R(4,6)                  1.4178         estimate D2E/DX2                !
 ! R7    R(4,10)                 0.98           estimate D2E/DX2                !
 ! R8    R(5,7)                  1.094          estimate D2E/DX2                !
 ! R9    R(5,8)                  1.0935         estimate D2E/DX2                !
 ! R10   R(5,9)                  1.1006         estimate D2E/DX2                !
 ! R11   R(6,10)                 1.2912         estimate D2E/DX2                !
 ! R12   R(6,12)                 1.3141         estimate D2E/DX2                !
 ! R13   R(12,13)                0.9715         estimate D2E/DX2                !
 ! A1    A(2,1,3)              110.6937         estimate D2E/DX2                !
 ! A2    A(2,1,11)             106.9814         estimate D2E/DX2                !
 ! A3    A(3,1,11)             110.832          estimate D2E/DX2                !
 ! A4    A(1,3,5)              116.7062         estimate D2E/DX2                !
 ! A5    A(1,3,6)              112.6036         estimate D2E/DX2                !
 ! A6    A(5,3,6)              118.7921         estimate D2E/DX2                !
 ! A7    A(3,5,7)              109.8197         estimate D2E/DX2                !
 ! A8    A(3,5,8)              112.0962         estimate D2E/DX2                !
 ! A9    A(3,5,9)              112.012          estimate D2E/DX2                !
 ! A10   A(7,5,8)              107.6019         estimate D2E/DX2                !
 ! A11   A(7,5,9)              107.1542         estimate D2E/DX2                !
 ! A12   A(8,5,9)              107.9355         estimate D2E/DX2                !
 ! A13   A(3,6,10)             112.0479         estimate D2E/DX2                !
 ! A14   A(3,6,12)             126.2301         estimate D2E/DX2                !
 ! A15   A(10,6,12)            121.2822         estimate D2E/DX2                !
 ! A16   A(4,10,6)              75.8787         estimate D2E/DX2                !
 ! A17   A(6,12,13)            110.6572         estimate D2E/DX2                !
 ! D1    D(2,1,3,5)            -73.1515         estimate D2E/DX2                !
 ! D2    D(2,1,3,6)            144.3387         estimate D2E/DX2                !
 ! D3    D(11,1,3,5)            45.3886         estimate D2E/DX2                !
 ! D4    D(11,1,3,6)           -97.1212         estimate D2E/DX2                !
 ! D5    D(1,3,5,7)             62.8478         estimate D2E/DX2                !
 ! D6    D(1,3,5,8)           -177.5983         estimate D2E/DX2                !
 ! D7    D(1,3,5,9)            -56.0906         estimate D2E/DX2                !
 ! D8    D(6,3,5,7)           -157.0288         estimate D2E/DX2                !
 ! D9    D(6,3,5,8)            -37.4749         estimate D2E/DX2                !
 ! D10   D(6,3,5,9)             84.0329         estimate D2E/DX2                !
 ! D11   D(1,3,6,10)           -67.5598         estimate D2E/DX2                !
 ! D12   D(1,3,6,12)           120.0275         estimate D2E/DX2                !
 ! D13   D(5,3,6,10)           150.7853         estimate D2E/DX2                !
 ! D14   D(5,3,6,12)           -21.6274         estimate D2E/DX2                !
 ! D15   D(3,6,10,4)           -14.0758         estimate D2E/DX2                !
 ! D16   D(12,6,10,4)          158.765          estimate D2E/DX2                !
 ! D17   D(3,6,12,13)          163.5495         estimate D2E/DX2                !
 ! D18   D(10,6,12,13)          -8.2175         estimate D2E/DX2                !
 --------------------------------------------------------------------------------
 Trust Radius=3.00D-01 FncErr=1.00D-07 GrdErr=1.00D-06
 Number of steps in this run=     58 maximum allowed number of steps=    100.
 GradGradGradGradGradGradGradGradGradGradGradGradGradGradGradGradGradGrad

 Leave Link  103 at Tue Apr 19 11:58:35 2016, MaxMem=   33554432 cpu:       0.0
 (Enter c:\G09w01\l202.exe)
                          Input orientation:                          
 ---------------------------------------------------------------------
 Center     Atomic      Atomic             Coordinates (Angstroms)
 Number     Number       Type             X           Y           Z
 ---------------------------------------------------------------------
      1          7           0       -1.384378   -1.200436   -0.483120
      2          1           0       -2.135671   -1.619341    0.052956
      3          6           0       -0.752353   -0.117204    0.271284
      4          1           0        0.401591   -1.108039    0.935437
      5          6           0       -1.541851    1.167879    0.407844
      6          6           0        0.664089   -0.038285    0.042742
      7          1           0       -2.465424    0.978617    0.962792
      8          1           0       -0.983838    1.938084    0.947351
      9          1           0       -1.830005    1.580954   -0.570754
     10          8           0        1.290635   -1.058597    0.526102
     11          1           0       -1.795544   -0.848547   -1.347546
     12          8           0        1.314972    0.990946   -0.451210
     13          1           0        2.266849    0.911537   -0.274135
 ---------------------------------------------------------------------
                    Distance matrix (angstroms):
                    1          2          3          4          5
     1  N    0.000000
     2  H    1.013558   0.000000
     3  C    1.463548   2.053692   0.000000
     4  H    2.282658   2.734575   1.659651   0.000000
     5  C    2.535257   2.871787   1.514396   3.038935   0.000000
     6  C    2.413160   3.215354   1.436930   1.417810   2.540532
     7  H    2.829769   2.772350   2.147934   3.546076   1.093972
     8  H    3.472317   3.844728   2.175973   3.346404   1.093463
     9  H    2.818225   3.274803   2.180390   3.805170   1.100599
    10  O    2.862576   3.503980   2.263836   0.980000   3.604741
    11  H    1.019861   1.634385   2.060029   3.179112   2.685466
    12  O    3.477019   4.355998   2.454349   2.676340   2.988430
    13  H    4.223217   5.088665   3.235950   3.003488   3.877757
                    6          7          8          9         10
     6  C    0.000000
     7  H    3.416787   0.000000
     8  H    2.727639   1.765195   0.000000
     9  H    3.036251   1.765880   1.774312   0.000000
    10  O    1.291214   4.295220   3.785601   4.231869   0.000000
    11  H    2.939255   3.020750   3.700099   2.550896   3.616515
    12  O    1.314136   4.036205   2.852643   3.202074   2.270761
    13  H    1.889818   4.891717   3.621159   4.161768   2.339829
                   11         12         13
    11  H    0.000000
    12  O    3.723233   0.000000
    13  H    4.555562   0.971458   0.000000
 Symmetry turned off by external request.
 Stoichiometry    C3H7NO2
 Framework group  C1[X(C3H7NO2)]
 Deg. of freedom    33
 Full point group                 C1      NOp   1
 Rotational constants (GHZ):      4.9773664      3.0836426      2.2149499
 Leave Link  202 at Tue Apr 19 11:58:35 2016, MaxMem=   33554432 cpu:       0.0
 (Enter c:\G09w01\l301.exe)
 Standard basis: 6-311++G(d,p) (5D, 7F)
 Ernie: Thresh=  0.10000D-02 Tol=  0.10000D-05 Strict=F.
 Integral buffers will be    262144 words long.
 Raffenetti 2 integral format.
 Two-electron integral symmetry is turned off.
   181 basis functions,   279 primitive gaussians,   187 cartesian basis functions
    24 alpha electrons       24 beta electrons
       nuclear repulsion energy       249.5613275470 Hartrees.
 IExCor=  402 DFT=T Ex+Corr=B3LYP ExCW=0 ScaHFX=  0.200000
 ScaDFX=  0.800000  0.720000  1.000000  0.810000 ScalE2=  1.000000  1.000000
 IRadAn=      0 IRanWt=     -1 IRanGd=            0 ICorTp=0
 NAtoms=   13 NActive=   13 NUniq=   13 SFac= 1.00D+00 NAtFMM=   50 NAOKFM=F Big=F
 ------------------------------------------------------------------------------
 Polarizable Continuum Model (PCM)
 =================================
 Model                : C-PCM.
 Atomic radii         : UFF (Universal Force Field).
 Polarization charges : Total charges.
 Charge compensation  : None.
 Solution method      : Matrix inversion.
 Cavity type          : Scaled VdW (van der Waals Surface) (Alpha=1.100).
 Cavity algorithm     : GePol (No added spheres)
                        Default sphere list used, NSphG=   13.
                        Lebedev-Laikov grids with approx.  5.0 points / Ang**2.
                        Smoothing algorithm: Karplus/York (Gamma=1.0000).
                        Polarization charges: spherical gaussians, with
                                              point-specific exponents (IZeta= 3).
                        Self-potential: point-specific (ISelfS= 7).
                        Self-field    : sphere-specific E.n sum rule (ISelfD= 2).
 1st derivatives      : Analytical E(r).r(x)/FMM algorithm (CHGder, D1EAlg=3).
                        Cavity 1st derivative terms included.
 Solvent              : Water, Eps=  78.355300 Eps(inf)=   1.777849
 ------------------------------------------------------------------------------
 Spheres list:
 ISph  on   Nord    Re0     Alpha      Xe            Ye            Ze
    1   N      1    1.830   1.100     -1.384378     -1.200436     -0.483120
    2   H      2    1.443   1.100     -2.135671     -1.619341      0.052956
    3   C      3    1.926   1.100     -0.752353     -0.117204      0.271284
    4   H      4    1.443   1.100      0.401591     -1.108039      0.935437
    5   C      5    1.926   1.100     -1.541851      1.167879      0.407844
    6   C      6    1.926   1.100      0.664089     -0.038285      0.042742
    7   H      7    1.443   1.100     -2.465424      0.978617      0.962792
    8   H      8    1.443   1.100     -0.983838      1.938084      0.947351
    9   H      9    1.443   1.100     -1.830005      1.580954     -0.570754
   10   O     10    1.750   1.100      1.290635     -1.058597      0.526102
   11   H     11    1.443   1.100     -1.795544     -0.848547     -1.347546
   12   O     12    1.750   1.100      1.314972      0.990946     -0.451210
   13   H     13    1.443   1.100      2.266849      0.911537     -0.274135
 ------------------------------------------------------------------------------
 GePol: Number of generator spheres                  =      13
 GePol: Total number of spheres                      =      13
 GePol: Number of exposed spheres                    =      13 (100.00%)
 GePol: Number of points                             =    1118
 GePol: Average weight of points                     =       0.13
 GePol: Minimum weight of points                     =   0.10D-09
 GePol: Maximum weight of points                     =    0.20577
 GePol: Number of points with low weight             =      53
 GePol: Fraction of low-weight points (<1% of avg)   =       4.74%
 GePol: Cavity surface area                          =    149.965 Ang**2
 GePol: Cavity volume                                =    136.907 Ang**3
 Leave Link  301 at Tue Apr 19 11:58:36 2016, MaxMem=   33554432 cpu:       0.0
 (Enter c:\G09w01\l302.exe)
 NPDir=0 NMtPBC=     1 NCelOv=     1 NCel=       1 NClECP=     1 NCelD=      1
         NCelK=      1 NCelE2=     1 NClLst=     1 CellRange=     0.0.
 One-electron integrals computed using PRISM.
 NBasis=   181 RedAO= T  NBF=   181
 NBsUse=   181 1.00D-06 NBFU=   181
 Precomputing XC quadrature grid using
 IXCGrd= 2 IRadAn=           0 IRanWt=          -1 IRanGd=           0 AccXCQ= 0.00D+00.
 NRdTot=     842 NPtTot=      106912 NUsed=      110844 NTot=      110860
 NSgBfM=   187   187   187   187   187 NAtAll=    13    13.
 Leave Link  302 at Tue Apr 19 11:58:37 2016, MaxMem=   33554432 cpu:       1.0
 (Enter c:\G09w01\l303.exe)
 DipDrv:  MaxL=1.
 Leave Link  303 at Tue Apr 19 11:58:37 2016, MaxMem=   33554432 cpu:       0.0
 (Enter c:\G09w01\l401.exe)
 Harris functional with IExCor=  402 diagonalized for initial guess.
 ExpMin= 3.60D-02 ExpMax= 8.59D+03 ExpMxC= 1.30D+03 IAcc=3 IRadAn=         0 AccDes= 0.00D+00
 HarFok:  IExCor=  402 AccDes= 0.00D+00 IRadAn=         0 IDoV= 1
 ScaDFX=  1.000000  1.000000  1.000000  1.000000
 FoFCou: FMM=F IPFlag=           0 FMFlag=      100000 FMFlg1=           0
         NFxFlg=           0 DoJE=T BraDBF=F KetDBF=T FulRan=T
         Omega=  0.000000  0.000000  1.000000  0.000000  0.000000 ICntrl=     500 IOpCl=  0
         NMat0=    1 NMatS0=    1 NMatT0=    0 NMatD0=    1 NMtDS0=    0 NMtDT0=    0
         I1Cent=           4 NGrid=           0.
 Symmetry not used in FoFCou.
 Harris En= -323.759977304109    
 Leave Link  401 at Tue Apr 19 11:58:41 2016, MaxMem=   33554432 cpu:       4.0
 (Enter c:\G09w01\l502.exe)
 Closed shell SCF:
 Requested convergence on RMS density matrix=1.00D-08 within 128 cycles.
 Requested convergence on MAX density matrix=1.00D-06.
 Requested convergence on             energy=1.00D-06.
 No special actions if energy rises.
 Using DIIS extrapolation, IDIIS=  1040.
 Two-electron integral symmetry not used.
       110727 words used for storage of precomputed grid.
 IEnd=      235933 IEndB=      235933 NGot=    33554432 MDV=    33370296
 LenX=    33370296 LenY=    33334886
 Fock matrices will be formed incrementally for  20 cycles.

 Cycle   1  Pass 1  IDiag  1:
 FoFCou: FMM=F IPFlag=           0 FMFlag=      100000 FMFlg1=           0
         NFxFlg=           0 DoJE=F BraDBF=F KetDBF=F FulRan=T
         Omega=  0.000000  0.000000  1.000000  0.000000  0.000000 ICntrl=       0 IOpCl=  0
         NMat0=    1 NMatS0=    1 NMatT0=    0 NMatD0=    1 NMtDS0=    0 NMtDT0=    0
         I1Cent=           0 NGrid=           0.
 Symmetry not used in FoFCou.
 E= -323.525964994075    
 DIIS: error= 3.27D-02 at cycle   1 NSaved=   1.
 NSaved= 1 IEnMin= 1 EnMin= -323.525964994075     IErMin= 1 ErrMin= 3.27D-02
 ErrMax= 3.27D-02 EMaxC= 1.00D-01 BMatC= 2.61D-01 BMatP= 2.61D-01
 IDIUse=3 WtCom= 6.73D-01 WtEn= 3.27D-01
 Coeff-Com:  0.100D+01
 Coeff-En:   0.100D+01
 Coeff:      0.100D+01
 Gap=     0.099 Goal=   None    Shift=    0.000
 GapD=    0.099 DampG=0.500 DampE=0.500 DampFc=0.2500 IDamp=-1.
 Damping current iteration by 2.50D-01
 RMSDP=7.45D-03 MaxDP=1.39D-01              OVMax= 2.88D-01

 Cycle   2  Pass 1  IDiag  1:
 RMSU=  1.30D-03    CP:  9.84D-01
 E= -323.604055168725     Delta-E=       -0.078090174650 Rises=F Damp=T
 DIIS: error= 1.26D-02 at cycle   2 NSaved=   2.
 NSaved= 2 IEnMin= 2 EnMin= -323.604055168725     IErMin= 2 ErrMin= 1.26D-02
 ErrMax= 1.26D-02 EMaxC= 1.00D-01 BMatC= 5.19D-02 BMatP= 2.61D-01
 IDIUse=3 WtCom= 8.74D-01 WtEn= 1.26D-01
 Coeff-Com: -0.677D+00 0.168D+01
 Coeff-En:   0.000D+00 0.100D+01
 Coeff:     -0.591D+00 0.159D+01
 Gap=     0.188 Goal=   None    Shift=    0.000
 RMSDP=2.46D-03 MaxDP=1.85D-01 DE=-7.81D-02 OVMax= 2.47D-01

 Cycle   3  Pass 1  IDiag  1:
 RMSU=  1.56D-03    CP:  9.30D-01  1.35D+00
 E= -323.729274818065     Delta-E=       -0.125219649340 Rises=F Damp=F
 DIIS: error= 4.49D-03 at cycle   3 NSaved=   3.
 NSaved= 3 IEnMin= 3 EnMin= -323.729274818065     IErMin= 3 ErrMin= 4.49D-03
 ErrMax= 4.49D-03 EMaxC= 1.00D-01 BMatC= 9.39D-03 BMatP= 5.19D-02
 IDIUse=3 WtCom= 9.55D-01 WtEn= 4.49D-02
 Coeff-Com: -0.330D+00 0.803D+00 0.527D+00
 Coeff-En:   0.000D+00 0.000D+00 0.100D+01
 Coeff:     -0.315D+00 0.767D+00 0.548D+00
 Gap=     0.161 Goal=   None    Shift=    0.000
 RMSDP=7.85D-04 MaxDP=1.60D-02 DE=-1.25D-01 OVMax= 6.66D-02

 Cycle   4  Pass 1  IDiag  1:
 RMSU=  4.74D-04    CP:  9.30D-01  1.50D+00  8.61D-01
 E= -323.736156351938     Delta-E=       -0.006881533872 Rises=F Damp=F
 DIIS: error= 2.77D-03 at cycle   4 NSaved=   4.
 NSaved= 4 IEnMin= 4 EnMin= -323.736156351938     IErMin= 4 ErrMin= 2.77D-03
 ErrMax= 2.77D-03 EMaxC= 1.00D-01 BMatC= 2.06D-03 BMatP= 9.39D-03
 IDIUse=3 WtCom= 9.72D-01 WtEn= 2.77D-02
 Coeff-Com: -0.805D-01 0.171D+00 0.319D+00 0.590D+00
 Coeff-En:   0.000D+00 0.000D+00 0.173D+00 0.827D+00
 Coeff:     -0.783D-01 0.166D+00 0.315D+00 0.597D+00
 Gap=     0.165 Goal=   None    Shift=    0.000
 RMSDP=3.29D-04 MaxDP=1.38D-02 DE=-6.88D-03 OVMax= 2.30D-02

 Cycle   5  Pass 1  IDiag  1:
 RMSU=  1.32D-04    CP:  9.25D-01  1.46D+00  9.52D-01  7.76D-01
 E= -323.737663121686     Delta-E=       -0.001506769748 Rises=F Damp=F
 DIIS: error= 8.85D-04 at cycle   5 NSaved=   5.
 NSaved= 5 IEnMin= 5 EnMin= -323.737663121686     IErMin= 5 ErrMin= 8.85D-04
 ErrMax= 8.85D-04 EMaxC= 1.00D-01 BMatC= 1.91D-04 BMatP= 2.06D-03
 IDIUse=3 WtCom= 9.91D-01 WtEn= 8.85D-03
 Coeff-Com: -0.219D-01 0.405D-01 0.139D+00 0.343D+00 0.500D+00
 Coeff-En:   0.000D+00 0.000D+00 0.000D+00 0.790D-02 0.992D+00
 Coeff:     -0.217D-01 0.402D-01 0.138D+00 0.340D+00 0.504D+00
 Gap=     0.164 Goal=   None    Shift=    0.000
 RMSDP=9.83D-05 MaxDP=4.65D-03 DE=-1.51D-03 OVMax= 4.78D-03

 Cycle   6  Pass 1  IDiag  1:
 RMSU=  5.54D-05    CP:  9.23D-01  1.48D+00  9.60D-01  8.13D-01  8.84D-01
 E= -323.737819398377     Delta-E=       -0.000156276691 Rises=F Damp=F
 DIIS: error= 2.25D-04 at cycle   6 NSaved=   6.
 NSaved= 6 IEnMin= 6 EnMin= -323.737819398377     IErMin= 6 ErrMin= 2.25D-04
 ErrMax= 2.25D-04 EMaxC= 1.00D-01 BMatC= 8.96D-06 BMatP= 1.91D-04
 IDIUse=3 WtCom= 9.98D-01 WtEn= 2.25D-03
 Coeff-Com: -0.150D-02 0.713D-03 0.271D-01 0.852D-01 0.233D+00 0.656D+00
 Coeff-En:   0.000D+00 0.000D+00 0.000D+00 0.000D+00 0.000D+00 0.100D+01
 Coeff:     -0.150D-02 0.711D-03 0.271D-01 0.850D-01 0.232D+00 0.656D+00
 Gap=     0.164 Goal=   None    Shift=    0.000
 RMSDP=2.94D-05 MaxDP=7.29D-04 DE=-1.56D-04 OVMax= 6.17D-04

 Cycle   7  Pass 1  IDiag  1:
 RMSU=  1.74D-05    CP:  9.23D-01  1.48D+00  9.64D-01  8.08D-01  9.40D-01
                    CP:  9.03D-01
 E= -323.737826310651     Delta-E=       -0.000006912274 Rises=F Damp=F
 DIIS: error= 5.02D-05 at cycle   7 NSaved=   7.
 NSaved= 7 IEnMin= 7 EnMin= -323.737826310651     IErMin= 7 ErrMin= 5.02D-05
 ErrMax= 5.02D-05 EMaxC= 1.00D-01 BMatC= 7.82D-07 BMatP= 8.96D-06
 IDIUse=1 WtCom= 1.00D+00 WtEn= 0.00D+00
 Coeff-Com: -0.389D-04-0.868D-03 0.932D-02 0.323D-01 0.110D+00 0.351D+00
 Coeff-Com:  0.498D+00
 Coeff:     -0.389D-04-0.868D-03 0.932D-02 0.323D-01 0.110D+00 0.351D+00
 Coeff:      0.498D+00
 Gap=     0.164 Goal=   None    Shift=    0.000
 RMSDP=1.01D-05 MaxDP=3.77D-04 DE=-6.91D-06 OVMax= 2.28D-04

 Cycle   8  Pass 1  IDiag  1:
 RMSU=  4.77D-06    CP:  9.23D-01  1.48D+00  9.66D-01  8.09D-01  9.62D-01
                    CP:  9.19D-01  1.13D+00
 E= -323.737826843636     Delta-E=       -0.000000532985 Rises=F Damp=F
 DIIS: error= 1.70D-05 at cycle   8 NSaved=   8.
 NSaved= 8 IEnMin= 8 EnMin= -323.737826843636     IErMin= 8 ErrMin= 1.70D-05
 ErrMax= 1.70D-05 EMaxC= 1.00D-01 BMatC= 9.25D-08 BMatP= 7.82D-07
 IDIUse=1 WtCom= 1.00D+00 WtEn= 0.00D+00
 Coeff-Com:  0.301D-03-0.525D-03-0.996D-03-0.171D-02 0.880D-02 0.366D-01
 Coeff-Com:  0.261D+00 0.697D+00
 Coeff:      0.301D-03-0.525D-03-0.996D-03-0.171D-02 0.880D-02 0.366D-01
 Coeff:      0.261D+00 0.697D+00
 Gap=     0.164 Goal=   None    Shift=    0.000
 RMSDP=5.72D-06 MaxDP=2.63D-04 DE=-5.33D-07 OVMax= 7.86D-05

 Cycle   9  Pass 1  IDiag  1:
 RMSU=  1.46D-06    CP:  9.23D-01  1.48D+00  9.67D-01  8.09D-01  9.77D-01
                    CP:  9.37D-01  1.23D+00  1.13D+00
 E= -323.737826908239     Delta-E=       -0.000000064604 Rises=F Damp=F
 DIIS: error= 3.82D-06 at cycle   9 NSaved=   9.
 NSaved= 9 IEnMin= 9 EnMin= -323.737826908239     IErMin= 9 ErrMin= 3.82D-06
 ErrMax= 3.82D-06 EMaxC= 1.00D-01 BMatC= 6.06D-09 BMatP= 9.25D-08
 IDIUse=1 WtCom= 1.00D+00 WtEn= 0.00D+00
 Coeff-Com:  0.125D-03-0.199D-03-0.879D-03-0.216D-02-0.935D-03-0.148D-02
 Coeff-Com:  0.943D-01 0.322D+00 0.589D+00
 Coeff:      0.125D-03-0.199D-03-0.879D-03-0.216D-02-0.935D-03-0.148D-02
 Coeff:      0.943D-01 0.322D+00 0.589D+00
 Gap=     0.164 Goal=   None    Shift=    0.000
 RMSDP=1.21D-06 MaxDP=4.22D-05 DE=-6.46D-08 OVMax= 3.21D-05

 Cycle  10  Pass 1  IDiag  1:
 RMSU=  3.16D-07    CP:  9.23D-01  1.48D+00  9.67D-01  8.09D-01  9.80D-01
                    CP:  9.43D-01  1.26D+00  1.14D+00  9.40D-01
 E= -323.737826913404     Delta-E=       -0.000000005164 Rises=F Damp=F
 DIIS: error= 1.19D-06 at cycle  10 NSaved=  10.
 NSaved=10 IEnMin=10 EnMin= -323.737826913404     IErMin=10 ErrMin= 1.19D-06
 ErrMax= 1.19D-06 EMaxC= 1.00D-01 BMatC= 5.74D-10 BMatP= 6.06D-09
 IDIUse=1 WtCom= 1.00D+00 WtEn= 0.00D+00
 Coeff-Com:  0.723D-05-0.343D-05-0.373D-03-0.100D-02-0.187D-02-0.626D-02
 Coeff-Com:  0.133D-01 0.689D-01 0.257D+00 0.670D+00
 Coeff:      0.723D-05-0.343D-05-0.373D-03-0.100D-02-0.187D-02-0.626D-02
 Coeff:      0.133D-01 0.689D-01 0.257D+00 0.670D+00
 Gap=     0.164 Goal=   None    Shift=    0.000
 RMSDP=5.95D-07 MaxDP=2.18D-05 DE=-5.16D-09 OVMax= 9.89D-06

 Cycle  11  Pass 1  IDiag  1:
 RMSU=  1.18D-07    CP:  9.23D-01  1.48D+00  9.68D-01  8.09D-01  9.81D-01
                    CP:  9.44D-01  1.27D+00  1.17D+00  1.00D+00  1.01D+00
 E= -323.737826913938     Delta-E=       -0.000000000534 Rises=F Damp=F
 DIIS: error= 4.50D-07 at cycle  11 NSaved=  11.
 NSaved=11 IEnMin=11 EnMin= -323.737826913938     IErMin=11 ErrMin= 4.50D-07
 ErrMax= 4.50D-07 EMaxC= 1.00D-01 BMatC= 4.88D-11 BMatP= 5.74D-10
 IDIUse=1 WtCom= 1.00D+00 WtEn= 0.00D+00
 Coeff-Com: -0.107D-04 0.167D-04-0.834D-04-0.219D-03-0.663D-03-0.240D-02
 Coeff-Com: -0.267D-02 0.407D-03 0.504D-01 0.270D+00 0.685D+00
 Coeff:     -0.107D-04 0.167D-04-0.834D-04-0.219D-03-0.663D-03-0.240D-02
 Coeff:     -0.267D-02 0.407D-03 0.504D-01 0.270D+00 0.685D+00
 Gap=     0.164 Goal=   None    Shift=    0.000
 RMSDP=2.26D-07 MaxDP=8.80D-06 DE=-5.34D-10 OVMax= 4.59D-06

 Cycle  12  Pass 1  IDiag  1:
 RMSU=  3.43D-08    CP:  9.23D-01  1.48D+00  9.68D-01  8.09D-01  9.82D-01
                    CP:  9.45D-01  1.28D+00  1.18D+00  1.02D+00  1.07D+00
                    CP:  9.13D-01
 E= -323.737826913981     Delta-E=       -0.000000000043 Rises=F Damp=F
 DIIS: error= 1.93D-07 at cycle  12 NSaved=  12.
 NSaved=12 IEnMin=12 EnMin= -323.737826913981     IErMin=12 ErrMin= 1.93D-07
 ErrMax= 1.93D-07 EMaxC= 1.00D-01 BMatC= 1.17D-11 BMatP= 4.88D-11
 IDIUse=1 WtCom= 1.00D+00 WtEn= 0.00D+00
 Coeff-Com: -0.649D-05 0.901D-05-0.970D-05-0.131D-04-0.127D-03-0.506D-03
 Coeff-Com: -0.200D-02-0.495D-02 0.191D-03 0.616D-01 0.380D+00 0.566D+00
 Coeff:     -0.649D-05 0.901D-05-0.970D-05-0.131D-04-0.127D-03-0.506D-03
 Coeff:     -0.200D-02-0.495D-02 0.191D-03 0.616D-01 0.380D+00 0.566D+00
 Gap=     0.164 Goal=   None    Shift=    0.000
 RMSDP=4.51D-08 MaxDP=2.28D-06 DE=-4.31D-11 OVMax= 1.42D-06

 Cycle  13  Pass 1  IDiag  1:
 RMSU=  1.06D-08    CP:  9.23D-01  1.48D+00  9.68D-01  8.09D-01  9.82D-01
                    CP:  9.45D-01  1.28D+00  1.18D+00  1.03D+00  1.09D+00
                    CP:  9.51D-01  8.32D-01
 E= -323.737826913990     Delta-E=       -0.000000000010 Rises=F Damp=F
 DIIS: error= 2.77D-08 at cycle  13 NSaved=  13.
 NSaved=13 IEnMin=13 EnMin= -323.737826913990     IErMin=13 ErrMin= 2.77D-08
 ErrMax= 2.77D-08 EMaxC= 1.00D-01 BMatC= 2.38D-13 BMatP= 1.17D-11
 IDIUse=1 WtCom= 1.00D+00 WtEn= 0.00D+00
 Coeff-Com: -0.446D-06 0.685D-06 0.276D-05 0.135D-04 0.209D-04 0.515D-04
 Coeff-Com: -0.226D-03-0.115D-02-0.464D-02-0.185D-01 0.255D-01 0.927D-01
 Coeff-Com:  0.906D+00
 Coeff:     -0.446D-06 0.685D-06 0.276D-05 0.135D-04 0.209D-04 0.515D-04
 Coeff:     -0.226D-03-0.115D-02-0.464D-02-0.185D-01 0.255D-01 0.927D-01
 Coeff:      0.906D+00
 Gap=     0.164 Goal=   None    Shift=    0.000
 RMSDP=2.33D-08 MaxDP=8.89D-07 DE=-9.66D-12 OVMax= 5.08D-07

 Cycle  14  Pass 1  IDiag  1:
 RMSU=  2.40D-09    CP:  9.23D-01  1.48D+00  9.68D-01  8.09D-01  9.82D-01
                    CP:  9.45D-01  1.28D+00  1.18D+00  1.03D+00  1.10D+00
                    CP:  9.79D-01  8.83D-01  1.15D+00
 E= -323.737826913995     Delta-E=       -0.000000000005 Rises=F Damp=F
 DIIS: error= 4.51D-09 at cycle  14 NSaved=  14.
 NSaved=14 IEnMin=14 EnMin= -323.737826913995     IErMin=14 ErrMin= 4.51D-09
 ErrMax= 4.51D-09 EMaxC= 1.00D-01 BMatC= 1.06D-14 BMatP= 2.38D-13
 IDIUse=1 WtCom= 1.00D+00 WtEn= 0.00D+00
 Coeff-Com:  0.936D-07-0.108D-06 0.163D-06 0.252D-05 0.654D-05 0.205D-04
 Coeff-Com:  0.423D-04 0.628D-04-0.659D-03-0.513D-02-0.465D-02-0.775D-02
 Coeff-Com:  0.126D+00 0.892D+00
 Coeff:      0.936D-07-0.108D-06 0.163D-06 0.252D-05 0.654D-05 0.205D-04
 Coeff:      0.423D-04 0.628D-04-0.659D-03-0.513D-02-0.465D-02-0.775D-02
 Coeff:      0.126D+00 0.892D+00
 Gap=     0.164 Goal=   None    Shift=    0.000
 RMSDP=2.50D-09 MaxDP=1.00D-07 DE=-4.55D-12 OVMax= 8.15D-08

 Error on total polarization charges =  0.01325
 SCF Done:  E(RB3LYP) =  -323.737826914     A.U. after   14 cycles
             Convg  =    0.2501D-08             -V/T =  2.0030
 KE= 3.227661497014D+02 PE=-1.257501237187D+03 EE= 3.614359330250D+02
 Leave Link  502 at Tue Apr 19 12:01:12 2016, MaxMem=   33554432 cpu:     150.0
 (Enter c:\G09w01\l601.exe)
 Copying SCF densities to generalized density rwf, IOpCl= 0 IROHF=0.

 **********************************************************************

            Population analysis using the SCF density.

 **********************************************************************

 Alpha  occ. eigenvalues --  -19.20264 -19.17604 -14.30292 -10.32388 -10.17652
 Alpha  occ. eigenvalues --  -10.15721  -1.17010  -1.09546  -0.88470  -0.74613
 Alpha  occ. eigenvalues --   -0.68202  -0.63398  -0.56240  -0.51856  -0.48859
 Alpha  occ. eigenvalues --   -0.47921  -0.44228  -0.41984  -0.40709  -0.39549
 Alpha  occ. eigenvalues --   -0.37560  -0.36264  -0.25766  -0.20008
 Alpha virt. eigenvalues --   -0.03560  -0.00654   0.00622   0.01905   0.02344
 Alpha virt. eigenvalues --    0.04383   0.05099   0.05971   0.06635   0.07173
 Alpha virt. eigenvalues --    0.08912   0.09982   0.10506   0.11246   0.11871
 Alpha virt. eigenvalues --    0.12435   0.13043   0.13500   0.13858   0.15336
 Alpha virt. eigenvalues --    0.16586   0.16934   0.17542   0.18902   0.20282
 Alpha virt. eigenvalues --    0.20917   0.22825   0.23371   0.23660   0.24808
 Alpha virt. eigenvalues --    0.25857   0.26646   0.27249   0.27797   0.28826
 Alpha virt. eigenvalues --    0.30217   0.30775   0.31610   0.32196   0.34551
 Alpha virt. eigenvalues --    0.35689   0.36722   0.39701   0.43656   0.46277
 Alpha virt. eigenvalues --    0.47791   0.53621   0.54512   0.56549   0.57166
 Alpha virt. eigenvalues --    0.59862   0.61370   0.63586   0.66188   0.67001
 Alpha virt. eigenvalues --    0.67826   0.69449   0.71518   0.72738   0.75139
 Alpha virt. eigenvalues --    0.80315   0.81840   0.84744   0.89013   0.89647
 Alpha virt. eigenvalues --    0.95598   1.02824   1.06461   1.07208   1.09594
 Alpha virt. eigenvalues --    1.10353   1.11710   1.15408   1.18418   1.22971
 Alpha virt. eigenvalues --    1.26272   1.32217   1.36850   1.40165   1.42895
 Alpha virt. eigenvalues --    1.45494   1.47140   1.51767   1.52934   1.53349
 Alpha virt. eigenvalues --    1.55085   1.61213   1.61745   1.64366   1.66077
 Alpha virt. eigenvalues --    1.67988   1.71780   1.78561   1.82208   1.84632
 Alpha virt. eigenvalues --    1.85950   1.87417   1.92615   1.94956   2.00244
 Alpha virt. eigenvalues --    2.03323   2.10529   2.16871   2.19376   2.22320
 Alpha virt. eigenvalues --    2.29164   2.37832   2.40877   2.46722   2.50611
 Alpha virt. eigenvalues --    2.52762   2.54862   2.55772   2.60669   2.61042
 Alpha virt. eigenvalues --    2.65239   2.68031   2.70293   2.72337   2.81702
 Alpha virt. eigenvalues --    2.86262   2.93510   2.98686   2.99688   3.02183
 Alpha virt. eigenvalues --    3.07934   3.08395   3.14469   3.15546   3.23098
 Alpha virt. eigenvalues --    3.25025   3.26450   3.37085   3.47695   3.59070
 Alpha virt. eigenvalues --    3.73932   3.79006   3.80752   3.83062   3.86280
 Alpha virt. eigenvalues --    4.07913   4.13518   4.32291   4.72684   4.80476
 Alpha virt. eigenvalues --    4.96101   4.99479   5.29918   5.44367   5.59086
 Alpha virt. eigenvalues --    5.83613  23.68958  23.87164  23.97476  35.60255
 Alpha virt. eigenvalues --   49.84366  49.92487
          Condensed to atoms (all electrons):
              1          2          3          4          5          6
     1  N    6.597759   0.385029   0.196582  -0.000165  -0.078789  -0.128392
     2  H    0.385029   0.482196  -0.061447  -0.002462   0.000861   0.007713
     3  C    0.196582  -0.061447   6.869010   0.060558  -0.086251   0.080787
     4  H   -0.000165  -0.002462   0.060558   0.426968   0.010227  -0.036582
     5  C   -0.078789   0.000861  -0.086251   0.010227   5.424401   0.060802
     6  C   -0.128392   0.007713   0.080787  -0.036582   0.060802   5.434820
     7  H   -0.014941   0.004268  -0.064149  -0.000940   0.412013   0.015348
     8  H    0.018513  -0.000218  -0.056824  -0.000854   0.418169  -0.024992
     9  H    0.012644  -0.005109  -0.093102  -0.002438   0.439100  -0.030181
    10  O   -0.001842   0.007950  -0.344304   0.216943  -0.009919   0.308240
    11  H    0.418432  -0.073368  -0.134711   0.003369   0.029186  -0.013936
    12  O    0.012166  -0.002297  -0.194281   0.023094   0.026412   0.297153
    13  H   -0.000700   0.000057   0.026064  -0.003581   0.004625  -0.026234
              7          8          9         10         11         12
     1  N   -0.014941   0.018513   0.012644  -0.001842   0.418432   0.012166
     2  H    0.004268  -0.000218  -0.005109   0.007950  -0.073368  -0.002297
     3  C   -0.064149  -0.056824  -0.093102  -0.344304  -0.134711  -0.194281
     4  H   -0.000940  -0.000854  -0.002438   0.216943   0.003369   0.023094
     5  C    0.412013   0.418169   0.439100  -0.009919   0.029186   0.026412
     6  C    0.015348  -0.024992  -0.030181   0.308240  -0.013936   0.297153
     7  H    0.568459  -0.020256  -0.051846   0.003841  -0.004449   0.000501
     8  H   -0.020256   0.559927  -0.038108   0.001182  -0.003320  -0.006948
     9  H   -0.051846  -0.038108   0.617037  -0.009935   0.024624   0.004531
    10  O    0.003841   0.001182  -0.009935   8.108070  -0.011425  -0.115176
    11  H   -0.004449  -0.003320   0.024624  -0.011425   0.523538   0.009517
    12  O    0.000501  -0.006948   0.004531  -0.115176   0.009517   7.892618
    13  H    0.000366   0.000016  -0.000760   0.005494  -0.000709   0.245159
             13
     1  N   -0.000700
     2  H    0.000057
     3  C    0.026064
     4  H   -0.003581
     5  C    0.004625
     6  C   -0.026234
     7  H    0.000366
     8  H    0.000016
     9  H   -0.000760
    10  O    0.005494
    11  H   -0.000709
    12  O    0.245159
    13  H    0.423996
 Mulliken atomic charges:
              1
     1  N   -0.416297
     2  H    0.256826
     3  C   -0.197934
     4  H    0.305863
     5  C   -0.650838
     6  C    0.055453
     7  H    0.151785
     8  H    0.153713
     9  H    0.133542
    10  O   -0.159121
    11  H    0.233250
    12  O   -0.192448
    13  H    0.326207
 Sum of Mulliken atomic charges =   0.00000
 Mulliken charges with hydrogens summed into heavy atoms:
              1
     1  N    0.073778
     3  C   -0.197934
     5  C   -0.211797
     6  C    0.055453
    10  O    0.146742
    12  O    0.133759
 Sum of Mulliken charges with hydrogens summed into heavy atoms =   0.00000
 Electronic spatial extent (au):  <R**2>=            594.5050
 Charge=              0.0000 electrons
 Dipole moment (field-independent basis, Debye):
    X=              0.7333    Y=              1.6330    Z=              0.1606  Tot=              1.7973
 Quadrupole moment (field-independent basis, Debye-Ang):
   XX=            -28.6907   YY=            -41.8994   ZZ=            -37.3562
   XY=              4.8286   XZ=              0.2230   YZ=             -0.6704
 Traceless Quadrupole moment (field-independent basis, Debye-Ang):
   XX=              7.2914   YY=             -5.9173   ZZ=             -1.3741
   XY=              4.8286   XZ=              0.2230   YZ=             -0.6704
 Octapole moment (field-independent basis, Debye-Ang**2):
  XXX=             31.0020  YYY=              6.2603  ZZZ=             -9.5160  XYY=              6.1805
  XXY=              4.5304  XXZ=             -6.7933  XZZ=              5.5200  YZZ=             -0.2372
  YYZ=              3.2960  XYZ=              1.8545
 Hexadecapole moment (field-independent basis, Debye-Ang**3):
 XXXX=           -347.9678 YYYY=           -280.2716 ZZZZ=            -92.0942 XXXY=             49.6440
 XXXZ=             -6.5386 YYYX=             12.5741 YYYZ=            -11.9747 ZZZX=              7.9684
 ZZZY=             -4.6736 XXYY=           -106.8605 XXZZ=            -80.2216 YYZZ=            -59.7312
 XXYZ=             -0.3433 YYXZ=             -2.7063 ZZXY=              2.5394
 N-N= 2.495613275470D+02 E-N=-1.257501237650D+03  KE= 3.227661497014D+02
 No NMR shielding tensors so no spin-rotation constants.
 Leave Link  601 at Tue Apr 19 12:01:13 2016, MaxMem=   33554432 cpu:       0.0
 (Enter c:\G09w01\l701.exe)
 Compute integral first derivatives.
 ... and contract with generalized density number  0.
 D1PCM: C-PCM CHGder 1st derivatives, ID1Alg=3 FixD1E=F DoIter=F DoCFld=F I1PDM=0.
 GePol: Maximum number of non-zero 1st derivatives   =     198
 Leave Link  701 at Tue Apr 19 12:01:17 2016, MaxMem=   33554432 cpu:       4.0
 (Enter c:\G09w01\l702.exe)
 L702 exits ... SP integral derivatives will be done elsewhere.
 Leave Link  702 at Tue Apr 19 12:01:17 2016, MaxMem=   33554432 cpu:       0.0
 (Enter c:\G09w01\l703.exe)
 Compute integral first derivatives, UseDBF=F ICtDFT=           0.
 Integral derivatives from FoFDir, PRISM(SPDF).
 Calling FoFJK, ICntrl=      2127 FMM=F ISym2X=0 I1Cent= 0 IOpClX= 0 NMat=1 NMatS=1 NMatT=0.
 FoFCou: FMM=F IPFlag=           0 FMFlag=      100000 FMFlg1=         800
         NFxFlg=           0 DoJE=F BraDBF=F KetDBF=F FulRan=T
         Omega=  0.000000  0.000000  1.000000  0.000000  0.000000 ICntrl=    2127 IOpCl=  0
         NMat0=    1 NMatS0=    1 NMatT0=    0 NMatD0=    1 NMtDS0=    0 NMtDT0=    0
         I1Cent=           0 NGrid=           0.
 Symmetry not used in FoFCou.
 Leave Link  703 at Tue Apr 19 12:01:51 2016, MaxMem=   33554432 cpu:      34.0
 (Enter c:\G09w01\l716.exe)
 Dipole        = 2.88499064D-01 6.42466608D-01 6.31691648D-02
 -------------------------------------------------------------------
 Center     Atomic                   Forces (Hartrees/Bohr)
 Number     Number              X              Y              Z
 -------------------------------------------------------------------
      1        7           0.001712103   -0.004972150    0.013453766
      2        1          -0.001706395   -0.001188343   -0.000898474
      3        6           0.007946931    0.028027579   -0.025191614
      4        1          -0.015314223   -0.057848622    0.049986818
      5        6           0.002121556   -0.000401455   -0.005788217
      6        6          -0.044662172    0.048015889   -0.025474779
      7        1          -0.000325783   -0.000345342    0.000417178
      8        1           0.000097147    0.000009554    0.000114227
      9        1          -0.001763675    0.001803033   -0.000029506
     10        8           0.043211423   -0.019141154   -0.011467443
     11        1           0.001337140    0.000677160    0.000607076
     12        8           0.006877893    0.003088870    0.002933459
     13        1           0.000468054    0.002274981    0.001337508
 -------------------------------------------------------------------
 Cartesian Forces:  Max     0.057848622 RMS     0.019749254
 Leave Link  716 at Tue Apr 19 12:01:52 2016, MaxMem=   33554432 cpu:       0.0
 (Enter c:\G09w01\l103.exe)

 GradGradGradGradGradGradGradGradGradGradGradGradGradGradGradGradGradGrad
 Berny optimization.
 Internal  Forces:  Max     0.065299502 RMS     0.015146839
 Search for a local minimum.
 Step number   1 out of a maximum of   58
 All quantities printed in internal units (Hartrees-Bohrs-Radians)
 RMS Force = .15147D-01 SwitMx=.10000D-02 MixMth= 1
 Mixed Optimization -- RFO/linear search
 Second derivative matrix not updated -- first step.
 ITU=  0
     Eigenvalues ---    0.00576   0.00851   0.01600   0.01866   0.02341
     Eigenvalues ---    0.02828   0.03131   0.05354   0.06904   0.07219
     Eigenvalues ---    0.14363   0.16000   0.16000   0.16000   0.16000
     Eigenvalues ---    0.16000   0.16000   0.21341   0.21664   0.24886
     Eigenvalues ---    0.24943   0.30913   0.33616   0.34358   0.34415
     Eigenvalues ---    0.36524   0.40010   0.44360   0.45382   0.48763
     Eigenvalues ---    0.53080   0.63415   0.63812
 RFO step:  Lambda=-4.77810834D-02 EMin= 5.75521208D-03
 Linear search not attempted -- first point.
 Maximum step size (   0.300) exceeded in Quadratic search.
    -- Step size scaled by   0.723
 Iteration  1 RMS(Cart)=  0.09216856 RMS(Int)=  0.00795597
 Iteration  2 RMS(Cart)=  0.01448179 RMS(Int)=  0.00053736
 Iteration  3 RMS(Cart)=  0.00021624 RMS(Int)=  0.00045601
 Iteration  4 RMS(Cart)=  0.00000011 RMS(Int)=  0.00045601
 Variable       Old X    -DE/DX   Delta X   Delta X   Delta X     New X
                                 (Linear)    (Quad)   (Total)
    R1        1.91535   0.00128   0.00000   0.00185   0.00185   1.91719
    R2        2.76570  -0.00331   0.00000  -0.00579  -0.00579   2.75992
    R3        1.92726  -0.00082   0.00000  -0.00121  -0.00121   1.92605
    R4        2.86179   0.00037   0.00000   0.00074   0.00074   2.86253
    R5        2.71540  -0.01334   0.00000  -0.02154  -0.02154   2.69386
    R6        2.67927   0.06530   0.00000   0.22417   0.22375   2.90303
    R7        1.85193   0.00707   0.00000   0.01383   0.01405   1.86598
    R8        2.06731   0.00054   0.00000   0.00100   0.00100   2.06831
    R9        2.06635   0.00011   0.00000   0.00021   0.00021   2.06655
   R10        2.07983   0.00117   0.00000   0.00220   0.00220   2.08203
   R11        2.44004   0.04034   0.00000   0.04481   0.04512   2.48516
   R12        2.48336   0.00622   0.00000   0.00660   0.00660   2.48996
   R13        1.83579   0.00052   0.00000   0.00065   0.00065   1.83644
    A1        1.93197   0.00321   0.00000   0.01142   0.01143   1.94340
    A2        1.86718  -0.00023   0.00000  -0.00033  -0.00031   1.86687
    A3        1.93438  -0.00238   0.00000  -0.00806  -0.00805   1.92634
    A4        2.03691   0.00288   0.00000   0.01277   0.01263   2.04954
    A5        1.96530   0.00259   0.00000   0.01280   0.01266   1.97797
    A6        2.07331  -0.00368   0.00000  -0.00501  -0.00528   2.06804
    A7        1.91672  -0.00110   0.00000  -0.00460  -0.00461   1.91211
    A8        1.95645  -0.00062   0.00000  -0.00223  -0.00224   1.95421
    A9        1.95498   0.00346   0.00000   0.01290   0.01290   1.96788
   A10        1.87801   0.00009   0.00000  -0.00135  -0.00137   1.87664
   A11        1.87019  -0.00107   0.00000  -0.00351  -0.00350   1.86669
   A12        1.88383  -0.00090   0.00000  -0.00174  -0.00176   1.88207
   A13        1.95560   0.05074   0.00000   0.12496   0.12464   2.08024
   A14        2.20313  -0.02184   0.00000  -0.05160  -0.05204   2.15109
   A15        2.11677  -0.02829   0.00000  -0.06721  -0.06767   2.04910
   A16        1.32433   0.01959   0.00000   0.11276   0.11341   1.43774
   A17        1.93133   0.00259   0.00000   0.00902   0.00902   1.94035
    D1       -1.27673   0.00102   0.00000   0.02036   0.02050  -1.25623
    D2        2.51919   0.00003   0.00000  -0.00553  -0.00565   2.51353
    D3        0.79218   0.00126   0.00000   0.02211   0.02224   0.81442
    D4       -1.69509   0.00027   0.00000  -0.00377  -0.00392  -1.69900
    D5        1.09690  -0.00125   0.00000  -0.01244  -0.01243   1.08447
    D6       -3.09967  -0.00227   0.00000  -0.01867  -0.01864  -3.11831
    D7       -0.97897  -0.00139   0.00000  -0.01320  -0.01316  -0.99213
    D8       -2.74067   0.00242   0.00000   0.02250   0.02247  -2.71820
    D9       -0.65406   0.00140   0.00000   0.01628   0.01625  -0.63780
   D10        1.46665   0.00228   0.00000   0.02175   0.02173   1.48838
   D11       -1.17914   0.01404   0.00000   0.15822   0.15884  -1.02030
   D12        2.09488   0.01029   0.00000   0.10882   0.10813   2.20301
   D13        2.63170   0.01028   0.00000   0.12427   0.12495   2.75665
   D14       -0.37747   0.00652   0.00000   0.07486   0.07424  -0.30322
   D15       -0.24567  -0.00270   0.00000  -0.03131  -0.03182  -0.27749
   D16        2.77097   0.00099   0.00000   0.01566   0.01616   2.78714
   D17        2.85448   0.00287   0.00000   0.01535   0.01357   2.86804
   D18       -0.14342  -0.00668   0.00000  -0.05155  -0.04977  -0.19320
         Item               Value     Threshold  Converged?
 Maximum Force            0.065300     0.000450     NO 
 RMS     Force            0.015147     0.000300     NO 
 Maximum Displacement     0.420102     0.001800     NO 
 RMS     Displacement     0.104533     0.001200     NO 
 Predicted change in Energy=-2.572688D-02
 GradGradGradGradGradGradGradGradGradGradGradGradGradGradGradGradGradGrad

 Leave Link  103 at Tue Apr 19 12:01:52 2016, MaxMem=   33554432 cpu:       0.0
 (Enter c:\G09w01\l202.exe)
                          Input orientation:                          
 ---------------------------------------------------------------------
 Center     Atomic      Atomic             Coordinates (Angstroms)
 Number     Number       Type             X           Y           Z
 ---------------------------------------------------------------------
      1          7           0       -1.415300   -1.206722   -0.437390
      2          1           0       -2.181938   -1.595263    0.101668
      3          6           0       -0.775676   -0.100116    0.269238
      4          1           0        0.555776   -1.330347    0.909118
      5          6           0       -1.543359    1.202060    0.367121
      6          6           0        0.635070   -0.044612    0.072127
      7          1           0       -2.470638    1.039600    0.925419
      8          1           0       -0.973952    1.974176    0.892015
      9          1           0       -1.827964    1.604008   -0.618437
     10          8           0        1.371377   -1.079880    0.412037
     11          1           0       -1.806829   -0.884171   -1.321403
     12          8           0        1.262988    1.032060   -0.355239
     13          1           0        2.219519    0.966775   -0.196535
 ---------------------------------------------------------------------
                    Distance matrix (angstroms):
                    1          2          3          4          5
     1  N    0.000000
     2  H    1.014535   0.000000
     3  C    1.460486   2.059398   0.000000
     4  H    2.390295   2.866572   1.922415   0.000000
     5  C    2.542807   2.881539   1.514787   3.333649   0.000000
     6  C    2.411250   3.215732   1.425531   1.536215   2.527205
     7  H    2.831421   2.775683   2.145325   3.843969   1.094502
     8  H    3.475661   3.850296   2.174822   3.641461   1.093573
     9  H    2.846624   3.298361   2.190733   4.077509   1.101765
    10  O    2.916022   3.603886   2.364353   0.987435   3.702020
    11  H    1.019222   1.634470   2.051380   3.279665   2.696830
    12  O    3.491722   4.356502   2.414114   2.771230   2.902807
    13  H    4.241935   5.101548   3.213471   3.044221   3.812128
                    6          7          8          9         10
     6  C    0.000000
     7  H    3.398388   0.000000
     8  H    2.708630   1.764827   0.000000
     9  H    3.043248   1.764958   1.774211   0.000000
    10  O    1.315092   4.417786   3.880490   4.301268   0.000000
    11  H    2.934222   3.031460   3.709859   2.585661   3.625481
    12  O    1.317628   3.947164   2.728943   3.154422   2.249611
    13  H    1.898832   4.823034   3.521088   4.119002   2.297499
                   11         12         13
    11  H    0.000000
    12  O    3.745556   0.000000
    13  H    4.571959   0.971803   0.000000
 Symmetry turned off by external request.
 Stoichiometry    C3H7NO2
 Framework group  C1[X(C3H7NO2)]
 Deg. of freedom    33
 Full point group                 C1      NOp   1
 Rotational constants (GHZ):      4.9774961      3.1115365      2.1497095
 Leave Link  202 at Tue Apr 19 12:01:52 2016, MaxMem=   33554432 cpu:       0.0
 (Enter c:\G09w01\l301.exe)
 Standard basis: 6-311++G(d,p) (5D, 7F)
 Ernie: Thresh=  0.10000D-02 Tol=  0.10000D-05 Strict=F.
 Integral buffers will be    262144 words long.
 Raffenetti 2 integral format.
 Two-electron integral symmetry is turned off.
   181 basis functions,   279 primitive gaussians,   187 cartesian basis functions
    24 alpha electrons       24 beta electrons
       nuclear repulsion energy       248.2673989502 Hartrees.
 IExCor=  402 DFT=T Ex+Corr=B3LYP ExCW=0 ScaHFX=  0.200000
 ScaDFX=  0.800000  0.720000  1.000000  0.810000 ScalE2=  1.000000  1.000000
 IRadAn=      0 IRanWt=     -1 IRanGd=            0 ICorTp=0
 NAtoms=   13 NActive=   13 NUniq=   13 SFac= 1.00D+00 NAtFMM=   50 NAOKFM=F Big=F
 ------------------------------------------------------------------------------
 Polarizable Continuum Model (PCM)
 =================================
 Model                : C-PCM.
 Atomic radii         : UFF (Universal Force Field).
 Polarization charges : Total charges.
 Charge compensation  : None.
 Solution method      : Matrix inversion.
 Cavity type          : Scaled VdW (van der Waals Surface) (Alpha=1.100).
 Cavity algorithm     : GePol (No added spheres)
                        Default sphere list used, NSphG=   13.
                        Lebedev-Laikov grids with approx.  5.0 points / Ang**2.
                        Smoothing algorithm: Karplus/York (Gamma=1.0000).
                        Polarization charges: spherical gaussians, with
                                              point-specific exponents (IZeta= 3).
                        Self-potential: point-specific (ISelfS= 7).
                        Self-field    : sphere-specific E.n sum rule (ISelfD= 2).
 1st derivatives      : Analytical E(r).r(x)/FMM algorithm (CHGder, D1EAlg=3).
                        Cavity 1st derivative terms included.
 Solvent              : Water, Eps=  78.355300 Eps(inf)=   1.777849
 ------------------------------------------------------------------------------
 Spheres list:
 ISph  on   Nord    Re0     Alpha      Xe            Ye            Ze
    1   N      1    1.830   1.100     -1.415300     -1.206722     -0.437390
    2   H      2    1.443   1.100     -2.181938     -1.595263      0.101668
    3   C      3    1.926   1.100     -0.775676     -0.100116      0.269238
    4   H      4    1.443   1.100      0.555776     -1.330347      0.909118
    5   C      5    1.926   1.100     -1.543359      1.202060      0.367121
    6   C      6    1.926   1.100      0.635070     -0.044612      0.072127
    7   H      7    1.443   1.100     -2.470638      1.039600      0.925419
    8   H      8    1.443   1.100     -0.973952      1.974176      0.892015
    9   H      9    1.443   1.100     -1.827964      1.604008     -0.618437
   10   O     10    1.750   1.100      1.371377     -1.079880      0.412037
   11   H     11    1.443   1.100     -1.806829     -0.884171     -1.321403
   12   O     12    1.750   1.100      1.262988      1.032060     -0.355239
   13   H     13    1.443   1.100      2.219519      0.966775     -0.196535
 ------------------------------------------------------------------------------
 GePol: Number of generator spheres                  =      13
 GePol: Total number of spheres                      =      13
 GePol: Number of exposed spheres                    =      13 (100.00%)
 GePol: Number of points                             =    1118
 GePol: Average weight of points                     =       0.13
 GePol: Minimum weight of points                     =   0.44D-08
 GePol: Maximum weight of points                     =    0.20577
 GePol: Number of points with low weight             =      57
 GePol: Fraction of low-weight points (<1% of avg)   =       5.10%
 GePol: Cavity surface area                          =    150.576 Ang**2
 GePol: Cavity volume                                =    137.825 Ang**3
 Leave Link  301 at Tue Apr 19 12:01:52 2016, MaxMem=   33554432 cpu:       0.0
 (Enter c:\G09w01\l302.exe)
 NPDir=0 NMtPBC=     1 NCelOv=     1 NCel=       1 NClECP=     1 NCelD=      1
         NCelK=      1 NCelE2=     1 NClLst=     1 CellRange=     0.0.
 One-electron integrals computed using PRISM.
 NBasis=   181 RedAO= T  NBF=   181
 NBsUse=   181 1.00D-06 NBFU=   181
 Precomputing XC quadrature grid using
 IXCGrd= 2 IRadAn=           0 IRanWt=          -1 IRanGd=           0 AccXCQ= 0.00D+00.
 NRdTot=     842 NPtTot=      107058 NUsed=      110990 NTot=      111006
 NSgBfM=   187   187   187   187   187 NAtAll=    13    13.
 Leave Link  302 at Tue Apr 19 12:01:52 2016, MaxMem=   33554432 cpu:       0.0
 (Enter c:\G09w01\l303.exe)
 DipDrv:  MaxL=1.
 Leave Link  303 at Tue Apr 19 12:01:52 2016, MaxMem=   33554432 cpu:       0.0
 (Enter c:\G09w01\l401.exe)
 Initial guess read from the read-write file.
 B after Tr=     0.000000    0.000000    0.000000
         Rot=    1.000000    0.000000    0.000000    0.000000 Ang=   0.00 deg.
 Guess basis will be translated and rotated to current coordinates.
 Generating alternative initial guess.
 Harris functional with IExCor=  402 diagonalized for initial guess.
 ExpMin= 3.60D-02 ExpMax= 8.59D+03 ExpMxC= 1.30D+03 IAcc=3 IRadAn=         0 AccDes= 0.00D+00
 HarFok:  IExCor=  402 AccDes= 0.00D+00 IRadAn=         0 IDoV= 1
 ScaDFX=  1.000000  1.000000  1.000000  1.000000
 FoFCou: FMM=F IPFlag=           0 FMFlag=      100000 FMFlg1=           0
         NFxFlg=           0 DoJE=T BraDBF=F KetDBF=T FulRan=T
         Omega=  0.000000  0.000000  1.000000  0.000000  0.000000 ICntrl=     500 IOpCl=  0
         NMat0=    1 NMatS0=    1 NMatT0=    0 NMatD0=    1 NMtDS0=    0 NMtDT0=    0
         I1Cent=           4 NGrid=           0.
 Symmetry not used in FoFCou.
 Harris En= -323.787567242179    
 Leave Link  401 at Tue Apr 19 12:01:57 2016, MaxMem=   33554432 cpu:       5.0
 (Enter c:\G09w01\l502.exe)
 Closed shell SCF:
 Requested convergence on RMS density matrix=1.00D-08 within 128 cycles.
 Requested convergence on MAX density matrix=1.00D-06.
 Requested convergence on             energy=1.00D-06.
 No special actions if energy rises.
 Using DIIS extrapolation, IDIIS=  1040.
 Two-electron integral symmetry not used.
       110873 words used for storage of precomputed grid.
 IEnd=      236079 IEndB=      236079 NGot=    33554432 MDV=    33370150
 LenX=    33370150 LenY=    33334740
 Fock matrices will be formed incrementally for  20 cycles.

 Cycle   1  Pass 1  IDiag  1:
 FoFCou: FMM=F IPFlag=           0 FMFlag=      100000 FMFlg1=           0
         NFxFlg=           0 DoJE=F BraDBF=F KetDBF=F FulRan=T
         Omega=  0.000000  0.000000  1.000000  0.000000  0.000000 ICntrl=       0 IOpCl=  0
         NMat0=    1 NMatS0=    1 NMatT0=    0 NMatD0=    1 NMtDS0=    0 NMtDT0=    0
         I1Cent=           0 NGrid=           0.
 Symmetry not used in FoFCou.
 E= -323.744252079708    
 DIIS: error= 5.96D-03 at cycle   1 NSaved=   1.
 NSaved= 1 IEnMin= 1 EnMin= -323.744252079708     IErMin= 1 ErrMin= 5.96D-03
 ErrMax= 5.96D-03 EMaxC= 1.00D-01 BMatC= 1.57D-02 BMatP= 1.57D-02
 IDIUse=3 WtCom= 9.40D-01 WtEn= 5.96D-02
 Coeff-Com:  0.100D+01
 Coeff-En:   0.100D+01
 Coeff:      0.100D+01
 Gap=     0.189 Goal=   None    Shift=    0.000
 GapD=    0.189 DampG=1.000 DampE=1.000 DampFc=1.0000 IDamp=-1.
 RMSDP=2.76D-03 MaxDP=1.05D-01              OVMax= 7.40D-02

 Cycle   2  Pass 1  IDiag  1:
 RMSU=  1.95D-03    CP:  1.01D+00
 E= -323.766116095325     Delta-E=       -0.021864015617 Rises=F Damp=F
 DIIS: error= 1.66D-03 at cycle   2 NSaved=   2.
 NSaved= 2 IEnMin= 2 EnMin= -323.766116095325     IErMin= 2 ErrMin= 1.66D-03
 ErrMax= 1.66D-03 EMaxC= 1.00D-01 BMatC= 1.04D-03 BMatP= 1.57D-02
 IDIUse=3 WtCom= 9.83D-01 WtEn= 1.66D-02
 Coeff-Com:  0.174D-01 0.983D+00
 Coeff-En:   0.000D+00 0.100D+01
 Coeff:      0.172D-01 0.983D+00
 Gap=     0.177 Goal=   None    Shift=    0.000
 RMSDP=5.05D-04 MaxDP=9.23D-03 DE=-2.19D-02 OVMax= 3.66D-02

 Cycle   3  Pass 1  IDiag  1:
 RMSU=  3.53D-04    CP:  1.01D+00  9.73D-01
 E= -323.764501625100     Delta-E=        0.001614470225 Rises=F Damp=F
 DIIS: error= 2.74D-03 at cycle   3 NSaved=   3.
 NSaved= 3 IEnMin= 2 EnMin= -323.766116095325     IErMin= 2 ErrMin= 1.66D-03
 ErrMax= 2.74D-03 EMaxC= 1.00D-01 BMatC= 2.95D-03 BMatP= 1.04D-03
 IDIUse=3 WtCom= 1.60D-01 WtEn= 8.40D-01
 Coeff-Com: -0.381D-01 0.660D+00 0.378D+00
 Coeff-En:   0.000D+00 0.702D+00 0.298D+00
 Coeff:     -0.612D-02 0.696D+00 0.311D+00
 Gap=     0.173 Goal=   None    Shift=    0.000
 RMSDP=2.93D-04 MaxDP=6.77D-03 DE= 1.61D-03 OVMax= 2.42D-02

 Cycle   4  Pass 1  IDiag  1:
 RMSU=  8.56D-05    CP:  1.01D+00  1.01D+00  5.11D-01
 E= -323.767086237881     Delta-E=       -0.002584612781 Rises=F Damp=F
 DIIS: error= 2.80D-04 at cycle   4 NSaved=   4.
 NSaved= 4 IEnMin= 4 EnMin= -323.767086237881     IErMin= 4 ErrMin= 2.80D-04
 ErrMax= 2.80D-04 EMaxC= 1.00D-01 BMatC= 3.48D-05 BMatP= 1.04D-03
 IDIUse=3 WtCom= 9.97D-01 WtEn= 2.80D-03
 Coeff-Com: -0.128D-01 0.165D+00 0.113D-01 0.837D+00
 Coeff-En:   0.000D+00 0.000D+00 0.000D+00 0.100D+01
 Coeff:     -0.128D-01 0.164D+00 0.113D-01 0.837D+00
 Gap=     0.172 Goal=   None    Shift=    0.000
 RMSDP=8.83D-05 MaxDP=3.77D-03 DE=-2.58D-03 OVMax= 3.99D-03

 Cycle   5  Pass 1  IDiag  1:
 RMSU=  3.93D-05    CP:  1.01D+00  1.03D+00  4.50D-01  1.19D+00
 E= -323.767118792449     Delta-E=       -0.000032554568 Rises=F Damp=F
 DIIS: error= 1.05D-04 at cycle   5 NSaved=   5.
 NSaved= 5 IEnMin= 5 EnMin= -323.767118792449     IErMin= 5 ErrMin= 1.05D-04
 ErrMax= 1.05D-04 EMaxC= 1.00D-01 BMatC= 3.47D-06 BMatP= 3.48D-05
 IDIUse=3 WtCom= 9.99D-01 WtEn= 1.05D-03
 Coeff-Com: -0.349D-02 0.355D-01-0.162D-01 0.418D+00 0.566D+00
 Coeff-En:   0.000D+00 0.000D+00 0.000D+00 0.000D+00 0.100D+01
 Coeff:     -0.348D-02 0.354D-01-0.162D-01 0.417D+00 0.567D+00
 Gap=     0.172 Goal=   None    Shift=    0.000
 RMSDP=1.59D-05 MaxDP=6.34D-04 DE=-3.26D-05 OVMax= 5.98D-04

 Cycle   6  Pass 1  IDiag  1:
 RMSU=  8.09D-06    CP:  1.01D+00  1.03D+00  4.53D-01  1.25D+00  1.10D+00
 E= -323.767121014734     Delta-E=       -0.000002222285 Rises=F Damp=F
 DIIS: error= 4.72D-05 at cycle   6 NSaved=   6.
 NSaved= 6 IEnMin= 6 EnMin= -323.767121014734     IErMin= 6 ErrMin= 4.72D-05
 ErrMax= 4.72D-05 EMaxC= 1.00D-01 BMatC= 4.96D-07 BMatP= 3.47D-06
 IDIUse=1 WtCom= 1.00D+00 WtEn= 0.00D+00
 Coeff-Com:  0.554D-03-0.149D-01-0.841D-02 0.554D-01 0.295D+00 0.672D+00
 Coeff:      0.554D-03-0.149D-01-0.841D-02 0.554D-01 0.295D+00 0.672D+00
 Gap=     0.172 Goal=   None    Shift=    0.000
 RMSDP=8.72D-06 MaxDP=4.36D-04 DE=-2.22D-06 OVMax= 2.62D-04

 Cycle   7  Pass 1  IDiag  1:
 RMSU=  3.19D-06    CP:  1.01D+00  1.04D+00  4.59D-01  1.29D+00  1.16D+00
                    CP:  1.02D+00
 E= -323.767121415691     Delta-E=       -0.000000400957 Rises=F Damp=F
 DIIS: error= 1.13D-05 at cycle   7 NSaved=   7.
 NSaved= 7 IEnMin= 7 EnMin= -323.767121415691     IErMin= 7 ErrMin= 1.13D-05
 ErrMax= 1.13D-05 EMaxC= 1.00D-01 BMatC= 4.06D-08 BMatP= 4.96D-07
 IDIUse=1 WtCom= 1.00D+00 WtEn= 0.00D+00
 Coeff-Com:  0.484D-03-0.966D-02-0.240D-02 0.318D-02 0.111D+00 0.315D+00
 Coeff-Com:  0.582D+00
 Coeff:      0.484D-03-0.966D-02-0.240D-02 0.318D-02 0.111D+00 0.315D+00
 Coeff:      0.582D+00
 Gap=     0.172 Goal=   None    Shift=    0.000
 RMSDP=4.19D-06 MaxDP=2.54D-04 DE=-4.01D-07 OVMax= 1.05D-04

 Cycle   8  Pass 1  IDiag  1:
 RMSU=  1.08D-06    CP:  1.01D+00  1.04D+00  4.59D-01  1.30D+00  1.21D+00
                    CP:  1.11D+00  1.16D+00
 E= -323.767121443855     Delta-E=       -0.000000028163 Rises=F Damp=F
 DIIS: error= 3.97D-06 at cycle   8 NSaved=   8.
 NSaved= 8 IEnMin= 8 EnMin= -323.767121443855     IErMin= 8 ErrMin= 3.97D-06
 ErrMax= 3.97D-06 EMaxC= 1.00D-01 BMatC= 7.95D-09 BMatP= 4.06D-08
 IDIUse=1 WtCom= 1.00D+00 WtEn= 0.00D+00
 Coeff-Com:  0.192D-03-0.307D-02 0.730D-03-0.112D-01 0.730D-02 0.489D-01
 Coeff-Com:  0.320D+00 0.637D+00
 Coeff:      0.192D-03-0.307D-02 0.730D-03-0.112D-01 0.730D-02 0.489D-01
 Coeff:      0.320D+00 0.637D+00
 Gap=     0.172 Goal=   None    Shift=    0.000
 RMSDP=1.61D-06 MaxDP=1.03D-04 DE=-2.82D-08 OVMax= 4.19D-05

 Cycle   9  Pass 1  IDiag  1:
 RMSU=  3.46D-07    CP:  1.01D+00  1.04D+00  4.60D-01  1.31D+00  1.22D+00
                    CP:  1.14D+00  1.27D+00  1.07D+00
 E= -323.767121451260     Delta-E=       -0.000000007405 Rises=F Damp=F
 DIIS: error= 1.13D-06 at cycle   9 NSaved=   9.
 NSaved= 9 IEnMin= 9 EnMin= -323.767121451260     IErMin= 9 ErrMin= 1.13D-06
 ErrMax= 1.13D-06 EMaxC= 1.00D-01 BMatC= 4.51D-10 BMatP= 7.95D-09
 IDIUse=1 WtCom= 1.00D+00 WtEn= 0.00D+00
 Coeff-Com:  0.415D-04-0.435D-03 0.589D-03-0.422D-02-0.457D-02-0.338D-02
 Coeff-Com:  0.982D-01 0.286D+00 0.628D+00
 Coeff:      0.415D-04-0.435D-03 0.589D-03-0.422D-02-0.457D-02-0.338D-02
 Coeff:      0.982D-01 0.286D+00 0.628D+00
 Gap=     0.172 Goal=   None    Shift=    0.000
 RMSDP=4.40D-07 MaxDP=3.15D-05 DE=-7.41D-09 OVMax= 1.44D-05

 Cycle  10  Pass 1  IDiag  1:
 RMSU=  1.01D-07    CP:  1.01D+00  1.04D+00  4.60D-01  1.31D+00  1.23D+00
                    CP:  1.16D+00  1.30D+00  1.13D+00  9.65D-01
 E= -323.767121451619     Delta-E=       -0.000000000359 Rises=F Damp=F
 DIIS: error= 4.44D-07 at cycle  10 NSaved=  10.
 NSaved=10 IEnMin=10 EnMin= -323.767121451619     IErMin=10 ErrMin= 4.44D-07
 ErrMax= 4.44D-07 EMaxC= 1.00D-01 BMatC= 7.74D-11 BMatP= 4.51D-10
 IDIUse=1 WtCom= 1.00D+00 WtEn= 0.00D+00
 Coeff-Com: -0.818D-05 0.273D-03 0.239D-03-0.852D-03-0.476D-02-0.114D-01
 Coeff-Com:  0.106D-02 0.437D-01 0.327D+00 0.645D+00
 Coeff:     -0.818D-05 0.273D-03 0.239D-03-0.852D-03-0.476D-02-0.114D-01
 Coeff:      0.106D-02 0.437D-01 0.327D+00 0.645D+00
 Gap=     0.172 Goal=   None    Shift=    0.000
 RMSDP=2.28D-07 MaxDP=1.43D-05 DE=-3.59D-10 OVMax= 3.14D-06

 Cycle  11  Pass 1  IDiag  1:
 RMSU=  3.26D-08    CP:  1.01D+00  1.04D+00  4.60D-01  1.31D+00  1.23D+00
                    CP:  1.16D+00  1.32D+00  1.16D+00  1.04D+00  9.15D-01
 E= -323.767121451690     Delta-E=       -0.000000000071 Rises=F Damp=F
 DIIS: error= 6.48D-08 at cycle  11 NSaved=  11.
 NSaved=11 IEnMin=11 EnMin= -323.767121451690     IErMin=11 ErrMin= 6.48D-08
 ErrMax= 6.48D-08 EMaxC= 1.00D-01 BMatC= 6.52D-13 BMatP= 7.74D-11
 IDIUse=1 WtCom= 1.00D+00 WtEn= 0.00D+00
 Coeff-Com: -0.276D-05 0.620D-04 0.223D-04-0.367D-04-0.846D-03-0.196D-02
 Coeff-Com: -0.182D-02 0.606D-03 0.493D-01 0.123D+00 0.832D+00
 Coeff:     -0.276D-05 0.620D-04 0.223D-04-0.367D-04-0.846D-03-0.196D-02
 Coeff:     -0.182D-02 0.606D-03 0.493D-01 0.123D+00 0.832D+00
 Gap=     0.172 Goal=   None    Shift=    0.000
 RMSDP=3.81D-08 MaxDP=2.84D-06 DE=-7.14D-11 OVMax= 6.12D-07

 Cycle  12  Pass 1  IDiag  1:
 RMSU=  6.63D-09    CP:  1.01D+00  1.04D+00  4.60D-01  1.31D+00  1.23D+00
                    CP:  1.16D+00  1.32D+00  1.17D+00  1.06D+00  9.63D-01
                    CP:  1.03D+00
 E= -323.767121451687     Delta-E=        0.000000000004 Rises=F Damp=F
 DIIS: error= 2.98D-08 at cycle  12 NSaved=  12.
 NSaved=12 IEnMin=11 EnMin= -323.767121451690     IErMin=12 ErrMin= 2.98D-08
 ErrMax= 2.98D-08 EMaxC= 1.00D-01 BMatC= 1.53D-13 BMatP= 6.52D-13
 IDIUse=1 WtCom= 1.00D+00 WtEn= 0.00D+00
 Coeff-Com: -0.834D-06 0.146D-04-0.204D-05 0.310D-04-0.144D-03-0.316D-03
 Coeff-Com: -0.732D-03-0.176D-02 0.747D-02 0.230D-01 0.407D+00 0.565D+00
 Coeff:     -0.834D-06 0.146D-04-0.204D-05 0.310D-04-0.144D-03-0.316D-03
 Coeff:     -0.732D-03-0.176D-02 0.747D-02 0.230D-01 0.407D+00 0.565D+00
 Gap=     0.172 Goal=   None    Shift=    0.000
 RMSDP=6.69D-09 MaxDP=3.66D-07 DE= 3.52D-12 OVMax= 1.32D-07

 Error on total polarization charges =  0.01314
 SCF Done:  E(RB3LYP) =  -323.767121452     A.U. after   12 cycles
             Convg  =    0.6693D-08             -V/T =  2.0036
 KE= 3.226159756503D+02 PE=-1.255010669416D+03 EE= 3.603601733642D+02
 Leave Link  502 at Tue Apr 19 12:04:24 2016, MaxMem=   33554432 cpu:     147.0
 (Enter c:\G09w01\l701.exe)
 Compute integral first derivatives.
 ... and contract with generalized density number  0.
 D1PCM: C-PCM CHGder 1st derivatives, ID1Alg=3 FixD1E=F DoIter=F DoCFld=F I1PDM=0.
 GePol: Maximum number of non-zero 1st derivatives   =     201
 Leave Link  701 at Tue Apr 19 12:04:27 2016, MaxMem=   33554432 cpu:       3.0
 (Enter c:\G09w01\l702.exe)
 L702 exits ... SP integral derivatives will be done elsewhere.
 Leave Link  702 at Tue Apr 19 12:04:27 2016, MaxMem=   33554432 cpu:       0.0
 (Enter c:\G09w01\l703.exe)
 Compute integral first derivatives, UseDBF=F ICtDFT=           0.
 Integral derivatives from FoFDir, PRISM(SPDF).
 Calling FoFJK, ICntrl=      2127 FMM=F ISym2X=0 I1Cent= 0 IOpClX= 0 NMat=1 NMatS=1 NMatT=0.
 FoFCou: FMM=F IPFlag=           0 FMFlag=      100000 FMFlg1=         800
         NFxFlg=           0 DoJE=F BraDBF=F KetDBF=F FulRan=T
         Omega=  0.000000  0.000000  1.000000  0.000000  0.000000 ICntrl=    2127 IOpCl=  0
         NMat0=    1 NMatS0=    1 NMatT0=    0 NMatD0=    1 NMtDS0=    0 NMtDT0=    0
         I1Cent=           0 NGrid=           0.
 Symmetry not used in FoFCou.
 Leave Link  703 at Tue Apr 19 12:05:00 2016, MaxMem=   33554432 cpu:      32.0
 (Enter c:\G09w01\l716.exe)
 Dipole        = 1.32600158D-01 4.16641365D-01 1.83120206D-01
 -------------------------------------------------------------------
 Center     Atomic                   Forces (Hartrees/Bohr)
 Number     Number              X              Y              Z
 -------------------------------------------------------------------
      1        7           0.001278210   -0.005724394    0.018442739
      2        1          -0.001606008   -0.000812114   -0.001014254
      3        6           0.027752663    0.018347738   -0.026601728
      4        1           0.019164503   -0.044063433    0.016860818
      5        6           0.001548245   -0.001241308   -0.003004163
      6        6          -0.049703030    0.035668652   -0.012453944
      7        1          -0.000459730   -0.000060049    0.000316807
      8        1          -0.000066638   -0.000342799   -0.000234948
      9        1          -0.000588216    0.000205735    0.000283234
     10        8          -0.007902844   -0.014967856    0.002506252
     11        1           0.001571418    0.000386873    0.000537635
     12        8           0.010581243    0.011191123    0.001881152
     13        1          -0.001569818    0.001411832    0.002480399
 -------------------------------------------------------------------
 Cartesian Forces:  Max     0.049703030 RMS     0.015396603
 Leave Link  716 at Tue Apr 19 12:05:00 2016, MaxMem=   33554432 cpu:       0.0
 (Enter c:\G09w01\l103.exe)

 GradGradGradGradGradGradGradGradGradGradGradGradGradGradGradGradGradGrad
 Berny optimization.
 Using GEDIIS/GDIIS optimizer.
 Internal  Forces:  Max     0.044843263 RMS     0.011107955
 Search for a local minimum.
 Step number   2 out of a maximum of   58
 All quantities printed in internal units (Hartrees-Bohrs-Radians)
 RMS Force = .11108D-01 SwitMx=.10000D-02 MixMth= 1
 Mixed Optimization -- RFO/linear search
 Update second derivatives using D2CorX and points    1    2
 DE= -2.93D-02 DEPred=-2.57D-02 R= 1.14D+00
 SS=  1.41D+00  RLast= 3.93D-01 DXNew= 5.0454D-01 1.1782D+00
 Trust test= 1.14D+00 RLast= 3.93D-01 DXMaxT set to 5.05D-01
 ITU=  1  0
 Use linear search instead of GDIIS.
 Linear search step of   0.600 exceeds DXMaxT=   0.505 but not scaled.
 Quartic linear search produced a step of  2.00000.
 Iteration  1 RMS(Cart)=  0.14203509 RMS(Int)=  0.03992572
 Iteration  2 RMS(Cart)=  0.07178512 RMS(Int)=  0.00674808
 Iteration  3 RMS(Cart)=  0.00767562 RMS(Int)=  0.00312740
 Iteration  4 RMS(Cart)=  0.00007125 RMS(Int)=  0.00312644
 Iteration  5 RMS(Cart)=  0.00000023 RMS(Int)=  0.00312644
 Variable       Old X    -DE/DX   Delta X   Delta X   Delta X     New X
                                 (Linear)    (Quad)   (Total)
    R1        1.91719   0.00098   0.00369   0.00000   0.00369   1.92089
    R2        2.75992  -0.00458  -0.01157   0.00000  -0.01157   2.74834
    R3        1.92605  -0.00095  -0.00241   0.00000  -0.00241   1.92364
    R4        2.86253  -0.00162   0.00148   0.00000   0.00148   2.86401
    R5        2.69386  -0.03111  -0.04308   0.00000  -0.04308   2.65078
    R6        2.90303   0.04484   0.44751   0.00000   0.44423   3.34725
    R7        1.86598  -0.01989   0.02810   0.00000   0.03021   1.89619
    R8        2.06831   0.00056   0.00200   0.00000   0.00200   2.07031
    R9        2.06655  -0.00039   0.00041   0.00000   0.00041   2.06697
   R10        2.08203  -0.00002   0.00441   0.00000   0.00441   2.08644
   R11        2.48516   0.02322   0.09025   0.00000   0.09296   2.57812
   R12        2.48996   0.01317   0.01320   0.00000   0.01320   2.50316
   R13        1.83644  -0.00123   0.00130   0.00000   0.00130   1.83774
    A1        1.94340   0.00288   0.02287   0.00000   0.02293   1.96633
    A2        1.86687  -0.00022  -0.00061   0.00000  -0.00049   1.86638
    A3        1.92634  -0.00199  -0.01609   0.00000  -0.01602   1.91031
    A4        2.04954   0.00336   0.02526   0.00000   0.02442   2.07395
    A5        1.97797   0.00304   0.02533   0.00000   0.02449   2.00245
    A6        2.06804  -0.00331  -0.01056   0.00000  -0.01210   2.05593
    A7        1.91211  -0.00014  -0.00921   0.00000  -0.00923   1.90288
    A8        1.95421  -0.00031  -0.00448   0.00000  -0.00457   1.94963
    A9        1.96788   0.00086   0.02580   0.00000   0.02578   1.99365
   A10        1.87664   0.00007  -0.00273   0.00000  -0.00283   1.87381
   A11        1.86669  -0.00040  -0.00701   0.00000  -0.00695   1.85973
   A12        1.88207  -0.00011  -0.00351   0.00000  -0.00359   1.87848
   A13        2.08024   0.01752   0.24927   0.00000   0.24662   2.32686
   A14        2.15109  -0.00683  -0.10407   0.00000  -0.10644   2.04466
   A15        2.04910  -0.01057  -0.13534   0.00000  -0.13768   1.91142
   A16        1.43774   0.02367   0.22682   0.00000   0.23159   1.66933
   A17        1.94035   0.00008   0.01804   0.00000   0.01804   1.95839
    D1       -1.25623   0.00239   0.04100   0.00000   0.04185  -1.21438
    D2        2.51353  -0.00089  -0.01130   0.00000  -0.01206   2.50148
    D3        0.81442   0.00267   0.04448   0.00000   0.04523   0.85964
    D4       -1.69900  -0.00062  -0.00783   0.00000  -0.00868  -1.70768
    D5        1.08447  -0.00275  -0.02485   0.00000  -0.02473   1.05975
    D6       -3.11831  -0.00296  -0.03727   0.00000  -0.03708   3.12779
    D7       -0.99213  -0.00270  -0.02632   0.00000  -0.02609  -1.01821
    D8       -2.71820   0.00319   0.04493   0.00000   0.04469  -2.67352
    D9       -0.63780   0.00298   0.03251   0.00000   0.03233  -0.60547
   D10        1.48838   0.00324   0.04346   0.00000   0.04333   1.53171
   D11       -1.02030   0.01600   0.31768   0.00000   0.32094  -0.69936
   D12        2.20301   0.01460   0.21626   0.00000   0.21256   2.41557
   D13        2.75665   0.01005   0.24990   0.00000   0.25361   3.01026
   D14       -0.30322   0.00865   0.14849   0.00000   0.14523  -0.15800
   D15       -0.27749   0.00129  -0.06364   0.00000  -0.06673  -0.34422
   D16        2.78714   0.00268   0.03233   0.00000   0.03542   2.82255
   D17        2.86804  -0.00128   0.02713   0.00000   0.01426   2.88231
   D18       -0.19320  -0.00389  -0.09955   0.00000  -0.08668  -0.27987
         Item               Value     Threshold  Converged?
 Maximum Force            0.044843     0.000450     NO 
 RMS     Force            0.011108     0.000300     NO 
 Maximum Displacement     0.728505     0.001800     NO 
 RMS     Displacement     0.216698     0.001200     NO 
 Predicted change in Energy=-2.824891D-02
 GradGradGradGradGradGradGradGradGradGradGradGradGradGradGradGradGradGrad

 Leave Link  103 at Tue Apr 19 12:05:00 2016, MaxMem=   33554432 cpu:       0.0
 (Enter c:\G09w01\l202.exe)
                          Input orientation:                          
 ---------------------------------------------------------------------
 Center     Atomic      Atomic             Coordinates (Angstroms)
 Number     Number       Type             X           Y           Z
 ---------------------------------------------------------------------
      1          7           0       -1.498337   -1.220548   -0.333851
      2          1           0       -2.299408   -1.536536    0.206230
      3          6           0       -0.829952   -0.079080    0.270699
      4          1           0        0.941284   -1.706746    0.735289
      5          6           0       -1.537378    1.261222    0.280240
      6          6           0        0.566790   -0.080620    0.141205
      7          1           0       -2.473946    1.166776    0.840757
      8          1           0       -0.937889    2.031553    0.773781
      9          1           0       -1.807101    1.638328   -0.721795
     10          8           0        1.513478   -1.059408    0.224996
     11          1           0       -1.845373   -0.961386   -1.255054
     12          8           0        1.148345    1.073966   -0.147457
     13          1           0        2.108561    1.050046    0.004701
 ---------------------------------------------------------------------
                    Distance matrix (angstroms):
                    1          2          3          4          5
     1  N    0.000000
     2  H    1.016490   0.000000
     3  C    1.454361   2.070660   0.000000
     4  H    2.707620   3.288003   2.449983   0.000000
     5  C    2.556915   2.900624   1.515571   3.893543   0.000000
     6  C    2.406214   3.215433   1.402733   1.771290   2.499479
     7  H    2.833872   2.782262   2.140055   4.464532   1.095563
     8  H    3.480964   3.860973   2.172445   4.184215   1.093791
     9  H    2.901553   3.344153   2.211189   4.567958   1.104099
    10  O    3.067460   3.842669   2.540629   1.003420   3.833549
    11  H    1.017945   1.634716   2.034075   3.504638   2.718819
    12  O    3.507771   4.338988   2.327666   2.924803   2.726004
    13  H    4.275504   5.114804   3.159200   3.081590   3.662430
                    6          7          8          9         10
     6  C    0.000000
     7  H    3.360274   0.000000
     8  H    2.669361   1.764028   0.000000
     9  H    3.055308   1.763125   1.773951   0.000000
    10  O    1.364282   4.608102   3.983015   4.381831   0.000000
    11  H    2.922981   3.052310   3.727919   2.654118   3.671789
    12  O    1.324613   3.755818   2.473465   3.063173   2.196207
    13  H    1.916794   4.659612   3.291763   4.025703   2.202828
                   11         12         13
    11  H    0.000000
    12  O    3.785732   0.000000
    13  H    4.611554   0.972491   0.000000
 Symmetry turned off by external request.
 Stoichiometry    C3H7NO2
 Framework group  C1[X(C3H7NO2)]
 Deg. of freedom    33
 Full point group                 C1      NOp   1
 Rotational constants (GHZ):      5.0561500      3.1132845      2.0535740
 Leave Link  202 at Tue Apr 19 12:05:00 2016, MaxMem=   33554432 cpu:       0.0
 (Enter c:\G09w01\l301.exe)
 Standard basis: 6-311++G(d,p) (5D, 7F)
 Ernie: Thresh=  0.10000D-02 Tol=  0.10000D-05 Strict=F.
 Integral buffers will be    262144 words long.
 Raffenetti 2 integral format.
 Two-electron integral symmetry is turned off.
   181 basis functions,   279 primitive gaussians,   187 cartesian basis functions
    24 alpha electrons       24 beta electrons
       nuclear repulsion energy       246.5694406650 Hartrees.
 IExCor=  402 DFT=T Ex+Corr=B3LYP ExCW=0 ScaHFX=  0.200000
 ScaDFX=  0.800000  0.720000  1.000000  0.810000 ScalE2=  1.000000  1.000000
 IRadAn=      0 IRanWt=     -1 IRanGd=            0 ICorTp=0
 NAtoms=   13 NActive=   13 NUniq=   13 SFac= 1.00D+00 NAtFMM=   50 NAOKFM=F Big=F
 ------------------------------------------------------------------------------
 Polarizable Continuum Model (PCM)
 =================================
 Model                : C-PCM.
 Atomic radii         : UFF (Universal Force Field).
 Polarization charges : Total charges.
 Charge compensation  : None.
 Solution method      : Matrix inversion.
 Cavity type          : Scaled VdW (van der Waals Surface) (Alpha=1.100).
 Cavity algorithm     : GePol (No added spheres)
                        Default sphere list used, NSphG=   13.
[...]
   R13        1.82481   0.00000   0.00000  -0.00001  -0.00001   1.82481
    A1        1.94771   0.00000   0.00000   0.00002   0.00002   1.94773
    A2        1.86132   0.00000   0.00000   0.00000   0.00000   1.86132
    A3        1.94720   0.00000   0.00000  -0.00001  -0.00001   1.94719
    A4        2.11189   0.00000   0.00000   0.00001   0.00001   2.11190
    A5        1.99384   0.00000   0.00000   0.00000   0.00000   1.99384
    A6        2.17745   0.00000   0.00000   0.00000   0.00000   2.17745
    A7        1.94116   0.00000   0.00000   0.00002   0.00002   1.94118
    A8        1.94663   0.00000   0.00000   0.00000   0.00000   1.94663
    A9        1.94012   0.00000   0.00000  -0.00001  -0.00001   1.94010
   A10        1.88316   0.00000   0.00000  -0.00001  -0.00001   1.88315
   A11        1.86608   0.00000   0.00000   0.00000   0.00000   1.86608
   A12        1.88338   0.00000   0.00000   0.00000   0.00000   1.88338
   A13        2.14521   0.00000   0.00000  -0.00001  -0.00001   2.14520
   A14        2.17027   0.00000   0.00000   0.00001   0.00001   2.17029
   A15        1.96770   0.00000   0.00000  -0.00001  -0.00001   1.96769
   A16        1.81565   0.00000   0.00000  -0.00002  -0.00002   1.81563
   A17        1.89519   0.00000   0.00000   0.00000   0.00000   1.89519
    D1       -1.04068   0.00000   0.00000  -0.00005  -0.00005  -1.04073
    D2        2.10026   0.00000   0.00000  -0.00015  -0.00015   2.10011
    D3        1.03959   0.00000   0.00000  -0.00004  -0.00004   1.03955
    D4       -2.10265   0.00000   0.00000  -0.00014  -0.00014  -2.10279
    D5        1.04495   0.00000   0.00000   0.00028   0.00028   1.04523
    D6       -3.13503   0.00000   0.00000   0.00028   0.00028  -3.13475
    D7       -1.03227   0.00000   0.00000   0.00028   0.00028  -1.03199
    D8       -2.09592   0.00000   0.00000   0.00039   0.00039  -2.09553
    D9        0.00729   0.00000   0.00000   0.00039   0.00039   0.00768
   D10        2.11005   0.00000   0.00000   0.00039   0.00039   2.11044
   D11        0.00269   0.00000   0.00000   0.00017   0.00017   0.00285
   D12       -3.13631   0.00000   0.00000   0.00034   0.00034  -3.13597
   D13       -3.13959   0.00000   0.00000   0.00006   0.00006  -3.13952
   D14        0.00460   0.00000   0.00000   0.00024   0.00024   0.00484
   D15        0.00302   0.00000   0.00000   0.00015   0.00015   0.00317
   D16       -3.14090   0.00000   0.00000  -0.00001  -0.00001  -3.14090
   D17       -3.10506   0.00000   0.00000   0.00203   0.00203  -3.10303
   D18        0.03890   0.00000   0.00000   0.00219   0.00219   0.04109
         Item               Value     Threshold  Converged?
 Maximum Force            0.000008     0.000450     YES
 RMS     Force            0.000002     0.000300     YES
 Maximum Displacement     0.001711     0.001800     YES
 RMS     Displacement     0.000375     0.001200     YES
 Predicted change in Energy=-7.483348D-10
 Optimization completed.
    -- Stationary point found.
                           ----------------------------
                           !   Optimized Parameters   !
                           ! (Angstroms and Degrees)  !
 --------------------------                            --------------------------
 ! Name  Definition              Value          Derivative Info.                !
 --------------------------------------------------------------------------------
 ! R1    R(1,2)                  1.0174         -DE/DX =    0.0                 !
 ! R2    R(1,3)                  1.4456         -DE/DX =    0.0                 !
 ! R3    R(1,11)                 1.0173         -DE/DX =    0.0                 !
 ! R4    R(3,5)                  1.5005         -DE/DX =    0.0                 !
 ! R5    R(3,6)                  1.3418         -DE/DX =    0.0                 !
 ! R6    R(4,6)                  1.8572         -DE/DX =    0.0                 !
 ! R7    R(4,10)                 0.9784         -DE/DX =    0.0                 !
 ! R8    R(5,7)                  1.0973         -DE/DX =    0.0                 !
 ! R9    R(5,8)                  1.0915         -DE/DX =    0.0                 !
 ! R10   R(5,9)                  1.0972         -DE/DX =    0.0                 !
 ! R11   R(6,10)                 1.3591         -DE/DX =    0.0                 !
 ! R12   R(6,12)                 1.3558         -DE/DX =    0.0                 !
 ! R13   R(12,13)                0.9657         -DE/DX =    0.0                 !
 ! A1    A(2,1,3)              111.5954         -DE/DX =    0.0                 !
 ! A2    A(2,1,11)             106.6456         -DE/DX =    0.0                 !
 ! A3    A(3,1,11)             111.5661         -DE/DX =    0.0                 !
 ! A4    A(1,3,5)              121.0026         -DE/DX =    0.0                 !
 ! A5    A(1,3,6)              114.2388         -DE/DX =    0.0                 !
 ! A6    A(5,3,6)              124.7587         -DE/DX =    0.0                 !
 ! A7    A(3,5,7)              111.2205         -DE/DX =    0.0                 !
 ! A8    A(3,5,8)              111.5336         -DE/DX =    0.0                 !
 ! A9    A(3,5,9)              111.1605         -DE/DX =    0.0                 !
 ! A10   A(7,5,8)              107.8971         -DE/DX =    0.0                 !
 ! A11   A(7,5,9)              106.9186         -DE/DX =    0.0                 !
 ! A12   A(8,5,9)              107.9095         -DE/DX =    0.0                 !
 ! A13   A(3,6,10)             122.9113         -DE/DX =    0.0                 !
 ! A14   A(3,6,12)             124.3476         -DE/DX =    0.0                 !
 ! A15   A(10,6,12)            112.7409         -DE/DX =    0.0                 !
 ! A16   A(4,10,6)             104.0288         -DE/DX =    0.0                 !
 ! A17   A(6,12,13)            108.5863         -DE/DX =    0.0                 !
 ! D1    D(2,1,3,5)            -59.6264         -DE/DX =    0.0                 !
 ! D2    D(2,1,3,6)            120.3362         -DE/DX =    0.0                 !
 ! D3    D(11,1,3,5)            59.5643         -DE/DX =    0.0                 !
 ! D4    D(11,1,3,6)          -120.473          -DE/DX =    0.0                 !
 ! D5    D(1,3,5,7)             59.8713         -DE/DX =    0.0                 !
 ! D6    D(1,3,5,8)           -179.6239         -DE/DX =    0.0                 !
 ! D7    D(1,3,5,9)            -59.1445         -DE/DX =    0.0                 !
 ! D8    D(6,3,5,7)           -120.0873         -DE/DX =    0.0                 !
 ! D9    D(6,3,5,8)              0.4175         -DE/DX =    0.0                 !
 ! D10   D(6,3,5,9)            120.8969         -DE/DX =    0.0                 !
 ! D11   D(1,3,6,10)             0.1539         -DE/DX =    0.0                 !
 ! D12   D(1,3,6,12)          -179.6975         -DE/DX =    0.0                 !
 ! D13   D(5,3,6,10)          -179.885          -DE/DX =    0.0                 !
 ! D14   D(5,3,6,12)             0.2636         -DE/DX =    0.0                 !
 ! D15   D(3,6,10,4)             0.1729         -DE/DX =    0.0                 !
 ! D16   D(12,6,10,4)         -179.9602         -DE/DX =    0.0                 !
 ! D17   D(3,6,12,13)         -177.9068         -DE/DX =    0.0                 !
 ! D18   D(10,6,12,13)           2.2285         -DE/DX =    0.0                 !
 --------------------------------------------------------------------------------
 GradGradGradGradGradGradGradGradGradGradGradGradGradGradGradGradGradGrad

 Leave Link  103 at Tue Apr 19 13:09:03 2016, MaxMem=   33554432 cpu:       0.0
 (Enter c:\G09w01\l9999.exe)
 1|1|UNPC-WIN-20150318OUM|Freq|RB3LYP|6-311++G(d,p)|C3H7N1O2|ADMINISTRA
 TOR|19-Apr-2016|0||#P Geom=AllCheck Guess=TCheck SCRF=Check GenChk RB3
 LYP/6-311++G(d,p) Freq||Ala-S-opt-freq-cpcm-w-pb1-6-311++gdp||0,1|N,-1
 .3461973761,-1.2228399736,-0.1851005727|H,-2.0195245565,-1.465108437,0
 .5380872485|C,-0.7563003021,0.0757353247,0.050640581|H,0.6489378125,-1
 .7826617969,-0.0505552781|C,-1.607093944,1.3095775608,0.122309547|C,0.
 577825747,0.0571066731,0.192973278|H,-2.3457897946,1.2362652103,0.9303
 826587|H,-1.0042757245,2.2021799926,0.2988896412|H,-2.1668785689,1.459
 3610103,-0.809409329|O,1.3125203299,-1.083861549,0.118725499|H,-1.8465
 81056,-1.2511085304,-1.0704222504|O,1.3375804397,1.1553981205,0.426661
 0302|H,2.2648508636,0.8875239545,0.4565574266||Version=IA32W-G09RevB.0
 1|HF=-323.8295941|RMSD=4.565e-009|RMSF=3.596e-006|ZeroPoint=0.1055099|
 Thermal=0.1130874|Dipole=-0.6210299,-0.3036628,-0.1387052|DipoleDeriv=
 -0.6176852,0.0830249,-0.0384213,0.1655873,-0.8144604,-0.0686308,-0.025
 565,-0.0774948,-0.1770478,0.089774,-0.1400183,0.0856747,-0.0855976,0.2
 539217,-0.0887519,0.0833735,-0.0195617,0.1441651,-0.3181674,0.2149646,
 0.0359407,0.0546196,0.3747774,0.1069571,0.0193515,0.1238877,-0.3749037
 ,0.5306752,-0.0184689,0.013422,0.0043194,0.4076641,0.0050797,0.0163033
 ,0.0037276,0.3767046,0.1671313,-0.0173165,-0.0156756,-0.1487986,-0.055
 2083,-0.060209,-0.0319112,-0.0462692,0.2768569,2.2785392,0.0362324,0.2
 410529,0.1455246,1.535281,0.2022697,0.2574427,0.1894046,0.2013962,-0.1
 251221,0.0559701,0.1287191,0.0418731,0.036045,0.0562108,0.1964547,-0.0
 057807,-0.0696013,0.0175347,-0.1140724,-0.0232918,-0.0440369,-0.127993
 1,-0.0347432,-0.0145005,-0.0423327,0.0973979,-0.0608527,0.0805424,-0.1
 089005,0.0959217,0.0379701,-0.005196,-0.175479,0.0561326,-0.1338684,-1
 .2145151,0.388284,-0.0345485,0.6710781,-1.2737471,-0.0450197,-0.002987
 7,-0.0764619,-0.409746,0.1338286,-0.114722,-0.1249553,-0.0793379,0.224
 0817,0.0978657,-0.110919,0.0192528,0.13053,-1.3213041,-0.5086002,-0.17
 0185,-0.8966136,-0.9250942,-0.1546752,-0.2382416,-0.1129765,-0.4898717
 ,0.4401637,0.0541799,0.0111684,0.0754609,0.326762,-0.0111572,0.0266784
 ,-0.0115278,0.427988|Polar=92.8022915,-1.6576613,69.4059889,4.010773,2
 .0118209,53.8308846|PG=C01 [X(C3H7N1O2)]|NImag=0||0.45230560,0.1739636
 5,0.31974879,0.00228435,-0.02512699,0.64475459,-0.20050772,-0.07988681
 ,0.18873644,0.20331240,-0.05422424,-0.04514330,0.03646596,0.07934829,0
 .06103394,0.16157745,0.05589561,-0.24141986,-0.17947774,-0.05883243,0.
 25766291,-0.10090117,-0.03782372,-0.00737933,-0.01427250,-0.02890533,-
 0.00578698,0.81677695,-0.07926703,-0.19297302,-0.02374709,-0.00179881,
 -0.01463055,-0.00247365,-0.02403316,0.52488135,-0.01295664,-0.01928393
 ,-0.08234307,0.00526651,0.02140889,0.01132549,0.06883720,0.04741446,0.
 16295293,0.00751615,-0.00123760,0.00120196,0.00075532,-0.00202364,0.00
 077656,-0.00373789,0.00931579,0.00075328,0.20739139,-0.00052574,-0.002
 10535,0.00035403,-0.00072904,-0.00001075,-0.00007519,0.00084794,0.0003
 4246,-0.00004308,0.19181928,0.29377121,0.00128593,0.00035723,-0.005164
 56,0.00137077,-0.00169421,0.00040130,-0.00042853,0.00089327,0.00106516
 ,0.04786597,0.05976002,0.02784542,0.00994864,-0.02053275,-0.00182931,0
 .00131140,-0.00010775,-0.00100358,-0.13385954,0.06514368,0.00096692,-0
 .00122004,-0.00113925,-0.00012750,0.53068742,0.01183134,-0.03315913,-0
 .00329824,0.00052741,0.00142223,-0.00005986,0.06052515,-0.16431072,-0.
 00723893,-0.00153174,-0.00118903,-0.00012987,0.04775918,0.51136583,0.0
 0246276,-0.00671265,0.00071167,-0.00076370,0.00079462,0.00043646,0.000
 31923,-0.00654034,-0.06252025,-0.00016146,-0.00006476,-0.00150330,0.00
 749175,0.00420298,0.51998675,-0.02231212,-0.01532716,-0.00443360,0.001
 59658,0.00423478,-0.00038688,-0.48263074,0.00816322,-0.04464999,0.0253
 3150,-0.02157432,-0.00015628,-0.01610365,0.01444176,0.00037833,0.88181
 458,-0.03071448,-0.01373765,-0.00515623,-0.00254839,-0.00415697,-0.001
 03462,0.01899779,-0.09311688,-0.00254396,0.00761403,-0.04715055,-0.005
 77074,0.02581230,0.00228430,0.00345851,0.01940470,0.58772245,-0.006292
 78,-0.00332330,-0.00227198,0.00192799,0.00163762,0.00084267,-0.0433401
 9,-0.00396640,-0.06150128,0.00372502,-0.00906660,0.00033709,0.00196041
 ,0.00225033,-0.00217492,0.08045724,0.06186048,0.16618591,0.00140869,-0
 .00025499,-0.00147173,0.00025182,0.00071995,0.00030563,-0.01960761,0.0
 0202727,0.01123393,-0.00023826,-0.00046988,0.00013939,-0.15363708,-0.0
 1670021,0.12367904,0.00473175,0.00170667,0.00285150,0.17069721,-0.0002
 7089,0.00299040,0.00052055,-0.00064858,-0.00045991,0.00050268,0.023557
 99,-0.00032176,-0.02016206,0.00047009,0.00047868,-0.00012435,-0.015056
 88,-0.04769497,0.01429268,-0.00367097,-0.00253954,-0.00263815,0.011224
 02,0.05051301,-0.00052225,-0.00066148,0.00058646,0.00028256,-0.0004180
 4,-0.00046268,0.00146249,-0.00203997,0.00384678,0.00010070,0.00009561,
 0.00003681,0.12302190,0.01657019,-0.18264983,-0.00254782,-0.00027108,-
 0.00024040,-0.13666365,-0.01718347,0.19715802,-0.00115284,0.00474517,0
 .00037054,-0.00011846,0.00003776,0.00002842,0.01323067,0.01403604,0.00
 338823,0.00008766,0.00006974,0.00001642,-0.13053690,-0.12213966,-0.024
 41668,-0.00002913,0.00001805,-0.00008211,-0.01142410,-0.01590482,-0.00
 443917,0.14017418,0.00390550,-0.00619778,-0.00057786,0.00011049,0.0005
 5941,-0.00027379,-0.01702964,-0.01830556,-0.00383705,-0.00065561,-0.00
 013096,-0.00008790,-0.11785600,-0.22259786,-0.03478873,-0.00204850,-0.
 00121386,-0.00045432,-0.00078588,-0.00141176,0.00044033,0.13092381,0.2
 4224816,0.00023970,-0.00053771,0.00143547,0.00004913,-0.00043231,-0.00
 000522,-0.00061068,-0.00063947,-0.00242309,-0.00008197,-0.00001515,0.0
 0002056,-0.02385958,-0.03519544,-0.05266376,-0.00026350,-0.00021049,0.
 00040831,0.01267920,0.02037855,0.00472308,0.02664728,0.03879486,0.0520
 8789,0.00100607,-0.00087141,0.00142896,0.00013054,0.00005222,0.0000342
 9,-0.01664641,0.00512704,-0.01529707,-0.00017455,-0.00038643,-0.000307
 37,-0.10570342,0.01271941,-0.10785281,0.00460346,0.00224161,-0.0013255
 1,0.01096367,-0.00241560,0.01819686,-0.00881959,0.00290519,-0.01465816
 ,0.11768898,-0.00036548,0.00288297,-0.00003300,-0.00008615,-0.00005496
 ,0.00002542,0.01941506,-0.00614958,0.02243846,0.00044169,0.00043324,0.
 00034304,0.01361965,-0.04953189,0.02667334,-0.00459369,-0.00306923,0.0
 0094225,0.00125087,-0.00080941,0.00329367,-0.01169129,0.00439459,-0.02
 304133,-0.02092913,0.05258662,0.00054329,0.00104540,0.00119893,0.00016
 462,-0.00000702,-0.00032039,-0.00079947,0.00046875,0.00670324,-0.00003
 224,-0.00007229,0.00001363,-0.10696099,0.02429010,-0.22886066,0.002383
 72,-0.00009093,0.00035688,-0.01135848,0.00225534,-0.02235212,-0.001330
 72,-0.00005087,-0.00359671,0.11859231,-0.02864424,0.24817763,-0.012817
 75,0.00330739,-0.00058805,-0.00170923,0.00082711,-0.00076655,-0.027078
 72,0.04566210,0.00173042,-0.23354163,-0.17065884,-0.04787097,-0.003351
 89,-0.00531955,-0.00231160,-0.18296497,0.06878858,-0.00554775,-0.00194
 848,0.00189477,0.00059364,0.00045709,0.00058154,0.00014063,-0.00216271
 ,0.00245652,-0.00034760,0.44692022,-0.01014917,0.00146348,-0.00043454,
 -0.00051851,0.00272298,-0.00023080,0.02045452,-0.02023392,-0.00224825,
 -0.20968624,-0.23936451,-0.05434060,0.00166786,0.00538524,-0.00080199,
 0.09646114,-0.20956124,-0.01142043,0.00224027,-0.00246071,-0.00081512,
 -0.00021064,0.00013127,0.00002595,0.00164072,-0.00207408,0.00075960,0.
 08038077,0.52513040,-0.00238059,0.00094821,-0.00328018,-0.00017177,0.0
 0181918,-0.00051292,-0.00165847,0.00045901,0.01309820,-0.05329316,-0.0
 4994261,-0.02656123,-0.00142040,-0.00144507,0.01170719,-0.00178914,-0.
 01452861,-0.04892819,-0.00146572,0.00209392,-0.00039967,0.00004584,0.0
 0011035,-0.00018415,0.00161587,-0.00209189,-0.00051468,0.05646011,0.07
 573039,0.05384548,-0.12754791,-0.02413526,-0.17607274,0.01080067,0.001
 86297,0.02559098,-0.01253237,0.00040799,-0.01002839,0.00121293,-0.0003
 4137,-0.00143817,0.00093423,0.00030739,0.00101233,0.00174705,-0.002069
 87,-0.00225981,0.00014602,-0.00006468,-0.00010526,-0.00009670,0.000052
 10,-0.00007211,0.00030832,-0.00044461,-0.00026237,-0.00185236,-0.00064
 613,-0.00024116,0.12877674,-0.01092885,-0.03409477,0.02269015,0.006810
 60,-0.00032843,0.00687056,-0.02301595,-0.00729068,-0.03202675,-0.00204
 274,-0.00037400,0.00111637,-0.00027798,0.00143881,-0.00060742,0.004312
 80,-0.00377059,-0.00188284,0.00004440,-0.00004826,0.00012402,-0.000042
 40,0.00035093,0.00053338,0.00068189,-0.00043759,0.00058157,0.00088369,
 0.00290677,-0.00074391,0.02591939,0.04309402,-0.14381002,-0.00091528,-
 0.32525980,-0.01607753,0.00138634,-0.02687690,-0.00572312,-0.00267537,
 0.00232199,-0.00114902,-0.00019221,0.00028456,0.00109819,0.00038052,0.
 00073619,0.00175112,-0.00065198,0.00017057,0.00007443,0.00003678,-0.00
 031760,-0.00006582,0.00039326,0.00019515,0.00005519,-0.00060904,-0.000
 57873,0.00073312,0.00099740,-0.00053255,0.16300911,0.00185615,0.350039
 94,-0.00740651,-0.00218623,-0.00191669,-0.00166735,-0.00194473,-0.0008
 6408,-0.02091865,-0.04280045,-0.00939469,-0.00254736,0.00216621,-0.000
 44434,0.00136748,-0.00265593,0.00000912,-0.18146838,-0.11104516,-0.029
 84543,-0.00152722,0.00107912,0.00075394,-0.00172813,-0.00007933,-0.000
 19769,-0.00140659,0.00111588,-0.00070631,0.01557214,0.01332942,0.00320
 475,-0.00190521,-0.00232655,0.00002447,0.66704536,-0.00238490,0.000933
 24,-0.00088881,-0.00045491,-0.00081978,-0.00025741,-0.01314403,-0.0025
 9943,-0.00328888,0.00784533,-0.00371994,-0.00023903,0.00067390,-0.0029
 0577,-0.00000420,-0.05210035,-0.21755783,-0.03162500,-0.00105329,0.001
 62265,0.00082926,0.00024500,0.00166202,0.00028507,-0.00087561,0.001661
 63,-0.00054062,-0.02981918,-0.06732598,-0.01299776,-0.00053678,-0.0011
 6198,0.00001611,-0.01740460,0.37409427,-0.00192697,-0.00115460,0.00785
 052,-0.00080398,-0.00169699,-0.00088643,-0.00528221,-0.00627778,0.0083
 6560,0.00028187,-0.00083232,0.00427259,0.00056161,-0.00041313,-0.00244
 309,-0.02077631,-0.03672722,-0.04881298,-0.00023824,-0.00005674,0.0000
 2716,-0.00017289,0.00030677,0.00002543,-0.00029865,0.00083156,-0.00024
 534,-0.00276675,-0.00795218,0.00177178,0.00042499,0.00106032,-0.000249
 50,0.05021743,0.05365864,0.02987717,0.00046087,0.00023973,-0.00033079,
 0.00011652,0.00012260,-0.00002752,0.00217798,-0.00198368,0.00015029,-0
 .00083521,0.00092172,0.00009468,0.00016336,0.00023546,0.00015367,-0.03
 431591,0.00179415,-0.00222855,0.00018361,-0.00019356,-0.00013395,-0.00
 004375,-0.00002366,-0.00001225,0.00021223,-0.00018933,0.00011423,0.004
 47829,0.00503599,0.00109383,0.00000859,-0.00001830,0.00007987,-0.46340
 957,0.10900941,-0.01921991,0.49080298,-0.00086970,-0.00060790,-0.00076
 793,-0.00012559,-0.00013392,-0.00005652,0.00015337,-0.00529170,-0.0005
 8892,-0.00032864,-0.00098049,-0.00008324,0.00029404,-0.00050704,0.0000
 9798,-0.04770342,0.00586759,-0.00231364,0.00005079,0.00014156,0.000036
 10,-0.00008675,0.00051140,0.00005407,0.00011011,0.00016769,0.00000521,
 0.00101510,0.00328031,0.00058879,-0.00031114,-0.00028423,-0.00002268,0
 .16275235,-0.08388311,-0.00074634,-0.11495052,0.08171983,-0.00050422,-
 0.00053051,0.00320182,-0.00050330,-0.00043160,-0.00018444,0.00039006,-
 0.00087543,-0.00089168,0.00001250,0.00009455,-0.00104803,0.00010056,0.
 00008642,-0.00076245,-0.00996692,0.00166687,-0.00437167,0.00023469,0.0
 0008426,0.00004399,0.00001066,0.00002495,-0.00002298,-0.00018391,-0.00
 012824,0.00001832,0.00054136,0.00073059,0.00049091,0.00044260,0.000428
 40,0.00006667,-0.01084047,-0.00494738,0.00044710,0.02026641,0.00379711
 ,0.00301243||0.00000020,-0.00000075,0.00000092,0.00000265,-0.00000057,
 0.00000327,0.00000691,0.00000152,0.00000215,0.00000391,0.00000158,-0.0
 0000249,-0.00000102,-0.00000139,0.00000266,-0.00000476,-0.00000753,-0.
 00000277,0.00000125,-0.00000171,0.00000426,-0.00000052,-0.00000098,0.0
 0000159,-0.00000288,-0.00000178,0.00000445,-0.00000588,0.00000285,-0.0
 0000642,-0.00000193,-0.00000058,0.00000338,-0.00000229,0.00000796,-0.0
 0000449,0.00000436,0.00000138,-0.00000651|||@


 EDUCATION IS NOT TRAINING BUT RATHER THE PROCESS THAT EQUIPS YOU TO
 ENTERTAIN YOURSELF, A FRIEND, OR AN IDEA.  -- WALLACE STERLING
 Job cpu time:  0 days  0 hours 14 minutes  2.0 seconds.
 File lengths (MBytes):  RWF=     60 Int=      0 D2E=      0 Chk=      6 Scr=      1
 Normal termination of Gaussian 09 at Tue Apr 19 13:09:03 2016.
