 Entering Gaussian System, Link 0=g09
 Input=Ala-S-opt-freq-pb1-6-31g.com
 Output=Ala-S-opt-freq-pb1-6-31g.log
 Initial command:
 /usr/local/gau/g09/l1.exe "/tmp/Gau-5948.inp" -scrdir="/tmp/"
 Entering Link 1 = /usr/local/gau/g09/l1.exe PID=      5950.
  
 Copyright (c) 1988,1990,1992,1993,1995,1998,2003,2009,2013,
            Gaussian, Inc.  All Rights Reserved.
  
 This is part of the Gaussian(R) 09 program.  It is based on
 the Gaussian(R) 03 system (copyright 2003, Gaussian, Inc.),
 the Gaussian(R) 98 system (copyright 1998, Gaussian, Inc.),
 the Gaussian(R) 94 system (copyright 1995, Gaussian, Inc.),
 the Gaussian 92(TM) system (copyright 1992, Gaussian, Inc.),
 the Gaussian 90(TM) system (copyright 1990, Gaussian, Inc.),
 the Gaussian 88(TM) system (copyright 1988, Gaussian, Inc.),
 the Gaussian 86(TM) system (copyright 1986, Carnegie Mellon
 University), and the Gaussian 82(TM) system (copyright 1983,
 Carnegie Mellon University). Gaussian is a federally registered
 trademark of Gaussian, Inc.
  
 This software contains proprietary and confidential information,
 including trade secrets, belonging to Gaussian, Inc.
  
 This software is provided under written license and may be
 used, copied, transmitted, or stored only in accord with that
 written license.
  
 The following legend is applicable only to US Government
 contracts under FAR:
  
                    RESTRICTED RIGHTS LEGEND
  
 Use, reproduction and disclosure by the US Government is
 subject to restrictions as set forth in subparagraphs (a)
 and (c) of the Commercial Computer Software - Restricted
 Rights clause in FAR 52.227-19.
  
 Gaussian, Inc.
 340 Quinnipiac St., Bldg. 40, Wallingford CT 06492
  
  
 ---------------------------------------------------------------
 Warning -- This program may not be used in any manner that
 competes with the business of Gaussian, Inc. or will provide
 assistance to any competitor of Gaussian, Inc.  The licensee
 of this program is prohibited from giving any competitor of
 Gaussian, Inc. access to this program.  By using this program,
 the user acknowledges that Gaussian, Inc. is engaged in the
 business of creating and licensing software in the field of
 computational chemistry and represents and warrants to the
 licensee that it is not a competitor of Gaussian, Inc. and that
 it will not use this program in any manner prohibited above.
 ---------------------------------------------------------------
  

 Cite this work as:
 Gaussian 09, Revision D.01,
 M. J. Frisch, G. W. Trucks, H. B. Schlegel, G. E. Scuseria, 
 M. A. Robb, J. R. Cheeseman, G. Scalmani, V. Barone, B. Mennucci, 
 G. A. Petersson, H. Nakatsuji, M. Caricato, X. Li, H. P. Hratchian, 
 A. F. Izmaylov, J. Bloino, G. Zheng, J. L. Sonnenberg, M. Hada, 
 M. Ehara, K. Toyota, R. Fukuda, J. Hasegawa, M. Ishida, T. Nakajima, 
 Y. Honda, O. Kitao, H. Nakai, T. Vreven, J. A. Montgomery, Jr., 
 J. E. Peralta, F. Ogliaro, M. Bearpark, J. J. Heyd, E. Brothers, 
 K. N. Kudin, V. N. Staroverov, T. Keith, R. Kobayashi, J. Normand, 
 K. Raghavachari, A. Rendell, J. C. Burant, S. S. Iyengar, J. Tomasi, 
 M. Cossi, N. Rega, J. M. Millam, M. Klene, J. E. Knox, J. B. Cross, 
 V. Bakken, C. Adamo, J. Jaramillo, R. Gomperts, R. E. Stratmann, 
 O. Yazyev, A. J. Austin, R. Cammi, C. Pomelli, J. W. Ochterski, 
 R. L. Martin, K. Morokuma, V. G. Zakrzewski, G. A. Voth, 
 P. Salvador, J. J. Dannenberg, S. Dapprich, A. D. Daniels, 
 O. Farkas, J. B. Foresman, J. V. Ortiz, J. Cioslowski, 
 and D. J. Fox, Gaussian, Inc., Wallingford CT, 2013.
 
 ******************************************
 Gaussian 09:  ES64L-G09RevD.01 24-Apr-2013
                10-Apr-2016 
 ******************************************
 %chk=Ala-S-opt-freq-pb1-6-31g.chk
 -----------------------
 # opt freq rb3lyp/6-31g
 -----------------------
 1/14=-1,18=20,19=15,26=3,38=1/1,3;
 2/9=110,12=2,17=6,18=5,40=1/2;
 3/5=1,6=6,11=2,16=1,25=1,30=1,71=1,74=-5,116=1/1,2,3;
 4//1;
 5/5=2,38=5/2;
 6/7=2,8=2,9=2,10=2,28=1/1;
 7//1,2,3,16;
 1/14=-1,18=20,19=15,26=3/3(2);
 2/9=110/2;
 99//99;
 2/9=110/2;
 3/5=1,6=6,11=2,16=1,25=1,30=1,71=1,74=-5,116=1/1,2,3;
 4/5=5,16=3,69=1/1;
 5/5=2,38=5/2;
 7//1,2,3,16;
 1/14=-1,18=20,19=15,26=3/3(-5);
 2/9=110/2;
 6/7=2,8=2,9=2,10=2,19=2,28=1/1;
 99/9=1/99;
 ------------------------
 Ala-S-opt-freq-pb1-6-31g
 ------------------------
 Symbolic Z-matrix:
 Charge =  0 Multiplicity = 1
 N                    -1.34778  -1.25694  -0.21296 
 H                    -0.67075  -2.00484  -0.07513 
 C                    -0.82756  -0.03014  -0.34373 
 H                     0.25155   0.08786  -1.34803 
 C                    -1.66891   1.20425  -0.31921 
 C                     0.63719  -0.02185  -0.46548 
 H                    -2.60532   1.08463  -0.87662 
 H                    -1.92186   1.43405   0.72459 
 H                    -1.11232   2.05082  -0.7203 
 O                     1.33445  -1.08824  -0.3056 
 H                    -2.31754  -1.46894  -0.38478 
 O                     1.19389   1.26562  -0.1828 
 H                     2.16582   1.15251  -0.19561 
 

 GradGradGradGradGradGradGradGradGradGradGradGradGradGradGradGradGradGrad
 Berny optimization.
 Initialization pass.
                           ----------------------------
                           !    Initial Parameters    !
                           ! (Angstroms and Degrees)  !
 --------------------------                            --------------------------
 ! Name  Definition              Value          Derivative Info.                !
 --------------------------------------------------------------------------------
 ! R1    R(1,2)                  1.0182         estimate D2E/DX2                !
 ! R2    R(1,3)                  1.3389         estimate D2E/DX2                !
 ! R3    R(1,11)                 1.0074         estimate D2E/DX2                !
 ! R4    R(3,5)                  1.494          estimate D2E/DX2                !
 ! R5    R(3,6)                  1.4698         estimate D2E/DX2                !
 ! R6    R(4,6)                  0.9694         estimate D2E/DX2                !
 ! R7    R(5,7)                  1.0963         estimate D2E/DX2                !
 ! R8    R(5,8)                  1.0983         estimate D2E/DX2                !
 ! R9    R(5,9)                  1.0897         estimate D2E/DX2                !
 ! R10   R(6,10)                 1.2841         estimate D2E/DX2                !
 ! R11   R(6,12)                 1.4309         estimate D2E/DX2                !
 ! R12   R(12,13)                0.9786         estimate D2E/DX2                !
 ! A1    A(2,1,3)              115.3339         estimate D2E/DX2                !
 ! A2    A(2,1,11)             120.5694         estimate D2E/DX2                !
 ! A3    A(3,1,11)             123.378          estimate D2E/DX2                !
 ! A4    A(1,3,5)              122.453          estimate D2E/DX2                !
 ! A5    A(1,3,6)              113.6061         estimate D2E/DX2                !
 ! A6    A(5,3,6)              123.9099         estimate D2E/DX2                !
 ! A7    A(3,5,7)              112.4893         estimate D2E/DX2                !
 ! A8    A(3,5,8)              108.5516         estimate D2E/DX2                !
 ! A9    A(3,5,9)              110.3772         estimate D2E/DX2                !
 ! A10   A(7,5,8)              108.0184         estimate D2E/DX2                !
 ! A11   A(7,5,9)              109.5063         estimate D2E/DX2                !
 ! A12   A(8,5,9)              107.7524         estimate D2E/DX2                !
 ! A13   A(3,6,4)               71.3119         estimate D2E/DX2                !
 ! A14   A(3,6,10)             121.7434         estimate D2E/DX2                !
 ! A15   A(3,6,12)             112.1126         estimate D2E/DX2                !
 ! A16   A(4,6,10)             115.0473         estimate D2E/DX2                !
 ! A17   A(4,6,12)             103.4627         estimate D2E/DX2                !
 ! A18   A(10,6,12)            120.7559         estimate D2E/DX2                !
 ! A19   A(6,12,13)            106.2499         estimate D2E/DX2                !
 ! D1    D(2,1,3,5)           -169.3282         estimate D2E/DX2                !
 ! D2    D(2,1,3,6)              8.7184         estimate D2E/DX2                !
 ! D3    D(11,1,3,5)            20.358          estimate D2E/DX2                !
 ! D4    D(11,1,3,6)          -161.5954         estimate D2E/DX2                !
 ! D5    D(1,3,5,7)            -41.1105         estimate D2E/DX2                !
 ! D6    D(1,3,5,8)             78.366          estimate D2E/DX2                !
 ! D7    D(1,3,5,9)           -163.7463         estimate D2E/DX2                !
 ! D8    D(6,3,5,7)            141.0464         estimate D2E/DX2                !
 ! D9    D(6,3,5,8)            -99.4771         estimate D2E/DX2                !
 ! D10   D(6,3,5,9)             18.4106         estimate D2E/DX2                !
 ! D11   D(1,3,6,4)            101.0495         estimate D2E/DX2                !
 ! D12   D(1,3,6,10)            -7.3888         estimate D2E/DX2                !
 ! D13   D(1,3,6,12)          -161.6054         estimate D2E/DX2                !
 ! D14   D(5,3,6,4)            -80.9368         estimate D2E/DX2                !
 ! D15   D(5,3,6,10)           170.625          estimate D2E/DX2                !
 ! D16   D(5,3,6,12)            16.4084         estimate D2E/DX2                !
 ! D17   D(3,6,12,13)          174.199          estimate D2E/DX2                !
 ! D18   D(4,6,12,13)         -110.7738         estimate D2E/DX2                !
 ! D19   D(10,6,12,13)          19.6948         estimate D2E/DX2                !
 --------------------------------------------------------------------------------
 Trust Radius=3.00D-01 FncErr=1.00D-07 GrdErr=1.00D-06
 Number of steps in this run=     60 maximum allowed number of steps=    100.
 GradGradGradGradGradGradGradGradGradGradGradGradGradGradGradGradGradGrad

                          Input orientation:                          
 ---------------------------------------------------------------------
 Center     Atomic      Atomic             Coordinates (Angstroms)
 Number     Number       Type             X           Y           Z
 ---------------------------------------------------------------------
      1          7           0       -1.347780   -1.256941   -0.212957
      2          1           0       -0.670752   -2.004843   -0.075134
      3          6           0       -0.827561   -0.030138   -0.343733
      4          1           0        0.251545    0.087862   -1.348027
      5          6           0       -1.668911    1.204249   -0.319206
      6          6           0        0.637194   -0.021846   -0.465475
      7          1           0       -2.605321    1.084635   -0.876620
      8          1           0       -1.921858    1.434047    0.724589
      9          1           0       -1.112319    2.050817   -0.720295
     10          8           0        1.334448   -1.088244   -0.305595
     11          1           0       -2.317543   -1.468943   -0.384775
     12          8           0        1.193885    1.265623   -0.182801
     13          1           0        2.165816    1.152513   -0.195612
 ---------------------------------------------------------------------
                    Distance matrix (angstroms):
                    1          2          3          4          5
     1  N    0.000000
     2  H    1.018194   0.000000
     3  C    1.338946   1.999048   0.000000
     4  H    2.377965   2.617308   1.478851   0.000000
     5  C    2.484325   3.369594   1.494049   2.448049   0.000000
     6  C    2.351456   2.407357   1.469829   0.969360   2.615879
     7  H    2.739496   3.732266   2.164975   3.062264   1.096304
     8  H    2.906884   3.745769   2.117224   3.291144   1.098316
     9  H    3.354713   4.130326   2.133837   2.471308   1.089653
    10  O    2.689124   2.216775   2.407348   1.908552   3.778343
    11  H    1.007426   1.759258   2.071688   3.154633   2.751541
    12  O    3.581103   3.766220   2.406479   1.906011   2.866701
    13  H    4.260414   4.246119   3.221942   2.475071   3.837067
                    6          7          8          9         10
     6  C    0.000000
     7  H    3.450687   0.000000
     8  H    3.175630   1.775692   0.000000
     9  H    2.724273   1.785217   1.767328   0.000000
    10  O    1.284106   4.535334   4.245793   4.001543   0.000000
    11  H    3.291060   2.616388   3.132827   3.735485   3.672634
    12  O    1.430869   3.866278   3.249550   2.494796   2.361255
    13  H    1.946440   4.819972   4.199418   3.439246   2.392543
                   11         12         13
    11  H    0.000000
    12  O    4.455196   0.000000
    13  H    5.196953   0.978574   0.000000
 Stoichiometry    C3H7NO2
 Framework group  C1[X(C3H7NO2)]
 Deg. of freedom    33
 Full point group                 C1      NOp   1
 Largest Abelian subgroup         C1      NOp   1
 Largest concise Abelian subgroup C1      NOp   1
                         Standard orientation:                         
 ---------------------------------------------------------------------
 Center     Atomic      Atomic             Coordinates (Angstroms)
 Number     Number       Type             X           Y           Z
 ---------------------------------------------------------------------
      1          7           0       -1.210744    1.295922   -0.101159
      2          1           0       -0.533734    2.043562   -0.240487
      3          6           0       -0.690572    0.069224    0.030777
      4          1           0        0.389326   -0.047619    1.034355
      5          6           0       -1.532094   -1.165089    0.008513
      6          6           0        0.774280    0.060906    0.151354
      7          1           0       -2.468041   -1.044641    0.566524
      8          1           0       -1.785907   -1.396197   -1.034782
      9          1           0       -0.975284   -2.011210    0.410243
     10          8           0        1.471537    1.127011   -0.010457
     11          1           0       -2.180343    1.508266    0.071165
     12          8           0        1.330584   -1.226995   -0.130111
     13          1           0        2.302539   -1.113990   -0.118226
 ---------------------------------------------------------------------
 Rotational constants (GHZ):      4.9267848      3.4015179      2.0686572
 Standard basis: 6-31G (6D, 7F)
 There are    68 symmetry adapted cartesian basis functions of A   symmetry.
 There are    68 symmetry adapted basis functions of A   symmetry.
    68 basis functions,   160 primitive gaussians,    68 cartesian basis functions
    24 alpha electrons       24 beta electrons
       nuclear repulsion energy       249.8497791792 Hartrees.
 NAtoms=   13 NActive=   13 NUniq=   13 SFac= 1.00D+00 NAtFMM=   60 NAOKFM=F Big=F
 Integral buffers will be    131072 words long.
 Raffenetti 2 integral format.
 Two-electron integral symmetry is turned on.
 One-electron integrals computed using PRISM.
 NBasis=    68 RedAO= T EigKep=  3.40D-03  NBF=    68
 NBsUse=    68 1.00D-06 EigRej= -1.00D+00 NBFU=    68
 ExpMin= 1.61D-01 ExpMax= 5.48D+03 ExpMxC= 8.25D+02 IAcc=1 IRadAn=         1 AccDes= 0.00D+00
 Harris functional with IExCor=  402 and IRadAn=       1 diagonalized for initial guess.
 HarFok:  IExCor=  402 AccDes= 0.00D+00 IRadAn=         1 IDoV= 1 UseB2=F ITyADJ=14
 ICtDFT=  3500011 ScaDFX=  1.000000  1.000000  1.000000  1.000000
 FoFCou: FMM=F IPFlag=           0 FMFlag=      100000 FMFlg1=           0
         NFxFlg=           0 DoJE=T BraDBF=F KetDBF=T FulRan=T
         wScrn=  0.000000 ICntrl=     500 IOpCl=  0 I1Cent=   200000004 NGrid=           0
         NMat0=    1 NMatS0=      1 NMatT0=    0 NMatD0=    1 NMtDS0=    0 NMtDT0=    0
 Petite list used in FoFCou.
 Keep R1 ints in memory in canonical form, NReq=3676491.
 Requested convergence on RMS density matrix=1.00D-08 within 128 cycles.
 Requested convergence on MAX density matrix=1.00D-06.
 Requested convergence on             energy=1.00D-06.
 No special actions if energy rises.
 Integral accuracy reduced to 1.0D-05 until final iterations.
 EnCoef did     3 forward-backward iterations
 Initial convergence to 1.0D-05 achieved.  Increase integral accuracy.
 SCF Done:  E(RB3LYP) =  -323.517453956     A.U. after   17 cycles
            NFock= 17  Conv=0.94D-08     -V/T= 2.0040

 **********************************************************************

            Population analysis using the SCF density.

 **********************************************************************

 Orbital symmetries:
       Occupied  (A) (A) (A) (A) (A) (A) (A) (A) (A) (A) (A) (A)
                 (A) (A) (A) (A) (A) (A) (A) (A) (A) (A) (A) (A)
       Virtual   (A) (A) (A) (A) (A) (A) (A) (A) (A) (A) (A) (A)
                 (A) (A) (A) (A) (A) (A) (A) (A) (A) (A) (A) (A)
                 (A) (A) (A) (A) (A) (A) (A) (A) (A) (A) (A) (A)
                 (A) (A) (A) (A) (A) (A) (A) (A)
 The electronic state is 1-A.
 Alpha  occ. eigenvalues --  -19.13269 -19.05550 -14.38783 -10.28225 -10.26786
 Alpha  occ. eigenvalues --  -10.21123  -1.04750  -0.97846  -0.93617  -0.80228
 Alpha  occ. eigenvalues --   -0.73012  -0.61253  -0.57192  -0.51965  -0.47900
 Alpha  occ. eigenvalues --   -0.44797  -0.43277  -0.41886  -0.39923  -0.35087
 Alpha  occ. eigenvalues --   -0.33591  -0.27002  -0.22062  -0.19075
 Alpha virt. eigenvalues --   -0.03668   0.05887   0.09536   0.11565   0.12927
 Alpha virt. eigenvalues --    0.14528   0.16268   0.17746   0.21552   0.24073
 Alpha virt. eigenvalues --    0.29023   0.33260   0.37318   0.52236   0.54021
 Alpha virt. eigenvalues --    0.57879   0.61721   0.62128   0.66408   0.66674
 Alpha virt. eigenvalues --    0.68390   0.73370   0.75559   0.80771   0.84133
 Alpha virt. eigenvalues --    0.85148   0.86719   0.90135   0.91340   0.93843
 Alpha virt. eigenvalues --    0.97179   1.00258   1.00730   1.03553   1.12560
 Alpha virt. eigenvalues --    1.14167   1.19310   1.23323   1.35598   1.41241
 Alpha virt. eigenvalues --    1.50239   1.58827   1.85053   1.92453
          Condensed to atoms (all electrons):
               1          2          3          4          5          6
     1  N    6.946432   0.278709   0.325185  -0.033109  -0.078224  -0.051527
     2  H    0.278709   0.370924  -0.057661   0.009270   0.004690   0.004144
     3  C    0.325185  -0.057661   5.636401  -0.081111   0.296196  -0.019808
     4  H   -0.033109   0.009270  -0.081111   0.953853  -0.009621   0.149621
     5  C   -0.078224   0.004690   0.296196  -0.009621   5.138241  -0.006321
     6  C   -0.051527   0.004144  -0.019808   0.149621  -0.006321   4.984122
     7  H   -0.003832  -0.000433  -0.033699  -0.005274   0.355257   0.002531
     8  H   -0.000658   0.000089  -0.042436   0.003577   0.373863  -0.000004
     9  H    0.003764  -0.000130  -0.027830   0.003360   0.368551  -0.001441
    10  O   -0.013703   0.047360  -0.117236  -0.054688   0.003442   0.468790
    11  H    0.319029  -0.020727  -0.033833  -0.003745  -0.002940   0.006438
    12  O    0.003004   0.001092  -0.114507  -0.072248   0.002720   0.187259
    13  H   -0.000172  -0.000095   0.015281  -0.001437  -0.000518  -0.025467
               7          8          9         10         11         12
     1  N   -0.003832  -0.000658   0.003764  -0.013703   0.319029   0.003004
     2  H   -0.000433   0.000089  -0.000130   0.047360  -0.020727   0.001092
     3  C   -0.033699  -0.042436  -0.027830  -0.117236  -0.033833  -0.114507
     4  H   -0.005274   0.003577   0.003360  -0.054688  -0.003745  -0.072248
     5  C    0.355257   0.373863   0.368551   0.003442  -0.002940   0.002720
     6  C    0.002531  -0.000004  -0.001441   0.468790   0.006438   0.187259
     7  H    0.597691  -0.034365  -0.027150  -0.000052   0.004357   0.000298
     8  H   -0.034365   0.524957  -0.018802   0.000084  -0.000618   0.000234
     9  H   -0.027150  -0.018802   0.490413   0.000104  -0.000038   0.005565
    10  O   -0.000052   0.000084   0.000104   8.309832   0.000407  -0.093086
    11  H    0.004357  -0.000618  -0.000038   0.000407   0.402720  -0.000015
    12  O    0.000298   0.000234   0.005565  -0.093086  -0.000015   8.452839
    13  H    0.000003  -0.000015  -0.000090   0.007223   0.000003   0.234682
              13
     1  N   -0.000172
     2  H   -0.000095
     3  C    0.015281
     4  H   -0.001437
     5  C   -0.000518
     6  C   -0.025467
     7  H    0.000003
     8  H   -0.000015
     9  H   -0.000090
    10  O    0.007223
    11  H    0.000003
    12  O    0.234682
    13  H    0.396541
 Mulliken charges:
               1
     1  N   -0.694898
     2  H    0.362766
     3  C    0.255056
     4  H    0.141553
     5  C   -0.445336
     6  C    0.301665
     7  H    0.144669
     8  H    0.194095
     9  H    0.203724
    10  O   -0.558479
    11  H    0.328962
    12  O   -0.607838
    13  H    0.374061
 Sum of Mulliken charges =   0.00000
 Mulliken charges with hydrogens summed into heavy atoms:
               1
     1  N   -0.003170
     3  C    0.255056
     5  C    0.097152
     6  C    0.443218
    10  O   -0.558479
    12  O   -0.233777
 Electronic spatial extent (au):  <R**2>=            588.5562
 Charge=              0.0000 electrons
 Dipole moment (field-independent basis, Debye):
    X=             -4.9993    Y=             -0.5030    Z=              0.7900  Tot=              5.0863
 Quadrupole moment (field-independent basis, Debye-Ang):
   XX=            -31.3571   YY=            -36.6195   ZZ=            -36.7479
   XY=             -6.9526   XZ=              0.0989   YZ=             -0.3581
 Traceless Quadrupole moment (field-independent basis, Debye-Ang):
   XX=              3.5511   YY=             -1.7113   ZZ=             -1.8397
   XY=             -6.9526   XZ=              0.0989   YZ=             -0.3581
 Octapole moment (field-independent basis, Debye-Ang**2):
  XXX=             -0.4728  YYY=             10.0771  ZZZ=             -1.1797  XYY=            -12.7665
  XXY=             -8.0947  XXZ=              0.1344  XZZ=              1.8081  YZZ=             -0.7270
  YYZ=             -0.7049  XYZ=             -1.2293
 Hexadecapole moment (field-independent basis, Debye-Ang**3):
 XXXX=           -330.1132 YYYY=           -258.3504 ZZZZ=            -46.0699 XXXY=            -55.1565
 XXXZ=             -5.4989 YYYX=            -21.2141 YYYZ=             -3.9712 ZZZX=              0.9672
 ZZZY=              1.5996 XXYY=           -103.9157 XXZZ=            -73.8368 YYZZ=            -55.0885
 XXYZ=              3.0417 YYXZ=              0.2138 ZZXY=              0.2105
 N-N= 2.498497791792D+02 E-N=-1.257761148058D+03  KE= 3.222289975666D+02
 Calling FoFJK, ICntrl=      2127 FMM=F ISym2X=0 I1Cent= 0 IOpClX= 0 NMat=1 NMatS=1 NMatT=0.
 ***** Axes restored to original set *****
 -------------------------------------------------------------------
 Center     Atomic                   Forces (Hartrees/Bohr)
 Number     Number              X              Y              Z
 -------------------------------------------------------------------
      1        7           0.002551169    0.004850803   -0.009633015
      2        1           0.001962157   -0.000302766    0.002697482
      3        6          -0.020654461   -0.003282020    0.052600570
      4        1          -0.041528210    0.017369006   -0.177044602
      5        6           0.001151609   -0.002407523   -0.007293630
      6        6           0.037896517   -0.005640601    0.122740806
      7        1          -0.001070600    0.000693339   -0.000305037
      8        1           0.001360429   -0.000554215   -0.000103068
      9        1           0.000070081    0.000871927    0.000335059
     10        8           0.014122026   -0.024397526    0.008503350
     11        1          -0.000993633   -0.000730222   -0.001886835
     12        8           0.006121823    0.014315484    0.009055090
     13        1          -0.000988906   -0.000785685    0.000333829
 -------------------------------------------------------------------
 Cartesian Forces:  Max     0.177044602 RMS     0.037384296

 GradGradGradGradGradGradGradGradGradGradGradGradGradGradGradGradGradGrad
 Berny optimization.
 FormGI is forming the generalized inverse of G from B-inverse, IUseBI=4.
 Internal  Forces:  Max     0.179676669 RMS     0.026958494
 Search for a local minimum.
 Step number   1 out of a maximum of   60
 All quantities printed in internal units (Hartrees-Bohrs-Radians)
 Mixed Optimization -- RFO/linear search
 Second derivative matrix not updated -- first step.
 ITU=  0
     Eigenvalues ---    0.00845   0.01165   0.01283   0.01338   0.02499
     Eigenvalues ---    0.02598   0.04041   0.07127   0.07620   0.08780
     Eigenvalues ---    0.11292   0.16000   0.16000   0.16000   0.16000
     Eigenvalues ---    0.16000   0.16000   0.23233   0.24496   0.24985
     Eigenvalues ---    0.24989   0.33010   0.33869   0.34094   0.34853
     Eigenvalues ---    0.35761   0.40865   0.44627   0.46406   0.51663
     Eigenvalues ---    0.53508   0.57442   0.71808
 RFO step:  Lambda=-7.14478807D-02 EMin= 8.44666664D-03
 Linear search not attempted -- first point.
 Maximum step size (   0.300) exceeded in Quadratic search.
    -- Step size scaled by   0.805
 Iteration  1 RMS(Cart)=  0.06081612 RMS(Int)=  0.00460399
 Iteration  2 RMS(Cart)=  0.00532451 RMS(Int)=  0.00066007
 Iteration  3 RMS(Cart)=  0.00004966 RMS(Int)=  0.00065856
 Iteration  4 RMS(Cart)=  0.00000006 RMS(Int)=  0.00065856
 Variable       Old X    -DE/DX   Delta X   Delta X   Delta X     New X
                                 (Linear)    (Quad)   (Total)
    R1        1.92411   0.00189   0.00000   0.00294   0.00294   1.92705
    R2        2.53024  -0.00573   0.00000  -0.00714  -0.00714   2.52310
    R3        1.90376   0.00143   0.00000   0.00215   0.00215   1.90591
    R4        2.82334  -0.00213   0.00000  -0.00426  -0.00426   2.81908
    R5        2.77757   0.01859   0.00000   0.03487   0.03487   2.81244
    R6        1.83182   0.17968   0.00000   0.23840   0.23840   2.07023
    R7        2.07171   0.00099   0.00000   0.00194   0.00194   2.07365
    R8        2.07552  -0.00053   0.00000  -0.00103  -0.00103   2.07448
    R9        2.05915   0.00059   0.00000   0.00113   0.00113   2.06027
   R10        2.42661   0.02899   0.00000   0.02955   0.02955   2.45616
   R11        2.70395   0.01603   0.00000   0.02687   0.02687   2.73082
   R12        1.84924  -0.00090   0.00000  -0.00123  -0.00123   1.84801
    A1        2.01296  -0.00150   0.00000  -0.00505  -0.00505   2.00791
    A2        2.10433   0.00071   0.00000   0.00263   0.00262   2.10696
    A3        2.15335   0.00089   0.00000   0.00324   0.00324   2.15659
    A4        2.13721   0.00414   0.00000   0.01069   0.01045   2.14766
    A5        1.98280  -0.00421   0.00000  -0.01023  -0.01047   1.97234
    A6        2.16264   0.00020   0.00000   0.00078   0.00054   2.16318
    A7        1.96331   0.00170   0.00000   0.00668   0.00667   1.96998
    A8        1.89458  -0.00219   0.00000  -0.00829  -0.00829   1.88629
    A9        1.92645   0.00067   0.00000   0.00230   0.00229   1.92873
   A10        1.88528   0.00044   0.00000   0.00166   0.00167   1.88695
   A11        1.91125  -0.00053   0.00000  -0.00057  -0.00059   1.91065
   A12        1.88063  -0.00019   0.00000  -0.00224  -0.00224   1.87839
   A13        1.24463   0.03618   0.00000   0.16646   0.16665   1.41128
   A14        2.12482  -0.00382   0.00000  -0.01941  -0.02174   2.10309
   A15        1.95673  -0.00496   0.00000  -0.02038  -0.02271   1.93403
   A16        2.00795  -0.00923   0.00000  -0.02788  -0.02836   1.97959
   A17        1.80576  -0.00614   0.00000  -0.00784  -0.00699   1.79877
   A18        2.10759   0.00109   0.00000  -0.01140  -0.01400   2.09358
   A19        1.85441  -0.00149   0.00000  -0.00517  -0.00517   1.84924
    D1       -2.95533   0.00007   0.00000  -0.00183  -0.00183  -2.95717
    D2        0.15216   0.00419   0.00000   0.03733   0.03733   0.18950
    D3        0.35531  -0.00062   0.00000  -0.00754  -0.00754   0.34777
    D4       -2.82037   0.00350   0.00000   0.03162   0.03162  -2.78875
    D5       -0.71751   0.00263   0.00000   0.02416   0.02428  -0.69323
    D6        1.36774   0.00277   0.00000   0.02485   0.02495   1.39269
    D7       -2.85791   0.00162   0.00000   0.01850   0.01861  -2.83931
    D8        2.46172  -0.00186   0.00000  -0.01889  -0.01899   2.44273
    D9       -1.73620  -0.00171   0.00000  -0.01821  -0.01832  -1.75453
   D10        0.32133  -0.00287   0.00000  -0.02455  -0.02466   0.29666
   D11        1.76365  -0.00198   0.00000  -0.02227  -0.02158   1.74207
   D12       -0.12896  -0.01113   0.00000  -0.08192  -0.08147  -0.21043
   D13       -2.82055   0.00583   0.00000   0.03579   0.03501  -2.78553
   D14       -1.41261   0.00230   0.00000   0.01776   0.01821  -1.39440
   D15        2.97797  -0.00685   0.00000  -0.04189  -0.04168   2.93629
   D16        0.28638   0.01011   0.00000   0.07583   0.07480   0.36118
   D17        3.04035  -0.01853   0.00000  -0.10095  -0.10052   2.93983
   D18       -1.93337   0.01797   0.00000   0.07459   0.07444  -1.85893
   D19        0.34374  -0.00035   0.00000   0.01775   0.01747   0.36121
         Item               Value     Threshold  Converged?
 Maximum Force            0.179677     0.000450     NO 
 RMS     Force            0.026958     0.000300     NO 
 Maximum Displacement     0.376203     0.001800     NO 
 RMS     Displacement     0.065497     0.001200     NO 
 Predicted change in Energy=-3.886602D-02
 GradGradGradGradGradGradGradGradGradGradGradGradGradGradGradGradGradGrad

                          Input orientation:                          
 ---------------------------------------------------------------------
 Center     Atomic      Atomic             Coordinates (Angstroms)
 Number     Number       Type             X           Y           Z
 ---------------------------------------------------------------------
      1          7           0       -1.351783   -1.254787   -0.195467
      2          1           0       -0.663599   -1.994269   -0.055958
      3          6           0       -0.843482   -0.027253   -0.327634
      4          1           0        0.337601    0.095644   -1.547105
      5          6           0       -1.681662    1.206679   -0.310025
      6          6           0        0.634825   -0.025238   -0.499631
      7          1           0       -2.630321    1.085579   -0.848089
      8          1           0       -1.910987    1.447784    0.736101
      9          1           0       -1.130721    2.048690   -0.729699
     10          8           0        1.325944   -1.103842   -0.279864
     11          1           0       -2.321102   -1.477868   -0.362372
     12          8           0        1.188769    1.267116   -0.166098
     13          1           0        2.157363    1.140553   -0.119802
 ---------------------------------------------------------------------
                    Distance matrix (angstroms):
                    1          2          3          4          5
     1  N    0.000000
     2  H    1.019751   0.000000
     3  C    1.335169   1.993819   0.000000
     4  H    2.550413   2.755659   1.702108   0.000000
     5  C    2.486114   3.368541   1.491793   2.615758   0.000000
     6  C    2.356038   2.399965   1.488280   1.095517   2.630529
     7  H    2.745522   3.739108   2.168424   3.205800   1.097330
     8  H    2.912802   3.745806   2.108751   3.478140   1.097770
     9  H    3.353689   4.125244   2.133940   2.576530   1.090250
    10  O    2.683305   2.191181   2.422340   2.005365   3.792771
    11  H    1.008565   1.762917   2.070955   3.308812   2.760149
    12  O    3.579841   3.752337   2.414856   2.001003   2.874672
    13  H    4.249410   4.217703   3.226769   2.537827   3.844304
                    6          7          8          9         10
     6  C    0.000000
     7  H    3.466485   0.000000
     8  H    3.190295   1.777158   0.000000
     9  H    2.733361   1.786169   1.765919   0.000000
    10  O    1.299742   4.557244   4.245079   4.021941   0.000000
    11  H    3.296435   2.627318   3.151869   3.740127   3.667103
    12  O    1.445087   3.883750   3.233432   2.511680   2.377647
    13  H    1.954856   4.843072   4.168745   3.465283   2.398789
                   11         12         13
    11  H    0.000000
    12  O    4.460119   0.000000
    13  H    5.193421   0.977925   0.000000
 Stoichiometry    C3H7NO2
 Framework group  C1[X(C3H7NO2)]
 Deg. of freedom    33
 Full point group                 C1      NOp   1
 Largest Abelian subgroup         C1      NOp   1
 Largest concise Abelian subgroup C1      NOp   1
                         Standard orientation:                         
 ---------------------------------------------------------------------
 Center     Atomic      Atomic             Coordinates (Angstroms)
 Number     Number       Type             X           Y           Z
 ---------------------------------------------------------------------
      1          7           0       -1.191626    1.308606   -0.106797
      2          1           0       -0.493727    2.038785   -0.247039
      3          6           0       -0.699815    0.074140    0.023172
      4          1           0        0.481989   -0.065997    1.240083
      5          6           0       -1.554752   -1.148251    0.006144
      6          6           0        0.778678    0.051835    0.192109
      7          1           0       -2.500566   -1.014765    0.546282
      8          1           0       -1.789487   -1.385205   -1.039729
      9          1           0       -1.014464   -1.998086    0.423892
     10          8           0        1.483965    1.121142   -0.028079
     11          1           0       -2.157474    1.544701    0.062320
     12          8           0        1.314288   -1.247619   -0.143775
     13          1           0        2.284419   -1.134208   -0.191955
 ---------------------------------------------------------------------
 Rotational constants (GHZ):      4.8633979      3.3744392      2.0598772
 Standard basis: 6-31G (6D, 7F)
 There are    68 symmetry adapted cartesian basis functions of A   symmetry.
 There are    68 symmetry adapted basis functions of A   symmetry.
    68 basis functions,   160 primitive gaussians,    68 cartesian basis functions
    24 alpha electrons       24 beta electrons
       nuclear repulsion energy       247.9173893411 Hartrees.
 NAtoms=   13 NActive=   13 NUniq=   13 SFac= 1.00D+00 NAtFMM=   60 NAOKFM=F Big=F
 Integral buffers will be    131072 words long.
 Raffenetti 2 integral format.
 Two-electron integral symmetry is turned on.
 One-electron integrals computed using PRISM.
 NBasis=    68 RedAO= T EigKep=  3.57D-03  NBF=    68
 NBsUse=    68 1.00D-06 EigRej= -1.00D+00 NBFU=    68
 Initial guess from the checkpoint file:  "Ala-S-opt-freq-pb1-6-31g.chk"
 B after Tr=     0.000000    0.000000    0.000000
         Rot=    0.999981    0.000048   -0.000847    0.006067 Ang=   0.70 deg.
 ExpMin= 1.61D-01 ExpMax= 5.48D+03 ExpMxC= 8.25D+02 IAcc=1 IRadAn=         1 AccDes= 0.00D+00
 Harris functional with IExCor=  402 and IRadAn=       1 diagonalized for initial guess.
 HarFok:  IExCor=  402 AccDes= 0.00D+00 IRadAn=         1 IDoV= 1 UseB2=F ITyADJ=14
 ICtDFT=  3500011 ScaDFX=  1.000000  1.000000  1.000000  1.000000
 FoFCou: FMM=F IPFlag=           0 FMFlag=      100000 FMFlg1=           0
         NFxFlg=           0 DoJE=T BraDBF=F KetDBF=T FulRan=T
         wScrn=  0.000000 ICntrl=     500 IOpCl=  0 I1Cent=   200000004 NGrid=           0
         NMat0=    1 NMatS0=      1 NMatT0=    0 NMatD0=    1 NMtDS0=    0 NMtDT0=    0
 Petite list used in FoFCou.
 Keep R1 ints in memory in canonical form, NReq=3676491.
 Requested convergence on RMS density matrix=1.00D-08 within 128 cycles.
 Requested convergence on MAX density matrix=1.00D-06.
 Requested convergence on             energy=1.00D-06.
 No special actions if energy rises.
 Integral accuracy reduced to 1.0D-05 until final iterations.
 Initial convergence to 1.0D-05 achieved.  Increase integral accuracy.
 SCF Done:  E(RB3LYP) =  -323.553907957     A.U. after   15 cycles
            NFock= 15  Conv=0.67D-08     -V/T= 2.0050
 Calling FoFJK, ICntrl=      2127 FMM=F ISym2X=0 I1Cent= 0 IOpClX= 0 NMat=1 NMatS=1 NMatT=0.
 ***** Axes restored to original set *****
 -------------------------------------------------------------------
 Center     Atomic                   Forces (Hartrees/Bohr)
 Number     Number              X              Y              Z
 -------------------------------------------------------------------
      1        7           0.002688611    0.012877252   -0.008038700
      2        1           0.004345049   -0.000412531    0.000127031
      3        6          -0.011226165   -0.008891381    0.029349292
      4        1          -0.003601242    0.004271184   -0.050947711
      5        6           0.000052482   -0.002946242   -0.007453654
      6        6           0.003604581   -0.000943517    0.017536977
      7        1          -0.000574993    0.000371901    0.000581609
      8        1           0.000689567   -0.000049049    0.000466862
      9        1           0.000525321   -0.000166163    0.000535503
     10        8           0.003336321   -0.011277349    0.007745399
     11        1          -0.001414227   -0.000475034    0.001598502
     12        8           0.001828145    0.008632737    0.008023173
     13        1          -0.000253450   -0.000991808    0.000475715
 -------------------------------------------------------------------
 Cartesian Forces:  Max     0.050947711 RMS     0.010959646

 GradGradGradGradGradGradGradGradGradGradGradGradGradGradGradGradGradGrad
 Berny optimization.
 Using GEDIIS/GDIIS optimizer.
 FormGI is forming the generalized inverse of G from B-inverse, IUseBI=4.
 Internal  Forces:  Max     0.050162721 RMS     0.008600301
 Search for a local minimum.
 Step number   2 out of a maximum of   60
 All quantities printed in internal units (Hartrees-Bohrs-Radians)
 Mixed Optimization -- RFO/linear search
 Update second derivatives using D2CorX and points    1    2
 DE= -3.65D-02 DEPred=-3.89D-02 R= 9.38D-01
 TightC=F SS=  1.41D+00  RLast= 3.57D-01 DXNew= 5.0454D-01 1.0700D+00
 Trust test= 9.38D-01 RLast= 3.57D-01 DXMaxT set to 5.05D-01
 ITU=  1  0
 Use linear search instead of GDIIS.
     Eigenvalues ---    0.00845   0.01165   0.01283   0.01352   0.02512
     Eigenvalues ---    0.02592   0.04717   0.07072   0.07659   0.09059
     Eigenvalues ---    0.12038   0.15959   0.16000   0.16000   0.16000
     Eigenvalues ---    0.16000   0.16012   0.22438   0.24698   0.24903
     Eigenvalues ---    0.25005   0.32978   0.33869   0.34095   0.34853
     Eigenvalues ---    0.35688   0.40459   0.44539   0.46394   0.51378
     Eigenvalues ---    0.51667   0.60292   0.71477
 RFO step:  Lambda=-2.41922857D-02 EMin= 8.44638662D-03
 Quartic linear search produced a step of  0.93635.
 Iteration  1 RMS(Cart)=  0.09852754 RMS(Int)=  0.03129339
 Iteration  2 RMS(Cart)=  0.04490598 RMS(Int)=  0.01036200
 Iteration  3 RMS(Cart)=  0.00218369 RMS(Int)=  0.01022972
 Iteration  4 RMS(Cart)=  0.00003816 RMS(Int)=  0.01022970
 Iteration  5 RMS(Cart)=  0.00000131 RMS(Int)=  0.01022970
 Iteration  6 RMS(Cart)=  0.00000004 RMS(Int)=  0.01022970
 Variable       Old X    -DE/DX   Delta X   Delta X   Delta X     New X
                                 (Linear)    (Quad)   (Total)
    R1        1.92705   0.00325   0.00276   0.01013   0.01288   1.93994
    R2        2.52310  -0.01379  -0.00668  -0.03605  -0.04273   2.48038
    R3        1.90591   0.00120   0.00202   0.00254   0.00455   1.91046
    R4        2.81908  -0.00277  -0.00399  -0.01081  -0.01480   2.80428
    R5        2.81244   0.00686   0.03265   0.00192   0.03457   2.84701
    R6        2.07023   0.05016   0.22323  -0.06559   0.15763   2.22786
    R7        2.07365   0.00017   0.00182  -0.00087   0.00094   2.07460
    R8        2.07448   0.00029  -0.00097   0.00244   0.00147   2.07595
    R9        2.06027  -0.00007   0.00106  -0.00138  -0.00032   2.05995
   R10        2.45616   0.01244   0.02767   0.00135   0.02901   2.48517
   R11        2.73082   0.00940   0.02516   0.01551   0.04067   2.77149
   R12        1.84801  -0.00010  -0.00115   0.00085  -0.00030   1.84771
    A1        2.00791  -0.00406  -0.00473  -0.03625  -0.04126   1.96664
    A2        2.10696   0.00157   0.00246   0.01581   0.01798   2.12494
    A3        2.15659   0.00262   0.00303   0.02607   0.02883   2.18542
    A4        2.14766   0.00319   0.00979   0.01311   0.01711   2.16476
    A5        1.97234  -0.00528  -0.00980  -0.02750  -0.04215   1.93019
    A6        2.16318   0.00208   0.00051   0.01370   0.00876   2.17194
    A7        1.96998   0.00145   0.00625   0.01406   0.02029   1.99027
    A8        1.88629  -0.00114  -0.00776  -0.00960  -0.01741   1.86888
    A9        1.92873  -0.00069   0.00214  -0.00852  -0.00653   1.92220
   A10        1.88695  -0.00002   0.00157  -0.00099   0.00066   1.88761
   A11        1.91065   0.00033  -0.00055   0.01025   0.00959   1.92024
   A12        1.87839   0.00000  -0.00210  -0.00629  -0.00859   1.86979
   A13        1.41128   0.01526   0.15604   0.16759   0.32807   1.73934
   A14        2.10309  -0.00623  -0.02035  -0.08552  -0.13642   1.96666
   A15        1.93403  -0.00404  -0.02126  -0.06378  -0.11235   1.82167
   A16        1.97959  -0.00238  -0.02656   0.05541   0.03672   2.01631
   A17        1.79877  -0.00012  -0.00655   0.08571   0.08717   1.88594
   A18        2.09358   0.00290  -0.01311  -0.03213  -0.08739   2.00620
   A19        1.84924  -0.00162  -0.00485  -0.01301  -0.01785   1.83138
    D1       -2.95717  -0.00131  -0.00171  -0.07398  -0.07478  -3.03195
    D2        0.18950   0.00075   0.03496   0.07195   0.10602   0.29552
    D3        0.34777  -0.00230  -0.00706  -0.11385  -0.12003   0.22774
    D4       -2.78875  -0.00023   0.02961   0.03208   0.06077  -2.72798
    D5       -0.69323   0.00162   0.02273   0.09819   0.12258  -0.57065
    D6        1.39269   0.00172   0.02336   0.09915   0.12397   1.51667
    D7       -2.83931   0.00066   0.01742   0.08108   0.10013  -2.73918
    D8        2.44273  -0.00069  -0.01778  -0.06384  -0.08313   2.35960
    D9       -1.75453  -0.00059  -0.01716  -0.06288  -0.08174  -1.83627
   D10        0.29666  -0.00164  -0.02309  -0.08095  -0.10559   0.19108
   D11        1.74207  -0.00069  -0.02020  -0.05710  -0.07501   1.66706
   D12       -0.21043  -0.00622  -0.07628  -0.21165  -0.26955  -0.47998
   D13       -2.78553   0.00500   0.03278   0.10061   0.11725  -2.66828
   D14       -1.39440   0.00139   0.01705   0.09034   0.10666  -1.28774
   D15        2.93629  -0.00414  -0.03903  -0.06421  -0.08788   2.84841
   D16        0.36118   0.00708   0.07004   0.24805   0.29892   0.66010
   D17        2.93983  -0.01050  -0.09412  -0.20104  -0.28381   2.65602
   D18       -1.85893   0.00526   0.06970  -0.00042   0.07148  -1.78745
   D19        0.36121   0.00400   0.01636   0.12892   0.13174   0.49295
         Item               Value     Threshold  Converged?
 Maximum Force            0.050163     0.000450     NO 
 RMS     Force            0.008600     0.000300     NO 
 Maximum Displacement     0.529450     0.001800     NO 
 RMS     Displacement     0.135369     0.001200     NO 
 Predicted change in Energy=-1.542387D-03
 GradGradGradGradGradGradGradGradGradGradGradGradGradGradGradGradGradGrad

                          Input orientation:                          
 ---------------------------------------------------------------------
 Center     Atomic      Atomic             Coordinates (Angstroms)
 Number     Number       Type             X           Y           Z
 ---------------------------------------------------------------------
      1          7           0       -1.318007   -1.224822   -0.175312
      2          1           0       -0.573544   -1.925581   -0.082813
      3          6           0       -0.851847   -0.002959   -0.287364
      4          1           0        0.517698    0.089563   -1.827278
      5          6           0       -1.702843    1.212680   -0.300209
      6          6           0        0.608409   -0.024809   -0.657417
      7          1           0       -2.688064    1.063926   -0.761122
      8          1           0       -1.855922    1.510423    0.746081
      9          1           0       -1.179680    2.031741   -0.793881
     10          8           0        1.221127   -1.111010   -0.240018
     11          1           0       -2.288748   -1.489691   -0.273152
     12          8           0        1.139614    1.231165   -0.117708
     13          1           0        2.082650    1.048163    0.064550
 ---------------------------------------------------------------------
                    Distance matrix (angstroms):
                    1          2          3          4          5
     1  N    0.000000
     2  H    1.026570   0.000000
     3  C    1.312559   1.953400   0.000000
     4  H    2.797573   2.880066   2.062898   0.000000
     5  C    2.470853   3.342343   1.483959   2.919612   0.000000
     6  C    2.320245   2.310870   1.506574   1.178934   2.645914
     7  H    2.731043   3.724037   2.175863   3.516103   1.097829
     8  H    2.935964   3.760011   2.089617   3.778239   1.098548
     9  H    3.317674   4.066130   2.122271   2.778678   1.090079
    10  O    2.542507   1.977140   2.351008   2.110825   3.735339
    11  H    1.010973   1.779931   2.067670   3.575681   2.765290
    12  O    3.474924   3.591821   2.348992   2.147711   2.848370
    13  H    4.097373   3.990017   3.136873   2.635717   3.806582
                    6          7          8          9         10
     6  C    0.000000
     7  H    3.473159   0.000000
     8  H    3.224852   1.778618   0.000000
     9  H    2.728604   1.792473   1.760841   0.000000
    10  O    1.315096   4.503739   4.160833   3.993434   0.000000
    11  H    3.269107   2.630310   3.197946   3.728495   3.530400
    12  O    1.466607   3.884980   3.130073   2.545045   2.346782
    13  H    1.961095   4.841662   4.023744   3.513847   2.344571
                   11         12         13
    11  H    0.000000
    12  O    4.379600   0.000000
    13  H    5.065952   0.977764   0.000000
 Stoichiometry    C3H7NO2
 Framework group  C1[X(C3H7NO2)]
 Deg. of freedom    33
 Full point group                 C1      NOp   1
 Largest Abelian subgroup         C1      NOp   1
 Largest concise Abelian subgroup C1      NOp   1
                         Standard orientation:                         
 ---------------------------------------------------------------------
 Center     Atomic      Atomic             Coordinates (Angstroms)
 Number     Number       Type             X           Y           Z
 ---------------------------------------------------------------------
      1          7           0       -1.052760    1.346709   -0.119550
      2          1           0       -0.257891    1.988578   -0.219713
      3          6           0       -0.680094    0.093046   -0.008821
      4          1           0        0.691403   -0.101306    1.519829
      5          6           0       -1.621075   -1.054205    0.013656
      6          6           0        0.780662    0.004120    0.349016
      7          1           0       -2.588168   -0.830152    0.482442
      8          1           0       -1.805236   -1.340943   -1.030697
      9          1           0       -1.157664   -1.910023    0.504672
     10          8           0        1.470785    1.039873   -0.075745
     11          1           0       -1.999642    1.684908   -0.014188
     12          8           0        1.210069   -1.289460   -0.192461
     13          1           0        2.162729   -1.179102   -0.382947
 ---------------------------------------------------------------------
 Rotational constants (GHZ):      4.8800224      3.4906930      2.1461085
 Standard basis: 6-31G (6D, 7F)
 There are    68 symmetry adapted cartesian basis functions of A   symmetry.
 There are    68 symmetry adapted basis functions of A   symmetry.
    68 basis functions,   160 primitive gaussians,    68 cartesian basis functions
    24 alpha electrons       24 beta electrons
       nuclear repulsion energy       249.1042143605 Hartrees.
 NAtoms=   13 NActive=   13 NUniq=   13 SFac= 1.00D+00 NAtFMM=   60 NAOKFM=F Big=F
 Integral buffers will be    131072 words long.
 Raffenetti 2 integral format.
 Two-electron integral symmetry is turned on.
 One-electron integrals computed using PRISM.
 NBasis=    68 RedAO= T EigKep=  3.30D-03  NBF=    68
 NBsUse=    68 1.00D-06 EigRej= -1.00D+00 NBFU=    68
 Initial guess from the checkpoint file:  "Ala-S-opt-freq-pb1-6-31g.chk"
 B after Tr=     0.000000    0.000000    0.000000
         Rot=    0.999592    0.000933   -0.002488    0.028450 Ang=   3.27 deg.
 ExpMin= 1.61D-01 ExpMax= 5.48D+03 ExpMxC= 8.25D+02 IAcc=1 IRadAn=         1 AccDes= 0.00D+00
 Harris functional with IExCor=  402 and IRadAn=       1 diagonalized for initial guess.
 HarFok:  IExCor=  402 AccDes= 0.00D+00 IRadAn=         1 IDoV= 1 UseB2=F ITyADJ=14
 ICtDFT=  3500011 ScaDFX=  1.000000  1.000000  1.000000  1.000000
 FoFCou: FMM=F IPFlag=           0 FMFlag=      100000 FMFlg1=           0
         NFxFlg=           0 DoJE=T BraDBF=F KetDBF=T FulRan=T
         wScrn=  0.000000 ICntrl=     500 IOpCl=  0 I1Cent=   200000004 NGrid=           0
         NMat0=    1 NMatS0=      1 NMatT0=    0 NMatD0=    1 NMtDS0=    0 NMtDT0=    0
 Petite list used in FoFCou.
 Keep R1 ints in memory in canonical form, NReq=3676491.
 Requested convergence on RMS density matrix=1.00D-08 within 128 cycles.
 Requested convergence on MAX density matrix=1.00D-06.
 Requested convergence on             energy=1.00D-06.
 No special actions if energy rises.
 Integral accuracy reduced to 1.0D-05 until final iterations.
 Initial convergence to 1.0D-05 achieved.  Increase integral accuracy.
 SCF Done:  E(RB3LYP) =  -323.561775956     A.U. after   18 cycles
            NFock= 18  Conv=0.39D-08     -V/T= 2.0052
 Calling FoFJK, ICntrl=      2127 FMM=F ISym2X=0 I1Cent= 0 IOpClX= 0 NMat=1 NMatS=1 NMatT=0.
 ***** Axes restored to original set *****
 -------------------------------------------------------------------
 Center     Atomic                   Forces (Hartrees/Bohr)
 Number     Number              X              Y              Z
 -------------------------------------------------------------------
      1        7          -0.006860940    0.012259140   -0.000045807
      2        1           0.011628870   -0.002386539   -0.003444621
      3        6          -0.025792212   -0.009761621   -0.019854589
      4        1           0.000116530    0.001616514    0.017393797
      5        6          -0.000905480   -0.001075688   -0.000409181
      6        6           0.012153241    0.003368342    0.004263560
      7        1           0.000395272   -0.000909128    0.001331929
      8        1          -0.000348621    0.001710442    0.000079968
      9        1           0.000692623   -0.000218112    0.000512160
     10        8           0.007649549   -0.017807951   -0.006119898
     11        1          -0.002139256    0.001623748    0.008888580
     12        8           0.002794661    0.012290886   -0.003588007
     13        1           0.000615763   -0.000710032    0.000992109
 -------------------------------------------------------------------
 Cartesian Forces:  Max     0.025792212 RMS     0.008272528

 GradGradGradGradGradGradGradGradGradGradGradGradGradGradGradGradGradGrad
 Berny optimization.
 Using GEDIIS/GDIIS optimizer.
 FormGI is forming the generalized inverse of G from B-inverse, IUseBI=4.
 Internal  Forces:  Max     0.019452306 RMS     0.006224670
 Search for a local minimum.
 Step number   3 out of a maximum of   60
 All quantities printed in internal units (Hartrees-Bohrs-Radians)
 Mixed Optimization -- RFO/linear search
 Update second derivatives using D2CorX and points    2    3
 DE= -7.87D-03 DEPred=-1.54D-03 R= 5.10D+00
 TightC=F SS=  1.41D+00  RLast= 7.72D-01 DXNew= 8.4853D-01 2.3161D+00
 Trust test= 5.10D+00 RLast= 7.72D-01 DXMaxT set to 8.49D-01
 ITU=  1  1  0
 Use linear search instead of GDIIS.
     Eigenvalues ---    0.00843   0.01136   0.01281   0.01576   0.02413
     Eigenvalues ---    0.02545   0.06626   0.06965   0.07803   0.08689
     Eigenvalues ---    0.10788   0.15843   0.16000   0.16000   0.16000
     Eigenvalues ---    0.16004   0.16104   0.18797   0.23668   0.24508
     Eigenvalues ---    0.24627   0.32891   0.33866   0.34096   0.34847
     Eigenvalues ---    0.34930   0.39654   0.44184   0.46390   0.50568
     Eigenvalues ---    0.51678   0.61217   0.72153
 RFO step:  Lambda=-7.63565207D-03 EMin= 8.43296272D-03
 Quartic linear search produced a step of -0.29144.
 Iteration  1 RMS(Cart)=  0.08310476 RMS(Int)=  0.00597599
 Iteration  2 RMS(Cart)=  0.00609622 RMS(Int)=  0.00244143
 Iteration  3 RMS(Cart)=  0.00004561 RMS(Int)=  0.00244109
 Iteration  4 RMS(Cart)=  0.00000005 RMS(Int)=  0.00244109
 Variable       Old X    -DE/DX   Delta X   Delta X   Delta X     New X
                                 (Linear)    (Quad)   (Total)
    R1        1.93994   0.00975  -0.00376   0.02058   0.01682   1.95676
    R2        2.48038  -0.01118   0.01245  -0.03112  -0.01867   2.46171
    R3        1.91046   0.00077  -0.00133   0.00311   0.00179   1.91225
    R4        2.80428  -0.00032   0.00431  -0.00684  -0.00253   2.80175
    R5        2.84701   0.01945  -0.01008   0.05353   0.04345   2.89047
    R6        2.22786  -0.01711  -0.04594   0.05677   0.01083   2.23869
    R7        2.07460  -0.00079  -0.00028  -0.00114  -0.00141   2.07318
    R8        2.07595   0.00059  -0.00043   0.00175   0.00132   2.07727
    R9        2.05995  -0.00006   0.00009  -0.00020  -0.00010   2.05985
   R10        2.48517   0.01633  -0.00846   0.02975   0.02129   2.50646
   R11        2.77149   0.01019  -0.01185   0.03524   0.02339   2.79487
   R12        1.84771   0.00091   0.00009   0.00103   0.00112   1.84883
    A1        1.96664  -0.00792   0.01203  -0.04878  -0.03748   1.92916
    A2        2.12494   0.00464  -0.00524   0.02898   0.02301   2.14795
    A3        2.18542   0.00358  -0.00840   0.02896   0.01983   2.20525
    A4        2.16476  -0.00029  -0.00499   0.01227   0.00648   2.17124
    A5        1.93019  -0.00105   0.01228  -0.01458  -0.00322   1.92697
    A6        2.17194   0.00212  -0.00255   0.01443   0.01106   2.18300
    A7        1.99027  -0.00109  -0.00591   0.00412  -0.00179   1.98848
    A8        1.86888   0.00229   0.00507   0.00221   0.00731   1.87619
    A9        1.92220  -0.00088   0.00190  -0.00647  -0.00452   1.91768
   A10        1.88761  -0.00066  -0.00019  -0.00239  -0.00261   1.88500
   A11        1.92024   0.00129  -0.00279   0.00991   0.00714   1.92738
   A12        1.86979  -0.00095   0.00250  -0.00842  -0.00585   1.86395
   A13        1.73934  -0.00524  -0.09561   0.08352  -0.01353   1.72582
   A14        1.96666   0.00357   0.03976  -0.02498   0.02201   1.98868
   A15        1.82167   0.00370   0.03274  -0.01611   0.02353   1.84521
   A16        2.01631  -0.00352  -0.01070  -0.02662  -0.03987   1.97644
   A17        1.88594  -0.00472  -0.02541  -0.01207  -0.03969   1.84625
   A18        2.00620   0.00540   0.02547   0.00626   0.04163   2.04783
   A19        1.83138  -0.00049   0.00520  -0.00947  -0.00427   1.82711
    D1       -3.03195  -0.00152   0.02179  -0.04865  -0.02732  -3.05927
    D2        0.29552  -0.00612  -0.03090  -0.11819  -0.14860   0.14692
    D3        0.22774  -0.00467   0.03498  -0.13711  -0.10262   0.12512
    D4       -2.72798  -0.00927  -0.01771  -0.20665  -0.22390  -2.95188
    D5       -0.57065  -0.00197  -0.03572  -0.00903  -0.04545  -0.61610
    D6        1.51667  -0.00188  -0.03613  -0.00801  -0.04478   1.47189
    D7       -2.73918  -0.00218  -0.02918  -0.02013  -0.05001  -2.78918
    D8        2.35960   0.00288   0.02423   0.06701   0.09190   2.45150
    D9       -1.83627   0.00298   0.02382   0.06804   0.09257  -1.74369
   D10        0.19108   0.00267   0.03077   0.05591   0.08734   0.27841
   D11        1.66706   0.00484   0.02186   0.14187   0.16323   1.83029
   D12       -0.47998   0.01050   0.07856   0.13435   0.20847  -0.27150
   D13       -2.66828  -0.00097  -0.03417   0.15301   0.12247  -2.54581
   D14       -1.28774   0.00052  -0.03108   0.07228   0.04157  -1.24617
   D15        2.84841   0.00618   0.02561   0.06476   0.08681   2.93521
   D16        0.66010  -0.00528  -0.08712   0.08342   0.00080   0.66090
   D17        2.65602   0.00494   0.08271  -0.07449   0.00603   2.66205
   D18       -1.78745  -0.00105  -0.02083   0.00736  -0.01408  -1.80153
   D19        0.49295  -0.00565  -0.03839  -0.03496  -0.07054   0.42241
         Item               Value     Threshold  Converged?
 Maximum Force            0.019452     0.000450     NO 
 RMS     Force            0.006225     0.000300     NO 
 Maximum Displacement     0.344824     0.001800     NO 
 RMS     Displacement     0.085467     0.001200     NO 
 Predicted change in Energy=-6.537110D-03
 GradGradGradGradGradGradGradGradGradGradGradGradGradGradGradGradGradGrad

                          Input orientation:                          
 ---------------------------------------------------------------------
 Center     Atomic      Atomic             Coordinates (Angstroms)
 Number     Number       Type             X           Y           Z
 ---------------------------------------------------------------------
      1          7           0       -1.320052   -1.213799   -0.157726
      2          1           0       -0.533047   -1.885905   -0.124590
      3          6           0       -0.878798   -0.002365   -0.343996
      4          1           0        0.566061    0.189209   -1.819884
      5          6           0       -1.732404    1.209870   -0.340612
      6          6           0        0.618604   -0.022147   -0.655411
      7          1           0       -2.730869    1.052267   -0.767013
      8          1           0       -1.855495    1.524506    0.705426
      9          1           0       -1.222503    2.023592   -0.856376
     10          8           0        1.215143   -1.168845   -0.357981
     11          1           0       -2.289719   -1.495277   -0.090679
     12          8           0        1.170610    1.208088   -0.047789
     13          1           0        2.103312    0.989593    0.150987
 ---------------------------------------------------------------------
                    Distance matrix (angstroms):
                    1          2          3          4          5
     1  N    0.000000
     2  H    1.035472   0.000000
     3  C    1.302679   1.927539   0.000000
     4  H    2.878997   2.896232   2.074262   0.000000
     5  C    2.465289   3.327003   1.482623   2.917694   0.000000
     6  C    2.329402   2.254255   1.529569   1.184665   2.672865
     7  H    2.738009   3.725049   2.172870   3.566953   1.097082
     8  H    2.920624   3.750827   2.094412   3.744883   1.099246
     9  H    3.313356   4.036710   2.117822   2.737201   1.090025
    10  O    2.543490   1.903895   2.396969   2.098280   3.787694
    11  H    1.011919   1.799900   2.069699   3.739402   2.773244
    12  O    3.475777   3.532866   2.398543   2.131647   2.917746
    13  H    4.082850   3.910860   3.181504   2.624517   3.873359
                    6          7          8          9         10
     6  C    0.000000
     7  H    3.519346   0.000000
     8  H    3.219500   1.776898   0.000000
     9  H    2.759549   1.796281   1.757552   0.000000
    10  O    1.326363   4.546610   4.220639   4.047489   0.000000
    11  H    3.308682   2.672456   3.153002   3.756019   3.530166
    12  O    1.478984   3.970278   3.134449   2.654402   2.397501
    13  H    1.969328   4.920972   4.033075   3.625600   2.388880
                   11         12         13
    11  H    0.000000
    12  O    4.391344   0.000000
    13  H    5.052891   0.978358   0.000000
 Stoichiometry    C3H7NO2
 Framework group  C1[X(C3H7NO2)]
 Deg. of freedom    33
 Full point group                 C1      NOp   1
 Largest Abelian subgroup         C1      NOp   1
 Largest concise Abelian subgroup C1      NOp   1
                         Standard orientation:                         
 ---------------------------------------------------------------------
 Center     Atomic      Atomic             Coordinates (Angstroms)
 Number     Number       Type             X           Y           Z
 ---------------------------------------------------------------------
      1          7           0       -1.010061    1.357713   -0.172178
      2          1           0       -0.154341    1.938382   -0.224806
      3          6           0       -0.702685    0.108568    0.033075
      4          1           0        0.728055   -0.214641    1.499732
      5          6           0       -1.684365   -1.002176    0.059955
      6          6           0        0.791060   -0.031107    0.331067
      7          1           0       -2.654837   -0.728033    0.491949
      8          1           0       -1.852475   -1.319907   -0.978856
      9          1           0       -1.261520   -1.857788    0.586534
     10          8           0        1.506824    1.037461    0.006902
     11          1           0       -1.943570    1.743009   -0.236112
     12          8           0        1.197954   -1.325257   -0.258007
     13          1           0        2.146843   -1.214358   -0.468947
 ---------------------------------------------------------------------
 Rotational constants (GHZ):      4.8389146      3.3932908      2.1110995
 Standard basis: 6-31G (6D, 7F)
 There are    68 symmetry adapted cartesian basis functions of A   symmetry.
 There are    68 symmetry adapted basis functions of A   symmetry.
    68 basis functions,   160 primitive gaussians,    68 cartesian basis functions
    24 alpha electrons       24 beta electrons
       nuclear repulsion energy       247.4562564815 Hartrees.
 NAtoms=   13 NActive=   13 NUniq=   13 SFac= 1.00D+00 NAtFMM=   60 NAOKFM=F Big=F
 Integral buffers will be    131072 words long.
 Raffenetti 2 integral format.
 Two-electron integral symmetry is turned on.
 One-electron integrals computed using PRISM.
 NBasis=    68 RedAO= T EigKep=  3.28D-03  NBF=    68
 NBsUse=    68 1.00D-06 EigRej= -1.00D+00 NBFU=    68
 Initial guess from the checkpoint file:  "Ala-S-opt-freq-pb1-6-31g.chk"
 B after Tr=     0.000000    0.000000    0.000000
         Rot=    0.999908   -0.001643    0.000413    0.013433 Ang=  -1.55 deg.
 ExpMin= 1.61D-01 ExpMax= 5.48D+03 ExpMxC= 8.25D+02 IAcc=1 IRadAn=         1 AccDes= 0.00D+00
 Harris functional with IExCor=  402 and IRadAn=       1 diagonalized for initial guess.
 HarFok:  IExCor=  402 AccDes= 0.00D+00 IRadAn=         1 IDoV= 1 UseB2=F ITyADJ=14
 ICtDFT=  3500011 ScaDFX=  1.000000  1.000000  1.000000  1.000000
 FoFCou: FMM=F IPFlag=           0 FMFlag=      100000 FMFlg1=           0
         NFxFlg=           0 DoJE=T BraDBF=F KetDBF=T FulRan=T
         wScrn=  0.000000 ICntrl=     500 IOpCl=  0 I1Cent=   200000004 NGrid=           0
         NMat0=    1 NMatS0=      1 NMatT0=    0 NMatD0=    1 NMtDS0=    0 NMtDT0=    0
 Petite list used in FoFCou.
 Keep R1 ints in memory in canonical form, NReq=3676491.
 Requested convergence on RMS density matrix=1.00D-08 within 128 cycles.
 Requested convergence on MAX density matrix=1.00D-06.
 Requested convergence on             energy=1.00D-06.
 No special actions if energy rises.
 Integral accuracy reduced to 1.0D-05 until final iterations.
 Initial convergence to 1.0D-05 achieved.  Increase integral accuracy.
 SCF Done:  E(RB3LYP) =  -323.568404469     A.U. after   14 cycles
            NFock= 14  Conv=0.56D-08     -V/T= 2.0055
 Calling FoFJK, ICntrl=      2127 FMM=F ISym2X=0 I1Cent= 0 IOpClX= 0 NMat=1 NMatS=1 NMatT=0.
 ***** Axes restored to original set *****
 -------------------------------------------------------------------
 Center     Atomic                   Forces (Hartrees/Bohr)
 Number     Number              X              Y              Z
 -------------------------------------------------------------------
      1        7          -0.004494900    0.003507762   -0.002470712
      2        1           0.009245350   -0.004576126    0.000334232
      3        6          -0.007076816   -0.002345400   -0.000356546
      4        1          -0.000342813   -0.000541125    0.019093165
      5        6           0.000846145    0.000583778    0.000138720
      6        6           0.007966637    0.002676194   -0.022260849
      7        1           0.000886489   -0.000511937    0.000221906
      8        1           0.000285681    0.000967689   -0.000181708
      9        1          -0.000343063    0.000522282   -0.000445782
     10        8          -0.004711885   -0.002735036    0.001843609
     11        1           0.000328977    0.001910384    0.002688247
     12        8          -0.003008167    0.001384306    0.000758390
     13        1           0.000418363   -0.000842771    0.000637328
 -------------------------------------------------------------------
 Cartesian Forces:  Max     0.022260849 RMS     0.005530096

 GradGradGradGradGradGradGradGradGradGradGradGradGradGradGradGradGradGrad
 Berny optimization.
 Using GEDIIS/GDIIS optimizer.
 FormGI is forming the generalized inverse of G from B-inverse, IUseBI=4.
 Internal  Forces:  Max     0.018849030 RMS     0.003733544
 Search for a local minimum.
 Step number   4 out of a maximum of   60
 All quantities printed in internal units (Hartrees-Bohrs-Radians)
 Mixed Optimization -- RFO/linear search
 Update second derivatives using D2CorX and points    3    4
 DE= -6.63D-03 DEPred=-6.54D-03 R= 1.01D+00
 TightC=F SS=  1.41D+00  RLast= 4.76D-01 DXNew= 1.4270D+00 1.4285D+00
 Trust test= 1.01D+00 RLast= 4.76D-01 DXMaxT set to 1.43D+00
 ITU=  1  1  1  0
 Use linear search instead of GDIIS.
     Eigenvalues ---    0.00832   0.01036   0.01278   0.01500   0.02253
     Eigenvalues ---    0.02578   0.06839   0.07270   0.07831   0.08885
     Eigenvalues ---    0.11066   0.15146   0.15989   0.16000   0.16000
     Eigenvalues ---    0.16002   0.16091   0.19942   0.23922   0.24755
     Eigenvalues ---    0.25216   0.32987   0.33870   0.34083   0.34850
     Eigenvalues ---    0.36841   0.40089   0.44383   0.46429   0.49264
     Eigenvalues ---    0.51659   0.58498   0.71298
 RFO step:  Lambda=-3.70085105D-03 EMin= 8.32105024D-03
 Quartic linear search produced a step of  0.20507.
 Iteration  1 RMS(Cart)=  0.10403886 RMS(Int)=  0.00492990
 Iteration  2 RMS(Cart)=  0.00631178 RMS(Int)=  0.00079272
 Iteration  3 RMS(Cart)=  0.00001045 RMS(Int)=  0.00079267
 Iteration  4 RMS(Cart)=  0.00000000 RMS(Int)=  0.00079267
 Variable       Old X    -DE/DX   Delta X   Delta X   Delta X     New X
                                 (Linear)    (Quad)   (Total)
    R1        1.95676   0.01001   0.00345   0.02722   0.03067   1.98743
    R2        2.46171  -0.00243  -0.00383  -0.00688  -0.01071   2.45100
    R3        1.91225  -0.00067   0.00037  -0.00131  -0.00095   1.91130
    R4        2.80175   0.00031  -0.00052   0.00043  -0.00009   2.80166
    R5        2.89047   0.00030   0.00891   0.00767   0.01658   2.90705
    R6        2.23869  -0.01885   0.00222  -0.01649  -0.01427   2.22442
    R7        2.07318  -0.00082  -0.00029  -0.00263  -0.00292   2.07026
    R8        2.07727   0.00007   0.00027   0.00022   0.00049   2.07776
    R9        2.05985   0.00044  -0.00002   0.00157   0.00155   2.06140
   R10        2.50646   0.00066   0.00437   0.00520   0.00957   2.51603
   R11        2.79487   0.00006   0.00480   0.00457   0.00936   2.80424
   R12        1.84883   0.00072   0.00023   0.00155   0.00178   1.85061
    A1        1.92916  -0.00235  -0.00769  -0.01859  -0.02858   1.90058
    A2        2.14795   0.00254   0.00472   0.02069   0.02310   2.17105
    A3        2.20525  -0.00010   0.00407   0.00188   0.00364   2.20890
    A4        2.17124   0.00569   0.00133   0.02835   0.02841   2.19965
    A5        1.92697  -0.00640  -0.00066  -0.03021  -0.03213   1.89484
    A6        2.18300   0.00078   0.00227   0.00468   0.00568   2.18868
    A7        1.98848  -0.00127  -0.00037  -0.00855  -0.00891   1.97957
    A8        1.87619   0.00113   0.00150   0.00841   0.00991   1.88611
    A9        1.91768   0.00070  -0.00093   0.00418   0.00324   1.92092
   A10        1.88500   0.00023  -0.00053   0.00334   0.00282   1.88783
   A11        1.92738  -0.00007   0.00146  -0.00232  -0.00086   1.92652
   A12        1.86395  -0.00067  -0.00120  -0.00460  -0.00581   1.85813
   A13        1.72582   0.00106  -0.00277   0.03767   0.03525   1.76107
   A14        1.98868  -0.00665   0.00451  -0.05310  -0.04907   1.93961
   A15        1.84521  -0.00222   0.00483  -0.02726  -0.02316   1.82205
   A16        1.97644   0.00261  -0.00818   0.03000   0.02218   1.99863
   A17        1.84625   0.00018  -0.00814   0.00844   0.00041   1.84667
   A18        2.04783   0.00455   0.00854   0.00911   0.01608   2.06391
   A19        1.82711  -0.00089  -0.00088  -0.00735  -0.00822   1.81889
    D1       -3.05927   0.00082  -0.00560   0.04286   0.03706  -3.02221
    D2        0.14692  -0.00025  -0.03047  -0.00323  -0.03367   0.11325
    D3        0.12512  -0.00168  -0.02104  -0.06072  -0.08180   0.04331
    D4       -2.95188  -0.00275  -0.04591  -0.10682  -0.15253  -3.10441
    D5       -0.61610  -0.00037  -0.00932   0.00674  -0.00317  -0.61927
    D6        1.47189  -0.00008  -0.00918   0.01148   0.00168   1.47357
    D7       -2.78918   0.00012  -0.01026   0.01289   0.00203  -2.78715
    D8        2.45150   0.00064   0.01885   0.05849   0.07795   2.52945
    D9       -1.74369   0.00092   0.01898   0.06322   0.08280  -1.66090
   D10        0.27841   0.00112   0.01791   0.06463   0.08315   0.36157
   D11        1.83029   0.00229   0.03347   0.12702   0.15974   1.99003
   D12       -0.27150   0.00150   0.04275   0.09223   0.13517  -0.13633
   D13       -2.54581   0.00226   0.02511   0.14215   0.16593  -2.37989
   D14       -1.24617   0.00099   0.00852   0.07949   0.08853  -1.15765
   D15        2.93521   0.00021   0.01780   0.04470   0.06397   2.99918
   D16        0.66090   0.00097   0.00016   0.09463   0.09472   0.75562
   D17        2.66205  -0.00309   0.00124  -0.07261  -0.07141   2.59063
   D18       -1.80153  -0.00267  -0.00289  -0.03799  -0.04102  -1.84256
   D19        0.42241   0.00444  -0.01447   0.01677   0.00248   0.42489
         Item               Value     Threshold  Converged?
 Maximum Force            0.018849     0.000450     NO 
 RMS     Force            0.003734     0.000300     NO 
 Maximum Displacement     0.289917     0.001800     NO 
 RMS     Displacement     0.105276     0.001200     NO 
 Predicted change in Energy=-2.218820D-03
 GradGradGradGradGradGradGradGradGradGradGradGradGradGradGradGradGradGrad

                          Input orientation:                          
 ---------------------------------------------------------------------
 Center     Atomic      Atomic             Coordinates (Angstroms)
 Number     Number       Type             X           Y           Z
 ---------------------------------------------------------------------
      1          7           0       -1.282566   -1.204374   -0.145058
      2          1           0       -0.439233   -1.832151   -0.117353
      3          6           0       -0.895650    0.008002   -0.395426
      4          1           0        0.608223    0.306775   -1.839770
      5          6           0       -1.752317    1.217901   -0.378256
      6          6           0        0.610674   -0.013055   -0.706944
      7          1           0       -2.771414    1.035013   -0.736289
      8          1           0       -1.812832    1.578151    0.658792
      9          1           0       -1.284194    2.016059   -0.955968
     10          8           0        1.132312   -1.215609   -0.473588
     11          1           0       -2.225646   -1.505018    0.062738
     12          8           0        1.158001    1.146913    0.039368
     13          1           0        2.065486    0.870182    0.282110
 ---------------------------------------------------------------------
                    Distance matrix (angstroms):
                    1          2          3          4          5
     1  N    0.000000
     2  H    1.051704   0.000000
     3  C    1.297013   1.916195   0.000000
     4  H    2.954776   2.939198   2.106425   0.000000
     5  C    2.478400   3.330927   1.482576   2.922040   0.000000
     6  C    2.306364   2.181520   1.538342   1.177112   2.684588
     7  H    2.753375   3.747369   2.165510   3.629042   1.095535
     8  H    2.944453   3.757570   2.101896   3.704148   1.099505
     9  H    3.320958   4.028145   2.120723   2.698888   1.090846
    10  O    2.437149   1.725335   2.369802   2.111581   3.775201
    11  H    1.011417   1.825026   2.065922   3.864316   2.798715
    12  O    3.393955   3.383865   2.388231   2.130551   2.940986
    13  H    3.961781   3.706183   3.157647   2.635036   3.890065
                    6          7          8          9         10
     6  C    0.000000
     7  H    3.540880   0.000000
     8  H    3.204770   1.777676   0.000000
     9  H    2.787443   1.795142   1.754614   0.000000
    10  O    1.331427   4.513689   4.214410   4.063972   0.000000
    11  H    3.295918   2.718100   3.167274   3.784452   3.412812
    12  O    1.483939   4.006803   3.065207   2.776764   2.417705
    13  H    1.968454   4.945696   3.960361   3.750496   2.406744
                   11         12         13
    11  H    0.000000
    12  O    4.299111   0.000000
    13  H    4.909533   0.979302   0.000000
 Stoichiometry    C3H7NO2
 Framework group  C1[X(C3H7NO2)]
 Deg. of freedom    33
 Full point group                 C1      NOp   1
 Largest Abelian subgroup         C1      NOp   1
 Largest concise Abelian subgroup C1      NOp   1
                         Standard orientation:                         
 ---------------------------------------------------------------------
 Center     Atomic      Atomic             Coordinates (Angstroms)
 Number     Number       Type             X           Y           Z
 ---------------------------------------------------------------------
      1          7           0       -0.858726    1.395113   -0.228404
      2          1           0        0.085544    1.854766   -0.284568
      3          6           0       -0.699041    0.141945    0.065391
      4          1           0        0.741865   -0.377360    1.511468
      5          6           0       -1.764385   -0.888568    0.098777
      6          6           0        0.789089   -0.104577    0.367374
      7          1           0       -2.727672   -0.507656    0.455398
      8          1           0       -1.903322   -1.268601   -0.923565
      9          1           0       -1.444365   -1.738131    0.703570
     10          8           0        1.520688    0.971612    0.085816
     11          1           0       -1.732670    1.857207   -0.442076
     12          8           0        1.103596   -1.371887   -0.337670
     13          1           0        2.043445   -1.276614   -0.595816
 ---------------------------------------------------------------------
 Rotational constants (GHZ):      4.8178436      3.4329826      2.1576291
 Standard basis: 6-31G (6D, 7F)
 There are    68 symmetry adapted cartesian basis functions of A   symmetry.
 There are    68 symmetry adapted basis functions of A   symmetry.
    68 basis functions,   160 primitive gaussians,    68 cartesian basis functions
    24 alpha electrons       24 beta electrons
       nuclear repulsion energy       248.2809460657 Hartrees.
 NAtoms=   13 NActive=   13 NUniq=   13 SFac= 1.00D+00 NAtFMM=   60 NAOKFM=F Big=F
 Integral buffers will be    131072 words long.
 Raffenetti 2 integral format.
 Two-electron integral symmetry is turned on.
 One-electron integrals computed using PRISM.
 NBasis=    68 RedAO= T EigKep=  3.18D-03  NBF=    68
 NBsUse=    68 1.00D-06 EigRej= -1.00D+00 NBFU=    68
 Initial guess from the checkpoint file:  "Ala-S-opt-freq-pb1-6-31g.chk"
 B after Tr=     0.000000    0.000000    0.000000
         Rot=    0.999458   -0.002465    0.002130    0.032758 Ang=  -3.77 deg.
 ExpMin= 1.61D-01 ExpMax= 5.48D+03 ExpMxC= 8.25D+02 IAcc=1 IRadAn=         1 AccDes= 0.00D+00
 Harris functional with IExCor=  402 and IRadAn=       1 diagonalized for initial guess.
 HarFok:  IExCor=  402 AccDes= 0.00D+00 IRadAn=         1 IDoV= 1 UseB2=F ITyADJ=14
 ICtDFT=  3500011 ScaDFX=  1.000000  1.000000  1.000000  1.000000
 FoFCou: FMM=F IPFlag=           0 FMFlag=      100000 FMFlg1=           0
         NFxFlg=           0 DoJE=T BraDBF=F KetDBF=T FulRan=T
         wScrn=  0.000000 ICntrl=     500 IOpCl=  0 I1Cent=   200000004 NGrid=           0
         NMat0=    1 NMatS0=      1 NMatT0=    0 NMatD0=    1 NMtDS0=    0 NMtDT0=    0
 Petite list used in FoFCou.
 Keep R1 ints in memory in canonical form, NReq=3676491.
 Requested convergence on RMS density matrix=1.00D-08 within 128 cycles.
 Requested convergence on MAX density matrix=1.00D-06.
 Requested convergence on             energy=1.00D-06.
 No special actions if energy rises.
 Integral accuracy reduced to 1.0D-05 until final iterations.
 Initial convergence to 1.0D-05 achieved.  Increase integral accuracy.
 SCF Done:  E(RB3LYP) =  -323.571255369     A.U. after   15 cycles
            NFock= 15  Conv=0.40D-08     -V/T= 2.0055
 Calling FoFJK, ICntrl=      2127 FMM=F ISym2X=0 I1Cent= 0 IOpClX= 0 NMat=1 NMatS=1 NMatT=0.
 ***** Axes restored to original set *****
 -------------------------------------------------------------------
 Center     Atomic                   Forces (Hartrees/Bohr)
 Number     Number              X              Y              Z
 -------------------------------------------------------------------
      1        7          -0.013288855    0.004217959    0.002797339
      2        1           0.011142176   -0.003810172   -0.002575500
      3        6          -0.003566047   -0.002925249    0.005406670
      4        1           0.002557772   -0.004645874    0.020597497
      5        6           0.000488908   -0.000269290    0.000055916
      6        6           0.000335950    0.007198357   -0.030515762
      7        1           0.000170772    0.000078819   -0.000069411
      8        1           0.000696910   -0.000070569   -0.000410035
      9        1          -0.000427022    0.000106654   -0.000873334
     10        8           0.003247540    0.000033128    0.003201289
     11        1          -0.001029899    0.001886947   -0.000055888
     12        8          -0.000814765   -0.001882240    0.001410409
     13        1           0.000486560    0.000081531    0.001030811
 -------------------------------------------------------------------
 Cartesian Forces:  Max     0.030515762 RMS     0.006921596

 GradGradGradGradGradGradGradGradGradGradGradGradGradGradGradGradGradGrad
 Berny optimization.
 Using GEDIIS/GDIIS optimizer.
 FormGI is forming the generalized inverse of G from B-inverse, IUseBI=4.
 Internal  Forces:  Max     0.021093535 RMS     0.003997716
 Search for a local minimum.
 Step number   5 out of a maximum of   60
 All quantities printed in internal units (Hartrees-Bohrs-Radians)
 Mixed Optimization -- RFO/linear search
 Update second derivatives using D2CorX and points    4    5
 DE= -2.85D-03 DEPred=-2.22D-03 R= 1.28D+00
 TightC=F SS=  1.41D+00  RLast= 4.02D-01 DXNew= 2.4000D+00 1.2057D+00
 Trust test= 1.28D+00 RLast= 4.02D-01 DXMaxT set to 1.43D+00
 ITU=  1  1  1  1  0
 Use linear search instead of GDIIS.
     Eigenvalues ---    0.00566   0.00930   0.01274   0.01450   0.02086
     Eigenvalues ---    0.02832   0.06930   0.07638   0.08100   0.08931
[...]
    A3        2.02195   0.00000   0.00000  -0.00024  -0.00024   2.02172
    A4        2.23337  -0.00001   0.00000  -0.00011  -0.00011   2.23326
    A5        2.00787  -0.00001   0.00000   0.00010   0.00010   2.00796
    A6        2.04143   0.00002   0.00000   0.00001   0.00001   2.04144
    A7        1.95162   0.00000   0.00000  -0.00002  -0.00002   1.95160
    A8        1.90785   0.00000   0.00000   0.00002   0.00002   1.90787
    A9        1.92798   0.00000   0.00000  -0.00001  -0.00001   1.92798
   A10        1.91239   0.00000   0.00000  -0.00007  -0.00007   1.91232
   A11        1.89549   0.00000   0.00000   0.00002   0.00002   1.89552
   A12        1.86651   0.00000   0.00000   0.00006   0.00006   1.86657
   A13        1.94258   0.00001   0.00000   0.00007   0.00007   1.94266
   A14        1.92434   0.00000   0.00000   0.00007   0.00007   1.92441
   A15        1.88481  -0.00001   0.00000  -0.00023  -0.00023   1.88458
   A16        1.92623   0.00000   0.00000  -0.00002  -0.00002   1.92621
   A17        1.84739   0.00000   0.00000   0.00000   0.00000   1.84739
   A18        1.93693   0.00001   0.00000   0.00010   0.00010   1.93703
   A19        1.86384   0.00000   0.00000   0.00000   0.00000   1.86384
    D1       -3.10217  -0.00001   0.00000  -0.00049  -0.00049  -3.10266
    D2        0.00349  -0.00001   0.00000  -0.00048  -0.00048   0.00300
    D3        0.00266   0.00000   0.00000   0.00004   0.00004   0.00271
    D4        3.10832   0.00000   0.00000   0.00004   0.00004   3.10837
    D5        0.03064   0.00000   0.00000   0.00007   0.00007   0.03072
    D6        2.15140   0.00000   0.00000  -0.00002  -0.00002   2.15138
    D7       -2.08257   0.00000   0.00000   0.00006   0.00006  -2.08250
    D8       -3.07442   0.00000   0.00000   0.00007   0.00007  -3.07435
    D9       -0.95366   0.00000   0.00000  -0.00002  -0.00002  -0.95368
   D10        1.09556   0.00000   0.00000   0.00006   0.00006   1.09562
   D11        2.16565   0.00000   0.00000   0.00078   0.00078   2.16643
   D12        0.02199   0.00000   0.00000   0.00070   0.00070   0.02270
   D13       -2.09692   0.00000   0.00000   0.00068   0.00068  -2.09624
   D14       -1.00773   0.00000   0.00000   0.00077   0.00077  -1.00695
   D15        3.13180   0.00000   0.00000   0.00070   0.00070   3.13250
   D16        1.01288   0.00000   0.00000   0.00068   0.00068   1.01356
   D17        1.79941   0.00000   0.00000   0.00107   0.00107   1.80048
   D18       -2.40176   0.00000   0.00000   0.00104   0.00104  -2.40073
   D19       -0.31167   0.00000   0.00000   0.00106   0.00106  -0.31061
         Item               Value     Threshold  Converged?
 Maximum Force            0.000045     0.000450     YES
 RMS     Force            0.000012     0.000300     YES
 Maximum Displacement     0.001250     0.001800     YES
 RMS     Displacement     0.000462     0.001200     YES
 Predicted change in Energy=-3.183785D-08
 Optimization completed.
    -- Stationary point found.
                           ----------------------------
                           !   Optimized Parameters   !
                           ! (Angstroms and Degrees)  !
 --------------------------                            --------------------------
 ! Name  Definition              Value          Derivative Info.                !
 --------------------------------------------------------------------------------
 ! R1    R(1,2)                  1.9242         -DE/DX =    0.0                 !
 ! R2    R(1,3)                  1.2846         -DE/DX =    0.0                 !
 ! R3    R(1,11)                 1.0254         -DE/DX =    0.0                 !
 ! R4    R(3,5)                  1.5            -DE/DX =    0.0                 !
 ! R5    R(3,6)                  1.5325         -DE/DX =    0.0                 !
 ! R6    R(4,6)                  1.0944         -DE/DX =    0.0                 !
 ! R7    R(5,7)                  1.0941         -DE/DX =    0.0                 !
 ! R8    R(5,8)                  1.0952         -DE/DX =    0.0                 !
 ! R9    R(5,9)                  1.0978         -DE/DX =    0.0                 !
 ! R10   R(6,10)                 1.4148         -DE/DX =    0.0                 !
 ! R11   R(6,12)                 1.4563         -DE/DX =    0.0                 !
 ! R12   R(12,13)                0.9804         -DE/DX =    0.0                 !
 ! A1    A(2,1,3)               88.1652         -DE/DX =    0.0                 !
 ! A2    A(2,1,11)             155.9            -DE/DX =    0.0                 !
 ! A3    A(3,1,11)             115.8494         -DE/DX =    0.0                 !
 ! A4    A(1,3,5)              127.9628         -DE/DX =    0.0                 !
 ! A5    A(1,3,6)              115.0422         -DE/DX =    0.0                 !
 ! A6    A(5,3,6)              116.9653         -DE/DX =    0.0                 !
 ! A7    A(3,5,7)              111.8194         -DE/DX =    0.0                 !
 ! A8    A(3,5,8)              109.3119         -DE/DX =    0.0                 !
 ! A9    A(3,5,9)              110.4654         -DE/DX =    0.0                 !
 ! A10   A(7,5,8)              109.572          -DE/DX =    0.0                 !
 ! A11   A(7,5,9)              108.6037         -DE/DX =    0.0                 !
 ! A12   A(8,5,9)              106.9431         -DE/DX =    0.0                 !
 ! A13   A(3,6,4)              111.3017         -DE/DX =    0.0                 !
 ! A14   A(3,6,10)             110.2565         -DE/DX =    0.0                 !
 ! A15   A(3,6,12)             107.9915         -DE/DX =    0.0                 !
 ! A16   A(4,6,10)             110.3649         -DE/DX =    0.0                 !
 ! A17   A(4,6,12)             105.8475         -DE/DX =    0.0                 !
 ! A18   A(10,6,12)            110.9781         -DE/DX =    0.0                 !
 ! A19   A(6,12,13)            106.7902         -DE/DX =    0.0                 !
 ! D1    D(2,1,3,5)           -177.7412         -DE/DX =    0.0                 !
 ! D2    D(2,1,3,6)              0.1998         -DE/DX =    0.0                 !
 ! D3    D(11,1,3,5)             0.1527         -DE/DX =    0.0                 !
 ! D4    D(11,1,3,6)           178.0937         -DE/DX =    0.0                 !
 ! D5    D(1,3,5,7)              1.7558         -DE/DX =    0.0                 !
 ! D6    D(1,3,5,8)            123.2663         -DE/DX =    0.0                 !
 ! D7    D(1,3,5,9)           -119.3222         -DE/DX =    0.0                 !
 ! D8    D(6,3,5,7)           -176.1512         -DE/DX =    0.0                 !
 ! D9    D(6,3,5,8)            -54.6407         -DE/DX =    0.0                 !
 ! D10   D(6,3,5,9)             62.7708         -DE/DX =    0.0                 !
 ! D11   D(1,3,6,4)            124.0828         -DE/DX =    0.0                 !
 ! D12   D(1,3,6,10)             1.2602         -DE/DX =    0.0                 !
 ! D13   D(1,3,6,12)          -120.1447         -DE/DX =    0.0                 !
 ! D14   D(5,3,6,4)            -57.7385         -DE/DX =    0.0                 !
 ! D15   D(5,3,6,10)           179.4389         -DE/DX =    0.0                 !
 ! D16   D(5,3,6,12)            58.034          -DE/DX =    0.0                 !
 ! D17   D(3,6,12,13)          103.0988         -DE/DX =    0.0                 !
 ! D18   D(4,6,12,13)         -137.611          -DE/DX =    0.0                 !
 ! D19   D(10,6,12,13)         -17.8575         -DE/DX =    0.0                 !
 --------------------------------------------------------------------------------
 GradGradGradGradGradGradGradGradGradGradGradGradGradGradGradGradGradGrad

 1\1\GINC-KALI\Freq\RB3LYP\6-31G\C3H7N1O2\ROOT\10-Apr-2016\0\\#N Geom=A
 llCheck Guess=TCheck SCRF=Check GenChk RB3LYP/6-31G Freq\\Ala-S-opt-fr
 eq-pb1-6-31g\\0,1\N,-1.3799915051,-1.2154538464,-0.1167235955\H,0.4195
 422488,-1.8363938221,-0.3972510236\C,-0.9749285728,-0.0337291421,-0.41
 61560366\H,0.6598745705,0.5179334691,-1.7532804246\C,-1.7679917492,1.2
 394990918,-0.4228295137\C,0.5137273605,0.0729836446,-0.7641770408\H,-2
 .8001602505,1.0773757218,-0.0982509097\H,-1.2864843111,1.9695825796,0.
 236387121\H,-1.7820835953,1.6776570182,-1.4293009869\O,1.1237487074,-1
 .2021307311,-0.7028838397\H,-2.3674258372,-1.2959802625,0.1477592941\O
 ,1.1317999875,0.9925998514,0.1808445382\H,1.6212166665,0.4448445477,0.
 8302192578\\Version=ES64L-G09RevD.01\State=1-A\HF=-323.6029501\RMSD=3.
 772e-09\RMSF=1.860e-05\ZeroPoint=0.1061403\Thermal=0.1132631\Dipole=-1
 .2594441,0.2475419,0.2627572\DipoleDeriv=-0.3627104,-0.0252534,-0.0485
 347,-0.163484,-0.7970149,0.071473,-0.0123595,0.0632775,-0.4604394,0.49
 02046,-0.1355892,0.0088541,-0.0491474,0.3203557,0.0171547,-0.0215654,0
 .0477466,0.3152202,0.359877,-0.0447455,-0.053279,0.0449635,0.6351325,-
 0.1047912,-0.0392471,-0.099474,-0.0014629,0.0026725,-0.0278058,-0.0034
 502,-0.0144243,-0.0324894,0.0664115,-0.0061029,0.0624183,-0.1300125,-0
 .0352219,0.101777,-0.0100648,0.0912785,-0.2485478,0.0076856,0.0059846,
 0.0011734,0.0839957,0.6549781,0.0593137,0.1439794,0.1331767,0.8045519,
 0.1559025,0.1119133,0.1343948,0.7993899,-0.119347,0.0174287,0.0518888,
 -0.0577239,0.0365817,0.0304586,0.066568,0.0105964,0.0723338,0.0952059,
 -0.0296466,-0.0562791,-0.0373466,0.0474816,-0.036577,-0.032208,-0.0693
 235,0.0601852,0.0909317,0.0347823,0.0348192,0.0060132,0.0589544,0.0407
 31,0.001747,0.077812,-0.0649906,-0.6455185,0.2323961,-0.0464368,0.0249
 145,-0.8201152,-0.102431,-0.036798,-0.0543013,-0.5668349,-0.0889241,-0
 .0169703,0.090617,0.134834,0.2943713,-0.0308394,0.0794767,0.0096912,0.
 2738663,-0.7831476,-0.1999842,-0.067165,-0.1986464,-0.4795452,-0.23446
 15,-0.0690912,-0.2603708,-0.6306922,0.3409999,0.0342972,-0.0449492,0.0
 85592,0.1802835,0.1192832,-0.0483176,0.0763595,0.2494415\Polar=46.6473
 227,1.9869153,50.7865309,-0.6846076,-3.3061077,32.6187194\PG=C01 [X(C3
 H7N1O2)]\NImag=0\\0.58527281,0.19549306,0.61285788,-0.16033189,-0.1407
 8600,0.13754784,0.00256537,0.00534831,-0.00322272,0.19798711,-0.001811
 88,-0.00367191,-0.00046993,0.15201458,0.23781471,-0.00204468,-0.002022
 12,-0.00652630,-0.07686611,-0.08162247,0.05178251,-0.17051608,-0.11931
 379,0.04865615,-0.00167207,0.00234159,0.00037887,0.54522595,-0.1814244
 0,-0.51635847,0.12429964,0.01009308,-0.00504887,-0.00140036,0.08444960
 ,0.84565055,0.05818224,0.10727088,-0.09023451,-0.00069904,0.00097593,0
 .00251245,-0.09556989,-0.12458504,0.26573982,-0.00305556,-0.00045549,0
 .00230624,-0.00321169,0.00130204,-0.00087454,-0.00463763,-0.01450269,0
 .02880615,0.06636470,0.00043093,0.00088446,-0.00080292,0.00442731,-0.0
 0180318,0.00455038,-0.00137743,0.00255964,0.00348156,0.01823770,0.1092
 1710,0.00103084,-0.00055470,-0.00045592,-0.00102280,-0.00142607,-0.000
 37798,0.00171370,0.00596986,-0.00320498,-0.03591705,-0.09870524,0.2866
 4760,0.01306155,-0.01346452,0.00813763,-0.00181671,-0.00159509,0.00127
 166,-0.13756195,0.06181719,0.00185246,0.00079200,-0.00024644,-0.000021
 16,0.57917697,0.02084588,-0.04118220,0.00807748,-0.00316507,-0.0007013
 1,0.00104230,0.04901773,-0.16594606,0.00064097,-0.00020029,0.00031451,
 0.00012423,0.04223584,0.50228275,0.00209145,0.01576049,0.03032653,0.00
 137537,0.00093934,0.00110585,0.00534443,-0.00249358,-0.08884145,-0.000
 92020,0.00006766,-0.00026903,-0.01385142,-0.00450589,0.54080677,-0.027
 91259,-0.02072420,0.00889381,0.01902419,-0.02267171,-0.00079295,-0.154
 30533,0.00265242,0.03369356,-0.06202088,-0.01408426,0.03946523,-0.0145
 0381,0.00447809,0.00324518,0.45859321,-0.03283039,-0.01264237,0.009318
 11,0.00919917,-0.04562475,0.01102137,0.01702698,-0.07650469,0.00710868
 ,-0.01710302,-0.08549501,0.09674950,0.02761167,0.00211055,-0.00694591,
 0.00159565,0.50364341,0.01363374,0.00692911,-0.00873927,-0.00788311,0.
 01504295,-0.00171227,0.02257721,0.01087970,-0.09044267,0.05050658,0.09
 640864,-0.25889773,0.00071589,0.00119293,0.00757370,-0.01528673,-0.116
 06982,0.56572307,0.00274207,-0.00087948,-0.00088975,-0.00039166,-0.000
 32531,0.00020219,-0.01974734,-0.00586357,0.00601303,0.00014290,-0.0001
 7637,0.00010592,-0.28439799,-0.03888634,0.07439525,0.00173059,0.002580
 62,-0.00057436,0.31152747,-0.00021335,0.00391410,-0.00067469,0.0006580
 1,0.00059366,-0.00028210,0.03356113,0.00196496,-0.01001559,-0.00003753
 ,0.00009093,-0.00022167,-0.04177394,-0.05676720,0.01302146,-0.00049450
 ,-0.00524712,0.00071105,0.04154241,0.06087658,-0.00097911,-0.00056426,
 -0.00034513,-0.00000243,-0.00004086,0.00004642,-0.00045939,0.00100316,
 -0.00130738,-0.00040979,-0.00007330,0.00019792,0.07499743,0.01214768,-
 0.07288776,-0.00032745,-0.00024474,0.00084743,-0.08309716,-0.01469657,
 0.07379794,-0.00235317,0.00269999,-0.00331225,0.00062477,0.00004882,-0
 .00030769,0.01090738,0.01149981,0.01348894,-0.00003588,0.00006766,-0.0
 0003673,-0.10191832,-0.07758290,-0.06966202,0.00054351,0.00101102,0.00
 055577,-0.01226970,-0.02025721,-0.01970859,0.10611211,0.00498758,-0.00
 198270,0.00322194,-0.00068153,-0.00003917,0.00041326,-0.01413254,-0.02
 541678,-0.01816960,0.00002123,0.00002656,0.00011745,-0.07836201,-0.162
 59904,-0.10993795,-0.00066412,-0.00145655,-0.00104981,-0.00078651,-0.0
 0261817,-0.00265350,0.08473100,0.18251408,-0.00078402,0.00114299,-0.00
 159687,-0.00017842,0.00000372,0.00000218,0.00064238,0.00188914,0.00202
 903,0.00010541,-0.00008241,-0.00012987,-0.06889239,-0.10869153,-0.1433
 7634,0.00012801,-0.00133394,-0.00024630,0.00580401,0.00894556,0.007000
 80,0.07843223,0.11874352,0.15661063,-0.00049858,0.00186936,0.00174442,
 0.00061619,0.00012500,-0.00000191,0.00079572,0.00588485,-0.01843270,-0
 .00062448,-0.00005194,0.00041599,-0.04984481,0.00356046,-0.00183300,-0
 .00000762,0.00054778,-0.00029038,0.00100802,-0.01276983,0.03005801,-0.
 00002811,0.00550009,-0.01451558,0.04881886,0.00274265,-0.00368362,-0.0
 0496630,-0.00074329,-0.00011396,-0.00004691,-0.00084723,-0.01670492,0.
 03051954,0.00069339,0.00024260,-0.00043876,0.00265827,-0.08322431,0.09
 617844,-0.00043522,0.00022932,-0.00014396,0.00040437,-0.00220666,0.004
 68584,-0.00076826,0.00924502,-0.02187635,-0.00411491,0.09514915,-0.000
 86385,-0.00157647,-0.00072969,0.00020914,-0.00008602,-0.00003504,0.000
 97364,0.00004819,0.00274486,-0.00021360,-0.00015038,0.00040923,-0.0007
 0746,0.09428900,-0.26559253,0.00030821,0.00084929,-0.00075101,-0.00164
 228,0.00263540,-0.00827783,0.00073906,0.00963051,-0.02026421,0.0021666
 1,-0.10502505,0.29161005,-0.01732081,0.00226088,0.00461492,-0.21371929
 ,-0.12911747,0.07971260,-0.03035617,0.03891202,0.00009830,0.00620235,0
 .00038658,0.00061727,-0.00539166,-0.00288690,0.00186151,-0.11729611,0.
 01483490,0.00451666,-0.00097665,0.00179080,0.00000928,-0.00000200,0.00
 034521,0.00020452,-0.00003190,0.00007980,-0.00033419,0.36440659,-0.012
 90017,-0.00162129,0.00467493,-0.17333548,-0.17932122,0.07609697,0.0137
 7162,-0.01644579,-0.00142657,0.01524554,-0.02943368,0.00224861,0.00252
 430,0.00398576,-0.00103313,0.07023566,-0.18962038,0.01822762,0.0008255
 5,-0.00083894,0.00010275,-0.00111641,0.00085616,0.00040673,-0.00072631
 ,0.00048770,-0.00021078,0.07784610,0.45861440,0.00705330,0.00084537,0.
 00195258,0.08661037,0.06652385,-0.04241821,0.00652273,-0.00496134,0.00
 446686,-0.01287791,0.02399692,0.00739896,0.00021588,-0.00025102,0.0004
 3738,-0.00352908,0.02069783,-0.07834578,-0.00009155,-0.00006685,0.0002
 4123,-0.00017887,0.00010879,-0.00009543,0.00044128,-0.00048619,0.00021
 350,-0.09579363,-0.08470481,0.09078657,-0.37853894,-0.05185336,0.09445
 571,0.00381260,-0.00115294,-0.00075715,-0.01891920,0.01222355,0.002643
 70,-0.00136193,-0.00009196,0.00031161,0.00291340,0.00133310,-0.0037651
 8,0.00109945,0.00174197,0.00610612,0.00090678,-0.00144651,0.00006701,0
 .00006619,0.00006286,0.00019401,-0.00021878,0.00088058,-0.00018318,-0.
 00043573,-0.00367226,0.00086054,0.38978702,0.00711729,-0.03772632,-0.0
 0121110,-0.00601103,0.00096678,0.00093919,-0.05109903,-0.01678661,0.01
 548706,-0.00136620,0.00031762,0.00014857,-0.00263276,0.00255145,-0.001
 38052,0.00450891,-0.00695907,0.00382426,0.00140497,-0.00053424,-0.0002
 7400,0.00026683,0.00021937,-0.00005545,0.00013784,0.00077090,-0.000201
 98,0.00501871,0.00418053,-0.00191430,0.04279523,0.05260432,0.08496856,
 0.01382655,-0.06275206,0.00050087,0.00016605,-0.00066726,0.01448424,-0
 .00071218,-0.00164949,-0.00226452,0.00006768,-0.00041671,-0.00331085,-
 0.00294740,-0.01002469,-0.00037349,0.00248165,0.01714167,-0.00029588,0
 .00047902,0.00040336,0.00091207,-0.00188582,0.00058530,-0.00038315,0.0
 0173435,0.00022873,-0.00056544,-0.00057886,0.00042198,-0.09842586,-0.0
 1490758,0.05694569,-0.00275264,-0.00060212,-0.00204728,-0.00370295,0.0
 0097082,0.00087372,-0.01836296,-0.02424341,-0.02712717,0.00170819,-0.0
 0833409,-0.00934250,-0.00024256,0.00109716,0.00137839,-0.09362312,-0.0
 3697372,-0.05933428,-0.00030165,-0.00048213,-0.00005668,-0.00137715,-0
 .00117173,-0.00064745,-0.00005030,-0.00054435,-0.00055904,0.01436409,0
 .00988554,0.00708872,0.00091662,0.00002126,0.00453811,0.22003487,-0.00
 208561,0.00187729,-0.00107239,0.00416224,-0.00230336,-0.00783740,-0.01
 524821,-0.00943862,-0.00942035,-0.00059917,0.00493853,-0.00152332,0.00
 099650,-0.00070555,0.00065541,0.00005123,-0.09113278,-0.00625246,0.000
 00959,0.00066821,0.00050693,-0.00034009,0.00112290,0.00053138,0.000114
 64,-0.00010544,-0.00013970,-0.01251901,-0.05319527,-0.02437338,-0.0009
 6261,0.00063692,0.00188875,-0.07763869,0.32070425,-0.00316806,-0.00091
 855,0.00199818,0.00161965,0.00009791,-0.00487165,-0.00592348,-0.010570
 96,-0.00178517,-0.02452277,-0.02419695,-0.02759343,-0.00105701,-0.0009
 3069,0.00093743,-0.04637924,-0.04131672,-0.12298210,-0.00005266,0.0001
 9665,0.00021552,-0.00084888,0.00141076,-0.00080729,0.00063515,-0.00002
 765,0.00045319,0.00208668,-0.01772253,0.01030134,-0.00186676,-0.000280
 64,0.00001279,0.23890121,-0.08518434,0.34676008,-0.00069342,-0.0003786
 4,0.00099501,-0.00011587,-0.00012845,-0.00079400,-0.00085033,-0.001498
 45,-0.00294960,-0.00026210,0.00081231,0.00267966,-0.00026611,0.0001532
 3,0.00034024,-0.01132150,0.01075736,-0.01524313,0.00002715,-0.00007735
 ,-0.00009114,-0.00026963,0.00015046,-0.00049271,0.00006579,-0.00000580
 ,0.00010696,0.00055728,0.00141632,0.00367822,-0.00002750,-0.00016201,0
 .00021533,-0.11661044,0.10405919,-0.15942385,0.12976668,-0.00035159,-0
 .00066486,0.00039122,-0.00196629,-0.00074743,-0.00085211,0.00184958,-0
 .00152435,-0.00186745,-0.00123553,-0.00186008,-0.00248846,0.00023100,-
 0.00011934,-0.00032583,-0.02444796,0.00869944,-0.02970023,0.00015007,0
 .00010389,0.00010085,-0.00026027,0.00012832,0.00037666,-0.00007704,-0.
 00008579,-0.00006200,0.00304839,0.00235201,0.00458514,0.00014235,-0.00
 024166,0.00038781,0.13801546,-0.17306708,0.17944372,-0.11509817,0.1670
 2693,0.00121148,0.00064673,-0.00044538,-0.00044076,-0.00010439,0.00115
 932,0.00065941,0.00063375,-0.00002736,-0.00372401,-0.00456164,-0.00330
 807,0.00064933,-0.00018807,-0.00019587,-0.01904507,0.01768471,-0.02916
 877,0.00012324,-0.00003167,0.00006748,-0.00007304,0.00005045,0.0002883
 6,-0.00000476,-0.00010699,-0.00000925,0.00297152,0.00391906,0.00463902
 ,0.00035942,-0.00017350,-0.00022931,-0.15366576,0.13222086,-0.20263886
 ,0.17097899,-0.14998931,0.22986869\\0.00000659,0.00003723,-0.00001410,
 -0.00000780,-0.00002299,0.00001246,-0.00002610,-0.00001566,0.00000339,
 -0.00001310,-0.00001497,0.00000814,0.00000300,0.00000342,0.00001510,-0
 .00001527,0.00007229,-0.00001545,0.00000583,0.00000479,0.00000303,0.00
 000950,0.00000345,-0.00000384,-0.00000319,0.00000416,0.,0.00001677,-0.
 00004333,0.00000165,0.00001296,-0.00001342,0.00001812,0.00000473,-0.00
 000877,-0.00002269,0.00000608,-0.00000620,-0.00000580\\\@


 WE THE UNWILLING
 LED BY THE UNQUALIFIED
 HAVE BEEN DOING THE UNBELIEVABLE SO LONG WITH SO LITTLE
 THAT WE NOW ATTEMPT THE IMPOSSIBLE WITH NOTHING.

                                    -- ANONYMOUS
 Job cpu time:       0 days  0 hours  1 minutes  2.4 seconds.
 File lengths (MBytes):  RWF=     13 Int=      0 D2E=      0 Chk=      2 Scr=      1
 Normal termination of Gaussian 09 at Sun Apr 10 16:04:26 2016.
