 Entering Gaussian System, Link 0=g09
 Input=Ala-S-opt-freq-tsa3-6-31g.com
 Output=Ala-S-opt-freq-tsa3-6-31g.log
 Initial command:
 /usr/local/gau/g09/l1.exe "/tmp/Gau-2914.inp" -scrdir="/tmp/"
 Entering Link 1 = /usr/local/gau/g09/l1.exe PID=      2916.
  
 Copyright (c) 1988,1990,1992,1993,1995,1998,2003,2009,2013,
            Gaussian, Inc.  All Rights Reserved.
  
 This is part of the Gaussian(R) 09 program.  It is based on
 the Gaussian(R) 03 system (copyright 2003, Gaussian, Inc.),
 the Gaussian(R) 98 system (copyright 1998, Gaussian, Inc.),
 the Gaussian(R) 94 system (copyright 1995, Gaussian, Inc.),
 the Gaussian 92(TM) system (copyright 1992, Gaussian, Inc.),
 the Gaussian 90(TM) system (copyright 1990, Gaussian, Inc.),
 the Gaussian 88(TM) system (copyright 1988, Gaussian, Inc.),
 the Gaussian 86(TM) system (copyright 1986, Carnegie Mellon
 University), and the Gaussian 82(TM) system (copyright 1983,
 Carnegie Mellon University). Gaussian is a federally registered
 trademark of Gaussian, Inc.
  
 This software contains proprietary and confidential information,
 including trade secrets, belonging to Gaussian, Inc.
  
 This software is provided under written license and may be
 used, copied, transmitted, or stored only in accord with that
 written license.
  
 The following legend is applicable only to US Government
 contracts under FAR:
  
                    RESTRICTED RIGHTS LEGEND
  
 Use, reproduction and disclosure by the US Government is
 subject to restrictions as set forth in subparagraphs (a)
 and (c) of the Commercial Computer Software - Restricted
 Rights clause in FAR 52.227-19.
  
 Gaussian, Inc.
 340 Quinnipiac St., Bldg. 40, Wallingford CT 06492
  
  
 ---------------------------------------------------------------
 Warning -- This program may not be used in any manner that
 competes with the business of Gaussian, Inc. or will provide
 assistance to any competitor of Gaussian, Inc.  The licensee
 of this program is prohibited from giving any competitor of
 Gaussian, Inc. access to this program.  By using this program,
 the user acknowledges that Gaussian, Inc. is engaged in the
 business of creating and licensing software in the field of
 computational chemistry and represents and warrants to the
 licensee that it is not a competitor of Gaussian, Inc. and that
 it will not use this program in any manner prohibited above.
 ---------------------------------------------------------------
  

 Cite this work as:
 Gaussian 09, Revision D.01,
 M. J. Frisch, G. W. Trucks, H. B. Schlegel, G. E. Scuseria, 
 M. A. Robb, J. R. Cheeseman, G. Scalmani, V. Barone, B. Mennucci, 
 G. A. Petersson, H. Nakatsuji, M. Caricato, X. Li, H. P. Hratchian, 
 A. F. Izmaylov, J. Bloino, G. Zheng, J. L. Sonnenberg, M. Hada, 
 M. Ehara, K. Toyota, R. Fukuda, J. Hasegawa, M. Ishida, T. Nakajima, 
 Y. Honda, O. Kitao, H. Nakai, T. Vreven, J. A. Montgomery, Jr., 
 J. E. Peralta, F. Ogliaro, M. Bearpark, J. J. Heyd, E. Brothers, 
 K. N. Kudin, V. N. Staroverov, T. Keith, R. Kobayashi, J. Normand, 
 K. Raghavachari, A. Rendell, J. C. Burant, S. S. Iyengar, J. Tomasi, 
 M. Cossi, N. Rega, J. M. Millam, M. Klene, J. E. Knox, J. B. Cross, 
 V. Bakken, C. Adamo, J. Jaramillo, R. Gomperts, R. E. Stratmann, 
 O. Yazyev, A. J. Austin, R. Cammi, C. Pomelli, J. W. Ochterski, 
 R. L. Martin, K. Morokuma, V. G. Zakrzewski, G. A. Voth, 
 P. Salvador, J. J. Dannenberg, S. Dapprich, A. D. Daniels, 
 O. Farkas, J. B. Foresman, J. V. Ortiz, J. Cioslowski, 
 and D. J. Fox, Gaussian, Inc., Wallingford CT, 2013.
 
 ******************************************
 Gaussian 09:  ES64L-G09RevD.01 24-Apr-2013
                12-Apr-2016 
 ******************************************
 %chk=Ala-S-opt-freq-tsa3-6-31g.chk
 ------------------------------------------------
 #p opt=(calcfc,ts) freq rb3lyp/6-31g iop(1/11=1)
 ------------------------------------------------
 1/5=1,10=4,11=1,14=-1,18=20,26=3,38=1/1,3;
 2/9=110,12=2,17=6,18=5,40=1/2;
 3/5=1,6=6,11=2,16=1,25=1,30=1,71=2,74=-5,116=1,140=1/1,2,3;
 4//1;
 5/5=2,38=5/2;
 8/6=4,10=90,11=11/1;
 11/6=1,8=1,9=11,15=111,16=1/1,2,10;
 10/6=1,13=1/2;
 6/7=2,8=2,9=2,10=2,28=1/1;
 7/10=1,18=20,25=1/1,2,3,16;
 1/5=1,10=4,11=1,14=-1,18=20,26=3/3(2);
 2/9=110/2;
 99//99;
 2/9=110/2;
 3/5=1,6=6,11=2,16=1,25=1,30=1,71=1,74=-5,116=1/1,2,3;
 4/5=5,16=3,69=1/1;
 5/5=2,38=5/2;
 7//1,2,3,16;
 1/5=1,11=1,14=-1,18=20,26=3/3(-5);
 2/9=110/2;
 6/7=2,8=2,9=2,10=2,19=2,28=1/1;
 99/9=1/99;
 Leave Link    1 at Tue Apr 12 09:55:45 2016, MaxMem=           0 cpu:         0.0
 (Enter /usr/local/gau/g09/l101.exe)
 -------------------------
 Ala-S-opt-freq-tsa3-6-31g
 -------------------------
 Symbolic Z-matrix:
 Charge =  0 Multiplicity = 1
 N                     0.77133   1.72916   0.73768 
 H                     1.71172   1.92718   1.02663 
 C                     0.4187    0.45194   0.30709 
 H                    -1.48631  -1.12728  -1.47993 
 C                     1.46901  -0.61521   0.44136 
 C                    -0.80654   0.20491  -0.19045 
 H                     1.77667  -0.72661   1.48986 
 H                     1.08751  -1.57558   0.09344 
 H                     2.36673  -0.36072  -0.13964 
 O                    -1.72456   1.25691  -0.38812 
 H                     0.13961   2.49395   0.57381 
 O                    -1.27449  -1.07402  -0.52237 
 H                    -0.36988   1.13498   0.2443 
 
 NAtoms=     13 NQM=       13 NQMF=       0 NMMI=      0 NMMIF=      0
                NMic=       0 NMicF=      0.
                    Isotopes and Nuclear Properties:
 (Nuclear quadrupole moments (NQMom) in fm**2, nuclear magnetic moments (NMagM)
  in nuclear magnetons)

  Atom         1           2           3           4           5           6           7           8           9          10
 IAtWgt=          14           1          12           1          12          12           1           1           1          16
 AtmWgt=  14.0030740   1.0078250  12.0000000   1.0078250  12.0000000  12.0000000   1.0078250   1.0078250   1.0078250  15.9949146
 NucSpn=           2           1           0           1           0           0           1           1           1           0
 AtZEff=   0.0000000   0.0000000   0.0000000   0.0000000   0.0000000   0.0000000   0.0000000   0.0000000   0.0000000   0.0000000
 NQMom=    2.0440000   0.0000000   0.0000000   0.0000000   0.0000000   0.0000000   0.0000000   0.0000000   0.0000000   0.0000000
 NMagM=    0.4037610   2.7928460   0.0000000   2.7928460   0.0000000   0.0000000   2.7928460   2.7928460   2.7928460   0.0000000
 AtZNuc=   7.0000000   1.0000000   6.0000000   1.0000000   6.0000000   6.0000000   1.0000000   1.0000000   1.0000000   8.0000000

  Atom        11          12          13
 IAtWgt=           1          16           1
 AtmWgt=   1.0078250  15.9949146   1.0078250
 NucSpn=           1           0           1
 AtZEff=   0.0000000   0.0000000   0.0000000
 NQMom=    0.0000000   0.0000000   0.0000000
 NMagM=    2.7928460   0.0000000   2.7928460
 AtZNuc=   1.0000000   8.0000000   1.0000000
 Leave Link  101 at Tue Apr 12 09:55:45 2016, MaxMem=    33554432 cpu:         0.1
 (Enter /usr/local/gau/g09/l103.exe)

 GradGradGradGradGradGradGradGradGradGradGradGradGradGradGradGradGradGrad
 Berny optimization.
 Initialization pass.
                           ----------------------------
                           !    Initial Parameters    !
                           ! (Angstroms and Degrees)  !
 --------------------------                            --------------------------
 ! Name  Definition              Value          Derivative Info.                !
 --------------------------------------------------------------------------------
 ! R1    R(1,2)                  1.0035         calculate D2E/DX2 analytically  !
 ! R2    R(1,3)                  1.3932         calculate D2E/DX2 analytically  !
 ! R3    R(1,11)                 1.0054         calculate D2E/DX2 analytically  !
 ! R4    R(3,5)                  1.5033         calculate D2E/DX2 analytically  !
 ! R5    R(3,6)                  1.3453         calculate D2E/DX2 analytically  !
 ! R6    R(3,13)                 1.0452         calculate D2E/DX2 analytically  !
 ! R7    R(4,12)                 0.9822         calculate D2E/DX2 analytically  !
 ! R8    R(5,7)                  1.0984         calculate D2E/DX2 analytically  !
 ! R9    R(5,8)                  1.0904         calculate D2E/DX2 analytically  !
 ! R10   R(5,9)                  1.0992         calculate D2E/DX2 analytically  !
 ! R11   R(6,10)                 1.4102         calculate D2E/DX2 analytically  !
 ! R12   R(6,12)                 1.4017         calculate D2E/DX2 analytically  !
 ! R13   R(6,13)                 1.1157         calculate D2E/DX2 analytically  !
 ! A1    A(2,1,3)              120.4689         calculate D2E/DX2 analytically  !
 ! A2    A(2,1,11)             119.0538         calculate D2E/DX2 analytically  !
 ! A3    A(3,1,11)             119.2059         calculate D2E/DX2 analytically  !
 ! A4    A(1,3,5)              116.508          calculate D2E/DX2 analytically  !
 ! A5    A(1,3,6)              120.8748         calculate D2E/DX2 analytically  !
 ! A6    A(1,3,13)              67.0712         calculate D2E/DX2 analytically  !
 ! A7    A(5,3,6)              122.6153         calculate D2E/DX2 analytically  !
 ! A8    A(3,5,7)              110.6686         calculate D2E/DX2 analytically  !
 ! A9    A(3,5,8)              110.6273         calculate D2E/DX2 analytically  !
 ! A10   A(3,5,9)              111.0413         calculate D2E/DX2 analytically  !
 ! A11   A(7,5,8)              108.2564         calculate D2E/DX2 analytically  !
 ! A12   A(7,5,9)              107.4144         calculate D2E/DX2 analytically  !
 ! A13   A(8,5,9)              108.7238         calculate D2E/DX2 analytically  !
 ! A14   A(3,6,10)             120.5154         calculate D2E/DX2 analytically  !
 ! A15   A(3,6,12)             123.9986         calculate D2E/DX2 analytically  !
 ! A16   A(10,6,12)            115.4764         calculate D2E/DX2 analytically  !
 ! A17   A(10,6,13)             71.7906         calculate D2E/DX2 analytically  !
 ! A18   A(4,12,6)             110.6311         calculate D2E/DX2 analytically  !
 ! A19   L(5,3,13,1,-1)        183.5793         calculate D2E/DX2 analytically  !
 ! A20   L(12,6,13,10,-1)      187.2669         calculate D2E/DX2 analytically  !
 ! A21   L(5,3,13,1,-2)        183.5966         calculate D2E/DX2 analytically  !
 ! A22   L(12,6,13,10,-2)      171.9685         calculate D2E/DX2 analytically  !
 ! D1    D(2,1,3,5)              6.2762         calculate D2E/DX2 analytically  !
 ! D2    D(2,1,3,6)           -174.2135         calculate D2E/DX2 analytically  !
 ! D3    D(2,1,3,13)          -177.3205         calculate D2E/DX2 analytically  !
 ! D4    D(11,1,3,5)           173.2777         calculate D2E/DX2 analytically  !
 ! D5    D(11,1,3,6)            -7.2119         calculate D2E/DX2 analytically  !
 ! D6    D(11,1,3,13)          -10.319          calculate D2E/DX2 analytically  !
 ! D7    D(1,3,5,7)             59.0596         calculate D2E/DX2 analytically  !
 ! D8    D(1,3,5,8)            179.0434         calculate D2E/DX2 analytically  !
 ! D9    D(1,3,5,9)            -60.1392         calculate D2E/DX2 analytically  !
 ! D10   D(6,3,5,7)           -120.4415         calculate D2E/DX2 analytically  !
 ! D11   D(6,3,5,8)             -0.4577         calculate D2E/DX2 analytically  !
 ! D12   D(6,3,5,9)            120.3597         calculate D2E/DX2 analytically  !
 ! D13   D(1,3,6,10)             5.1914         calculate D2E/DX2 analytically  !
 ! D14   D(1,3,6,12)          -173.6291         calculate D2E/DX2 analytically  !
 ! D15   D(5,3,6,10)          -175.3288         calculate D2E/DX2 analytically  !
 ! D16   D(5,3,6,12)             5.8507         calculate D2E/DX2 analytically  !
 ! D17   D(3,6,12,4)          -118.4765         calculate D2E/DX2 analytically  !
 ! D18   D(10,6,12,4)           62.649          calculate D2E/DX2 analytically  !
 --------------------------------------------------------------------------------
 Trust Radius=3.00D-01 FncErr=1.00D-07 GrdErr=1.00D-06
 Number of steps in this run=     63 maximum allowed number of steps=    100.
 Search for a saddle point of order  1.
 GradGradGradGradGradGradGradGradGradGradGradGradGradGradGradGradGradGrad

 Leave Link  103 at Tue Apr 12 09:55:45 2016, MaxMem=    33554432 cpu:         0.0
 (Enter /usr/local/gau/g09/l202.exe)
                          Input orientation:                          
 ---------------------------------------------------------------------
 Center     Atomic      Atomic             Coordinates (Angstroms)
 Number     Number       Type             X           Y           Z
 ---------------------------------------------------------------------
      1          7           0        0.771328    1.729161    0.737680
      2          1           0        1.711717    1.927179    1.026628
      3          6           0        0.418702    0.451943    0.307089
      4          1           0       -1.486305   -1.127283   -1.479926
      5          6           0        1.469006   -0.615206    0.441363
      6          6           0       -0.806535    0.204910   -0.190451
      7          1           0        1.776671   -0.726607    1.489858
      8          1           0        1.087513   -1.575578    0.093442
      9          1           0        2.366728   -0.360720   -0.139635
     10          8           0       -1.724562    1.256909   -0.388119
     11          1           0        0.139614    2.493950    0.573814
     12          8           0       -1.274485   -1.074015   -0.522369
     13          1           0       -0.369875    1.134983    0.244302
 ---------------------------------------------------------------------
                    Distance matrix (angstroms):
                    1          2          3          4          5
     1  N    0.000000
     2  H    1.003510   0.000000
     3  C    1.393212   2.089484   0.000000
     4  H    4.263093   5.083296   3.052283   0.000000
     5  C    2.463862   2.620145   1.503321   3.561944   0.000000
     6  C    2.382105   3.284674   1.345280   1.974733   2.499974
     7  H    2.758131   2.694695   2.152210   4.430257   1.098367
     8  H    3.381762   3.678284   2.145646   3.049753   1.090367
     9  H    2.771747   2.650224   2.157496   4.150887   1.099194
    10  O    2.778474   3.776081   2.392669   2.633094   3.793644
    11  H    1.005394   1.731409   2.078178   4.469317   3.384032
    12  O    3.692001   4.508210   2.425579   0.982151   2.943812
    13  H    1.377975   2.360642   1.045151   3.055688   2.546268
                    6          7          8          9         10
     6  C    0.000000
     7  H    3.219335   0.000000
     8  H    2.614986   1.773604   0.000000
     9  H    3.223681   1.771240   1.779493   0.000000
    10  O    1.410159   4.440695   4.020281   4.406487   0.000000
    11  H    2.592104   3.727074   4.205987   3.690282   2.435311
    12  O    1.401712   3.671418   2.491952   3.730108   2.377772
    13  H    1.115670   3.102353   3.081214   3.142217   1.500000
                   11         12         13
    11  H    0.000000
    12  O    3.991449   0.000000
    13  H    1.488270   2.507145   0.000000
 Stoichiometry    C3H7NO2
 Framework group  C1[X(C3H7NO2)]
 Deg. of freedom    33
 Full point group                 C1      NOp   1
 Largest Abelian subgroup         C1      NOp   1
 Largest concise Abelian subgroup C1      NOp   1
                         Standard orientation:                         
 ---------------------------------------------------------------------
 Center     Atomic      Atomic             Coordinates (Angstroms)
 Number     Number       Type             X           Y           Z
 ---------------------------------------------------------------------
      1          7           0        1.354615   -1.194932   -0.035556
      2          1           0        2.353129   -1.181586    0.063565
      3          6           0        0.625665   -0.008045   -0.004393
      4          1           0       -2.082711    1.224414    0.675439
      5          6           0        1.421040    1.267005    0.035633
      6          6           0       -0.719433   -0.023389   -0.020286
      7          1           0        2.078169    1.341705   -0.841301
      8          1           0        0.758533    2.133006    0.040785
      9          1           0        2.059593    1.305926    0.929480
     10          8           0       -1.422364   -1.244322    0.041033
     11          1           0        0.868144   -2.071552    0.039947
     12          8           0       -1.515271    1.126161   -0.120160
     13          1           0        0.020276   -0.855522   -0.091725
 ---------------------------------------------------------------------
 Rotational constants (GHZ):      4.9201056      3.3297378      2.0229062
 Leave Link  202 at Tue Apr 12 09:55:45 2016, MaxMem=    33554432 cpu:         0.0
 (Enter /usr/local/gau/g09/l301.exe)
 Standard basis: 6-31G (6D, 7F)
 Ernie: Thresh=  0.10000D-02 Tol=  0.10000D-05 Strict=F.
 There are    68 symmetry adapted cartesian basis functions of A   symmetry.
 There are    68 symmetry adapted basis functions of A   symmetry.
    68 basis functions,   160 primitive gaussians,    68 cartesian basis functions
    24 alpha electrons       24 beta electrons
       nuclear repulsion energy       249.6072100042 Hartrees.
 IExCor=  402 DFT=T Ex+Corr=B3LYP ExCW=0 ScaHFX=  0.200000
 ScaDFX=  0.800000  0.720000  1.000000  0.810000 ScalE2=  1.000000  1.000000
 IRadAn=      0 IRanWt=     -1 IRanGd=            0 ICorTp=0 IEmpDi=  4
 NAtoms=   13 NActive=   13 NUniq=   13 SFac= 1.00D+00 NAtFMM=   60 NAOKFM=F Big=F
 Integral buffers will be    131072 words long.
 Raffenetti 2 integral format.
 Two-electron integral symmetry is turned on.
 Leave Link  301 at Tue Apr 12 09:55:45 2016, MaxMem=    33554432 cpu:         0.0
 (Enter /usr/local/gau/g09/l302.exe)
 NPDir=0 NMtPBC=     1 NCelOv=     1 NCel=       1 NClECP=     1 NCelD=      1
         NCelK=      1 NCelE2=     1 NClLst=     1 CellRange=     0.0.
 One-electron integrals computed using PRISM.
 NBasis=    68 RedAO= T EigKep=  2.81D-03  NBF=    68
 NBsUse=    68 1.00D-06 EigRej= -1.00D+00 NBFU=    68
 Precomputing XC quadrature grid using
 IXCGrd= 4 IRadAn=           0 IRanWt=          -1 IRanGd=           0 AccXCQ= 0.00D+00.
 Generated NRdTot=       0 NPtTot=           0 NUsed=           0 NTot=          32
 NSgBfM=    68    68    68    68    68 MxSgAt=    13 MxSgA2=    13.
 Leave Link  302 at Tue Apr 12 09:55:45 2016, MaxMem=    33554432 cpu:         0.1
 (Enter /usr/local/gau/g09/l303.exe)
 DipDrv:  MaxL=1.
 Leave Link  303 at Tue Apr 12 09:55:45 2016, MaxMem=    33554432 cpu:         0.0
 (Enter /usr/local/gau/g09/l401.exe)
 ExpMin= 1.61D-01 ExpMax= 5.48D+03 ExpMxC= 8.25D+02 IAcc=1 IRadAn=         1 AccDes= 0.00D+00
 Harris functional with IExCor=  402 and IRadAn=       1 diagonalized for initial guess.
 HarFok:  IExCor=  402 AccDes= 0.00D+00 IRadAn=         1 IDoV= 1 UseB2=F ITyADJ=14
 ICtDFT=  3500011 ScaDFX=  1.000000  1.000000  1.000000  1.000000
 FoFCou: FMM=F IPFlag=           0 FMFlag=      100000 FMFlg1=           0
         NFxFlg=           0 DoJE=T BraDBF=F KetDBF=T FulRan=T
         wScrn=  0.000000 ICntrl=     500 IOpCl=  0 I1Cent=   200000004 NGrid=           0
         NMat0=    1 NMatS0=      1 NMatT0=    0 NMatD0=    1 NMtDS0=    0 NMtDT0=    0
 Petite list used in FoFCou.
 Harris En= -323.387696837123    
 JPrj=0 DoOrth=F DoCkMO=F.
 Leave Link  401 at Tue Apr 12 09:55:46 2016, MaxMem=    33554432 cpu:         0.4
 (Enter /usr/local/gau/g09/l502.exe)
 Closed shell SCF:
 Using DIIS extrapolation, IDIIS=  1040.
 Integral symmetry usage will be decided dynamically.
 Keep R1 ints in memory in canonical form, NReq=3676491.
 IVT=       33364 IEndB=       33364 NGot=    33554432 MDV=    30768038
 LenX=    30768038 LenY=    30762973
 Requested convergence on RMS density matrix=1.00D-08 within 128 cycles.
 Requested convergence on MAX density matrix=1.00D-06.
 Requested convergence on             energy=1.00D-06.
 No special actions if energy rises.
 FoFCou: FMM=F IPFlag=           0 FMFlag=           0 FMFlg1=           0
         NFxFlg=           0 DoJE=F BraDBF=F KetDBF=F FulRan=T
         wScrn=  0.000000 ICntrl=     600 IOpCl=  0 I1Cent=           0 NGrid=           0
         NMat0=    1 NMatS0=   2346 NMatT0=    0 NMatD0=    1 NMtDS0=    0 NMtDT0=    0
 Symmetry not used in FoFCou.
 Integral accuracy reduced to 1.0D-05 until final iterations.

 Cycle   1  Pass 0  IDiag  1:
 E= -323.143129472271    
 DIIS: error= 3.72D-02 at cycle   1 NSaved=   1.
 NSaved= 1 IEnMin= 1 EnMin= -323.143129472271     IErMin= 1 ErrMin= 3.72D-02
 ErrMax= 3.72D-02  0.00D+00 EMaxC= 1.00D-01 BMatC= 2.08D-01 BMatP= 2.08D-01
 IDIUse=3 WtCom= 6.28D-01 WtEn= 3.72D-01
 Coeff-Com:  0.100D+01
 Coeff-En:   0.100D+01
 Coeff:      0.100D+01
 Gap=     0.198 Goal=   None    Shift=    0.000
 GapD=    0.198 DampG=1.000 DampE=0.500 DampFc=0.5000 IDamp=-1.
 Damping current iteration by 5.00D-01
 RMSDP=2.87D-02 MaxDP=5.77D-01              OVMax= 3.15D-01

 Cycle   2  Pass 0  IDiag  1:
 E= -323.153366488971     Delta-E=       -0.010237016700 Rises=F Damp=T
 DIIS: error= 2.73D-02 at cycle   2 NSaved=   2.
 NSaved= 2 IEnMin= 2 EnMin= -323.153366488971     IErMin= 2 ErrMin= 2.73D-02
 ErrMax= 2.73D-02  0.00D+00 EMaxC= 1.00D-01 BMatC= 6.02D-02 BMatP= 2.08D-01
 IDIUse=3 WtCom= 7.27D-01 WtEn= 2.73D-01
 Coeff-Com:  0.310D+00 0.690D+00
 Coeff-En:   0.477D+00 0.523D+00
 Coeff:      0.355D+00 0.645D+00
 Gap=     0.202 Goal=   None    Shift=    0.000
 RMSDP=9.80D-03 MaxDP=1.67D-01 DE=-1.02D-02 OVMax= 2.42D-01

 Cycle   3  Pass 0  IDiag  1:
 E= -323.266022708452     Delta-E=       -0.112656219481 Rises=F Damp=F
 DIIS: error= 3.16D-02 at cycle   3 NSaved=   3.
 NSaved= 3 IEnMin= 3 EnMin= -323.266022708452     IErMin= 2 ErrMin= 2.73D-02
 ErrMax= 3.16D-02  0.00D+00 EMaxC= 1.00D-01 BMatC= 6.95D-02 BMatP= 6.02D-02
 IDIUse=2 WtCom= 0.00D+00 WtEn= 1.00D+00
 EnCoef did     2 forward-backward iterations
 Coeff-En:   0.445D-01 0.120D+00 0.835D+00
 Coeff:      0.445D-01 0.120D+00 0.835D+00
 Gap=     0.191 Goal=   None    Shift=    0.000
 RMSDP=1.67D-02 MaxDP=2.31D-01 DE=-1.13D-01 OVMax= 3.28D-01

 Cycle   4  Pass 0  IDiag  1:
 E= -322.990794704853     Delta-E=        0.275228003599 Rises=F Damp=F
 DIIS: error= 8.91D-02 at cycle   4 NSaved=   4.
 NSaved= 4 IEnMin= 3 EnMin= -323.266022708452     IErMin= 2 ErrMin= 2.73D-02
 ErrMax= 8.91D-02  0.00D+00 EMaxC= 1.00D-01 BMatC= 3.87D-01 BMatP= 6.02D-02
 IDIUse=2 WtCom= 0.00D+00 WtEn= 1.00D+00
 Coeff-En:   0.000D+00 0.000D+00 0.770D+00 0.230D+00
 Coeff:      0.000D+00 0.000D+00 0.770D+00 0.230D+00
 Gap=     0.186 Goal=   None    Shift=    0.000
 RMSDP=1.04D-02 MaxDP=1.65D-01 DE= 2.75D-01 OVMax= 1.89D-01

 Cycle   5  Pass 0  IDiag  1:
 E= -323.312712148702     Delta-E=       -0.321917443850 Rises=F Damp=F
 DIIS: error= 1.93D-02 at cycle   5 NSaved=   5.
 NSaved= 5 IEnMin= 5 EnMin= -323.312712148702     IErMin= 5 ErrMin= 1.93D-02
 ErrMax= 1.93D-02  0.00D+00 EMaxC= 1.00D-01 BMatC= 2.05D-02 BMatP= 6.02D-02
 IDIUse=3 WtCom= 8.07D-01 WtEn= 1.93D-01
 Coeff-Com: -0.328D-01 0.121D+00 0.274D+00-0.840D-01 0.723D+00
 Coeff-En:   0.000D+00 0.000D+00 0.276D+00 0.000D+00 0.724D+00
 Coeff:     -0.265D-01 0.973D-01 0.274D+00-0.678D-01 0.723D+00
 Gap=     0.190 Goal=   None    Shift=    0.000
 RMSDP=2.48D-03 MaxDP=3.27D-02 DE=-3.22D-01 OVMax= 5.91D-02

 Cycle   6  Pass 0  IDiag  1:
 E= -323.331341301406     Delta-E=       -0.018629152704 Rises=F Damp=F
 DIIS: error= 3.44D-03 at cycle   6 NSaved=   6.
 NSaved= 6 IEnMin= 6 EnMin= -323.331341301406     IErMin= 6 ErrMin= 3.44D-03
 ErrMax= 3.44D-03  0.00D+00 EMaxC= 1.00D-01 BMatC= 3.20D-04 BMatP= 2.05D-02
 IDIUse=3 WtCom= 9.66D-01 WtEn= 3.44D-02
 Coeff-Com: -0.246D-01 0.510D-01 0.145D+00-0.469D-01 0.450D+00 0.426D+00
 Coeff-En:   0.000D+00 0.000D+00 0.000D+00 0.000D+00 0.000D+00 0.100D+01
 Coeff:     -0.238D-01 0.492D-01 0.140D+00-0.453D-01 0.434D+00 0.446D+00
 Gap=     0.189 Goal=   None    Shift=    0.000
 RMSDP=3.79D-04 MaxDP=5.66D-03 DE=-1.86D-02 OVMax= 1.10D-02

 Cycle   7  Pass 0  IDiag  1:
 E= -323.331660184603     Delta-E=       -0.000318883197 Rises=F Damp=F
 DIIS: error= 7.60D-04 at cycle   7 NSaved=   7.
 NSaved= 7 IEnMin= 7 EnMin= -323.331660184603     IErMin= 7 ErrMin= 7.60D-04
 ErrMax= 7.60D-04  0.00D+00 EMaxC= 1.00D-01 BMatC= 1.41D-05 BMatP= 3.20D-04
 IDIUse=3 WtCom= 9.92D-01 WtEn= 7.60D-03
 Coeff-Com: -0.560D-02 0.822D-02 0.246D-01-0.101D-01 0.943D-01 0.243D+00
 Coeff-Com:  0.645D+00
 Coeff-En:   0.000D+00 0.000D+00 0.000D+00 0.000D+00 0.000D+00 0.306D-02
 Coeff-En:   0.997D+00
 Coeff:     -0.555D-02 0.816D-02 0.244D-01-0.100D-01 0.936D-01 0.241D+00
 Coeff:      0.648D+00
 Gap=     0.189 Goal=   None    Shift=    0.000
 RMSDP=6.86D-05 MaxDP=1.07D-03 DE=-3.19D-04 OVMax= 2.21D-03

 Cycle   8  Pass 0  IDiag  1:
 E= -323.331673877726     Delta-E=       -0.000013693123 Rises=F Damp=F
 DIIS: error= 9.98D-05 at cycle   8 NSaved=   8.
 NSaved= 8 IEnMin= 8 EnMin= -323.331673877726     IErMin= 8 ErrMin= 9.98D-05
 ErrMax= 9.98D-05  0.00D+00 EMaxC= 1.00D-01 BMatC= 1.02D-06 BMatP= 1.41D-05
 IDIUse=1 WtCom= 1.00D+00 WtEn= 0.00D+00
 Coeff-Com: -0.245D-03-0.158D-02-0.314D-02 0.154D-03-0.208D-03 0.895D-01
 Coeff-Com:  0.352D+00 0.564D+00
 Coeff:     -0.245D-03-0.158D-02-0.314D-02 0.154D-03-0.208D-03 0.895D-01
 Coeff:      0.352D+00 0.564D+00
 Gap=     0.189 Goal=   None    Shift=    0.000
 RMSDP=1.59D-05 MaxDP=2.35D-04 DE=-1.37D-05 OVMax= 1.86D-04

 Cycle   9  Pass 0  IDiag  1:
 E= -323.331674834519     Delta-E=       -0.000000956793 Rises=F Damp=F
 DIIS: error= 1.61D-05 at cycle   9 NSaved=   9.
 NSaved= 9 IEnMin= 9 EnMin= -323.331674834519     IErMin= 9 ErrMin= 1.61D-05
 ErrMax= 1.61D-05  0.00D+00 EMaxC= 1.00D-01 BMatC= 2.30D-08 BMatP= 1.02D-06
 IDIUse=1 WtCom= 1.00D+00 WtEn= 0.00D+00
 Coeff-Com:  0.395D-04-0.628D-03-0.184D-02 0.326D-03-0.297D-02 0.166D-01
 Coeff-Com:  0.797D-01 0.175D+00 0.734D+00
 Coeff:      0.395D-04-0.628D-03-0.184D-02 0.326D-03-0.297D-02 0.166D-01
 Coeff:      0.797D-01 0.175D+00 0.734D+00
 Gap=     0.189 Goal=   None    Shift=    0.000
 RMSDP=3.32D-06 MaxDP=3.46D-05 DE=-9.57D-07 OVMax= 3.48D-05

 Initial convergence to 1.0D-05 achieved.  Increase integral accuracy.
 Cycle  10  Pass 1  IDiag  1:
 E= -323.331722838645     Delta-E=       -0.000048004126 Rises=F Damp=F
 DIIS: error= 1.27D-05 at cycle   1 NSaved=   1.
 NSaved= 1 IEnMin= 1 EnMin= -323.331722838645     IErMin= 1 ErrMin= 1.27D-05
 ErrMax= 1.27D-05  0.00D+00 EMaxC= 1.00D-01 BMatC= 1.43D-08 BMatP= 1.43D-08
 IDIUse=1 WtCom= 1.00D+00 WtEn= 0.00D+00
 Coeff-Com:  0.100D+01
 Coeff:      0.100D+01
 Gap=     0.189 Goal=   None    Shift=    0.000
 RMSDP=3.32D-06 MaxDP=3.46D-05 DE=-4.80D-05 OVMax= 6.80D-05

 Cycle  11  Pass 1  IDiag  1:
 E= -323.331722847442     Delta-E=       -0.000000008797 Rises=F Damp=F
 DIIS: error= 1.41D-05 at cycle   2 NSaved=   2.
 NSaved= 2 IEnMin= 2 EnMin= -323.331722847442     IErMin= 1 ErrMin= 1.27D-05
 ErrMax= 1.41D-05  0.00D+00 EMaxC= 1.00D-01 BMatC= 1.57D-08 BMatP= 1.43D-08
 IDIUse=1 WtCom= 1.00D+00 WtEn= 0.00D+00
 Coeff-Com:  0.515D+00 0.485D+00
 Coeff:      0.515D+00 0.485D+00
 Gap=     0.189 Goal=   None    Shift=    0.000
 RMSDP=3.70D-06 MaxDP=6.18D-05 DE=-8.80D-09 OVMax= 6.06D-05

 Cycle  12  Pass 1  IDiag  1:
 E= -323.331722856958     Delta-E=       -0.000000009517 Rises=F Damp=F
 DIIS: error= 1.06D-05 at cycle   3 NSaved=   3.
 NSaved= 3 IEnMin= 3 EnMin= -323.331722856958     IErMin= 3 ErrMin= 1.06D-05
 ErrMax= 1.06D-05  0.00D+00 EMaxC= 1.00D-01 BMatC= 4.92D-09 BMatP= 1.43D-08
 IDIUse=1 WtCom= 1.00D+00 WtEn= 0.00D+00
 Coeff-Com:  0.154D+00 0.344D+00 0.502D+00
 Coeff:      0.154D+00 0.344D+00 0.502D+00
 Gap=     0.189 Goal=   None    Shift=    0.000
 RMSDP=1.96D-06 MaxDP=3.13D-05 DE=-9.52D-09 OVMax= 3.86D-05

 Cycle  13  Pass 1  IDiag  1:
 E= -323.331722860167     Delta-E=       -0.000000003209 Rises=F Damp=F
 DIIS: error= 4.09D-06 at cycle   4 NSaved=   4.
 NSaved= 4 IEnMin= 4 EnMin= -323.331722860167     IErMin= 4 ErrMin= 4.09D-06
 ErrMax= 4.09D-06  0.00D+00 EMaxC= 1.00D-01 BMatC= 1.24D-09 BMatP= 4.92D-09
 IDIUse=1 WtCom= 1.00D+00 WtEn= 0.00D+00
 Coeff-Com: -0.207D-01 0.129D+00 0.379D+00 0.512D+00
 Coeff:     -0.207D-01 0.129D+00 0.379D+00 0.512D+00
 Gap=     0.189 Goal=   None    Shift=    0.000
 RMSDP=6.87D-07 MaxDP=1.03D-05 DE=-3.21D-09 OVMax= 1.28D-05

 Cycle  14  Pass 1  IDiag  1:
 E= -323.331722861269     Delta-E=       -0.000000001102 Rises=F Damp=F
 DIIS: error= 7.25D-07 at cycle   5 NSaved=   5.
 NSaved= 5 IEnMin= 5 EnMin= -323.331722861269     IErMin= 5 ErrMin= 7.25D-07
 ErrMax= 7.25D-07  0.00D+00 EMaxC= 1.00D-01 BMatC= 3.64D-11 BMatP= 1.24D-09
 IDIUse=1 WtCom= 1.00D+00 WtEn= 0.00D+00
 Coeff-Com: -0.166D-01 0.653D-01 0.204D+00 0.304D+00 0.444D+00
 Coeff:     -0.166D-01 0.653D-01 0.204D+00 0.304D+00 0.444D+00
 Gap=     0.189 Goal=   None    Shift=    0.000
 RMSDP=1.04D-07 MaxDP=1.04D-06 DE=-1.10D-09 OVMax= 1.32D-06

 Cycle  15  Pass 1  IDiag  1:
 E= -323.331722861300     Delta-E=       -0.000000000030 Rises=F Damp=F
 DIIS: error= 1.99D-07 at cycle   6 NSaved=   6.
 NSaved= 6 IEnMin= 6 EnMin= -323.331722861300     IErMin= 6 ErrMin= 1.99D-07
 ErrMax= 1.99D-07  0.00D+00 EMaxC= 1.00D-01 BMatC= 1.50D-12 BMatP= 3.64D-11
 IDIUse=1 WtCom= 1.00D+00 WtEn= 0.00D+00
 Coeff-Com: -0.441D-02 0.130D-01 0.387D-01 0.734D-01 0.187D+00 0.692D+00
 Coeff:     -0.441D-02 0.130D-01 0.387D-01 0.734D-01 0.187D+00 0.692D+00
 Gap=     0.189 Goal=   None    Shift=    0.000
 RMSDP=2.80D-08 MaxDP=5.52D-07 DE=-3.04D-11 OVMax= 6.71D-07

 Cycle  16  Pass 1  IDiag  1:
 E= -323.331722861302     Delta-E=       -0.000000000002 Rises=F Damp=F
 DIIS: error= 5.43D-08 at cycle   7 NSaved=   7.
 NSaved= 7 IEnMin= 7 EnMin= -323.331722861302     IErMin= 7 ErrMin= 5.43D-08
 ErrMax= 5.43D-08  0.00D+00 EMaxC= 1.00D-01 BMatC= 3.28D-13 BMatP= 1.50D-12
 IDIUse=1 WtCom= 1.00D+00 WtEn= 0.00D+00
 Coeff-Com: -0.493D-03-0.560D-03-0.338D-02 0.577D-02 0.546D-01 0.408D+00
 Coeff-Com:  0.536D+00
 Coeff:     -0.493D-03-0.560D-03-0.338D-02 0.577D-02 0.546D-01 0.408D+00
 Coeff:      0.536D+00
 Gap=     0.189 Goal=   None    Shift=    0.000
 RMSDP=1.22D-08 MaxDP=2.00D-07 DE=-2.27D-12 OVMax= 2.52D-07

 Cycle  17  Pass 1  IDiag  1:
 E= -323.331722861303     Delta-E=       -0.000000000002 Rises=F Damp=F
 DIIS: error= 1.42D-08 at cycle   8 NSaved=   8.
 NSaved= 8 IEnMin= 8 EnMin= -323.331722861303     IErMin= 8 ErrMin= 1.42D-08
 ErrMax= 1.42D-08  0.00D+00 EMaxC= 1.00D-01 BMatC= 1.75D-14 BMatP= 3.28D-13
 IDIUse=1 WtCom= 1.00D+00 WtEn= 0.00D+00
 Coeff-Com:  0.606D-04-0.114D-02-0.430D-02-0.198D-02 0.130D-01 0.142D+00
 Coeff-Com:  0.261D+00 0.591D+00
 Coeff:      0.606D-04-0.114D-02-0.430D-02-0.198D-02 0.130D-01 0.142D+00
 Coeff:      0.261D+00 0.591D+00
 Gap=     0.189 Goal=   None    Shift=    0.000
 RMSDP=2.41D-09 MaxDP=3.27D-08 DE=-1.59D-12 OVMax= 4.05D-08

 SCF Done:  E(RB3LYP) =  -323.331722861     A.U. after   17 cycles
            NFock= 17  Conv=0.24D-08     -V/T= 2.0035
 KE= 3.222009765685D+02 PE=-1.256342800542D+03 EE= 3.612028911082D+02
 Leave Link  502 at Tue Apr 12 09:56:01 2016, MaxMem=    33554432 cpu:        12.2
 (Enter /usr/local/gau/g09/l801.exe)
 DoSCS=F DFT=T ScalE2(SS,OS)=  1.000000  1.000000
 Range of M.O.s used for correlation:     1    68
 NBasis=    68 NAE=    24 NBE=    24 NFC=     0 NFV=     0
 NROrb=     68 NOA=    24 NOB=    24 NVA=    44 NVB=    44
 Leave Link  801 at Tue Apr 12 09:56:01 2016, MaxMem=    33554432 cpu:         0.0
 (Enter /usr/local/gau/g09/l1101.exe)
 Using compressed storage, NAtomX=    13.
 Will process     14 centers per pass.
 Leave Link 1101 at Tue Apr 12 09:56:01 2016, MaxMem=    33554432 cpu:         0.1
 (Enter /usr/local/gau/g09/l1102.exe)
 Symmetrizing basis deriv contribution to polar:
 IMax=3 JMax=2 DiffMx= 0.00D+00
 Leave Link 1102 at Tue Apr 12 09:56:01 2016, MaxMem=    33554432 cpu:         0.0
 (Enter /usr/local/gau/g09/l1110.exe)
 Forming Gx(P) for the SCF density, NAtomX=    13.
 Integral derivatives from FoFJK, PRISM(SPDF).
 Do as many integral derivatives as possible in FoFJK.
 G2DrvN: MDV=      33554224.
 G2DrvN: will do    14 centers at a time, making    1 passes.
 Calling FoFCou, ICntrl=  3107 FMM=F I1Cent=   0 AccDes= 0.00D+00.
 FoFJK:  IHMeth= 1 ICntrl=    3107 DoSepK=F KAlg= 0 I1Cent=   0 FoldK=F
 IRaf=         0 NMat=   1 IRICut=       1 DoRegI=T DoRafI=F ISym2E= 0.
 FoFCou: FMM=F IPFlag=           0 FMFlag=      100000 FMFlg1=           0
         NFxFlg=           0 DoJE=F BraDBF=F KetDBF=F FulRan=T
         wScrn=  0.000000 ICntrl=    3107 IOpCl=  0 I1Cent=           0 NGrid=           0
         NMat0=    1 NMatS0=      1 NMatT0=    0 NMatD0=    1 NMtDS0=    0 NMtDT0=    0
 Symmetry not used in FoFCou.
 End of G2Drv F.D. properties file   721 does not exist.
 End of G2Drv F.D. properties file   722 does not exist.
 End of G2Drv F.D. properties file   788 does not exist.
 Leave Link 1110 at Tue Apr 12 09:56:24 2016, MaxMem=    33554432 cpu:        20.6
 (Enter /usr/local/gau/g09/l1002.exe)
 Minotr:  Closed shell wavefunction.
          IDoAtm=1111111111111
          Direct CPHF calculation.
          Differentiating once with respect to nuclear coordinates.
          Requested convergence is 1.0D-08 RMS, and 1.0D-07 maximum.
          Secondary convergence is 1.0D-12 RMS, and 1.0D-12 maximum.
          NewPWx=T KeepS1=F KeepF1=F KeepIn=T MapXYZ=F SortEE=F KeepMc=T.
          MDV=      33554230 using IRadAn=       2.
 Generate precomputed XC quadrature information.
 Keep R1 ints in memory in canonical form, NReq=3645290.
 FoFCou: FMM=F IPFlag=           0 FMFlag=           0 FMFlg1=           0
         NFxFlg=           0 DoJE=F BraDBF=F KetDBF=F FulRan=T
         wScrn=  0.000000 ICntrl=     600 IOpCl=  0 I1Cent=           0 NGrid=           0
         NMat0=    1 NMatS0=   2346 NMatT0=    0 NMatD0=    1 NMtDS0=    0 NMtDT0=    0
 Symmetry not used in FoFCou.
          Solving linear equations simultaneously, MaxMat=       0.
          There are    42 degrees of freedom in the 1st order CPHF.  IDoFFX=6 NUNeed=     0.
     36 vectors produced by pass  0 Test12= 2.51D-15 2.38D-09 XBig12= 1.98D-01 1.40D-01.
 AX will form    36 AO Fock derivatives at one time.
     36 vectors produced by pass  1 Test12= 2.51D-15 2.38D-09 XBig12= 3.22D-02 3.52D-02.
     36 vectors produced by pass  2 Test12= 2.51D-15 2.38D-09 XBig12= 1.24D-04 1.80D-03.
     36 vectors produced by pass  3 Test12= 2.51D-15 2.38D-09 XBig12= 2.33D-07 8.53D-05.
     36 vectors produced by pass  4 Test12= 2.51D-15 2.38D-09 XBig12= 2.13D-10 1.68D-06.
     17 vectors produced by pass  5 Test12= 2.51D-15 2.38D-09 XBig12= 1.16D-13 4.88D-08.
 InvSVY:  IOpt=1 It=  1 EMax= 1.55D-15
 Solved reduced A of dimension   197 with    36 vectors.
 End of Minotr F.D. properties file   721 does not exist.
 End of Minotr F.D. properties file   722 does not exist.
 End of Minotr F.D. properties file   788 does not exist.
 Leave Link 1002 at Tue Apr 12 09:56:47 2016, MaxMem=    33554432 cpu:        14.8
 (Enter /usr/local/gau/g09/l601.exe)
 Copying SCF densities to generalized density rwf, IOpCl= 0 IROHF=0.

 **********************************************************************

            Population analysis using the SCF density.

 **********************************************************************

 Orbital symmetries:
       Occupied  (A) (A) (A) (A) (A) (A) (A) (A) (A) (A) (A) (A)
                 (A) (A) (A) (A) (A) (A) (A) (A) (A) (A) (A) (A)
       Virtual   (A) (A) (A) (A) (A) (A) (A) (A) (A) (A) (A) (A)
                 (A) (A) (A) (A) (A) (A) (A) (A) (A) (A) (A) (A)
                 (A) (A) (A) (A) (A) (A) (A) (A) (A) (A) (A) (A)
                 (A) (A) (A) (A) (A) (A) (A) (A)
 The electronic state is 1-A.
 Alpha  occ. eigenvalues --  -19.16880 -19.10424 -14.37011 -10.30437 -10.25487
 Alpha  occ. eigenvalues --  -10.21120  -1.09255  -1.03559  -0.93588  -0.81402
 Alpha  occ. eigenvalues --   -0.75123  -0.61663  -0.58455  -0.53571  -0.48148
 Alpha  occ. eigenvalues --   -0.46333  -0.42744  -0.41342  -0.39074  -0.35930
 Alpha  occ. eigenvalues --   -0.31804  -0.28420  -0.25606  -0.18439
 Alpha virt. eigenvalues --    0.00447   0.03914   0.06438   0.09897   0.10905
 Alpha virt. eigenvalues --    0.14877   0.16199   0.16547   0.20942   0.23470
 Alpha virt. eigenvalues --    0.28638   0.35921   0.43950   0.50979   0.52514
 Alpha virt. eigenvalues --    0.55384   0.61453   0.61767   0.64942   0.65793
 Alpha virt. eigenvalues --    0.72978   0.74318   0.75168   0.80280   0.82803
 Alpha virt. eigenvalues --    0.85884   0.87754   0.90600   0.92403   0.94806
 Alpha virt. eigenvalues --    0.96042   0.97489   1.02637   1.05257   1.07693
 Alpha virt. eigenvalues --    1.12262   1.16336   1.23242   1.27952   1.43220
 Alpha virt. eigenvalues --    1.44738   1.56446   1.91060   2.00298
          Condensed to atoms (all electrons):
               1          2          3          4          5          6
     1  N    7.278650   0.326874   0.194725  -0.000046  -0.051076  -0.166259
     2  H    0.326874   0.352089  -0.019361   0.000002  -0.005189   0.006050
     3  C    0.194725  -0.019361   6.070290   0.002715   0.286653   0.208945
     4  H   -0.000046   0.000002   0.002715   0.405601   0.000454  -0.029367
     5  C   -0.051076  -0.005189   0.286653   0.000454   5.077912   0.011133
     6  C   -0.166259   0.006050   0.208945  -0.029367   0.011133   5.136475
     7  H    0.002762   0.000729  -0.044824  -0.000073   0.368117  -0.002178
     8  H    0.003356   0.000027  -0.032807  -0.000432   0.374154  -0.002663
     9  H    0.000296   0.002111  -0.046817   0.000124   0.370447  -0.000723
    10  O   -0.016772   0.000261  -0.205086   0.004732   0.002598   0.283129
    11  H    0.303032  -0.014432  -0.044540  -0.000005   0.003492  -0.003766
    12  O    0.001592   0.000011  -0.131349   0.236194  -0.009614   0.197855
    13  H   -0.048938   0.003237  -0.413405  -0.002375  -0.006669   0.054277
               7          8          9         10         11         12
     1  N    0.002762   0.003356   0.000296  -0.016772   0.303032   0.001592
     2  H    0.000729   0.000027   0.002111   0.000261  -0.014432   0.000011
     3  C   -0.044824  -0.032807  -0.046817  -0.205086  -0.044540  -0.131349
     4  H   -0.000073  -0.000432   0.000124   0.004732  -0.000005   0.236194
     5  C    0.368117   0.374154   0.370447   0.002598   0.003492  -0.009614
     6  C   -0.002178  -0.002663  -0.000723   0.283129  -0.003766   0.197855
     7  H    0.580555  -0.022380  -0.044560  -0.000029  -0.000115   0.000276
     8  H   -0.022380   0.499347  -0.023403   0.000176  -0.000179   0.011046
     9  H   -0.044560  -0.023403   0.588787  -0.000004   0.000013   0.000520
    10  O   -0.000029   0.000176  -0.000004   8.373193   0.011180  -0.083908
    11  H   -0.000115  -0.000179   0.000013   0.011180   0.347605   0.000186
    12  O    0.000276   0.011046   0.000520  -0.083908   0.000186   8.324884
    13  H   -0.000187  -0.000299  -0.001211   0.180591   0.023797   0.035751
              13
     1  N   -0.048938
     2  H    0.003237
     3  C   -0.413405
     4  H   -0.002375
     5  C   -0.006669
     6  C    0.054277
     7  H   -0.000187
     8  H   -0.000299
     9  H   -0.001211
    10  O    0.180591
    11  H    0.023797
    12  O    0.035751
    13  H    0.887447
 Mulliken charges:
               1
     1  N   -0.828196
     2  H    0.347589
     3  C    0.174861
     4  H    0.382475
     5  C   -0.422411
     6  C    0.307093
     7  H    0.161904
     8  H    0.194056
     9  H    0.154419
    10  O   -0.550061
    11  H    0.373731
    12  O   -0.583445
    13  H    0.287985
 Sum of Mulliken charges =   0.00000
 Mulliken charges with hydrogens summed into heavy atoms:
               1
     1  N   -0.106876
     3  C    0.462845
     5  C    0.087969
     6  C    0.307093
    10  O   -0.550061
    12  O   -0.200970
 APT charges:
               1
     1  N   -1.354247
     2  H    0.770017
     3  C    0.285051
     4  H    0.671673
     5  C   -1.236861
     6  C   -0.046043
     7  H    0.448109
     8  H    0.384399
     9  H    0.453464
    10  O   -0.410122
    11  H    0.561867
    12  O   -0.724914
    13  H    0.197607
 Sum of APT charges =   0.00000
 APT charges with hydrogens summed into heavy atoms:
               1
     1  N   -0.022363
     3  C    0.482658
     5  C    0.049111
     6  C   -0.046043
    10  O   -0.410122
    12  O   -0.053241
 Electronic spatial extent (au):  <R**2>=            597.1844
 Charge=              0.0000 electrons
 Dipole moment (field-independent basis, Debye):
    X=              4.4330    Y=              1.0834    Z=              1.8145  Tot=              4.9110
 Quadrupole moment (field-independent basis, Debye-Ang):
   XX=            -33.2892   YY=            -35.6229   ZZ=            -37.5573
   XY=             -6.4941   XZ=             -2.8344   YZ=              1.9393
 Traceless Quadrupole moment (field-independent basis, Debye-Ang):
   XX=              2.2006   YY=             -0.1331   ZZ=             -2.0675
   XY=             -6.4941   XZ=             -2.8344   YZ=              1.9393
 Octapole moment (field-independent basis, Debye-Ang**2):
  XXX=              8.1353  YYY=             -5.0446  ZZZ=              1.3401  XYY=              9.4075
  XXY=              6.1592  XXZ=              8.8805  XZZ=             -4.5202  YZZ=              2.3232
  YYZ=              3.8485  XYZ=             -5.7909
 Hexadecapole moment (field-independent basis, Debye-Ang**3):
 XXXX=           -344.8734 YYYY=           -262.0021 ZZZZ=            -42.6521 XXXY=            -43.7867
 XXXZ=            -13.6907 YYYX=            -25.4223 YYYZ=              2.6497 ZZZX=             -2.1399
 ZZZY=              0.9123 XXYY=           -108.6193 XXZZ=            -71.4639 YYZZ=            -56.1274
 XXYZ=              7.7989 YYXZ=             -4.5808 ZZXY=             -2.0961
 N-N= 2.496072100042D+02 E-N=-1.256342801823D+03  KE= 3.222009765685D+02
  Exact polarizability:   0.000   0.000   0.000   0.000   0.000   0.000
 Approx polarizability: 114.916   9.514  72.494  -3.222  -0.771  32.697
 No NMR shielding tensors so no spin-rotation constants.
 Leave Link  601 at Tue Apr 12 09:56:47 2016, MaxMem=    33554432 cpu:         0.1
 (Enter /usr/local/gau/g09/l701.exe)
 Compute integral second derivatives.
 ... and contract with generalized density number  0.
 Leave Link  701 at Tue Apr 12 09:56:48 2016, MaxMem=    33554432 cpu:         0.1
 (Enter /usr/local/gau/g09/l702.exe)
 L702 exits ... SP integral derivatives will be done elsewhere.
 Leave Link  702 at Tue Apr 12 09:56:48 2016, MaxMem=    33554432 cpu:         0.0
 (Enter /usr/local/gau/g09/l703.exe)
 Compute integral second derivatives, UseDBF=F ICtDFT=           0.
 Integral derivatives from FoFJK, PRISM(SPDF).
 Calling FoFJK, ICntrl=    100147 FMM=F ISym2X=0 I1Cent= 0 IOpClX= 0 NMat=1 NMatS=1 NMatT=0.
 FoFJK:  IHMeth= 1 ICntrl=  100147 DoSepK=F KAlg= 0 I1Cent=   0 FoldK=F
 IRaf=         0 NMat=   1 IRICut=       1 DoRegI=T DoRafI=F ISym2E= 0.
 FoFCou: FMM=F IPFlag=           0 FMFlag=      100000 FMFlg1=         800
         NFxFlg=           0 DoJE=F BraDBF=F KetDBF=F FulRan=T
         wScrn=  0.000000 ICntrl=  100147 IOpCl=  0 I1Cent=           0 NGrid=           0
         NMat0=    1 NMatS0=      1 NMatT0=    0 NMatD0=    1 NMtDS0=    0 NMtDT0=    0
 Symmetry not used in FoFCou.
 Leave Link  703 at Tue Apr 12 09:57:28 2016, MaxMem=    33554432 cpu:        22.6
 (Enter /usr/local/gau/g09/l716.exe)
 Dipole        = 1.74407775D+00 4.26240024D-01 7.13868823D-01
 Polarizability= 0.00000000D+00 0.00000000D+00 0.00000000D+00
                 0.00000000D+00 0.00000000D+00 0.00000000D+00
 ***** Axes restored to original set *****
 -------------------------------------------------------------------
 Center     Atomic                   Forces (Hartrees/Bohr)
 Number     Number              X              Y              Z
 -------------------------------------------------------------------
      1        7           0.036064585    0.053282767    0.021330394
      2        1           0.000354210   -0.003437862    0.000011863
      3        6           0.133872732   -0.126169159    0.003499987
      4        1          -0.002036118    0.005989481    0.001915227
      5        6           0.002202306   -0.004523640    0.006098577
      6        6          -0.105561094   -0.050874639   -0.072843085
      7        1          -0.000532286   -0.000287900    0.000515132
      8        1          -0.001422275    0.001600462   -0.000025740
      9        1          -0.001624442    0.001869716   -0.001242150
     10        8           0.040141239   -0.017331844    0.014408107
     11        1           0.003776036    0.014332474    0.001702317
     12        8           0.017837019   -0.008936349    0.009169097
     13        1          -0.123071912    0.134486493    0.015460274
 -------------------------------------------------------------------
 Cartesian Forces:  Max     0.134486493 RMS     0.049071464
 Force constants in Cartesian coordinates: 
                1             2             3             4             5 
      1  0.811335D+00
      2  0.417606D-02  0.726038D+00
      3  0.285781D+00  0.114296D+00  0.994028D-01
      4 -0.428505D+00 -0.687968D-01 -0.137583D+00  0.435648D+00
      5 -0.658879D-01 -0.754770D-01 -0.307438D-01  0.723211D-01  0.792664D-01
      6 -0.122712D+00 -0.293877D-01 -0.342415D-01  0.136427D+00  0.345500D-01
      7 -0.120843D+00 -0.427334D-01 -0.495594D-01  0.301193D-02 -0.399315D-01
      8 -0.976943D-01 -0.293921D+00 -0.901790D-01  0.767133D-03 -0.100488D-01
      9 -0.627808D-01 -0.857125D-01 -0.517751D-01  0.366699D-02 -0.122797D-01
     10 -0.229183D-02  0.195319D-02  0.173540D-02 -0.366600D-03 -0.682878D-03
     11 -0.979145D-03  0.612911D-04  0.155282D-02  0.610325D-05 -0.390926D-03
     12  0.143508D-02 -0.908323D-03  0.110353D-02  0.497420D-04  0.142452D-03
     13  0.630749D-02 -0.917507D-02 -0.555506D-03  0.245731D-02 -0.109834D-02
     14  0.311892D-01 -0.386718D-01  0.167542D-02  0.168766D-02  0.361702D-02
     15  0.633498D-02 -0.133490D-01  0.432926D-02 -0.125225D-02 -0.788853D-03
     16 -0.258612D-01  0.120911D-01 -0.906043D-03 -0.257141D-02  0.279742D-04
     17 -0.492725D-01 -0.190816D-01 -0.183617D-01  0.704388D-02 -0.781691D-02
     18 -0.173382D-01  0.435391D-02 -0.165558D-01  0.402568D-02  0.117875D-02
     19  0.120278D-02 -0.221715D-02  0.261444D-02  0.410353D-03  0.112403D-03
     20 -0.896444D-03  0.336008D-02 -0.167452D-02 -0.402888D-03 -0.877634D-03
     21  0.113980D-02  0.816027D-03  0.874040D-03 -0.129866D-03  0.910175D-03
     22 -0.383949D-02  0.346317D-02 -0.131863D-02 -0.495904D-03  0.114857D-03
     23  0.367434D-02 -0.216370D-02  0.733963D-03  0.366950D-03  0.364902D-03
     24 -0.869711D-03  0.427456D-03  0.995738D-03  0.116028D-03  0.273348D-03
     25  0.347840D-02 -0.815125D-03 -0.137176D-02  0.580604D-04  0.783871D-03
     26 -0.156671D-02  0.307771D-02  0.195608D-02 -0.778254D-03 -0.477565D-03
     27 -0.238711D-04 -0.443002D-03 -0.454185D-03  0.686542D-03 -0.721661D-03
     28  0.429210D-02 -0.638607D-02  0.557288D-03  0.701947D-03  0.176084D-02
     29 -0.102274D-01  0.200120D-01  0.247024D-02 -0.265639D-02  0.124127D-02
     30  0.344788D-03  0.159664D-02 -0.344218D-03 -0.611316D-03  0.848675D-03
     31 -0.214781D+00  0.187106D+00 -0.574405D-01 -0.984719D-02  0.257861D-01
     32  0.189286D+00 -0.300208D+00  0.366912D-01 -0.979987D-02  0.118730D-01
     33 -0.672470D-01  0.465461D-01 -0.279542D-01 -0.337647D-02  0.736173D-02
     34  0.181908D-02 -0.274884D-02 -0.597715D-02  0.203512D-02 -0.473704D-04
     35  0.107964D-02 -0.503698D-02 -0.607045D-02  0.608943D-03  0.693041D-03
     36 -0.654585D-02 -0.103424D-02  0.657481D-02 -0.571618D-03 -0.194366D-02
     37 -0.323131D-01 -0.759174D-01 -0.359767D-01 -0.253667D-02  0.674087D-02
     38 -0.288125D-02 -0.179892D-01 -0.123464D-01 -0.367513D-03 -0.196687D-02
     39 -0.175185D-01 -0.372014D-01  0.180449D-01 -0.144802D-02  0.121249D-02
                6             7             8             9            10 
      6  0.387636D-01
      7 -0.100667D-01  0.875575D+00
      8 -0.268440D-02 -0.209050D+00  0.665450D+00
      9 -0.655732D-02  0.263816D+00  0.962887D-01  0.902479D-01
     10  0.220664D-03 -0.205511D-02 -0.478678D-02 -0.208623D-02  0.303532D-01
     11  0.728818D-03  0.118481D-02 -0.362433D-02 -0.277465D-03  0.245940D-01
     12  0.683521D-03  0.235848D-02  0.182765D-02  0.114936D-02  0.101325D+00
     13 -0.123526D-02 -0.126602D+00  0.714983D-01 -0.148149D-01 -0.156047D-03
     14  0.272320D-03  0.536560D-01 -0.131542D+00  0.334257D-02 -0.439933D-03
     15  0.533576D-02 -0.171351D-01  0.510710D-02 -0.516155D-01 -0.155280D-02
     16  0.145372D-02 -0.388969D+00 -0.626992D-01 -0.138437D+00 -0.631173D-02
     17  0.310539D-02 -0.702999D-01 -0.120882D+00 -0.375750D-01 -0.904920D-02
     18 -0.726578D-02 -0.144211D+00 -0.353850D-01 -0.112129D+00 -0.146289D-01
     19  0.244167D-03 -0.157769D-01  0.797433D-02 -0.235392D-01 -0.230860D-03
     20  0.251691D-03  0.148879D-01 -0.721008D-02  0.221780D-01  0.158455D-03
     21 -0.664923D-03 -0.490502D-02 -0.520968D-03  0.226318D-02  0.186066D-03
     22  0.623571D-04  0.429346D-02  0.234492D-01  0.743339D-02  0.520070D-04
     23  0.424219D-03 -0.584216D-02 -0.204739D-01 -0.624638D-02  0.104184D-03
     24 -0.758999D-03  0.106993D-02  0.414813D-02 -0.875627D-03 -0.590536D-03
     25  0.618056D-03 -0.254240D-01  0.142290D-02  0.613222D-02  0.135208D-04
     26 -0.303165D-03  0.259965D-01 -0.844094D-03 -0.114840D-01 -0.211426D-05
     27 -0.537172D-03 -0.556397D-02 -0.494071D-03  0.571201D-02 -0.500814D-04
     28 -0.250334D-03 -0.349954D-01  0.471671D-01 -0.897168D-02 -0.170949D-02
     29 -0.151581D-02  0.168404D-02 -0.901659D-02  0.143187D-04  0.233196D-02
     30  0.117003D-03 -0.139554D-01  0.150141D-01  0.425437D-02 -0.441624D-03
     31 -0.483390D-02  0.750488D-02 -0.748716D-02  0.390712D-02  0.424358D-03
     32 -0.233437D-02  0.153855D-01 -0.172215D-01  0.633648D-02  0.111321D-03
     33  0.354257D-02  0.104567D-01 -0.911667D-02 -0.299709D-02 -0.329975D-03
     34 -0.116721D-02 -0.124808D-01 -0.303303D-01 -0.123309D-01 -0.198761D-01
     35 -0.117367D-02 -0.121506D-01 -0.212587D-02 -0.549752D-02 -0.163618D-01
     36  0.295271D-02 -0.128060D-01 -0.187094D-01  0.123262D-02 -0.825546D-01
     37  0.123912D-02 -0.163240D+00  0.259769D+00 -0.219944D-01  0.215473D-02
     38 -0.193332D-02  0.267213D+00 -0.485403D-01  0.309126D-01  0.206964D-02
     39 -0.136944D-02 -0.194987D-01  0.347038D-01  0.121090D+00 -0.123243D-02
               11            12            13            14            15 
     11  0.444985D-01
     12  0.280074D-01  0.434660D+00
     13  0.108418D-02  0.633476D-03  0.513992D+00
     14  0.541855D-03  0.484103D-03  0.589625D-01  0.549168D+00
     15 -0.152821D-02 -0.118095D-02  0.949039D-02  0.234135D-01  0.536800D+00
     16 -0.211582D-01 -0.305045D-02 -0.355040D-01  0.123196D-01 -0.168386D-01
     17 -0.188575D-01  0.668858D-02  0.254948D-01  0.139151D-01  0.550205D-02
     18 -0.430001D-01 -0.381073D-02 -0.160549D-01  0.213596D-02  0.189070D-01
     19 -0.129821D-03 -0.532400D-04 -0.640218D-01  0.400812D-02 -0.638892D-01
     20  0.184903D-03 -0.494133D-04  0.319480D-02 -0.512460D-01  0.221415D-01
     21  0.159916D-03 -0.211587D-05 -0.630814D-01  0.204058D-01 -0.283474D+00
     22 -0.358838D-03 -0.113107D-03 -0.840147D-01 -0.926421D-01 -0.328517D-01
     23  0.301393D-03  0.789989D-05 -0.847267D-01 -0.263298D+00 -0.778093D-01
     24  0.244343D-03 -0.957973D-04 -0.308507D-01 -0.801772D-01 -0.781898D-01
     25  0.318711D-03  0.294280D-03 -0.209672D+00 -0.534486D-01  0.110871D+00
     26 -0.267759D-03 -0.623496D-04 -0.517903D-01 -0.645479D-01  0.315849D-01
     27  0.380066D-04  0.134313D-03  0.109503D+00  0.338661D-01 -0.122488D+00
     28  0.410091D-02  0.174807D-02  0.385221D-02 -0.708105D-02 -0.370161D-02
     29  0.841523D-03  0.836474D-03 -0.387891D-02  0.258104D-02 -0.126865D-02
     30  0.564964D-02  0.637171D-03 -0.230828D-02 -0.426403D-02  0.762015D-02
     31 -0.229095D-04 -0.326152D-03 -0.118044D-02 -0.157467D-02 -0.159181D-03
     32 -0.197562D-03 -0.229588D-03 -0.324314D-02 -0.298425D-02 -0.112383D-02
     33 -0.388219D-03 -0.303131D-03 -0.122488D-02 -0.152074D-02 -0.150894D-02
     34 -0.804342D-02 -0.102908D+00  0.267338D-03 -0.143812D-02  0.496799D-02
     35 -0.287480D-01 -0.364354D-01  0.286377D-02 -0.545741D-02  0.396802D-02
     36  0.119188D-01 -0.430251D+00  0.333566D-02 -0.485773D-03 -0.704785D-02
     37 -0.596319D-03 -0.139292D-02 -0.572594D-02 -0.519860D-02  0.571628D-02
     38  0.565657D-02 -0.309529D-03 -0.918596D-02 -0.120752D-01  0.415067D-02
     39 -0.310570D-02 -0.272434D-02  0.716364D-02  0.851905D-03 -0.274864D-01
               16            17            18            19            20 
     16  0.572441D+00
     17  0.202506D+00  0.591917D+00
     18  0.273161D+00  0.226062D+00  0.178042D+00
     19  0.135833D-02  0.283833D-02  0.282107D-02  0.737974D-01
     20 -0.108601D-02 -0.268072D-02 -0.320474D-02 -0.103453D-01  0.533440D-01
     21  0.279699D-02  0.537787D-03 -0.820211D-04  0.722105D-01 -0.253835D-01
     22  0.178159D-02  0.145376D-02  0.108635D-02 -0.283718D-02 -0.713245D-02
     23 -0.209406D-02 -0.166998D-02 -0.114672D-02  0.151950D-02  0.427772D-02
     24 -0.248941D-05  0.173678D-03  0.578384D-03 -0.120254D-01 -0.295400D-01
     25  0.238958D-02  0.324430D-02  0.802988D-03  0.700922D-02  0.138652D-02
     26 -0.108460D-02 -0.419104D-02  0.140241D-02 -0.292848D-02 -0.237710D-03
     27 -0.828904D-03  0.103793D-02 -0.108983D-02  0.273677D-01  0.100662D-01
     28 -0.142577D+00  0.108937D+00 -0.173176D-01 -0.255152D-02  0.196523D-02
     29  0.401964D-01 -0.131974D+00  0.109567D-02  0.636400D-03 -0.364034D-03
     30 -0.272463D-01  0.340038D-01 -0.595238D-01  0.968461D-03 -0.866953D-03
     31  0.619102D-02 -0.208204D-02  0.437524D-04 -0.154170D-03  0.976471D-04
     32  0.548689D-02 -0.282264D-02  0.930146D-03 -0.113145D-03  0.144931D-03
     33  0.648359D-03 -0.226990D-02  0.400658D-02 -0.220489D-03 -0.754628D-04
     34 -0.706496D-01 -0.555133D-01 -0.249923D-01  0.253591D-03 -0.873294D-03
     35 -0.437617D-01 -0.192324D+00 -0.170067D-01 -0.396347D-03  0.704314D-03
     36 -0.411853D-01 -0.745101D-01 -0.648612D-01 -0.133957D-02  0.142481D-02
     37  0.882822D-01 -0.165301D+00 -0.473978D-01  0.154083D-02 -0.954217D-03
     38 -0.140744D+00 -0.103532D+00 -0.137416D+00 -0.958853D-03  0.600177D-03
     39 -0.495643D-01 -0.144395D+00  0.637842D-01 -0.515923D-02  0.473233D-02
               21            22            23            24            25 
     21  0.309748D+00
     22 -0.139782D-02  0.922341D-01
     23  0.237615D-02  0.928475D-01  0.287873D+00
     24 -0.967262D-02  0.359770D-01  0.859482D-01  0.818194D-01
     25 -0.505820D-02 -0.859106D-02 -0.198198D-02  0.735403D-02  0.234794D+00
     26  0.593619D-03 -0.227844D-01 -0.566028D-02  0.181639D-01  0.529916D-01
     27 -0.188779D-01 -0.970231D-02 -0.308541D-02  0.639464D-02 -0.120999D+00
     28 -0.579052D-03 -0.125031D-03  0.260337D-03  0.759764D-04 -0.147903D-02
     29  0.105847D-02 -0.326807D-03  0.243998D-03 -0.138769D-04  0.142970D-02
     30 -0.419595D-04 -0.929902D-04  0.198457D-03 -0.129414D-03 -0.187022D-02
     31 -0.475744D-04  0.568932D-03 -0.338957D-03 -0.168291D-03 -0.205273D-03
     32  0.706902D-04  0.115370D-02 -0.437714D-03  0.183076D-03 -0.996476D-04
     33  0.134080D-04  0.308604D-03 -0.582331D-03  0.714068D-03 -0.136353D-04
     34 -0.458104D-03 -0.102776D-02 -0.190928D-02 -0.320041D-03 -0.978202D-03
     35 -0.433896D-03 -0.125188D-02  0.193929D-02 -0.215183D-03 -0.121400D-02
     36  0.121980D-03 -0.624522D-03  0.251161D-04 -0.963199D-03  0.347935D-03
     37 -0.676269D-03  0.200110D-02 -0.187967D-02  0.234212D-03 -0.139340D-02
     38 -0.590282D-03  0.201424D-02 -0.129672D-02  0.384067D-03 -0.401824D-02
     39 -0.205371D-03  0.123343D-02 -0.843826D-03  0.183219D-03  0.289241D-02
               26            27            28            29            30 
     26  0.683439D-01
     27 -0.388910D-01  0.130744D+00
     28  0.976329D-03 -0.729972D-04  0.190105D+00
     29 -0.977568D-04 -0.484623D-03 -0.112278D+00  0.188049D+00
     30  0.209013D-02 -0.668821D-03  0.378033D-01 -0.215262D-01  0.461379D-01
     31  0.158526D-03 -0.975986D-04 -0.496147D-02  0.571724D-02  0.196653D-03
     32  0.211968D-03 -0.899171D-04  0.144896D-02  0.459674D-02  0.213264D-02
     33  0.163472D-03  0.321337D-04  0.865861D-03  0.271718D-02 -0.295134D-02
     34 -0.443968D-03 -0.490521D-03  0.168547D-01  0.228953D-01  0.653575D-02
     35  0.156026D-02 -0.939478D-04 -0.615863D-02 -0.530638D-01 -0.117151D-01
     36 -0.116824D-02  0.521807D-04  0.366083D-02  0.105605D-02  0.149831D-01
     37  0.125579D-02  0.272208D-03 -0.274070D-01  0.544760D-01  0.677288D-03
     38  0.313024D-02 -0.704570D-03 -0.347131D-01 -0.230491D-01 -0.231619D-01
     39 -0.404580D-02  0.104727D-02 -0.138180D-01  0.155607D-01 -0.100902D-01
               31            32            33            34            35 
     31  0.212544D+00
     32 -0.193939D+00  0.333763D+00
     33  0.627233D-01 -0.354614D-01  0.148443D-01
     34 -0.148694D-02 -0.561549D-03  0.538144D-03  0.100164D+00
     35 -0.582239D-05  0.111047D-02  0.142708D-02  0.739605D-01  0.294951D+00
     36  0.473935D-03  0.217739D-03 -0.748462D-03  0.132569D+00  0.678269D-01
     37  0.538329D-02 -0.511655D-02 -0.312854D-02 -0.148944D-01  0.278794D-02
     38 -0.134156D-01 -0.278284D-01 -0.880087D-02  0.505356D-02 -0.142024D-01
     39 -0.427159D-02 -0.732291D-02  0.133101D-01  0.403364D-02  0.541983D-02
               36            37            38            39 
     36  0.494269D+00
     37  0.523999D-02  0.148148D+00
     38  0.153820D-01 -0.700654D-01  0.241094D+00
     39 -0.163151D-01  0.971876D-01  0.134433D+00 -0.159269D+00
 FormGI is forming the generalized inverse of G from B-inverse, IUseBI=4.
 Leave Link  716 at Tue Apr 12 09:57:28 2016, MaxMem=    33554432 cpu:         0.0
 (Enter /usr/local/gau/g09/l103.exe)

 GradGradGradGradGradGradGradGradGradGradGradGradGradGradGradGradGradGrad
 Berny optimization.
 Red2BG is reusing G-inverse.
 Internal  Forces:  Max     0.141511189 RMS     0.027897433
 Search for a saddle point.
 Step number   1 out of a maximum of   63
 All quantities printed in internal units (Hartrees-Bohrs-Radians)
 Swapping is turned off.
 Second derivative matrix not updated -- analytic derivatives used.
 ITU=  0
     Eigenvalues ---   -0.14226  -0.01028  -0.00252   0.00213   0.00327
     Eigenvalues ---    0.00747   0.00965   0.02212   0.04342   0.06307
     Eigenvalues ---    0.06399   0.07380   0.11399   0.12519   0.13475
     Eigenvalues ---    0.14341   0.16076   0.16900   0.18479   0.20516
     Eigenvalues ---    0.24713   0.29341   0.32313   0.32941   0.33955
     Eigenvalues ---    0.35256   0.36015   0.37972   0.46361   0.47911
     Eigenvalues ---    0.49428   0.52113   0.59632
 Eigenvectors required to have negative eigenvalues:
                          A21       A22       D6        D3        D2
   1                    0.51008  -0.48653  -0.42268  -0.36938   0.24584
                          D5        D1        A17       D15       D4
   1                    0.19255   0.14070   0.09639   0.09135   0.08740
 Eigenvalue     2 is  -1.03D-02 should be greater than     0.000000 Eigenvector:
                          D1        D4        D3        D2        D6
   1                   -0.41929  -0.40607  -0.40346  -0.40011  -0.39024
                          D5        D14       A22       D16       A17
   1                   -0.38689  -0.08600   0.07146  -0.06559  -0.06217
 Eigenvalue     3 is  -2.52D-03 should be greater than     0.000000 Eigenvector:
                          D18       D17       A17       A20       A14
   1                   -0.69176  -0.64685   0.13732   0.12108   0.09131
                          D13       D15       R6        A15       A18
   1                    0.08954   0.07612  -0.07586  -0.07432  -0.07388
 RFO step:  Lambda0=3.502513498D-04 Lambda=-1.04789842D-01.
 Linear search not attempted -- option 19 set.
 Maximum step size (   0.300) exceeded in Quadratic search.
    -- Step size scaled by   0.393
 Iteration  1 RMS(Cart)=  0.05880235 RMS(Int)=  0.00274197
 Iteration  2 RMS(Cart)=  0.00315394 RMS(Int)=  0.00065564
 Iteration  3 RMS(Cart)=  0.00000663 RMS(Int)=  0.00065562
 Iteration  4 RMS(Cart)=  0.00000000 RMS(Int)=  0.00065562
 ITry= 1 IFail=0 DXMaxC= 1.95D-01 DCOld= 1.00D+10 DXMaxT= 3.00D-01 DXLimC= 3.00D+00 Rises=F
 Variable       Old X    -DE/DX   Delta X   Delta X   Delta X     New X
                                 (Linear)    (Quad)   (Total)
    R1        1.89636  -0.00034   0.00000   0.00061   0.00061   1.89697
    R2        2.63279   0.07613   0.00000   0.02226   0.02226   2.65505
    R3        1.89992   0.00825   0.00000   0.00155   0.00155   1.90147
    R4        2.84087   0.00047   0.00000   0.00744   0.00744   2.84831
    R5        2.54221   0.05526   0.00000  -0.00011  -0.00171   2.54050
    R6        1.97505   0.14151   0.00000   0.18557   0.18587   2.16092
    R7        1.85600  -0.00176   0.00000  -0.00017  -0.00017   1.85583
    R8        2.07561   0.00037   0.00000   0.00082   0.00082   2.07643
    R9        2.06050  -0.00090   0.00000  -0.00016  -0.00016   2.06033
   R10        2.07718  -0.00023   0.00000  -0.00032  -0.00032   2.07686
   R11        2.66481  -0.04108   0.00000  -0.00980  -0.00980   2.65501
   R12        2.64885  -0.00521   0.00000  -0.01384  -0.01384   2.63501
   R13        2.10831   0.06062   0.00000   0.07949   0.08104   2.18935
    A1        2.10258  -0.01184   0.00000  -0.01768  -0.01772   2.08486
    A2        2.07788  -0.00564   0.00000  -0.00890  -0.00894   2.06895
    A3        2.08053   0.01756   0.00000   0.02972   0.02968   2.11022
    A4        2.03345  -0.02099   0.00000  -0.02904  -0.02905   2.00440
    A5        2.10966   0.02977   0.00000   0.04440   0.04251   2.15217
    A6        1.17061   0.03411   0.00000   0.02520   0.02709   1.19770
    A7        2.14004  -0.00877   0.00000  -0.01531  -0.01343   2.12661
    A8        1.93153   0.00095   0.00000   0.00020   0.00019   1.93172
    A9        1.93081  -0.00238   0.00000  -0.00316  -0.00316   1.92765
   A10        1.93804  -0.00337   0.00000   0.00120   0.00120   1.93923
   A11        1.88943   0.00090   0.00000  -0.00222  -0.00222   1.88721
   A12        1.87473   0.00200   0.00000   0.00137   0.00137   1.87610
   A13        1.89759   0.00215   0.00000   0.00271   0.00271   1.90030
   A14        2.10339   0.00699   0.00000  -0.07100  -0.07192   2.03147
   A15        2.16418  -0.03101   0.00000   0.02094   0.02184   2.18603
   A16        2.01544   0.02406   0.00000   0.05015   0.05015   2.06559
   A17        1.25298  -0.03799   0.00000  -0.15350  -0.15259   1.10039
   A18        1.93088  -0.00916   0.00000   0.01270   0.01270   1.94357
   A19        3.20406   0.01313   0.00000  -0.00384  -0.00196   3.20210
   A20        3.26842  -0.01393   0.00000  -0.10335  -0.10244   3.16599
   A21        3.20437   0.00747   0.00000   0.00187   0.00179   3.20616
   A22        3.00142  -0.01261   0.00000   0.00723   0.00750   3.00892
    D1        0.10954   0.00137   0.00000  -0.11746  -0.11750  -0.00796
    D2       -3.04060   0.00236   0.00000  -0.11192  -0.11192   3.13066
    D3       -3.09483  -0.00610   0.00000  -0.11933  -0.11929   3.06907
    D4        3.02427   0.00105   0.00000  -0.10271  -0.10275   2.92152
    D5       -0.12587   0.00203   0.00000  -0.09717  -0.09717  -0.22304
    D6       -0.18010  -0.00643   0.00000  -0.10458  -0.10454  -0.28464
    D7        1.03078   0.00079   0.00000  -0.00318  -0.00327   1.02751
    D8        3.12490   0.00099   0.00000  -0.00789  -0.00798   3.11692
    D9       -1.04963  -0.00015   0.00000  -0.00580  -0.00589  -1.05552
   D10       -2.10210  -0.00042   0.00000  -0.00914  -0.00906  -2.11116
   D11       -0.00799  -0.00022   0.00000  -0.01385  -0.01376  -0.02175
   D12        2.10067  -0.00136   0.00000  -0.01176  -0.01168   2.08900
   D13        0.09061  -0.00104   0.00000  -0.02898  -0.02914   0.06147
   D14       -3.03040  -0.00331   0.00000  -0.03518  -0.03506  -3.06546
   D15       -3.06006  -0.00004   0.00000  -0.02313  -0.02323  -3.08330
   D16        0.10211  -0.00231   0.00000  -0.02934  -0.02916   0.07296
   D17       -2.06781  -0.00249   0.00000   0.10135   0.10139  -1.96641
   D18        1.09343  -0.00451   0.00000   0.09671   0.09667   1.19010
         Item               Value     Threshold  Converged?
 Maximum Force            0.141511     0.000450     NO 
 RMS     Force            0.027897     0.000300     NO 
 Maximum Displacement     0.195207     0.001800     NO 
 RMS     Displacement     0.058190     0.001200     NO 
 Predicted change in Energy=-3.987188D-02
 Lowest energy point so far.  Saving SCF results.
 GradGradGradGradGradGradGradGradGradGradGradGradGradGradGradGradGradGrad

 Leave Link  103 at Tue Apr 12 09:57:28 2016, MaxMem=    33554432 cpu:         0.0
 (Enter /usr/local/gau/g09/l202.exe)
                          Input orientation:                          
 ---------------------------------------------------------------------
 Center     Atomic      Atomic             Coordinates (Angstroms)
 Number     Number       Type             X           Y           Z
 ---------------------------------------------------------------------
      1          7           0        0.783830    1.733027    0.730748
      2          1           0        1.709430    1.874001    1.092790
      3          6           0        0.396748    0.451687    0.303743
      4          1           0       -1.423156   -1.167841   -1.504968
      5          6           0        1.461396   -0.607391    0.433020
      6          6           0       -0.825548    0.173206   -0.181837
      7          1           0        1.787678   -0.704105    1.477791
      8          1           0        1.078262   -1.574454    0.106357
      9          1           0        2.346445   -0.354301   -0.167389
     10          8           0       -1.705157    1.259987   -0.320196
     11          1           0        0.223551    2.540671    0.515646
     12          8           0       -1.280788   -1.096321   -0.535916
     13          1           0       -0.473174    1.191461    0.243888
 ---------------------------------------------------------------------
                    Distance matrix (angstroms):
                    1          2          3          4          5
     1  N    0.000000
     2  H    1.003834   0.000000
     3  C    1.404990   2.090145   0.000000
     4  H    4.276009   5.080772   3.034198   0.000000
     5  C    2.454648   2.579559   1.507261   3.520021   0.000000
     6  C    2.419907   3.308094   1.344376   1.976416   2.493491
     7  H    2.739597   2.607868   2.156137   4.406967   1.098799
     8  H    3.378755   3.641877   2.146781   3.003131   1.090281
     9  H    2.757781   2.638024   2.161690   4.081771   1.099025
    10  O    2.742864   3.746057   2.336804   2.716166   3.752531
    11  H    1.006216   1.727825   2.106835   4.532945   3.383694
    12  O    3.724553   4.518506   2.432177   0.982062   2.949147
    13  H    1.452717   2.439314   1.143509   3.086628   2.648434
                    6          7          8          9         10
     6  C    0.000000
     7  H    3.217606   0.000000
     8  H    2.600359   1.772459   0.000000
     9  H    3.215589   1.772343   1.781011   0.000000
    10  O    1.404972   4.392073   3.995425   4.364029   0.000000
    11  H    2.681787   3.728376   4.222831   3.654324   2.461442
    12  O    1.394387   3.691116   2.491233   3.720648   2.403915
    13  H    1.158556   3.197990   3.174296   3.241725   1.356712
                   11         12         13
    11  H    0.000000
    12  O    4.073884   0.000000
    13  H    1.542610   2.548388   0.000000
 Stoichiometry    C3H7NO2
 Framework group  C1[X(C3H7NO2)]
 Deg. of freedom    33
 Full point group                 C1      NOp   1
 RotChk:  IX=0 Diff= 7.19D-02
 Largest Abelian subgroup         C1      NOp   1
 Largest concise Abelian subgroup C1      NOp   1
                         Standard orientation:                         
 ---------------------------------------------------------------------
 Center     Atomic      Atomic             Coordinates (Angstroms)
 Number     Number       Type             X           Y           Z
 ---------------------------------------------------------------------
      1          7           0        1.420747   -1.130290   -0.016223
      2          1           0        2.418933   -1.024151   -0.009634
      3          6           0        0.604331    0.013112   -0.006534
      4          1           0       -2.097348    1.184320    0.725289
      5          6           0        1.349391    1.322985    0.024354
      6          6           0       -0.738901   -0.038610   -0.026564
      7          1           0        2.013479    1.412291   -0.846491
      8          1           0        0.650251    2.159372    0.005032
      9          1           0        1.973696    1.402100    0.925376
     10          8           0       -1.315390   -1.319060    0.018758
     11          1           0        1.033244   -2.043477    0.152305
     12          8           0       -1.585740    1.066415   -0.104652
     13          1           0       -0.017377   -0.942188   -0.098699
 ---------------------------------------------------------------------
 Rotational constants (GHZ):      4.8839395      3.3528008      2.0250768
 Leave Link  202 at Tue Apr 12 09:57:28 2016, MaxMem=    33554432 cpu:         0.0
 (Enter /usr/local/gau/g09/l301.exe)
 Standard basis: 6-31G (6D, 7F)
 Ernie: Thresh=  0.10000D-02 Tol=  0.10000D-05 Strict=F.
 There are    68 symmetry adapted cartesian basis functions of A   symmetry.
 There are    68 symmetry adapted basis functions of A   symmetry.
    68 basis functions,   160 primitive gaussians,    68 cartesian basis functions
    24 alpha electrons       24 beta electrons
       nuclear repulsion energy       249.3313755988 Hartrees.
 IExCor=  402 DFT=T Ex+Corr=B3LYP ExCW=0 ScaHFX=  0.200000
 ScaDFX=  0.800000  0.720000  1.000000  0.810000 ScalE2=  1.000000  1.000000
 IRadAn=      0 IRanWt=     -1 IRanGd=            0 ICorTp=0 IEmpDi=  4
 NAtoms=   13 NActive=   13 NUniq=   13 SFac= 1.00D+00 NAtFMM=   60 NAOKFM=F Big=F
 Integral buffers will be    131072 words long.
 Raffenetti 2 integral format.
 Two-electron integral symmetry is turned on.
 Leave Link  301 at Tue Apr 12 09:57:28 2016, MaxMem=    33554432 cpu:         0.0
 (Enter /usr/local/gau/g09/l302.exe)
 NPDir=0 NMtPBC=     1 NCelOv=     1 NCel=       1 NClECP=     1 NCelD=      1
         NCelK=      1 NCelE2=     1 NClLst=     1 CellRange=     0.0.
 One-electron integrals computed using PRISM.
 NBasis=    68 RedAO= T EigKep=  2.88D-03  NBF=    68
 NBsUse=    68 1.00D-06 EigRej= -1.00D+00 NBFU=    68
 Precomputing XC quadrature grid using
 IXCGrd= 4 IRadAn=           0 IRanWt=          -1 IRanGd=           0 AccXCQ= 0.00D+00.
 Generated NRdTot=       0 NPtTot=           0 NUsed=           0 NTot=          32
 NSgBfM=    68    68    68    68    68 MxSgAt=    13 MxSgA2=    13.
 Leave Link  302 at Tue Apr 12 09:57:28 2016, MaxMem=    33554432 cpu:         0.2
 (Enter /usr/local/gau/g09/l303.exe)
 DipDrv:  MaxL=1.
 Leave Link  303 at Tue Apr 12 09:57:28 2016, MaxMem=    33554432 cpu:         0.0
 (Enter /usr/local/gau/g09/l401.exe)
 Initial guess from the checkpoint file:  "Ala-S-opt-freq-tsa3-6-31g.chk"
 B after Tr=     0.000000    0.000000    0.000000
         Rot=    0.999674    0.000876   -0.000588   -0.025501 Ang=   2.93 deg.
 Guess basis will be translated and rotated to current coordinates.
 JPrj=2 DoOrth=T DoCkMO=T.
 Generating alternative initial guess.
 ExpMin= 1.61D-01 ExpMax= 5.48D+03 ExpMxC= 8.25D+02 IAcc=1 IRadAn=         1 AccDes= 0.00D+00
 Harris functional with IExCor=  402 and IRadAn=       1 diagonalized for initial guess.
 HarFok:  IExCor=  402 AccDes= 0.00D+00 IRadAn=         1 IDoV= 1 UseB2=F ITyADJ=14
 ICtDFT=  3500011 ScaDFX=  1.000000  1.000000  1.000000  1.000000
 FoFCou: FMM=F IPFlag=           0 FMFlag=      100000 FMFlg1=           0
         NFxFlg=           0 DoJE=T BraDBF=F KetDBF=T FulRan=T
         wScrn=  0.000000 ICntrl=     500 IOpCl=  0 I1Cent=   200000004 NGrid=           0
         NMat0=    1 NMatS0=      1 NMatT0=    0 NMatD0=    1 NMtDS0=    0 NMtDT0=    0
 Petite list used in FoFCou.
 Harris En= -323.425234269281    
 Leave Link  401 at Tue Apr 12 09:57:29 2016, MaxMem=    33554432 cpu:         0.4
 (Enter /usr/local/gau/g09/l502.exe)
 Closed shell SCF:
 Using DIIS extrapolation, IDIIS=  1040.
 Integral symmetry usage will be decided dynamically.
 Keep R1 ints in memory in canonical form, NReq=3676491.
 IVT=       33364 IEndB=       33364 NGot=    33554432 MDV=    30768038
 LenX=    30768038 LenY=    30762973
 Requested convergence on RMS density matrix=1.00D-08 within 128 cycles.
 Requested convergence on MAX density matrix=1.00D-06.
 Requested convergence on             energy=1.00D-06.
 No special actions if energy rises.
 FoFCou: FMM=F IPFlag=           0 FMFlag=           0 FMFlg1=           0
         NFxFlg=           0 DoJE=F BraDBF=F KetDBF=F FulRan=T
         wScrn=  0.000000 ICntrl=     600 IOpCl=  0 I1Cent=           0 NGrid=           0
         NMat0=    1 NMatS0=   2346 NMatT0=    0 NMatD0=    1 NMtDS0=    0 NMtDT0=    0
 Symmetry not used in FoFCou.
 Integral accuracy reduced to 1.0D-05 until final iterations.

 Cycle   1  Pass 0  IDiag  1:
 E= -323.358742114988    
 DIIS: error= 6.97D-03 at cycle   1 NSaved=   1.
 NSaved= 1 IEnMin= 1 EnMin= -323.358742114988     IErMin= 1 ErrMin= 6.97D-03
 ErrMax= 6.97D-03  0.00D+00 EMaxC= 1.00D-01 BMatC= 7.94D-03 BMatP= 7.94D-03
 IDIUse=3 WtCom= 9.30D-01 WtEn= 6.97D-02
 Coeff-Com:  0.100D+01
 Coeff-En:   0.100D+01
 Coeff:      0.100D+01
 Gap=     0.645 Goal=   None    Shift=    0.000
 GapD=    0.645 DampG=2.000 DampE=1.000 DampFc=2.0000 IDamp=-1.
 RMSDP=4.62D-03 MaxDP=8.10D-02              OVMax= 4.61D-02

 Cycle   2  Pass 0  IDiag  1:
 E= -323.368446808482     Delta-E=       -0.009704693494 Rises=F Damp=F
 DIIS: error= 1.05D-02 at cycle   2 NSaved=   2.
 NSaved= 2 IEnMin= 2 EnMin= -323.368446808482     IErMin= 1 ErrMin= 6.97D-03
 ErrMax= 1.05D-02  0.00D+00 EMaxC= 1.00D-01 BMatC= 5.13D-03 BMatP= 7.94D-03
 IDIUse=3 WtCom= 8.95D-01 WtEn= 1.05D-01
 Coeff-Com:  0.415D+00 0.585D+00
 Coeff-En:   0.000D+00 0.100D+01
 Coeff:      0.371D+00 0.629D+00
 Gap=     0.201 Goal=   None    Shift=    0.000
 RMSDP=2.86D-03 MaxDP=4.55D-02 DE=-9.70D-03 OVMax= 6.25D-02

 Cycle   3  Pass 0  IDiag  1:
 E= -323.365705632281     Delta-E=        0.002741176201 Rises=F Damp=F
 DIIS: error= 1.46D-02 at cycle   3 NSaved=   3.
 NSaved= 3 IEnMin= 2 EnMin= -323.368446808482     IErMin= 1 ErrMin= 6.97D-03
 ErrMax= 1.46D-02  0.00D+00 EMaxC= 1.00D-01 BMatC= 8.15D-03 BMatP= 5.13D-03
 IDIUse=2 WtCom= 0.00D+00 WtEn= 1.00D+00
 Coeff-En:   0.000D+00 0.583D+00 0.417D+00
 Coeff:      0.000D+00 0.583D+00 0.417D+00
 Gap=     0.204 Goal=   None    Shift=    0.000
 RMSDP=1.65D-03 MaxDP=2.34D-02 DE= 2.74D-03 OVMax= 3.53D-02

 Cycle   4  Pass 0  IDiag  1:
 E= -323.372892601922     Delta-E=       -0.007186969640 Rises=F Damp=F
 DIIS: error= 1.30D-03 at cycle   4 NSaved=   4.
 NSaved= 4 IEnMin= 4 EnMin= -323.372892601922     IErMin= 4 ErrMin= 1.30D-03
 ErrMax= 1.30D-03  0.00D+00 EMaxC= 1.00D-01 BMatC= 1.24D-04 BMatP= 5.13D-03
 IDIUse=3 WtCom= 9.87D-01 WtEn= 1.30D-02
 Coeff-Com: -0.253D-01 0.310D+00 0.220D+00 0.496D+00
 Coeff-En:   0.000D+00 0.000D+00 0.000D+00 0.100D+01
 Coeff:     -0.249D-01 0.306D+00 0.217D+00 0.502D+00
 Gap=     0.203 Goal=   None    Shift=    0.000
 RMSDP=2.22D-04 MaxDP=3.42D-03 DE=-7.19D-03 OVMax= 4.76D-03

 Cycle   5  Pass 0  IDiag  1:
 E= -323.373000717170     Delta-E=       -0.000108115248 Rises=F Damp=F
 DIIS: error= 4.57D-04 at cycle   5 NSaved=   5.
 NSaved= 5 IEnMin= 5 EnMin= -323.373000717170     IErMin= 5 ErrMin= 4.57D-04
 ErrMax= 4.57D-04  0.00D+00 EMaxC= 1.00D-01 BMatC= 9.78D-06 BMatP= 1.24D-04
 IDIUse=3 WtCom= 9.95D-01 WtEn= 4.57D-03
 Coeff-Com: -0.952D-02 0.812D-01 0.604D-01 0.253D+00 0.615D+00
 Coeff-En:   0.000D+00 0.000D+00 0.000D+00 0.103D-03 0.100D+01
 Coeff:     -0.948D-02 0.808D-01 0.601D-01 0.252D+00 0.617D+00
 Gap=     0.203 Goal=   None    Shift=    0.000
 RMSDP=7.02D-05 MaxDP=8.13D-04 DE=-1.08D-04 OVMax= 1.48D-03

 Cycle   6  Pass 0  IDiag  1:
 E= -323.373008644735     Delta-E=       -0.000007927565 Rises=F Damp=F
 DIIS: error= 1.12D-04 at cycle   6 NSaved=   6.
 NSaved= 6 IEnMin= 6 EnMin= -323.373008644735     IErMin= 6 ErrMin= 1.12D-04
 ErrMax= 1.12D-04  0.00D+00 EMaxC= 1.00D-01 BMatC= 1.19D-06 BMatP= 9.78D-06
 IDIUse=3 WtCom= 9.99D-01 WtEn= 1.12D-03
 Coeff-Com: -0.231D-02 0.101D-01 0.858D-02 0.893D-01 0.340D+00 0.554D+00
 Coeff-En:   0.000D+00 0.000D+00 0.000D+00 0.000D+00 0.327D-01 0.967D+00
 Coeff:     -0.231D-02 0.100D-01 0.857D-02 0.892D-01 0.340D+00 0.554D+00
 Gap=     0.203 Goal=   None    Shift=    0.000
 RMSDP=2.29D-05 MaxDP=3.31D-04 DE=-7.93D-06 OVMax= 4.30D-04

 Cycle   7  Pass 0  IDiag  1:
 E= -323.373009816092     Delta-E=       -0.000001171357 Rises=F Damp=F
 DIIS: error= 3.19D-05 at cycle   7 NSaved=   7.
 NSaved= 7 IEnMin= 7 EnMin= -323.373009816092     IErMin= 7 ErrMin= 3.19D-05
 ErrMax= 3.19D-05  0.00D+00 EMaxC= 1.00D-01 BMatC= 9.78D-08 BMatP= 1.19D-06
 IDIUse=1 WtCom= 1.00D+00 WtEn= 0.00D+00
 Coeff-Com: -0.290D-03-0.282D-02-0.242D-02 0.239D-01 0.105D+00 0.267D+00
 Coeff-Com:  0.610D+00
 Coeff:     -0.290D-03-0.282D-02-0.242D-02 0.239D-01 0.105D+00 0.267D+00
 Coeff:      0.610D+00
 Gap=     0.203 Goal=   None    Shift=    0.000
 RMSDP=6.12D-06 MaxDP=8.07D-05 DE=-1.17D-06 OVMax= 1.00D-04

 Initial convergence to 1.0D-05 achieved.  Increase integral accuracy.
 Cycle   8  Pass 1  IDiag  1:
 E= -323.373043404720     Delta-E=       -0.000033588628 Rises=F Damp=F
 DIIS: error= 1.85D-05 at cycle   1 NSaved=   1.
 NSaved= 1 IEnMin= 1 EnMin= -323.373043404720     IErMin= 1 ErrMin= 1.85D-05
 ErrMax= 1.85D-05  0.00D+00 EMaxC= 1.00D-01 BMatC= 2.75D-08 BMatP= 2.75D-08
 IDIUse=1 WtCom= 1.00D+00 WtEn= 0.00D+00
 Coeff-Com:  0.100D+01
 Coeff:      0.100D+01
 Gap=     0.203 Goal=   None    Shift=    0.000
 RMSDP=6.12D-06 MaxDP=8.07D-05 DE=-3.36D-05 OVMax= 1.79D-04

 Cycle   9  Pass 1  IDiag  1:
 E= -323.373043381467     Delta-E=        0.000000023254 Rises=F Damp=F
 DIIS: error= 3.92D-05 at cycle   2 NSaved=   2.
 NSaved= 2 IEnMin= 1 EnMin= -323.373043404720     IErMin= 1 ErrMin= 1.85D-05
 ErrMax= 3.92D-05  0.00D+00 EMaxC= 1.00D-01 BMatC= 6.44D-08 BMatP= 2.75D-08
 IDIUse=1 WtCom= 1.00D+00 WtEn= 0.00D+00
 Coeff-Com:  0.618D+00 0.382D+00
 Coeff:      0.618D+00 0.382D+00
 Gap=     0.203 Goal=   None    Shift=    0.000
 RMSDP=4.82D-06 MaxDP=6.67D-05 DE= 2.33D-08 OVMax= 1.36D-04

 Cycle  10  Pass 1  IDiag  1:
 E= -323.373043435932     Delta-E=       -0.000000054465 Rises=F Damp=F
 DIIS: error= 1.21D-05 at cycle   3 NSaved=   3.
 NSaved= 3 IEnMin= 3 EnMin= -323.373043435932     IErMin= 3 ErrMin= 1.21D-05
 ErrMax= 1.21D-05  0.00D+00 EMaxC= 1.00D-01 BMatC= 5.47D-09 BMatP= 2.75D-08
 IDIUse=1 WtCom= 1.00D+00 WtEn= 0.00D+00
 Coeff-Com:  0.250D+00 0.233D+00 0.518D+00
 Coeff:      0.250D+00 0.233D+00 0.518D+00
 Gap=     0.203 Goal=   None    Shift=    0.000
 RMSDP=2.08D-06 MaxDP=3.40D-05 DE=-5.45D-08 OVMax= 4.05D-05

 Cycle  11  Pass 1  IDiag  1:
 E= -323.373043439494     Delta-E=       -0.000000003562 Rises=F Damp=F
 DIIS: error= 4.41D-06 at cycle   4 NSaved=   4.
 NSaved= 4 IEnMin= 4 EnMin= -323.373043439494     IErMin= 4 ErrMin= 4.41D-06
[...]
   A12        1.88490   0.00000   0.00000   0.00001   0.00001   1.88490
   A13        1.86938   0.00000   0.00000   0.00000   0.00000   1.86938
   A14        2.11509   0.00000   0.00000   0.00003   0.00003   2.11512
   A15        2.14394   0.00000   0.00000  -0.00001  -0.00001   2.14393
   A16        2.02379   0.00000   0.00000  -0.00002  -0.00002   2.02376
   A17        0.48319  -0.00001   0.00000   0.00000   0.00000   0.48319
   A18        1.93334   0.00000   0.00000   0.00000   0.00000   1.93333
   A19        3.69252   0.00000   0.00000   0.00003   0.00003   3.69255
   A20        2.50698  -0.00001   0.00000  -0.00002  -0.00002   2.50696
   A21        2.90435   0.00000   0.00000   0.00001   0.00001   2.90436
   A22        5.27263   0.00000   0.00000  -0.00013  -0.00013   5.27250
    D1       -0.15973   0.00000   0.00000   0.00058   0.00058  -0.15915
    D2        2.99437   0.00000   0.00000   0.00050   0.00050   2.99487
    D3       -3.06408   0.00000   0.00000   0.00057   0.00057  -3.06351
    D4       -3.02690   0.00000   0.00000   0.00015   0.00015  -3.02675
    D5        0.12721   0.00000   0.00000   0.00007   0.00007   0.12727
    D6        0.35194   0.00000   0.00000   0.00013   0.00013   0.35207
    D7        0.00419   0.00000   0.00000  -0.00048  -0.00048   0.00372
    D8        2.10371   0.00000   0.00000  -0.00049  -0.00049   2.10321
    D9       -2.09378   0.00000   0.00000  -0.00049  -0.00049  -2.09427
   D10        3.13317   0.00000   0.00000  -0.00039  -0.00039   3.13278
   D11       -1.05050   0.00000   0.00000  -0.00041  -0.00041  -1.05091
   D12        1.03520   0.00000   0.00000  -0.00041  -0.00041   1.03479
   D13       -0.09081   0.00000   0.00000   0.00009   0.00009  -0.09071
   D14        3.02022   0.00000   0.00000   0.00008   0.00008   3.02030
   D15        3.06387   0.00000   0.00000   0.00001   0.00001   3.06388
   D16       -0.10829   0.00000   0.00000  -0.00001  -0.00001  -0.10829
   D17        2.09108   0.00000   0.00000   0.00017   0.00017   2.09125
   D18       -1.07959   0.00000   0.00000   0.00016   0.00016  -1.07943
         Item               Value     Threshold  Converged?
 Maximum Force            0.000014     0.000450     YES
 RMS     Force            0.000004     0.000300     YES
 Maximum Displacement     0.000689     0.001800     YES
 RMS     Displacement     0.000217     0.001200     YES
 Predicted change in Energy=-1.166593D-09
 Optimization completed.
    -- Stationary point found.
                           ----------------------------
                           !   Optimized Parameters   !
                           ! (Angstroms and Degrees)  !
 --------------------------                            --------------------------
 ! Name  Definition              Value          Derivative Info.                !
 --------------------------------------------------------------------------------
 ! R1    R(1,2)                  1.0034         -DE/DX =    0.0                 !
 ! R2    R(1,3)                  1.3934         -DE/DX =    0.0                 !
 ! R3    R(1,11)                 1.0058         -DE/DX =    0.0                 !
 ! R4    R(3,5)                  1.5108         -DE/DX =    0.0                 !
 ! R5    R(3,6)                  1.3444         -DE/DX =    0.0                 !
 ! R6    R(3,13)                 3.0398         -DE/DX =    0.0                 !
 ! R7    R(4,12)                 0.982          -DE/DX =    0.0                 !
 ! R8    R(5,7)                  1.095          -DE/DX =    0.0                 !
 ! R9    R(5,8)                  1.0956         -DE/DX =    0.0                 !
 ! R10   R(5,9)                  1.0945         -DE/DX =    0.0                 !
 ! R11   R(6,10)                 1.4098         -DE/DX =    0.0                 !
 ! R12   R(6,12)                 1.4017         -DE/DX =    0.0                 !
 ! R13   R(6,13)                 1.9798         -DE/DX =    0.0                 !
 ! A1    A(2,1,3)              120.4293         -DE/DX =    0.0                 !
 ! A2    A(2,1,11)             118.8068         -DE/DX =    0.0                 !
 ! A3    A(3,1,11)             118.9            -DE/DX =    0.0                 !
 ! A4    A(1,3,5)              117.2311         -DE/DX =    0.0                 !
 ! A5    A(1,3,6)              121.002          -DE/DX =    0.0                 !
 ! A6    A(1,3,13)              94.3348         -DE/DX =    0.0                 !
 ! A7    A(5,3,6)              121.7629         -DE/DX =    0.0                 !
 ! A8    A(3,5,7)              110.8748         -DE/DX =    0.0                 !
 ! A9    A(3,5,8)              111.5022         -DE/DX =    0.0                 !
 ! A10   A(3,5,9)              111.2507         -DE/DX =    0.0                 !
 ! A11   A(7,5,8)              107.9333         -DE/DX =    0.0                 !
 ! A12   A(7,5,9)              107.9966         -DE/DX =    0.0                 !
 ! A13   A(8,5,9)              107.1076         -DE/DX =    0.0                 !
 ! A14   A(3,6,10)             121.1857         -DE/DX =    0.0                 !
 ! A15   A(3,6,12)             122.8386         -DE/DX =    0.0                 !
 ! A16   A(10,6,12)            115.9544         -DE/DX =    0.0                 !
 ! A17   A(10,6,13)             27.6849         -DE/DX =    0.0                 !
 ! A18   A(4,12,6)             110.772          -DE/DX =    0.0                 !
 ! A19   L(5,3,13,1,-1)        211.5659         -DE/DX =    0.0                 !
 ! A20   L(12,6,13,10,-1)      143.6393         -DE/DX =    0.0                 !
 ! A21   L(5,3,13,1,-2)        166.4069         -DE/DX =    0.0                 !
 ! A22   L(12,6,13,10,-2)      302.0994         -DE/DX =    0.0                 !
 ! D1    D(2,1,3,5)             -9.1517         -DE/DX =    0.0                 !
 ! D2    D(2,1,3,6)            171.565          -DE/DX =    0.0                 !
 ! D3    D(2,1,3,13)          -175.5586         -DE/DX =    0.0                 !
 ! D4    D(11,1,3,5)          -173.4283         -DE/DX =    0.0                 !
 ! D5    D(11,1,3,6)             7.2884         -DE/DX =    0.0                 !
 ! D6    D(11,1,3,13)           20.1647         -DE/DX =    0.0                 !
 ! D7    D(1,3,5,7)              0.2402         -DE/DX =    0.0                 !
 ! D8    D(1,3,5,8)            120.5336         -DE/DX =    0.0                 !
 ! D9    D(1,3,5,9)           -119.965          -DE/DX =    0.0                 !
 ! D10   D(6,3,5,7)            179.5176         -DE/DX =    0.0                 !
 ! D11   D(6,3,5,8)            -60.189          -DE/DX =    0.0                 !
 ! D12   D(6,3,5,9)             59.3124         -DE/DX =    0.0                 !
 ! D13   D(1,3,6,10)            -5.2028         -DE/DX =    0.0                 !
 ! D14   D(1,3,6,12)           173.0459         -DE/DX =    0.0                 !
 ! D15   D(5,3,6,10)           175.5468         -DE/DX =    0.0                 !
 ! D16   D(5,3,6,12)            -6.2045         -DE/DX =    0.0                 !
 ! D17   D(3,6,12,4)           119.8101         -DE/DX =    0.0                 !
 ! D18   D(10,6,12,4)          -61.8561         -DE/DX =    0.0                 !
 --------------------------------------------------------------------------------
 GradGradGradGradGradGradGradGradGradGradGradGradGradGradGradGradGradGrad

 Leave Link  103 at Tue Apr 12 10:26:17 2016, MaxMem=    33554432 cpu:         0.0
 (Enter /usr/local/gau/g09/l9999.exe)

 Test job not archived.
 1\1\GINC-KALI\Freq\RB3LYP\6-31G\C3H7N1O2\ROOT\12-Apr-2016\0\\#P Geom=A
 llCheck Guess=TCheck SCRF=Check Test GenChk RB3LYP/6-31G Freq\\Ala-S-o
 pt-freq-tsa3-6-31g\\0,1\N,0.8772690228,1.5948631192,1.081236652\H,1.66
 05589138,1.6178918059,1.7078863273\C,0.5710718103,0.4323120534,0.37667
 52489\H,-1.665216654,-1.2170439285,-0.8780373218\C,1.5749280804,-0.695
 2458181,0.4337205651\C,-0.5658453115,0.3323829052,-0.333849349\H,2.434
 933974,-0.421015351,1.053606217\H,1.132947775,-1.6055477346,0.85368896
 15\H,1.9447660578,-0.9480213255,-0.5649055963\O,-1.5371402479,1.353855
 0434,-0.3046543358\H,0.1851309401,2.3219387562,1.143668062\O,-0.847171
 6258,-0.7579775099,-1.1685678934\H,-1.686716475,1.7112339342,-1.206792
 7174\\Version=ES64L-G09RevD.01\State=1-A\HF=-323.5948081\RMSD=1.802e-0
 9\RMSF=5.470e-06\ZeroPoint=0.1050653\Thermal=0.1122199\Dipole=0.103606
 6,0.1017968,0.3203966\DipoleDeriv=-0.5650656,-0.2372968,0.0953167,-0.6
 806287,-0.890014,-0.3432305,0.0033421,-0.024951,-0.8291137,0.2383182,0
 .0727952,-0.0875814,0.0796846,0.2299335,-0.0328211,-0.1426385,-0.07429
 62,0.2548705,0.3867999,0.1891248,0.1985049,0.4498123,0.5598134,0.45069
 08,0.2910939,0.2986878,0.4483786,0.1123229,-0.154183,0.0714256,-0.1271
 538,0.2552497,-0.0723806,0.1921425,0.0471848,0.3138092,0.1260483,0.059
 1938,0.0409947,0.0479943,0.0078746,-0.0236893,0.0416836,-0.0119094,0.1
 043283,0.5197345,-0.3401563,0.2786858,-0.2415686,0.8751706,0.2837791,0
 .3704815,0.1748741,0.118325,-0.0789118,-0.0119809,-0.0997545,-0.059813
 5,0.0311748,-0.055348,-0.1255348,-0.0294398,-0.0034556,0.0022672,-0.06
 59727,0.028504,0.0088587,-0.0891631,0.0897116,0.0078685,0.0688941,0.04
 51333,0.0093913,0.0405059,0.0233777,0.0626647,0.0520732,-0.0164119,0.0
 789816,-0.042997,-0.0609005,-0.9266058,0.227329,-0.194053,0.2172942,-0
 .7740739,-0.058321,-0.1004186,-0.1250513,-0.1119729,0.1878238,0.081235
 6,-0.0754217,0.0921534,0.2209233,-0.058477,-0.1005826,-0.1035163,0.303
 9147,-0.3742666,0.0992271,-0.3237727,0.0244941,-0.7810058,-0.2190581,-
 0.4361759,-0.2896748,-0.6119687,0.3621437,0.0401784,0.043774,0.1262084
 ,0.3020436,0.0555559,-0.0802433,0.112195,0.0286519\Polar=51.9831683,-0
 .4544027,44.8045922,15.2148327,6.5122382,38.3274115\PG=C01 [X(C3H7N1O2
 )]\NImag=1\\0.67577209,-0.18844323,0.61016753,0.31410231,0.21941915,0.
 36608229,-0.29882408,0.01199021,-0.21989181,0.31269133,0.01846742,-0.0
 5832683,-0.02341596,-0.00760753,0.05829698,-0.23245699,-0.02930444,-0.
 18875509,0.23350438,0.02636482,0.19630061,-0.11992677,-0.02451161,-0.0
 6550711,-0.00532103,-0.02967663,-0.01185095,0.70105230,-0.02120258,-0.
 25187936,-0.12525360,0.00111556,-0.00082948,0.00614318,-0.05066146,0.5
 6509920,-0.05881209,-0.10986475,-0.12876919,-0.00113142,-0.02091372,-0
 .01173573,0.29932497,0.16813818,0.41034807,0.00038276,0.00116683,-0.00
 153874,0.00040248,0.00003210,-0.00059958,0.00000569,-0.00335292,0.0040
 5902,0.31439637,-0.00018783,-0.00084174,-0.00156991,0.00057803,0.00017
 724,-0.00055329,0.00280518,-0.00100306,0.00383715,0.17761596,0.1270116
 4,0.00004224,0.00271861,-0.00105956,-0.00009039,-0.00024217,-0.0005187
 3,-0.00082859,-0.00633269,-0.00048259,-0.10368205,-0.03603451,0.066696
 87,0.00469968,-0.00155882,-0.00016993,0.00093823,-0.00288431,0.0004484
 3,-0.14365726,0.06846028,-0.00997597,-0.00030610,-0.00002061,-0.000634
 63,0.53777558,0.02318884,-0.02809196,-0.00182480,0.00039407,0.00074841
 ,0.00153429,0.05784712,-0.15078164,-0.00268119,-0.00024093,0.00019676,
 -0.00035386,0.04029396,0.52804714,0.01062376,-0.01579739,0.00211331,0.
 00279403,0.00003552,-0.00089285,-0.01414817,0.00283187,-0.07786398,0.0
 0036659,0.00043644,0.00037962,0.01195994,0.01442261,0.56413405,-0.0072
 0970,-0.00776099,-0.01344870,0.00063403,0.00192135,0.00246028,-0.39258
 660,-0.02409693,-0.21504548,-0.00715930,-0.03649910,-0.02851696,-0.021
 20176,0.00877571,-0.01023722,0.69568943,-0.03623332,-0.01272405,-0.032
 45522,0.00078244,-0.00535417,-0.00155538,-0.01186668,-0.08483360,-0.02
 060414,-0.00088999,-0.02219268,-0.02145141,0.02339590,0.00084757,0.012
 58195,-0.03356266,0.44833987,-0.02654343,-0.01266529,-0.00923729,0.001
 30109,-0.00087017,-0.00105865,-0.21085873,-0.03292025,-0.18585095,-0.0
 0309245,-0.00576875,0.00304739,-0.00252731,0.00454638,0.00247323,0.329
 87289,0.14498287,0.38050390,0.00205110,-0.00160805,0.00053772,0.000327
 16,0.00177971,0.00069282,-0.02062093,-0.00889044,-0.01465449,0.0000746
 4,-0.00004327,0.00006621,-0.20852762,-0.05084749,-0.11506193,0.0004852
 0,0.00306471,0.00136210,0.22911965,0.00033357,0.00116228,0.00136275,0.
 00011387,-0.00041108,-0.00111770,0.02421671,0.00434430,0.01630333,0.00
 014814,-0.00011127,0.00020073,-0.05442628,-0.06788599,-0.04004265,0.00
 063309,-0.00423406,-0.00154842,0.05558589,0.07492818,0.00195812,-0.000
 04246,0.00037496,-0.00051517,0.00010473,0.00100766,0.00021085,-0.00248
 662,-0.00268465,-0.00001081,0.00013769,0.00005710,-0.11649475,-0.03790
 544,-0.13313254,0.00063102,-0.00044184,0.00028093,0.12981194,0.0449505
 4,0.14245876,-0.00123477,0.00087626,-0.00091135,-0.00009882,0.00015448
 ,0.00042595,0.00812092,0.02265569,-0.00977925,-0.00066685,-0.00000856,
 -0.00013597,-0.09333317,-0.09092773,0.04095865,0.00068484,0.00198994,-
 0.00046569,-0.01106887,-0.02163014,0.01157751,0.10261217,0.00248257,-0
 .00082211,0.00113753,-0.00015535,0.00000731,0.00053913,-0.00666878,-0.
 02257621,0.00835773,-0.00002498,-0.00029878,0.00017571,-0.09214218,-0.
 22448151,0.08347314,-0.00160291,-0.00050646,-0.00323659,-0.00315189,-0
 .00666356,0.00405947,0.09725168,0.24868247,0.00081481,-0.00090029,-0.0
 0116966,-0.00025885,-0.00006076,0.00041983,-0.00082608,-0.00122480,0.0
 0110372,-0.00038441,0.00021662,-0.00022376,0.04161186,0.08400871,-0.08
 662358,-0.00050119,0.00171334,0.00151107,-0.00897064,-0.01760822,0.007
 93580,-0.04738836,-0.09163325,0.08995935,-0.00197723,-0.00051481,-0.00
 001075,0.00005613,0.00033945,-0.00009714,-0.00921799,0.00771066,0.0185
 7237,0.00039743,-0.00045785,-0.00004954,-0.07647777,0.01823650,0.08043
 591,0.00096791,0.00309131,0.00139731,0.00931493,-0.00606054,-0.0263417
 2,-0.00464187,0.00264621,0.01527674,0.08152133,0.00216441,-0.00179441,
 0.00091864,0.00042487,0.00044239,-0.00018422,0.01175328,-0.00918294,-0
 .02379549,-0.00013878,0.00024211,0.00003775,0.01797569,-0.05863632,-0.
 05436105,-0.00160631,-0.00020319,-0.00129502,0.00325309,-0.00212834,-0
 .00881132,-0.00961484,0.00545943,0.02719010,-0.02463184,0.06693491,0.0
 0039135,0.00055828,0.00008510,0.00013212,0.00041528,0.00004259,-0.0019
 6051,0.00017978,0.00488151,0.00039814,0.00000257,-0.00022321,0.0799195
 3,-0.05413491,-0.27285586,-0.00200128,-0.00103927,0.00078258,0.0070548
 3,-0.00298241,-0.01683721,0.00375378,-0.00343618,-0.01281996,-0.087868
 90,0.05888496,0.29704160,0.00026909,-0.00585349,0.00003014,-0.00010237
 ,0.00060148,0.00079429,-0.02681328,0.03854958,0.00642357,0.00076656,0.
 00364108,0.00013056,0.00236365,-0.00100403,-0.00687157,-0.16038169,0.0
 8627514,-0.00807986,-0.00092693,0.00139589,-0.00058756,-0.00162973,0.0
 0177687,-0.00055385,-0.00001128,-0.00009133,0.00053582,0.20614174,-0.0
 0072989,0.00740087,0.00126152,-0.00120335,0.00081006,0.00048260,0.0068
 3439,-0.01587702,-0.00756504,-0.00004350,0.00315286,0.00053374,-0.0000
 2216,0.00259693,-0.00123088,0.10356783,-0.13611798,-0.01229868,0.00067
 884,-0.00018746,0.00023316,-0.00015430,-0.00021522,-0.00008197,0.00040
 098,-0.00055125,0.00021401,-0.16743313,0.24966464,0.00059236,0.0029235
 9,-0.00228420,-0.00066623,0.00039105,0.00037247,-0.01435039,0.01463259
 ,0.00305436,0.00092072,0.00287196,-0.00051837,-0.00548782,-0.00397799,
 0.00344288,-0.03503259,0.01251992,-0.07432338,-0.00093425,0.00066168,0
 .00048272,0.00110671,-0.00052379,-0.00011563,-0.00094524,0.00075377,-0
 .00021119,0.06548702,-0.12141253,0.45702683,-0.25002048,0.21542461,-0.
 00933924,-0.01142761,0.01792286,0.00829308,0.01014422,-0.00904491,0.00
 042132,-0.00017668,-0.00051517,0.00008262,0.00042149,-0.00132297,-0.00
 241583,0.00139452,-0.00357938,-0.00136961,0.00030169,0.00000462,0.0001
 7926,-0.00002131,-0.00001253,0.00027340,0.00021143,-0.00017913,0.00005
 002,-0.00139195,0.00136288,0.00065889,0.25088470,0.20401065,-0.2617890
 5,-0.03673770,-0.00696559,0.00467246,-0.00148739,0.02270007,-0.0209019
 7,-0.00137254,-0.00014827,-0.00017573,-0.00016047,-0.00176502,-0.00129
 630,-0.00364489,0.00219381,-0.00204764,-0.00021138,-0.00025912,0.00035
 914,0.00002441,0.00034594,-0.00050603,-0.00009681,0.00034296,-0.000897
 37,0.00012824,0.00091257,0.00063128,0.00134571,-0.22127579,0.28039488,
 -0.00234325,-0.04676979,-0.03951164,-0.01480379,0.01943551,0.00274954,
 0.01556519,-0.01061627,0.00259883,0.00037675,-0.00013811,0.00049051,-0
 .00253805,-0.00236684,0.00069916,0.00135293,-0.00455628,0.00045079,0.0
 0006115,0.00018064,0.00016527,0.00043465,-0.00030741,-0.00027718,0.000
 24308,0.00000086,-0.00009124,0.00052218,0.00430560,-0.00027573,0.00235
 397,0.04023709,0.03499235,-0.00368523,-0.00007432,-0.00461194,0.000724
 64,-0.00103023,-0.00140319,-0.00183188,-0.02586433,-0.01844174,-0.3080
 5124,-0.14619864,0.13307251,-0.00078948,-0.00323271,0.00096900,-0.0965
 1998,-0.04959741,-0.04970759,-0.00017257,-0.00053647,-0.00055952,0.000
 77827,0.00010010,0.00073551,-0.00008365,0.00057625,-0.00031487,0.00851
 659,0.02665172,0.01859621,-0.00075165,-0.00019252,-0.00031082,0.401155
 67,-0.00279487,-0.00307882,-0.00439891,0.00066767,-0.00035769,-0.00067
 108,0.00030022,-0.00820837,-0.00791078,-0.17402008,-0.10350732,0.05977
 937,0.00211285,-0.00183864,0.00241292,-0.03320140,-0.16525636,-0.10986
 992,0.00038298,0.00082900,0.00035658,-0.00089575,0.00197461,-0.0016687
 7,-0.00153992,0.00051235,0.00105675,0.00566889,-0.04201268,-0.02644318
 ,0.00044561,0.00077037,0.00076570,0.20381266,0.31728652,-0.00797922,-0
 .00953472,0.00235434,-0.00059973,-0.00141928,0.00229842,0.00167574,-0.
 01416702,-0.01437656,0.10297825,0.03567757,-0.06704532,0.00406697,-0.0
 0089677,-0.00276877,-0.02774490,-0.08423740,-0.12271604,0.00003814,-0.
 00031358,-0.00022171,0.00021185,0.00144739,0.00028082,-0.00036983,0.00
 055563,0.00034917,0.00618233,-0.01270839,-0.00066275,0.00029252,0.0013
 9458,-0.00141742,-0.07952204,0.08644307,0.20328232,-0.00029645,0.00086
 741,0.00075939,-0.00000009,-0.00002015,-0.00021138,0.00065261,0.004621
 82,-0.00096079,-0.00006576,-0.00070923,0.00054397,-0.00190549,-0.00116
 033,0.00062684,-0.01479690,0.01713001,-0.03128872,-0.00035746,0.000221
 65,0.00014083,0.00049919,-0.00049881,0.00017106,-0.00005938,0.00011465
 ,-0.00009002,-0.02680041,0.03008969,-0.02994538,0.00043164,0.00010030,
 -0.00091399,0.00071050,-0.00093885,0.00076992,0.04198799,-0.00105572,0
 .00061765,0.00155652,-0.00013490,0.00012440,-0.00019052,-0.00307180,-0
 .00336984,-0.00192873,-0.00010358,-0.00265001,0.00112919,0.00058071,0.
 00057555,-0.00111758,0.02123851,-0.01571724,0.03115522,0.00005503,-0.0
 0000114,-0.00017887,-0.00004266,-0.00005393,0.00014612,0.00043688,-0.0
 0019737,0.00015289,0.03556049,-0.06929504,0.11625722,0.00076930,0.0007
 8597,-0.00017070,-0.00441410,0.00288704,-0.00224108,-0.04981817,0.0862
 9396,-0.00038997,-0.00074050,-0.00022337,0.00022577,0.00017516,-0.0002
 3006,0.00355378,0.00107565,-0.00022285,0.00020856,0.00088457,-0.000599
 96,-0.00017825,-0.00037019,0.00089534,-0.00178880,-0.00545715,0.004136
 43,-0.00000360,-0.00004667,0.00011292,0.00021151,-0.00005288,0.0000191
 7,-0.00024229,0.00010540,-0.00014386,-0.06401306,0.14826686,-0.3859880
 1,0.00051959,0.00058117,-0.00057324,0.00149849,0.00014826,0.00064350,0
 .06039827,-0.14456967,0.38217398\\-0.00000766,-0.00000248,-0.00000268,
 -0.00000589,0.00000373,0.00000035,0.00000922,0.00000534,0.00001012,0.0
 0000512,-0.00000586,0.00000003,0.00000203,0.00000238,0.00000285,-0.000
 00646,0.00000397,-0.00000583,0.00000079,0.00000618,0.00000321,0.000003
 31,0.00000257,0.00000380,0.00000233,0.00000266,0.00000358,0.00000325,-
 0.00000840,0.00000831,-0.00000670,-0.00000476,-0.00000762,0.00000514,-
 0.00000457,-0.00000174,-0.00000448,-0.00000078,-0.00001439\\\@


 SCIENCE IS A VERY HUMAN FORM OF KNOWLEDGE.
 WE ARE ALWAYS AT THE BRINK OF THE KNOWN,
 WE ALWAYS FEEL FORWARD FOR WHAT IS HOPED.
 EVERY JUDGEMENT IN SCIENCE STANDS ON THE EDGE OF ERROR, AND IS PERSONAL.
 SCIENCE IS A TRIBUTE TO WHAT WE CAN KNOW ALTHOUGH WE ARE FALLIBLE.

                     -- J. BRONOWSKI
 Job cpu time:       0 days  0 hours  1 minutes 19.4 seconds.
 File lengths (MBytes):  RWF=     12 Int=      0 D2E=      0 Chk=      2 Scr=      1
 Normal termination of Gaussian 09 at Tue Apr 12 10:26:17 2016.
