 Entering Link 1 = c:\G09w03\l1.exe PID=      4460.
  
 Copyright (c) 1988,1990,1992,1993,1995,1998,2003,2009,2010,
            Gaussian, Inc.  All Rights Reserved.
  
 This is part of the Gaussian(R) 09 program.  It is based on
 the Gaussian(R) 03 system (copyright 2003, Gaussian, Inc.),
 the Gaussian(R) 98 system (copyright 1998, Gaussian, Inc.),
 the Gaussian(R) 94 system (copyright 1995, Gaussian, Inc.),
 the Gaussian 92(TM) system (copyright 1992, Gaussian, Inc.),
 the Gaussian 90(TM) system (copyright 1990, Gaussian, Inc.),
 the Gaussian 88(TM) system (copyright 1988, Gaussian, Inc.),
 the Gaussian 86(TM) system (copyright 1986, Carnegie Mellon
 University), and the Gaussian 82(TM) system (copyright 1983,
 Carnegie Mellon University). Gaussian is a federally registered
 trademark of Gaussian, Inc.
  
 This software contains proprietary and confidential information,
 including trade secrets, belonging to Gaussian, Inc.
  
 This software is provided under written license and may be
 used, copied, transmitted, or stored only in accord with that
 written license.
  
 The following legend is applicable only to US Government
 contracts under FAR:
  
                    RESTRICTED RIGHTS LEGEND
  
 Use, reproduction and disclosure by the US Government is
 subject to restrictions as set forth in subparagraphs (a)
 and (c) of the Commercial Computer Software - Restricted
 Rights clause in FAR 52.227-19.
  
 Gaussian, Inc.
 340 Quinnipiac St., Bldg. 40, Wallingford CT 06492
  
  
 ---------------------------------------------------------------
 Warning -- This program may not be used in any manner that
 competes with the business of Gaussian, Inc. or will provide
 assistance to any competitor of Gaussian, Inc.  The licensee
 of this program is prohibited from giving any competitor of
 Gaussian, Inc. access to this program.  By using this program,
 the user acknowledges that Gaussian, Inc. is engaged in the
 business of creating and licensing software in the field of
 computational chemistry and represents and warrants to the
 licensee that it is not a competitor of Gaussian, Inc. and that
 it will not use this program in any manner prohibited above.
 ---------------------------------------------------------------
  

 Cite this work as:
 Gaussian 09, Revision B.01,
 M. J. Frisch, G. W. Trucks, H. B. Schlegel, G. E. Scuseria, 
 M. A. Robb, J. R. Cheeseman, G. Scalmani, V. Barone, B. Mennucci, 
 G. A. Petersson, H. Nakatsuji, M. Caricato, X. Li, H. P. Hratchian, 
 A. F. Izmaylov, J. Bloino, G. Zheng, J. L. Sonnenberg, M. Hada, 
 M. Ehara, K. Toyota, R. Fukuda, J. Hasegawa, M. Ishida, T. Nakajima, 
 Y. Honda, O. Kitao, H. Nakai, T. Vreven, J. A. Montgomery, Jr., 
 J. E. Peralta, F. Ogliaro, M. Bearpark, J. J. Heyd, E. Brothers, 
 K. N. Kudin, V. N. Staroverov, T. Keith, R. Kobayashi, J. Normand, 
 K. Raghavachari, A. Rendell, J. C. Burant, S. S. Iyengar, J. Tomasi, 
 M. Cossi, N. Rega, J. M. Millam, M. Klene, J. E. Knox, J. B. Cross, 
 V. Bakken, C. Adamo, J. Jaramillo, R. Gomperts, R. E. Stratmann, 
 O. Yazyev, A. J. Austin, R. Cammi, C. Pomelli, J. W. Ochterski, 
 R. L. Martin, K. Morokuma, V. G. Zakrzewski, G. A. Voth, 
 P. Salvador, J. J. Dannenberg, S. Dapprich, A. D. Daniels, 
 O. Farkas, J. B. Foresman, J. V. Ortiz, J. Cioslowski, 
 and D. J. Fox, Gaussian, Inc., Wallingford CT, 2010.
 
 ******************************************
 Gaussian 09:  IA32W-G09RevB.01 12-Aug-2010
                19-Apr-2016 
 ******************************************
 %chk=Asp-S-opt-freq-cpcm-w-tsa2-6-311++gdp.chk
 ----------------------------------------------------------------------
 #p opt=(calcfc,ts) freq rb3lyp/6-311++g(d,p) scrf=(cpcm,solvent=water)
  nosymm
 ----------------------------------------------------------------------
 1/5=1,10=4,14=-1,18=20,26=3,38=1/1,3;
 2/9=110,12=2,15=1,17=6,18=5,40=1/2;
 3/5=4,6=6,7=1111,11=2,16=1,25=1,30=1,70=2101,71=2,72=1,74=-5,116=1/1,2,3;
 4//1;
 5/5=2,38=5,53=1/2;
 8/6=4,10=90,11=11/1;
 11/6=1,8=1,9=11,15=111,16=1,31=1/1,2,10;
 10/6=1,7=6,13=1,31=1/2;
 6/7=2,8=2,9=2,10=2,28=1/1;
 7/10=1,18=20,25=1,30=1/1,2,3,16;
 1/5=1,10=4,14=-1,18=20/3(2);
 2/9=110,15=1/2;
 99//99;
 2/9=110,15=1/2;
 3/5=4,6=6,7=1111,11=2,16=1,25=1,30=1,70=2105,71=1,72=1,74=-5,116=1/1,2,3;
 4/5=5,16=3/1;
 5/5=2,38=5,53=1/2;
 7/30=1/1,2,3,16;
 1/5=1,14=-1,18=20/3(-5);
 2/9=110,15=1/2;
 6/7=2,8=2,9=2,10=2,19=2,28=1/1;
 99/9=1/99;
 Leave Link    1 at Tue Apr 19 12:00:25 2016, MaxMem=          0 cpu:       0.0
 (Enter c:\G09w03\l101.exe)
 -------------------------------------
 Asp-S-opt-freq-cpcm-w-tsa2-6-311++gdp
 -------------------------------------
 Symbolic Z-matrix:
 Charge =  0 Multiplicity = 1
 N                    -1.55853   1.85466  -0.15693 
 H                    -1.73342   2.00814   0.83275 
 C                    -0.70613   0.67572  -0.36585 
 H                     0.01063   0.06267   0.9203 
 C                     0.68667   0.94919   0.19418 
 C                    -1.33089  -0.56526   0.27659 
 H                     1.06205   1.88616  -0.22589 
 H                     0.6541    1.08394   1.27904 
 C                     1.68089  -0.13977  -0.12002 
 O                    -2.20235  -1.1685   -0.55348 
 O                     1.45567  -1.12776  -0.78329 
 H                    -2.45933   1.73231  -0.60897 
 O                    -1.13716  -0.93751   1.41246 
 H                    -2.62962  -1.89947  -0.07795 
 O                     2.88632   0.1144    0.42369 
 H                     3.49009  -0.6074    0.18525 
 
 NAtoms=     16 NQM=     16 NQMF=      0 NMic=      0 NMicF=      0 NTot=     16.
                    Isotopes and Nuclear Properties:
 (Nuclear quadrupole moments (NQMom) in fm**2, nuclear magnetic moments (NMagM)
  in nuclear magnetons)

  Atom         1           2           3           4           5           6           7           8           9          10
 IAtWgt=          14           1          12           1          12          12           1           1          12          16
 AtmWgt=  14.0030740   1.0078250  12.0000000   1.0078250  12.0000000  12.0000000   1.0078250   1.0078250  12.0000000  15.9949146
 NucSpn=           2           1           0           1           0           0           1           1           0           0
 AtZEff=   0.0000000   0.0000000   0.0000000   0.0000000   0.0000000   0.0000000   0.0000000   0.0000000   0.0000000   0.0000000
 NQMom=    2.0440000   0.0000000   0.0000000   0.0000000   0.0000000   0.0000000   0.0000000   0.0000000   0.0000000   0.0000000
 NMagM=    0.4037610   2.7928460   0.0000000   2.7928460   0.0000000   0.0000000   2.7928460   2.7928460   0.0000000   0.0000000

  Atom        11          12          13          14          15          16
 IAtWgt=          16           1          16           1          16           1
 AtmWgt=  15.9949146   1.0078250  15.9949146   1.0078250  15.9949146   1.0078250
 NucSpn=           0           1           0           1           0           1
 AtZEff=   0.0000000   0.0000000   0.0000000   0.0000000   0.0000000   0.0000000
 NQMom=    0.0000000   0.0000000   0.0000000   0.0000000   0.0000000   0.0000000
 NMagM=    0.0000000   2.7928460   0.0000000   2.7928460   0.0000000   2.7928460
 Leave Link  101 at Tue Apr 19 12:00:26 2016, MaxMem=   33554432 cpu:       0.0
 (Enter c:\G09w03\l103.exe)

 GradGradGradGradGradGradGradGradGradGradGradGradGradGradGradGradGradGrad
 Berny optimization.
 Initialization pass.
                           ----------------------------
                           !    Initial Parameters    !
                           ! (Angstroms and Degrees)  !
 --------------------------                            --------------------------
 ! Name  Definition              Value          Derivative Info.                !
 --------------------------------------------------------------------------------
 ! R1    R(1,2)                  1.0167         calculate D2E/DX2 analytically  !
 ! R2    R(1,3)                  1.4697         calculate D2E/DX2 analytically  !
 ! R3    R(1,12)                 1.0153         calculate D2E/DX2 analytically  !
 ! R4    R(3,5)                  1.5259         calculate D2E/DX2 analytically  !
 ! R5    R(3,6)                  1.5307         calculate D2E/DX2 analytically  !
 ! R6    R(4,5)                  1.3305         calculate D2E/DX2 analytically  !
 ! R7    R(5,7)                  1.0933         calculate D2E/DX2 analytically  !
 ! R8    R(5,8)                  1.0937         calculate D2E/DX2 analytically  !
 ! R9    R(5,9)                  1.5077         calculate D2E/DX2 analytically  !
 ! R10   R(6,10)                 1.3462         calculate D2E/DX2 analytically  !
 ! R11   R(6,13)                 1.2109         calculate D2E/DX2 analytically  !
 ! R12   R(9,11)                 1.2111         calculate D2E/DX2 analytically  !
 ! R13   R(9,15)                 1.3466         calculate D2E/DX2 analytically  !
 ! R14   R(10,14)                0.9711         calculate D2E/DX2 analytically  !
 ! R15   R(15,16)                0.9708         calculate D2E/DX2 analytically  !
 ! A1    A(2,1,3)              111.0536         calculate D2E/DX2 analytically  !
 ! A2    A(2,1,12)             107.3974         calculate D2E/DX2 analytically  !
 ! A3    A(3,1,12)             110.7706         calculate D2E/DX2 analytically  !
 ! A4    A(1,3,5)              109.4785         calculate D2E/DX2 analytically  !
 ! A5    A(1,3,6)              110.7281         calculate D2E/DX2 analytically  !
 ! A6    A(5,3,6)              111.3346         calculate D2E/DX2 analytically  !
 ! A7    A(3,5,4)               67.4858         calculate D2E/DX2 analytically  !
 ! A8    A(3,5,7)              109.0251         calculate D2E/DX2 analytically  !
 ! A9    A(3,5,8)              111.0366         calculate D2E/DX2 analytically  !
 ! A10   A(3,5,9)              113.3283         calculate D2E/DX2 analytically  !
 ! A11   A(4,5,7)              162.7837         calculate D2E/DX2 analytically  !
 ! A12   A(4,5,8)               61.6805         calculate D2E/DX2 analytically  !
 ! A13   A(4,5,9)               88.1401         calculate D2E/DX2 analytically  !
 ! A14   A(7,5,8)              106.6039         calculate D2E/DX2 analytically  !
 ! A15   A(7,5,9)              108.2112         calculate D2E/DX2 analytically  !
 ! A16   A(8,5,9)              108.3816         calculate D2E/DX2 analytically  !
 ! A17   A(3,6,10)             111.6358         calculate D2E/DX2 analytically  !
 ! A18   A(3,6,13)             125.2831         calculate D2E/DX2 analytically  !
 ! A19   A(10,6,13)            122.9694         calculate D2E/DX2 analytically  !
 ! A20   A(5,9,11)             125.5015         calculate D2E/DX2 analytically  !
 ! A21   A(5,9,15)             111.706          calculate D2E/DX2 analytically  !
 ! A22   A(11,9,15)            122.7909         calculate D2E/DX2 analytically  !
 ! A23   A(6,10,14)            108.6743         calculate D2E/DX2 analytically  !
 ! A24   A(9,15,16)            108.4956         calculate D2E/DX2 analytically  !
 ! D1    D(2,1,3,5)            -66.7644         calculate D2E/DX2 analytically  !
 ! D2    D(2,1,3,6)             56.3599         calculate D2E/DX2 analytically  !
 ! D3    D(12,1,3,5)           173.9835         calculate D2E/DX2 analytically  !
 ! D4    D(12,1,3,6)           -62.8922         calculate D2E/DX2 analytically  !
 ! D5    D(1,3,5,4)            109.4422         calculate D2E/DX2 analytically  !
 ! D6    D(1,3,5,7)            -52.5136         calculate D2E/DX2 analytically  !
 ! D7    D(1,3,5,8)             64.6457         calculate D2E/DX2 analytically  !
 ! D8    D(1,3,5,9)           -173.0917         calculate D2E/DX2 analytically  !
 ! D9    D(6,3,5,4)            -13.3222         calculate D2E/DX2 analytically  !
 ! D10   D(6,3,5,7)           -175.278          calculate D2E/DX2 analytically  !
 ! D11   D(6,3,5,8)            -58.1188         calculate D2E/DX2 analytically  !
 ! D12   D(6,3,5,9)             64.1438         calculate D2E/DX2 analytically  !
 ! D13   D(1,3,6,10)            86.119          calculate D2E/DX2 analytically  !
 ! D14   D(1,3,6,13)           -90.1198         calculate D2E/DX2 analytically  !
 ! D15   D(5,3,6,10)          -151.8372         calculate D2E/DX2 analytically  !
 ! D16   D(5,3,6,13)            31.924          calculate D2E/DX2 analytically  !
 ! D17   D(3,5,9,11)             2.3629         calculate D2E/DX2 analytically  !
 ! D18   D(3,5,9,15)          -178.0883         calculate D2E/DX2 analytically  !
 ! D19   D(4,5,9,11)            66.8175         calculate D2E/DX2 analytically  !
 ! D20   D(4,5,9,15)          -113.6337         calculate D2E/DX2 analytically  !
 ! D21   D(7,5,9,11)          -118.6751         calculate D2E/DX2 analytically  !
 ! D22   D(7,5,9,15)            60.8737         calculate D2E/DX2 analytically  !
 ! D23   D(8,5,9,11)           126.0905         calculate D2E/DX2 analytically  !
 ! D24   D(8,5,9,15)           -54.3607         calculate D2E/DX2 analytically  !
 ! D25   D(3,6,10,14)         -175.0375         calculate D2E/DX2 analytically  !
 ! D26   D(13,6,10,14)           1.303          calculate D2E/DX2 analytically  !
 ! D27   D(5,9,15,16)         -179.3746         calculate D2E/DX2 analytically  !
 ! D28   D(11,9,15,16)           0.1884         calculate D2E/DX2 analytically  !
 --------------------------------------------------------------------------------
 Trust Radius=3.00D-01 FncErr=1.00D-07 GrdErr=1.00D-06
 Number of steps in this run=     77 maximum allowed number of steps=    100.
 Search for a saddle point of order  1.
 GradGradGradGradGradGradGradGradGradGradGradGradGradGradGradGradGradGrad

 Leave Link  103 at Tue Apr 19 12:00:26 2016, MaxMem=   33554432 cpu:       0.0
 (Enter c:\G09w03\l202.exe)
                          Input orientation:                          
 ---------------------------------------------------------------------
 Center     Atomic      Atomic             Coordinates (Angstroms)
 Number     Number       Type             X           Y           Z
 ---------------------------------------------------------------------
      1          7           0       -1.558528    1.854657   -0.156925
      2          1           0       -1.733417    2.008137    0.832747
      3          6           0       -0.706126    0.675717   -0.365850
      4          1           0        0.010626    0.062669    0.920296
      5          6           0        0.686665    0.949185    0.194177
      6          6           0       -1.330893   -0.565263    0.276593
      7          1           0        1.062045    1.886156   -0.225888
      8          1           0        0.654101    1.083936    1.279043
      9          6           0        1.680888   -0.139773   -0.120017
     10          8           0       -2.202346   -1.168502   -0.553475
     11          8           0        1.455674   -1.127763   -0.783292
     12          1           0       -2.459329    1.732314   -0.608974
     13          8           0       -1.137163   -0.937511    1.412458
     14          1           0       -2.629618   -1.899474   -0.077954
     15          8           0        2.886324    0.114402    0.423695
     16          1           0        3.490092   -0.607403    0.185250
 ---------------------------------------------------------------------
                    Distance matrix (angstroms):
                    1          2          3          4          5
     1  N    0.000000
     2  H    1.016658   0.000000
     3  C    1.469741   2.065746   0.000000
     4  H    2.614167   2.614230   1.594909   0.000000
     5  C    2.446231   2.717710   1.525871   1.330485   0.000000
     6  C    2.468961   2.663404   1.530718   1.615031   2.524061
     7  H    2.621669   2.991688   2.147366   2.396733   1.093288
     8  H    2.748043   2.598763   2.173139   1.259265   1.093688
     9  C    3.804330   4.144726   2.534422   1.978134   1.507656
    10  O    3.116287   3.497505   2.382230   2.930021   3.659230
    11  O    4.286325   4.755602   2.846081   2.531305   2.420854
    12  H    1.015263   1.637555   2.061365   3.350680   3.340003
    13  O    3.230590   3.060788   2.439401   1.600000   2.893126
    14  H    3.904737   4.111201   3.227122   3.437643   4.380256
    15  O    4.808567   5.009547   3.720773   2.918721   2.363904
    16  H    5.627378   5.877529   4.422483   3.618837   3.206595
                    6          7          8          9         10
     6  C    0.000000
     7  H    3.462383   0.000000
     8  H    2.768567   1.753509   0.000000
     9  C    3.067436   2.120982   2.123470   0.000000
    10  O    1.346232   4.482689   4.073191   4.040504   0.000000
    11  O    3.033928   3.090202   3.128475   1.211107   3.665458
    12  H    2.708589   3.545490   3.698439   4.570031   2.912706
    13  O    1.210904   3.936215   2.704196   3.305492   2.247858
    14  H    1.895392   5.289731   4.639503   4.656048   0.971083
    15  O    4.274167   2.624703   2.579619   1.346590   5.338096
    16  H    4.822034   3.504609   3.478485   1.893432   5.767530
                   11         12         13         14         15
    11  O    0.000000
    12  H    4.851564   0.000000
    13  O    3.402987   3.600316   0.000000
    14  H    4.216948   3.674352   2.318215   0.000000
    15  O    2.246453   5.679793   4.274649   5.893468   0.000000
    16  H    2.312510   6.442102   4.798594   6.260158   0.970770
                   16
    16  H    0.000000
 Symmetry turned off by external request.
 Stoichiometry    C4H7NO4
 Framework group  C1[X(C4H7NO4)]
 Deg. of freedom    42
 Full point group                 C1      NOp   1
 Rotational constants (GHZ):      2.5727096      1.1173958      0.9422118
 Leave Link  202 at Tue Apr 19 12:00:26 2016, MaxMem=   33554432 cpu:       0.0
 (Enter c:\G09w03\l301.exe)
 Standard basis: 6-311++G(d,p) (5D, 7F)
 Ernie: Thresh=  0.10000D-02 Tol=  0.10000D-05 Strict=F.
 Integral buffers will be    262144 words long.
 Raffenetti 2 integral format.
 Two-electron integral symmetry is turned off.
   247 basis functions,   387 primitive gaussians,   256 cartesian basis functions
    35 alpha electrons       35 beta electrons
       nuclear repulsion energy       472.7152121529 Hartrees.
 IExCor=  402 DFT=T Ex+Corr=B3LYP ExCW=0 ScaHFX=  0.200000
 ScaDFX=  0.800000  0.720000  1.000000  0.810000 ScalE2=  1.000000  1.000000
 IRadAn=      0 IRanWt=     -1 IRanGd=            0 ICorTp=0
 NAtoms=   16 NActive=   16 NUniq=   16 SFac= 1.00D+00 NAtFMM=   50 NAOKFM=F Big=F
 ------------------------------------------------------------------------------
 Polarizable Continuum Model (PCM)
 =================================
 Model                : C-PCM.
 Atomic radii         : UFF (Universal Force Field).
 Polarization charges : Total charges.
 Charge compensation  : None.
 Solution method      : Matrix inversion.
 Cavity type          : Scaled VdW (van der Waals Surface) (Alpha=1.100).
 Cavity algorithm     : GePol (No added spheres)
                        Default sphere list used, NSphG=   16.
                        Lebedev-Laikov grids with approx.  5.0 points / Ang**2.
                        Smoothing algorithm: Karplus/York (Gamma=1.0000).
                        Polarization charges: spherical gaussians, with
                                              point-specific exponents (IZeta= 3).
                        Self-potential: point-specific (ISelfS= 7).
                        Self-field    : sphere-specific E.n sum rule (ISelfD= 2).
 1st derivatives      : Analytical E(r).r(x)/FMM algorithm (CHGder, D1EAlg=3).
                        Cavity 1st derivative terms included.
 2nd derivatives      : Analytical E(r).r(xy)/FMM algorithm (CHGder, D2EAlg=3).
                        Cavity 2nd derivative terms included.
 Solvent              : Water, Eps=  78.355300 Eps(inf)=   1.777849
 ------------------------------------------------------------------------------
 Spheres list:
 ISph  on   Nord    Re0     Alpha      Xe            Ye            Ze
    1   N      1    1.830   1.100     -1.558528      1.854657     -0.156925
    2   H      2    1.443   1.100     -1.733417      2.008137      0.832747
    3   C      3    1.926   1.100     -0.706126      0.675717     -0.365850
    4   H      4    1.443   1.100      0.010626      0.062669      0.920296
    5   C      5    1.926   1.100      0.686665      0.949185      0.194177
    6   C      6    1.926   1.100     -1.330893     -0.565263      0.276593
    7   H      7    1.443   1.100      1.062045      1.886156     -0.225888
    8   H      8    1.443   1.100      0.654101      1.083936      1.279043
    9   C      9    1.926   1.100      1.680888     -0.139773     -0.120017
   10   O     10    1.750   1.100     -2.202346     -1.168502     -0.553475
   11   O     11    1.750   1.100      1.455674     -1.127763     -0.783292
   12   H     12    1.443   1.100     -2.459329      1.732314     -0.608974
   13   O     13    1.750   1.100     -1.137163     -0.937511      1.412458
   14   H     14    1.443   1.100     -2.629618     -1.899474     -0.077954
   15   O     15    1.750   1.100      2.886324      0.114402      0.423695
   16   H     16    1.443   1.100      3.490092     -0.607403      0.185250
 ------------------------------------------------------------------------------
 GePol: Number of generator spheres                  =      16
 GePol: Total number of spheres                      =      16
 GePol: Number of exposed spheres                    =      16 (100.00%)
 GePol: Number of points                             =    1368
 GePol: Average weight of points                     =       0.14
 GePol: Minimum weight of points                     =   0.18D-08
 GePol: Maximum weight of points                     =    0.20577
 GePol: Number of points with low weight             =      75
 GePol: Fraction of low-weight points (<1% of avg)   =       5.48%
 GePol: Cavity surface area                          =    184.936 Ang**2
 GePol: Cavity volume                                =    177.437 Ang**3
 Leave Link  301 at Tue Apr 19 12:00:27 2016, MaxMem=   33554432 cpu:       1.0
 (Enter c:\G09w03\l302.exe)
 NPDir=0 NMtPBC=     1 NCelOv=     1 NCel=       1 NClECP=     1 NCelD=      1
         NCelK=      1 NCelE2=     1 NClLst=     1 CellRange=     0.0.
 One-electron integrals computed using PRISM.
 NBasis=   247 RedAO= T  NBF=   247
 NBsUse=   247 1.00D-06 NBFU=   247
 Precomputing XC quadrature grid using
 IXCGrd= 2 IRadAn=           0 IRanWt=          -1 IRanGd=           0 AccXCQ= 0.00D+00.
 NRdTot=    1040 NPtTot=      132656 NUsed=      137508 NTot=      137524
 NSgBfM=   256   256   256   256   256 NAtAll=    16    16.
 Leave Link  302 at Tue Apr 19 12:00:28 2016, MaxMem=   33554432 cpu:       1.0
 (Enter c:\G09w03\l303.exe)
 DipDrv:  MaxL=1.
 Leave Link  303 at Tue Apr 19 12:00:28 2016, MaxMem=   33554432 cpu:       0.0
 (Enter c:\G09w03\l401.exe)
 Harris functional with IExCor=  402 diagonalized for initial guess.
 ExpMin= 3.60D-02 ExpMax= 8.59D+03 ExpMxC= 1.30D+03 IAcc=3 IRadAn=         0 AccDes= 0.00D+00
 HarFok:  IExCor=  402 AccDes= 0.00D+00 IRadAn=         0 IDoV= 1
 ScaDFX=  1.000000  1.000000  1.000000  1.000000
 FoFCou: FMM=F IPFlag=           0 FMFlag=      100000 FMFlg1=           0
         NFxFlg=           0 DoJE=T BraDBF=F KetDBF=T FulRan=T
         Omega=  0.000000  0.000000  1.000000  0.000000  0.000000 ICntrl=     500 IOpCl=  0
         NMat0=    1 NMatS0=    1 NMatT0=    0 NMatD0=    1 NMtDS0=    0 NMtDT0=    0
         I1Cent=           4 NGrid=           0.
 Symmetry not used in FoFCou.
 Harris En= -512.279431815756    
 Leave Link  401 at Tue Apr 19 12:00:37 2016, MaxMem=   33554432 cpu:       9.0
 (Enter c:\G09w03\l502.exe)
 Closed shell SCF:
 Requested convergence on RMS density matrix=1.00D-08 within 128 cycles.
 Requested convergence on MAX density matrix=1.00D-06.
 Requested convergence on             energy=1.00D-06.
 No special actions if energy rises.
 Using DIIS extrapolation, IDIIS=  1040.
 Two-electron integral symmetry not used.
       137368 words used for storage of precomputed grid.
 IEnd=      355072 IEndB=      355072 NGot=    33554432 MDV=    33281793
 LenX=    33281793 LenY=    33215816
 Fock matrices will be formed incrementally for  20 cycles.

 Cycle   1  Pass 1  IDiag  1:
 FoFCou: FMM=F IPFlag=           0 FMFlag=      100000 FMFlg1=           0
         NFxFlg=           0 DoJE=F BraDBF=F KetDBF=F FulRan=T
         Omega=  0.000000  0.000000  1.000000  0.000000  0.000000 ICntrl=       0 IOpCl=  0
         NMat0=    1 NMatS0=    1 NMatT0=    0 NMatD0=    1 NMtDS0=    0 NMtDT0=    0
         I1Cent=           0 NGrid=           0.
 Symmetry not used in FoFCou.
 E= -511.992488809263    
 DIIS: error= 2.47D-02 at cycle   1 NSaved=   1.
 NSaved= 1 IEnMin= 1 EnMin= -511.992488809263     IErMin= 1 ErrMin= 2.47D-02
 ErrMax= 2.47D-02 EMaxC= 1.00D-01 BMatC= 3.90D-01 BMatP= 3.90D-01
 IDIUse=3 WtCom= 7.53D-01 WtEn= 2.47D-01
 Coeff-Com:  0.100D+01
 Coeff-En:   0.100D+01
 Coeff:      0.100D+01
 Gap=     0.059 Goal=   None    Shift=    0.000
 GapD=    0.059 DampG=0.500 DampE=0.500 DampFc=0.2500 IDamp=-1.
 Damping current iteration by 2.50D-01
 RMSDP=1.01D-02 MaxDP=3.42D-01              OVMax= 2.90D-01

 Cycle   2  Pass 1  IDiag  1:
 RMSU=  1.78D-03    CP:  1.01D+00
 E= -512.094709418375     Delta-E=       -0.102220609112 Rises=F Damp=T
 DIIS: error= 1.01D-02 at cycle   2 NSaved=   2.
 NSaved= 2 IEnMin= 2 EnMin= -512.094709418375     IErMin= 2 ErrMin= 1.01D-02
 ErrMax= 1.01D-02 EMaxC= 1.00D-01 BMatC= 6.46D-02 BMatP= 3.90D-01
 IDIUse=3 WtCom= 8.99D-01 WtEn= 1.01D-01
 Coeff-Com: -0.556D+00 0.156D+01
 Coeff-En:   0.000D+00 0.100D+01
 Coeff:     -0.500D+00 0.150D+01
 Gap=     0.131 Goal=   None    Shift=    0.000
 RMSDP=4.17D-03 MaxDP=4.65D-01 DE=-1.02D-01 OVMax= 1.86D-01

 Cycle   3  Pass 1  IDiag  1:
 RMSU=  2.19D-03    CP:  8.82D-01  1.25D+00
 E= -512.256140723393     Delta-E=       -0.161431305017 Rises=F Damp=F
 DIIS: error= 7.27D-03 at cycle   3 NSaved=   3.
 NSaved= 3 IEnMin= 3 EnMin= -512.256140723393     IErMin= 3 ErrMin= 7.27D-03
 ErrMax= 7.27D-03 EMaxC= 1.00D-01 BMatC= 1.79D-02 BMatP= 6.46D-02
 IDIUse=3 WtCom= 9.27D-01 WtEn= 7.27D-02
 Coeff-Com: -0.313D+00 0.815D+00 0.498D+00
 Coeff-En:   0.000D+00 0.000D+00 0.100D+01
 Coeff:     -0.290D+00 0.756D+00 0.534D+00
 Gap=     0.134 Goal=   None    Shift=    0.000
 RMSDP=9.11D-04 MaxDP=3.05D-02 DE=-1.61D-01 OVMax= 4.57D-02

 Cycle   4  Pass 1  IDiag  1:
 RMSU=  6.34D-04    CP:  8.74D-01  1.24D+00  1.01D+00
 E= -512.266694324326     Delta-E=       -0.010553600933 Rises=F Damp=F
 DIIS: error= 4.35D-03 at cycle   4 NSaved=   4.
 NSaved= 4 IEnMin= 4 EnMin= -512.266694324326     IErMin= 4 ErrMin= 4.35D-03
 ErrMax= 4.35D-03 EMaxC= 1.00D-01 BMatC= 5.10D-03 BMatP= 1.79D-02
 IDIUse=3 WtCom= 9.57D-01 WtEn= 4.35D-02
 Coeff-Com: -0.934D-01 0.218D+00 0.349D+00 0.527D+00
 Coeff-En:   0.000D+00 0.000D+00 0.227D+00 0.773D+00
 Coeff:     -0.893D-01 0.208D+00 0.343D+00 0.537D+00
 Gap=     0.133 Goal=   None    Shift=    0.000
 RMSDP=5.32D-04 MaxDP=4.47D-02 DE=-1.06D-02 OVMax= 2.47D-02

 Cycle   5  Pass 1  IDiag  1:
 RMSU=  2.23D-04    CP:  8.60D-01  1.23D+00  1.10D+00  8.21D-01
 E= -512.269968977944     Delta-E=       -0.003274653618 Rises=F Damp=F
 DIIS: error= 9.30D-04 at cycle   5 NSaved=   5.
 NSaved= 5 IEnMin= 5 EnMin= -512.269968977944     IErMin= 5 ErrMin= 9.30D-04
 ErrMax= 9.30D-04 EMaxC= 1.00D-01 BMatC= 4.02D-04 BMatP= 5.10D-03
 IDIUse=3 WtCom= 9.91D-01 WtEn= 9.30D-03
 Coeff-Com: -0.204D-01 0.391D-01 0.146D+00 0.313D+00 0.523D+00
 Coeff-En:   0.000D+00 0.000D+00 0.000D+00 0.200D-01 0.980D+00
 Coeff:     -0.202D-01 0.387D-01 0.144D+00 0.310D+00 0.527D+00
 Gap=     0.134 Goal=   None    Shift=    0.000
 RMSDP=1.67D-04 MaxDP=1.98D-02 DE=-3.27D-03 OVMax= 5.47D-03

 Cycle   6  Pass 1  IDiag  1:
 RMSU=  8.40D-05    CP:  8.56D-01  1.21D+00  1.12D+00  8.29D-01  8.50D-01
 E= -512.270287416475     Delta-E=       -0.000318438531 Rises=F Damp=F
 DIIS: error= 1.19D-04 at cycle   6 NSaved=   6.
 NSaved= 6 IEnMin= 6 EnMin= -512.270287416475     IErMin= 6 ErrMin= 1.19D-04
 ErrMax= 1.19D-04 EMaxC= 1.00D-01 BMatC= 1.29D-05 BMatP= 4.02D-04
 IDIUse=3 WtCom= 9.99D-01 WtEn= 1.19D-03
 Coeff-Com: -0.249D-02 0.262D-02 0.390D-01 0.942D-01 0.232D+00 0.634D+00
 Coeff-En:   0.000D+00 0.000D+00 0.000D+00 0.000D+00 0.000D+00 0.100D+01
 Coeff:     -0.249D-02 0.262D-02 0.390D-01 0.941D-01 0.232D+00 0.635D+00
 Gap=     0.134 Goal=   None    Shift=    0.000
 RMSDP=4.64D-05 MaxDP=3.59D-03 DE=-3.18D-04 OVMax= 7.74D-04

 Cycle   7  Pass 1  IDiag  1:
 RMSU=  2.48D-05    CP:  8.56D-01  1.22D+00  1.12D+00  8.34D-01  9.11D-01
                    CP:  8.46D-01
 E= -512.270295975786     Delta-E=       -0.000008559311 Rises=F Damp=F
 DIIS: error= 5.55D-05 at cycle   7 NSaved=   7.
 NSaved= 7 IEnMin= 7 EnMin= -512.270295975786     IErMin= 7 ErrMin= 5.55D-05
 ErrMax= 5.55D-05 EMaxC= 1.00D-01 BMatC= 2.35D-06 BMatP= 1.29D-05
 IDIUse=1 WtCom= 1.00D+00 WtEn= 0.00D+00
 Coeff-Com:  0.157D-03-0.133D-02 0.117D-01 0.306D-01 0.982D-01 0.373D+00
 Coeff-Com:  0.488D+00
 Coeff:      0.157D-03-0.133D-02 0.117D-01 0.306D-01 0.982D-01 0.373D+00
 Coeff:      0.488D+00
 Gap=     0.134 Goal=   None    Shift=    0.000
 RMSDP=1.14D-05 MaxDP=1.13D-03 DE=-8.56D-06 OVMax= 4.43D-04

 Cycle   8  Pass 1  IDiag  1:
 RMSU=  5.25D-06    CP:  8.56D-01  1.22D+00  1.12D+00  8.37D-01  9.16D-01
                    CP:  8.62D-01  9.42D-01
 E= -512.270297608918     Delta-E=       -0.000001633132 Rises=F Damp=F
 DIIS: error= 2.24D-05 at cycle   8 NSaved=   8.
 NSaved= 8 IEnMin= 8 EnMin= -512.270297608918     IErMin= 8 ErrMin= 2.24D-05
 ErrMax= 2.24D-05 EMaxC= 1.00D-01 BMatC= 1.92D-07 BMatP= 2.35D-06
 IDIUse=1 WtCom= 1.00D+00 WtEn= 0.00D+00
 Coeff-Com:  0.287D-03-0.756D-03 0.223D-02 0.612D-02 0.276D-01 0.123D+00
 Coeff-Com:  0.259D+00 0.583D+00
 Coeff:      0.287D-03-0.756D-03 0.223D-02 0.612D-02 0.276D-01 0.123D+00
 Coeff:      0.259D+00 0.583D+00
 Gap=     0.134 Goal=   None    Shift=    0.000
 RMSDP=7.84D-06 MaxDP=6.90D-04 DE=-1.63D-06 OVMax= 1.97D-04

 Cycle   9  Pass 1  IDiag  1:
 RMSU=  2.90D-06    CP:  8.56D-01  1.22D+00  1.12D+00  8.38D-01  9.22D-01
                    CP:  8.82D-01  9.67D-01  1.01D+00
 E= -512.270297723109     Delta-E=       -0.000000114191 Rises=F Damp=F
 DIIS: error= 1.24D-05 at cycle   9 NSaved=   9.
 NSaved= 9 IEnMin= 9 EnMin= -512.270297723109     IErMin= 9 ErrMin= 1.24D-05
 ErrMax= 1.24D-05 EMaxC= 1.00D-01 BMatC= 5.87D-08 BMatP= 1.92D-07
 IDIUse=1 WtCom= 1.00D+00 WtEn= 0.00D+00
 Coeff-Com:  0.193D-03-0.354D-03-0.457D-03-0.946D-03 0.233D-02 0.163D-01
 Coeff-Com:  0.847D-01 0.394D+00 0.505D+00
 Coeff:      0.193D-03-0.354D-03-0.457D-03-0.946D-03 0.233D-02 0.163D-01
 Coeff:      0.847D-01 0.394D+00 0.505D+00
 Gap=     0.134 Goal=   None    Shift=    0.000
 RMSDP=3.16D-06 MaxDP=3.00D-04 DE=-1.14D-07 OVMax= 4.57D-05

 Cycle  10  Pass 1  IDiag  1:
 RMSU=  7.95D-07    CP:  8.56D-01  1.22D+00  1.12D+00  8.38D-01  9.25D-01
                    CP:  8.89D-01  9.84D-01  1.10D+00  9.78D-01
 E= -512.270297765834     Delta-E=       -0.000000042725 Rises=F Damp=F
 DIIS: error= 2.28D-06 at cycle  10 NSaved=  10.
 NSaved=10 IEnMin=10 EnMin= -512.270297765834     IErMin=10 ErrMin= 2.28D-06
 ErrMax= 2.28D-06 EMaxC= 1.00D-01 BMatC= 2.36D-09 BMatP= 5.87D-08
 IDIUse=1 WtCom= 1.00D+00 WtEn= 0.00D+00
 Coeff-Com:  0.519D-04-0.809D-04-0.438D-03-0.107D-02-0.135D-02-0.388D-02
 Coeff-Com:  0.189D-01 0.154D+00 0.237D+00 0.597D+00
 Coeff:      0.519D-04-0.809D-04-0.438D-03-0.107D-02-0.135D-02-0.388D-02
 Coeff:      0.189D-01 0.154D+00 0.237D+00 0.597D+00
 Gap=     0.134 Goal=   None    Shift=    0.000
 RMSDP=8.97D-07 MaxDP=5.14D-05 DE=-4.27D-08 OVMax= 1.96D-05

 Cycle  11  Pass 1  IDiag  1:
 RMSU=  2.87D-07    CP:  8.56D-01  1.22D+00  1.12D+00  8.38D-01  9.26D-01
                    CP:  8.89D-01  1.00D+00  1.12D+00  1.01D+00  8.58D-01
 E= -512.270297767807     Delta-E=       -0.000000001972 Rises=F Damp=F
 DIIS: error= 6.27D-07 at cycle  11 NSaved=  11.
 NSaved=11 IEnMin=11 EnMin= -512.270297767807     IErMin=11 ErrMin= 6.27D-07
 ErrMax= 6.27D-07 EMaxC= 1.00D-01 BMatC= 3.38D-10 BMatP= 2.36D-09
 IDIUse=1 WtCom= 1.00D+00 WtEn= 0.00D+00
 Coeff-Com:  0.303D-05-0.252D-05-0.195D-03-0.491D-03-0.104D-02-0.419D-02
 Coeff-Com: -0.147D-03 0.349D-01 0.498D-01 0.297D+00 0.624D+00
 Coeff:      0.303D-05-0.252D-05-0.195D-03-0.491D-03-0.104D-02-0.419D-02
 Coeff:     -0.147D-03 0.349D-01 0.498D-01 0.297D+00 0.624D+00
 Gap=     0.134 Goal=   None    Shift=    0.000
 RMSDP=3.99D-07 MaxDP=3.12D-05 DE=-1.97D-09 OVMax= 9.07D-06

 Cycle  12  Pass 1  IDiag  1:
 RMSU=  7.87D-08    CP:  8.56D-01  1.22D+00  1.12D+00  8.38D-01  9.26D-01
                    CP:  8.90D-01  1.00D+00  1.14D+00  1.04D+00  9.48D-01
                    CP:  1.01D+00
 E= -512.270297768114     Delta-E=       -0.000000000308 Rises=F Damp=F
 DIIS: error= 3.01D-07 at cycle  12 NSaved=  12.
 NSaved=12 IEnMin=12 EnMin= -512.270297768114     IErMin=12 ErrMin= 3.01D-07
 ErrMax= 3.01D-07 EMaxC= 1.00D-01 BMatC= 3.88D-11 BMatP= 3.38D-10
 IDIUse=1 WtCom= 1.00D+00 WtEn= 0.00D+00
 Coeff-Com: -0.777D-05 0.123D-04-0.280D-04-0.802D-04-0.280D-03-0.137D-02
 Coeff-Com: -0.207D-02-0.214D-02-0.973D-02 0.578D-01 0.298D+00 0.660D+00
 Coeff:     -0.777D-05 0.123D-04-0.280D-04-0.802D-04-0.280D-03-0.137D-02
 Coeff:     -0.207D-02-0.214D-02-0.973D-02 0.578D-01 0.298D+00 0.660D+00
 Gap=     0.134 Goal=   None    Shift=    0.000
 RMSDP=1.73D-07 MaxDP=1.36D-05 DE=-3.08D-10 OVMax= 6.54D-06

 Cycle  13  Pass 1  IDiag  1:
 RMSU=  3.07D-08    CP:  8.56D-01  1.22D+00  1.12D+00  8.38D-01  9.26D-01
                    CP:  8.90D-01  1.01D+00  1.15D+00  1.05D+00  9.82D-01
                    CP:  1.06D+00  9.15D-01
 E= -512.270297768150     Delta-E=       -0.000000000036 Rises=F Damp=F
 DIIS: error= 1.12D-07 at cycle  13 NSaved=  13.
 NSaved=13 IEnMin=13 EnMin= -512.270297768150     IErMin=13 ErrMin= 1.12D-07
 ErrMax= 1.12D-07 EMaxC= 1.00D-01 BMatC= 4.46D-12 BMatP= 3.88D-11
 IDIUse=1 WtCom= 1.00D+00 WtEn= 0.00D+00
 Coeff-Com: -0.338D-05 0.492D-05 0.624D-05 0.124D-04-0.154D-04-0.177D-03
 Coeff-Com: -0.926D-03-0.436D-02-0.986D-02-0.710D-02 0.636D-01 0.316D+00
 Coeff-Com:  0.643D+00
 Coeff:     -0.338D-05 0.492D-05 0.624D-05 0.124D-04-0.154D-04-0.177D-03
 Coeff:     -0.926D-03-0.436D-02-0.986D-02-0.710D-02 0.636D-01 0.316D+00
 Coeff:      0.643D+00
 Gap=     0.134 Goal=   None    Shift=    0.000
 RMSDP=4.93D-08 MaxDP=4.39D-06 DE=-3.56D-11 OVMax= 1.56D-06

 Cycle  14  Pass 1  IDiag  1:
 RMSU=  8.50D-09    CP:  8.56D-01  1.22D+00  1.12D+00  8.38D-01  9.26D-01
                    CP:  8.90D-01  1.01D+00  1.15D+00  1.05D+00  9.94D-01
                    CP:  1.08D+00  1.01D+00  9.89D-01
 E= -512.270297768150     Delta-E=        0.000000000000 Rises=F Damp=F
 DIIS: error= 2.42D-08 at cycle  14 NSaved=  14.
 NSaved=14 IEnMin=14 EnMin= -512.270297768150     IErMin=14 ErrMin= 2.42D-08
 ErrMax= 2.42D-08 EMaxC= 1.00D-01 BMatC= 4.24D-13 BMatP= 4.46D-12
 IDIUse=1 WtCom= 1.00D+00 WtEn= 0.00D+00
 Coeff-Com: -0.252D-06 0.493D-06 0.412D-05 0.103D-04 0.216D-04 0.810D-04
 Coeff-Com: -0.128D-03-0.128D-02-0.243D-02-0.123D-01-0.166D-01 0.587D-01
 Coeff-Com:  0.277D+00 0.697D+00
 Coeff:     -0.252D-06 0.493D-06 0.412D-05 0.103D-04 0.216D-04 0.810D-04
 Coeff:     -0.128D-03-0.128D-02-0.243D-02-0.123D-01-0.166D-01 0.587D-01
 Coeff:      0.277D+00 0.697D+00
 Gap=     0.134 Goal=   None    Shift=    0.000
 RMSDP=1.61D-08 MaxDP=7.54D-07 DE=-2.27D-13 OVMax= 7.42D-07

 Cycle  15  Pass 1  IDiag  1:
 RMSU=  3.71D-09    CP:  8.56D-01  1.22D+00  1.12D+00  8.38D-01  9.26D-01
                    CP:  8.90D-01  1.01D+00  1.15D+00  1.06D+00  9.94D-01
                    CP:  1.09D+00  1.03D+00  1.04D+00  9.17D-01
 E= -512.270297768152     Delta-E=       -0.000000000002 Rises=F Damp=F
 DIIS: error= 7.95D-09 at cycle  15 NSaved=  15.
 NSaved=15 IEnMin=15 EnMin= -512.270297768152     IErMin=15 ErrMin= 7.95D-09
 ErrMax= 7.95D-09 EMaxC= 1.00D-01 BMatC= 3.90D-14 BMatP= 4.24D-13
 IDIUse=1 WtCom= 1.00D+00 WtEn= 0.00D+00
 Coeff-Com:  0.174D-06-0.207D-06 0.140D-05 0.400D-05 0.120D-04 0.503D-04
 Coeff-Com:  0.320D-05-0.210D-03-0.295D-03-0.489D-02-0.121D-01 0.468D-02
 Coeff-Com:  0.559D-01 0.282D+00 0.674D+00
 Coeff:      0.174D-06-0.207D-06 0.140D-05 0.400D-05 0.120D-04 0.503D-04
 Coeff:      0.320D-05-0.210D-03-0.295D-03-0.489D-02-0.121D-01 0.468D-02
 Coeff:      0.559D-01 0.282D+00 0.674D+00
 Gap=     0.134 Goal=   None    Shift=    0.000
 RMSDP=3.39D-09 MaxDP=2.60D-07 DE=-2.05D-12 OVMax= 1.63D-07

 Error on total polarization charges =  0.01382
 SCF Done:  E(RB3LYP) =  -512.270297768     A.U. after   15 cycles
             Convg  =    0.3385D-08             -V/T =  2.0031
 KE= 5.106622614988D+02 PE=-2.147870276311D+03 EE= 6.522225048916D+02
 Leave Link  502 at Tue Apr 19 12:07:36 2016, MaxMem=   33554432 cpu:     419.0
 (Enter c:\G09w03\l801.exe)
 Range of M.O.s used for correlation:     1   247
 NBasis=   247 NAE=    35 NBE=    35 NFC=     0 NFV=     0
 NROrb=    247 NOA=    35 NOB=    35 NVA=   212 NVB=   212

 **** Warning!!: The largest alpha MO coefficient is  0.72128689D+02

 Leave Link  801 at Tue Apr 19 12:07:36 2016, MaxMem=   33554432 cpu:       0.0
 (Enter c:\G09w03\l1101.exe)
 Using compressed storage, NAtomX=    16.
 Will process  17 centers per pass.
 Leave Link 1101 at Tue Apr 19 12:07:37 2016, MaxMem=   33554432 cpu:       0.0
 (Enter c:\G09w03\l1102.exe)
 Symmetrizing basis deriv contribution to polar:
 IMax=3 JMax=2 DiffMx= 0.00D+00
 Leave Link 1102 at Tue Apr 19 12:07:38 2016, MaxMem=   33554432 cpu:       0.0
 (Enter c:\G09w03\l1110.exe)
 Forming Gx(P) for the SCF density, NAtomX=    16.
 Integral derivatives from FoFDir/FoFCou, PRISM(SPDF).
 Do as many integral derivatives as possible in FoFDir.
 G2DrvN: MDV=      33554282.
 G2DrvN: will do    17 centers at a time, making    1 passes doing MaxLOS=2.
 Calling FoFCou, ICntrl=  3107 FMM=F I1Cent=   0 AccDes= 0.00D+00.
 FoFCou: FMM=F IPFlag=           0 FMFlag=      100000 FMFlg1=           0
         NFxFlg=           0 DoJE=F BraDBF=F KetDBF=F FulRan=T
         Omega=  0.000000  0.000000  1.000000  0.000000  0.000000 ICntrl=    3107 IOpCl=  0
         NMat0=    1 NMatS0=    1 NMatT0=    0 NMatD0=    1 NMtDS0=    0 NMtDT0=    0
         I1Cent=           0 NGrid=           0.
 Symmetry not used in FoFCou.
 FoFDir/FoFCou used for L=0 through L=2.
 G2PCM: DoFxE=T DoFxN=T DoGrad=T DoPD/DQ/DG=FFF NFrqRd=   0 IEInf=0 DoCFld=F IF1Alg=4.
 GePol: Maximum number of non-zero 1st derivatives   =     201
 End of G2Drv Frequency-dependent properties file   721 does not exist.
 End of G2Drv Frequency-dependent properties file   722 does not exist.
 Leave Link 1110 at Tue Apr 19 12:15:26 2016, MaxMem=   33554432 cpu:     468.0
 (Enter c:\G09w03\l1002.exe)
 Minotr:  Closed shell wavefunction.
          IDoAtm=1111111111111111
 NEqPCM:  Using equilibrium solvation (IEInf=0, Eps=  78.3553, EpsInf=   1.7778)
          Direct CPHF calculation.
          Differentiating once with respect to nuclear coordinates.
          Requested convergence is 1.0D-06 RMS, and 1.0D-05 maximum.
          Secondary convergence is 1.0D-12 RMS, and 1.0D-12 maximum.
          NewPWx=T KeepS1=F KeepF1=F KeepIn=T MapXYZ=F SortEE=F KeepMc=T.
          MDV=      33554316 using IRadAn=       2.
 Generate precomputed XC quadrature information.
          Solving linear equations simultaneously, MaxMat=       0.
 Symmetry not used in FoFDir.
 MinBra= 0 MaxBra= 2 Meth= 1.
 IRaf=       0 NMat=  51 IRICut=     127 DoRegI=T DoRafI=T ISym2E= 0 JSym2E=0.
          There are    51 degrees of freedom in the 1st order CPHF.  IDoFFX=5.
     45 vectors produced by pass  0 Test12= 1.45D-10 1.96D-07 XBig12= 2.71D-01 1.19D-01.
 AX will form    45 AO Fock derivatives at one time.
     45 vectors produced by pass  1 Test12= 1.45D-10 1.96D-07 XBig12= 8.08D-02 1.05D-01.
     45 vectors produced by pass  2 Test12= 1.45D-10 1.96D-07 XBig12= 6.97D-04 5.54D-03.
     45 vectors produced by pass  3 Test12= 1.45D-10 1.96D-07 XBig12= 4.09D-06 3.10D-04.
     35 vectors produced by pass  4 Test12= 1.45D-10 1.96D-07 XBig12= 1.75D-08 1.50D-05.
      4 vectors produced by pass  5 Test12= 1.45D-10 1.96D-07 XBig12= 4.17D-11 6.80D-07.
 Inverted reduced A of dimension   219 with in-core refinement.
 End of Minotr Frequency-dependent properties file   721 does not exist.
 End of Minotr Frequency-dependent properties file   722 does not exist.
 Leave Link 1002 at Tue Apr 19 12:29:01 2016, MaxMem=   33554432 cpu:     815.0
 (Enter c:\G09w03\l601.exe)
 Copying SCF densities to generalized density rwf, IOpCl= 0 IROHF=0.

 **********************************************************************

            Population analysis using the SCF density.

 **********************************************************************

 Alpha  occ. eigenvalues --  -19.19548 -19.18838 -19.16713 -19.14599 -14.31191
 Alpha  occ. eigenvalues --  -10.34287 -10.33263 -10.24081 -10.18728  -1.14768
 Alpha  occ. eigenvalues --   -1.13989  -1.06470  -1.05127  -0.90983  -0.83900
 Alpha  occ. eigenvalues --   -0.71075  -0.66007  -0.59929  -0.56779  -0.54349
 Alpha  occ. eigenvalues --   -0.52960  -0.51615  -0.49013  -0.48630  -0.48261
 Alpha  occ. eigenvalues --   -0.45080  -0.43566  -0.41407  -0.40999  -0.36418
 Alpha  occ. eigenvalues --   -0.35441  -0.35207  -0.31677  -0.27321  -0.18648
 Alpha virt. eigenvalues --   -0.05247  -0.03003  -0.02540  -0.00167   0.00023
 Alpha virt. eigenvalues --    0.01066   0.02222   0.03614   0.04982   0.05222
 Alpha virt. eigenvalues --    0.06595   0.07035   0.08441   0.08884   0.09358
 Alpha virt. eigenvalues --    0.09798   0.09908   0.10550   0.10882   0.12095
 Alpha virt. eigenvalues --    0.12795   0.13180   0.14383   0.14591   0.15120
 Alpha virt. eigenvalues --    0.16329   0.17135   0.18198   0.19136   0.19782
 Alpha virt. eigenvalues --    0.20092   0.21276   0.21662   0.22573   0.23307
 Alpha virt. eigenvalues --    0.24136   0.25107   0.25670   0.26158   0.26641
 Alpha virt. eigenvalues --    0.27264   0.28138   0.28220   0.28697   0.29780
 Alpha virt. eigenvalues --    0.30465   0.30878   0.31653   0.32003   0.32969
 Alpha virt. eigenvalues --    0.33908   0.34470   0.35715   0.36221   0.37206
 Alpha virt. eigenvalues --    0.38222   0.39894   0.42741   0.44387   0.46576
 Alpha virt. eigenvalues --    0.50854   0.54005   0.54400   0.55465   0.56367
 Alpha virt. eigenvalues --    0.56917   0.58863   0.59861   0.60877   0.62840
 Alpha virt. eigenvalues --    0.65241   0.65471   0.66828   0.69215   0.70482
 Alpha virt. eigenvalues --    0.72040   0.73008   0.76061   0.78915   0.81433
 Alpha virt. eigenvalues --    0.83234   0.86141   0.87199   0.92762   0.95415
 Alpha virt. eigenvalues --    0.98579   1.02111   1.02810   1.06511   1.08972
 Alpha virt. eigenvalues --    1.10451   1.12593   1.13952   1.14573   1.15213
 Alpha virt. eigenvalues --    1.16551   1.17607   1.18260   1.20336   1.22531
 Alpha virt. eigenvalues --    1.23020   1.25695   1.27336   1.29984   1.37574
 Alpha virt. eigenvalues --    1.38227   1.41095   1.42690   1.45620   1.47123
 Alpha virt. eigenvalues --    1.50984   1.51426   1.53766   1.55725   1.56680
 Alpha virt. eigenvalues --    1.58076   1.61329   1.63734   1.66314   1.68484
 Alpha virt. eigenvalues --    1.70164   1.74138   1.77097   1.78197   1.82815
 Alpha virt. eigenvalues --    1.82874   1.86035   1.90423   1.91730   1.94240
 Alpha virt. eigenvalues --    1.97170   2.01084   2.01586   2.04078   2.06205
 Alpha virt. eigenvalues --    2.09559   2.17558   2.19407   2.23026   2.26979
 Alpha virt. eigenvalues --    2.31383   2.37900   2.48984   2.54007   2.55139
 Alpha virt. eigenvalues --    2.55718   2.57496   2.59975   2.66293   2.69433
 Alpha virt. eigenvalues --    2.69996   2.73716   2.76314   2.79713   2.83690
 Alpha virt. eigenvalues --    2.87150   2.88305   2.90866   2.93281   2.95807
 Alpha virt. eigenvalues --    2.99955   3.03077   3.03998   3.04346   3.08986
 Alpha virt. eigenvalues --    3.10549   3.14407   3.16727   3.17670   3.19961
 Alpha virt. eigenvalues --    3.22753   3.24417   3.29812   3.32150   3.36341
 Alpha virt. eigenvalues --    3.43551   3.58593   3.58714   3.63003   3.65122
 Alpha virt. eigenvalues --    3.78578   3.79634   3.83758   3.90131   4.04238
 Alpha virt. eigenvalues --    4.04704   4.07076   4.11016   4.31707   4.72619
 Alpha virt. eigenvalues --    4.82484   4.94748   4.97755   5.01004   5.05129
 Alpha virt. eigenvalues --    5.14100   5.17333   5.35666   5.37434   5.56745
 Alpha virt. eigenvalues --    5.60574   5.83085   5.85677  23.73208  23.78789
 Alpha virt. eigenvalues --   23.79176  23.90962  35.59789  49.84729  49.86688
 Alpha virt. eigenvalues --   49.96089  49.98680
          Condensed to atoms (all electrons):
              1          2          3          4          5          6
     1  N    6.680831   0.379301  -0.060887  -0.027039   0.031046  -0.068486
     2  H    0.379301   0.575853  -0.161318  -0.008128   0.022991  -0.012494
     3  C   -0.060887  -0.161318   9.364753   0.113707  -1.230671  -0.945178
     4  H   -0.027039  -0.008128   0.113707   0.623034  -0.196856   0.036692
     5  C    0.031046   0.022991  -1.230671  -0.196856   8.363551   0.147625
     6  C   -0.068486  -0.012494  -0.945178   0.036692   0.147625   6.100823
     7  H    0.008130  -0.018848  -0.025688   0.019694   0.307457   0.011417
     8  H    0.006426   0.043756  -0.198739  -0.125766   0.667732  -0.089781
     9  C   -0.001928  -0.013317   0.016601   0.075927  -1.206641   0.189685
    10  O   -0.027485  -0.004539  -0.182709   0.037471  -0.026082   0.323762
    11  O   -0.002453   0.000383   0.050752  -0.004814  -0.120159   0.022361
    12  H    0.411340  -0.058856  -0.106085   0.001756   0.012397   0.028544
    13  O    0.019117   0.037533  -0.363378   0.060402   0.095106   0.381559
    14  H    0.004790   0.000915  -0.027872   0.012824  -0.011670   0.016404
    15  O   -0.000031   0.000722   0.027214  -0.003182  -0.328513   0.006488
    16  H   -0.000010   0.000013  -0.013988  -0.002569  -0.050938   0.006107
              7          8          9         10         11         12
     1  N    0.008130   0.006426  -0.001928  -0.027485  -0.002453   0.411340
     2  H   -0.018848   0.043756  -0.013317  -0.004539   0.000383  -0.058856
     3  C   -0.025688  -0.198739   0.016601  -0.182709   0.050752  -0.106085
     4  H    0.019694  -0.125766   0.075927   0.037471  -0.004814   0.001756
     5  C    0.307457   0.667732  -1.206641  -0.026082  -0.120159   0.012397
     6  C    0.011417  -0.089781   0.189685   0.323762   0.022361   0.028544
     7  H    0.428461  -0.076117   0.062548   0.000717  -0.002851   0.002412
     8  H   -0.076117   0.714376  -0.229672  -0.005944   0.007925  -0.003139
     9  C    0.062548  -0.229672   6.255952   0.004685   0.447675   0.004645
    10  O    0.000717  -0.005944   0.004685   7.937151  -0.000481   0.003709
    11  O   -0.002851   0.007925   0.447675  -0.000481   8.026691   0.000234
    12  H    0.002412  -0.003139   0.004645   0.003709   0.000234   0.425159
    13  O   -0.015702   0.058332  -0.045141  -0.131804  -0.002897  -0.003412
    14  H   -0.000161  -0.002258   0.003068   0.260745   0.000664  -0.000017
    15  O   -0.011216   0.002896   0.337033   0.000330  -0.130515  -0.000024
    16  H    0.000112   0.002153   0.058321  -0.000138  -0.007614   0.000033
             13         14         15         16
     1  N    0.019117   0.004790  -0.000031  -0.000010
     2  H    0.037533   0.000915   0.000722   0.000013
     3  C   -0.363378  -0.027872   0.027214  -0.013988
     4  H    0.060402   0.012824  -0.003182  -0.002569
     5  C    0.095106  -0.011670  -0.328513  -0.050938
     6  C    0.381559   0.016404   0.006488   0.006107
     7  H   -0.015702  -0.000161  -0.011216   0.000112
     8  H    0.058332  -0.002258   0.002896   0.002153
     9  C   -0.045141   0.003068   0.337033   0.058321
    10  O   -0.131804   0.260745   0.000330  -0.000138
    11  O   -0.002897   0.000664  -0.130515  -0.007614
    12  H   -0.003412  -0.000017  -0.000024   0.000033
    13  O    8.129107   0.003012   0.000352   0.000170
    14  H    0.003012   0.431463   0.000152   0.000057
    15  O    0.000352   0.000152   7.985490   0.272060
    16  H    0.000170   0.000057   0.272060   0.409333
 Mulliken atomic charges:
              1
     1  N   -0.352662
     2  H    0.216033
     3  C   -0.256515
     4  H    0.386845
     5  C   -0.476374
     6  C   -0.155529
     7  H    0.309635
     8  H    0.227818
     9  C    0.040560
    10  O   -0.189388
    11  O   -0.284899
    12  H    0.281304
    13  O   -0.222358
    14  H    0.307885
    15  O   -0.159254
    16  H    0.326898
 Sum of Mulliken atomic charges =   0.00000
 Mulliken charges with hydrogens summed into heavy atoms:
              1
     1  N    0.144674
     3  C   -0.256515
     5  C    0.447925
     6  C   -0.155529
     9  C    0.040560
    10  O    0.118498
    11  O   -0.284899
    13  O   -0.222358
    15  O    0.167644
 Sum of Mulliken charges with hydrogens summed into heavy atoms =   0.00000
 APT atomic charges:
              1
     1  N   -1.139814
     2  H    0.369768
     3  C   -0.066254
     4  H    0.245382
     5  C   -0.921762
     6  C   -0.162748
     7  H    0.570387
     8  H    0.285288
     9  C    0.072971
    10  O   -0.526847
    11  O   -0.312936
    12  H    0.648123
    13  O   -0.212276
    14  H    0.801054
    15  O   -0.504035
    16  H    0.853699
 Sum of APT charges=   0.00000
 APT Atomic charges with hydrogens summed into heavy atoms:
              1
     1  N   -0.121923
     2  H    0.000000
     3  C   -0.066254
     4  H    0.000000
     5  C    0.179295
     6  C   -0.162748
     7  H    0.000000
     8  H    0.000000
     9  C    0.072971
    10  O    0.274207
    11  O   -0.312936
    12  H    0.000000
    13  O   -0.212276
    14  H    0.000000
    15  O    0.349665
    16  H    0.000000
 Sum of APT charges=   0.00000
 Electronic spatial extent (au):  <R**2>=           1260.7795
 Charge=              0.0000 electrons
 Dipole moment (field-independent basis, Debye):
    X=              0.9659    Y=              0.1627    Z=              3.6291  Tot=              3.7590
 Quadrupole moment (field-independent basis, Debye-Ang):
   XX=            -37.1725   YY=            -54.8269   ZZ=            -60.8347
   XY=              2.5277   XZ=             -1.6020   YZ=              1.2976
 Traceless Quadrupole moment (field-independent basis, Debye-Ang):
   XX=             13.7722   YY=             -3.8822   ZZ=             -9.8900
   XY=              2.5277   XZ=             -1.6020   YZ=              1.2976
 Octapole moment (field-independent basis, Debye-Ang**2):
  XXX=             17.0758  YYY=            -21.7236  ZZZ=             -6.9888  XYY=             -5.5471
  XXY=            -21.5520  XXZ=             -2.1840  XZZ=              7.2412  YZZ=              6.6967
  YYZ=              3.8164  XYZ=             -7.6765
 Hexadecapole moment (field-independent basis, Debye-Ang**3):
 XXXX=           -710.4945 YYYY=           -430.4064 ZZZZ=           -205.9992 XXXY=            -33.6983
 XXXZ=            -13.1182 YYYX=             58.7496 YYYZ=             12.5797 ZZZX=              2.2992
 ZZZY=              9.3136 XXYY=           -176.4862 XXZZ=           -204.0664 YYZZ=           -106.3293
 XXYZ=            -14.4234 YYXZ=             -2.6508 ZZXY=             -5.6163
 N-N= 4.727152121529D+02 E-N=-2.147870275916D+03  KE= 5.106622614988D+02
  Exact polarizability:   0.000   0.000   0.000   0.000   0.000   0.000
 Approx polarizability: 114.258  12.476 118.108  15.666   0.084 119.650
 No NMR shielding tensors so no spin-rotation constants.
 Leave Link  601 at Tue Apr 19 12:29:02 2016, MaxMem=   33554432 cpu:       0.0
 (Enter c:\G09w03\l701.exe)
 Compute integral second derivatives.
 ... and contract with generalized density number  0.
 D2PCM: C-PCM CHGder 2nd derivatives, FixD1E=F FixD2E=F DoIter=F DoCFld=F I1PDM=0
 GePol: Maximum number of non-zero 2nd derivatives   =     201
 Leave Link  701 at Tue Apr 19 12:29:40 2016, MaxMem=   33554432 cpu:      38.0
 (Enter c:\G09w03\l702.exe)
 L702 exits ... SP integral derivatives will be done elsewhere.
 Leave Link  702 at Tue Apr 19 12:29:40 2016, MaxMem=   33554432 cpu:       0.0
 (Enter c:\G09w03\l703.exe)
 Compute integral second derivatives, UseDBF=F ICtDFT=           0.
 Integral derivatives from FoFDir, PRISM(SPDF).
 Calling FoFJK, ICntrl=    100147 FMM=F ISym2X=0 I1Cent= 0 IOpClX= 0 NMat=1 NMatS=1 NMatT=0.
 FoFCou: FMM=F IPFlag=           0 FMFlag=      100000 FMFlg1=         800
         NFxFlg=           0 DoJE=F BraDBF=F KetDBF=F FulRan=T
         Omega=  0.000000  0.000000  1.000000  0.000000  0.000000 ICntrl=  100147 IOpCl=  0
         NMat0=    1 NMatS0=    1 NMatT0=    0 NMatD0=    1 NMtDS0=    0 NMtDT0=    0
         I1Cent=           0 NGrid=           0.
 Symmetry not used in FoFCou.
 Leave Link  703 at Tue Apr 19 12:41:08 2016, MaxMem=   33554432 cpu:     688.0
 (Enter c:\G09w03\l716.exe)
 Dipole        = 3.80012982D-01 6.40265476D-02 1.42781463D+00
 Polarizability= 0.00000000D+00 0.00000000D+00 0.00000000D+00
                 0.00000000D+00 0.00000000D+00 0.00000000D+00
 -------------------------------------------------------------------
 Center     Atomic                   Forces (Hartrees/Bohr)
 Number     Number              X              Y              Z
 -------------------------------------------------------------------
      1        7           0.007452301   -0.002839258    0.000519418
      2        1          -0.006322717    0.004530715    0.005596785
      3        6          -0.022991170   -0.029151579   -0.007322408
      4        1          -0.029121573    0.013647859    0.005595161
      5        6           0.001458236   -0.023565220   -0.001037993
      6        6          -0.020343698    0.032798837   -0.078097169
      7        1          -0.004118751    0.006365845    0.006686714
      8        1           0.027375853    0.024423505    0.028776088
      9        6           0.023635735   -0.015529633   -0.014254015
     10        8          -0.000997212   -0.003246989    0.012782008
     11        8           0.000736740    0.006596575    0.005907909
     12        1           0.001318055   -0.000296344   -0.000806869
     13        8           0.029451151   -0.015531958    0.035667704
     14        1          -0.003221523   -0.000342203   -0.000022838
     15        8          -0.004401915    0.002508357   -0.000046822
     16        1           0.000090486   -0.000368508    0.000056326
 -------------------------------------------------------------------
 Cartesian Forces:  Max     0.078097169 RMS     0.018682293
 Leave Link  716 at Tue Apr 19 12:41:08 2016, MaxMem=   33554432 cpu:       0.0
 (Enter c:\G09w03\l103.exe)

 GradGradGradGradGradGradGradGradGradGradGradGradGradGradGradGradGradGrad
 Berny optimization.
 Red2BG is reusing G-inverse.
 Internal  Forces:  Max     0.042953774 RMS     0.012736543
 Search for a saddle point.
 Step number   1 out of a maximum of   77
 All quantities printed in internal units (Hartrees-Bohrs-Radians)
 Swaping is turned off.
 Second derivative matrix not updated -- analytic derivatives used.
 ITU=  0
     Eigenvalues ---   -0.33705  -0.02312  -0.00311  -0.00140   0.00113
     Eigenvalues ---    0.00538   0.01793   0.01877   0.02899   0.03570
     Eigenvalues ---    0.03827   0.04151   0.05163   0.05394   0.06725
     Eigenvalues ---    0.07799   0.11064   0.12960   0.13529   0.14681
     Eigenvalues ---    0.15134   0.16088   0.18152   0.18888   0.19502
     Eigenvalues ---    0.21291   0.23005   0.24823   0.29848   0.31247
     Eigenvalues ---    0.33128   0.33728   0.36641   0.39915   0.40463
     Eigenvalues ---    0.42903   0.44957   0.46433   0.50663   0.50766
     Eigenvalues ---    0.83292   0.86488
 Eigenvectors required to have negative eigenvalues:
                          A18       A6        R6        A7        R5
   1                    0.36134   0.34340  -0.33915  -0.32397   0.28358
                          A17       D16       D20       D19       A12
   1                   -0.25489   0.21533  -0.19306  -0.19112   0.17343
 Eigenvalue     2 is  -2.31D-02 should be greater than     0.000000 Eigenvector:
                          R6        A7        D10       D12       D9
   1                    0.60950  -0.28023  -0.27996  -0.27554  -0.19867
                          D13       D14       D20       D11       D19
   1                   -0.19470  -0.19300  -0.17433  -0.17137  -0.16641
 Eigenvalue     3 is  -3.11D-03 should be greater than     0.000000 Eigenvector:
                          D13       D14       D1        D3        D6
   1                    0.37581   0.36604   0.32027   0.30042  -0.28720
                          D8        D7        R6        D15       D16
   1                   -0.26344  -0.25936   0.19250   0.16585   0.15607
 Eigenvalue     4 is  -1.40D-03 should be greater than     0.000000 Eigenvector:
                          D21       D23       D22       D17       D24
   1                    0.34672   0.32974   0.32035   0.31215   0.30337
                          D19       D18       D20       D3        A11
   1                    0.29986   0.28578   0.27349   0.19215   0.17510
 RFO step:  Lambda0=2.690298457D-03 Lambda=-6.12010872D-02.
 Linear search not attempted -- option 19 set.
 Maximum step size (   0.300) exceeded in Quadratic search.
    -- Step size scaled by   0.415
 Iteration  1 RMS(Cart)=  0.06823452 RMS(Int)=  0.00456354
 Iteration  2 RMS(Cart)=  0.00419194 RMS(Int)=  0.00258386
 Iteration  3 RMS(Cart)=  0.00001988 RMS(Int)=  0.00258382
 Iteration  4 RMS(Cart)=  0.00000019 RMS(Int)=  0.00258382
 Variable       Old X    -DE/DX   Delta X   Delta X   Delta X     New X
                                 (Linear)    (Quad)   (Total)
    R1        1.92120   0.00718   0.00000   0.00026   0.00026   1.92147
    R2        2.77741   0.00044   0.00000   0.00158   0.00158   2.77898
    R3        1.91857  -0.00076   0.00000  -0.00045  -0.00045   1.91812
    R4        2.88348   0.02845   0.00000   0.03765   0.03765   2.92113
    R5        2.89264  -0.02552   0.00000  -0.06696  -0.06696   2.82568
    R6        2.51425   0.00875   0.00000   0.11310   0.11310   2.62736
    R7        2.06602   0.00148   0.00000  -0.00022  -0.00022   2.06579
    R8        2.06677   0.03073   0.00000   0.00332   0.00332   2.07009
    R9        2.84906   0.01989   0.00000  -0.00330  -0.00330   2.84576
   R10        2.54401  -0.00356   0.00000  -0.00941  -0.00941   2.53460
   R11        2.28828   0.04295   0.00000   0.03091   0.03091   2.31918
   R12        2.28866  -0.00875   0.00000  -0.00116  -0.00116   2.28750
   R13        2.54469  -0.00344   0.00000   0.00268   0.00268   2.54737
   R14        1.83508   0.00168   0.00000  -0.00058  -0.00058   1.83450
   R15        1.83449   0.00032   0.00000  -0.00043  -0.00043   1.83406
    A1        1.93825   0.00999   0.00000   0.00772   0.00773   1.94598
    A2        1.87444  -0.00266   0.00000  -0.00283  -0.00282   1.87162
    A3        1.93331  -0.00316   0.00000  -0.00343  -0.00342   1.92989
    A4        1.91076  -0.01092   0.00000   0.00308   0.00030   1.91106
    A5        1.93257   0.01263   0.00000   0.03244   0.03033   1.96290
    A6        1.94316  -0.00556   0.00000   0.06683   0.06550   2.00866
    A7        1.17785  -0.01334   0.00000  -0.15209  -0.14614   1.03171
    A8        1.90285  -0.00365   0.00000  -0.00076   0.00260   1.90545
    A9        1.93795   0.02043   0.00000   0.04399   0.04075   1.97871
   A10        1.97795   0.00151   0.00000   0.00082   0.00190   1.97985
   A11        2.84111  -0.01780   0.00000  -0.10258  -0.11439   2.72672
   A12        1.07653   0.01210   0.00000   0.06512   0.07625   1.15278
   A13        1.53834   0.02216   0.00000   0.13394   0.12827   1.66660
   A14        1.86059  -0.00886   0.00000  -0.01476  -0.01249   1.84810
   A15        1.88864  -0.00073   0.00000   0.00612   0.00121   1.88986
   A16        1.89162  -0.00983   0.00000  -0.03722  -0.03624   1.85538
   A17        1.94841   0.02724   0.00000   0.04581   0.04579   1.99420
   A18        2.18660  -0.02663   0.00000  -0.04359  -0.04361   2.14299
   A19        2.14622  -0.00019   0.00000  -0.00156  -0.00157   2.14465
   A20        2.19041   0.00202   0.00000   0.00416   0.00416   2.19457
   A21        1.94964  -0.00521   0.00000  -0.00157  -0.00157   1.94807
   A22        2.14311   0.00320   0.00000  -0.00258  -0.00258   2.14053
   A23        1.89672   0.00328   0.00000   0.00559   0.00559   1.90231
   A24        1.89360  -0.00012   0.00000  -0.00092  -0.00092   1.89269
    D1       -1.16526   0.00209   0.00000  -0.09382  -0.09349  -1.25875
    D2        0.98367  -0.00392   0.00000   0.01430   0.01397   0.99764
    D3        3.03659   0.00099   0.00000  -0.09306  -0.09273   2.94386
    D4       -1.09768  -0.00502   0.00000   0.01506   0.01474  -1.08294
    D5        1.91013  -0.01636   0.00000  -0.06104  -0.06053   1.84960
    D6       -0.91653  -0.00003   0.00000   0.02678   0.02460  -0.89193
    D7        1.12828  -0.00112   0.00000   0.03403   0.03538   1.16366
    D8       -3.02102   0.00248   0.00000   0.01900   0.01996  -3.00106
    D9       -0.23252  -0.02107   0.00000  -0.14917  -0.14898  -0.38150
   D10       -3.05918  -0.00473   0.00000  -0.06135  -0.06385  -3.12303
   D11       -1.01436  -0.00583   0.00000  -0.05410  -0.05307  -1.06743
   D12        1.11952  -0.00223   0.00000  -0.06913  -0.06849   1.05103
   D13        1.50306  -0.00453   0.00000  -0.11705  -0.11810   1.38496
   D14       -1.57289  -0.01199   0.00000  -0.12850  -0.12942  -1.70231
   D15       -2.65006  -0.01350   0.00000  -0.04431  -0.04339  -2.69345
   D16        0.55718  -0.02095   0.00000  -0.05576  -0.05470   0.50247
   D17        0.04124  -0.00563   0.00000   0.00928   0.00982   0.05106
   D18       -3.10823  -0.00492   0.00000   0.01148   0.01202  -3.09621
   D19        1.16619  -0.00994   0.00000  -0.09450  -0.09169   1.07449
   D20       -1.98328  -0.00923   0.00000  -0.09230  -0.08949  -2.07277
   D21       -2.07127  -0.00147   0.00000   0.00542   0.00443  -2.06684
   D22        1.06245  -0.00076   0.00000   0.00761   0.00663   1.06908
   D23        2.20069   0.01444   0.00000   0.03894   0.03657   2.23727
   D24       -0.94877   0.01515   0.00000   0.04113   0.03877  -0.91000
   D25       -3.05498  -0.00118   0.00000   0.01633   0.01620  -3.03878
   D26        0.02274   0.00488   0.00000   0.02555   0.02568   0.04843
   D27       -3.13068  -0.00055   0.00000   0.00076   0.00077  -3.12991
   D28        0.00329   0.00014   0.00000   0.00293   0.00293   0.00621
         Item               Value     Threshold  Converged?
 Maximum Force            0.042954     0.000450     NO 
 RMS     Force            0.012737     0.000300     NO 
 Maximum Displacement     0.305750     0.001800     NO 
 RMS     Displacement     0.068594     0.001200     NO 
 Predicted change in Energy=-2.710442D-02
 Optimization stopped.
    -- Wrong number of Negative eigenvalues: Desired=  1 Actual=  4
    -- Flag reset to prevent archiving.
                           ----------------------------
                           ! Non-Optimized Parameters !
                           ! (Angstroms and Degrees)  !
 --------------------------                            --------------------------
 ! Name  Definition              Value          Derivative Info.                !
 --------------------------------------------------------------------------------
 ! R1    R(1,2)                  1.0168         -DE/DX =    0.0072              !
 ! R2    R(1,3)                  1.4706         -DE/DX =    0.0004              !
 ! R3    R(1,12)                 1.015          -DE/DX =   -0.0008              !
 ! R4    R(3,5)                  1.5458         -DE/DX =    0.0284              !
 ! R5    R(3,6)                  1.4953         -DE/DX =   -0.0255              !
 ! R6    R(4,5)                  1.3903         -DE/DX =    0.0088              !
 ! R7    R(5,7)                  1.0932         -DE/DX =    0.0015              !
 ! R8    R(5,8)                  1.0954         -DE/DX =    0.0307              !
 ! R9    R(5,9)                  1.5059         -DE/DX =    0.0199              !
 ! R10   R(6,10)                 1.3413         -DE/DX =   -0.0036              !
 ! R11   R(6,13)                 1.2273         -DE/DX =    0.043               !
 ! R12   R(9,11)                 1.2105         -DE/DX =   -0.0088              !
 ! R13   R(9,15)                 1.348          -DE/DX =   -0.0034              !
 ! R14   R(10,14)                0.9708         -DE/DX =    0.0017              !
 ! R15   R(15,16)                0.9705         -DE/DX =    0.0003              !
 ! A1    A(2,1,3)              111.4962         -DE/DX =    0.01                !
 ! A2    A(2,1,12)             107.2358         -DE/DX =   -0.0027              !
 ! A3    A(3,1,12)             110.5745         -DE/DX =   -0.0032              !
 ! A4    A(1,3,5)              109.4958         -DE/DX =   -0.0109              !
 ! A5    A(1,3,6)              112.4661         -DE/DX =    0.0126              !
 ! A6    A(5,3,6)              115.0875         -DE/DX =   -0.0056              !
 ! A7    A(3,5,4)               59.1124         -DE/DX =   -0.0133              !
 ! A8    A(3,5,7)              109.1743         -DE/DX =   -0.0037              !
 ! A9    A(3,5,8)              113.3716         -DE/DX =    0.0204              !
 ! A10   A(3,5,9)              113.4372         -DE/DX =    0.0015              !
 ! A11   A(4,5,7)              156.2298         -DE/DX =   -0.0178              !
 ! A12   A(4,5,8)               66.0494         -DE/DX =    0.0121              !
 ! A13   A(4,5,9)               95.4894         -DE/DX =    0.0222              !
 ! A14   A(7,5,8)              105.8885         -DE/DX =   -0.0089              !
 ! A15   A(7,5,9)              108.2808         -DE/DX =   -0.0007              !
 ! A16   A(8,5,9)              106.3053         -DE/DX =   -0.0098              !
 ! A17   A(3,6,10)             114.2593         -DE/DX =    0.0272              !
 ! A18   A(3,6,13)             122.7843         -DE/DX =   -0.0266              !
 ! A19   A(10,6,13)            122.8792         -DE/DX =   -0.0002              !
 ! A20   A(5,9,11)             125.7398         -DE/DX =    0.002               !
 ! A21   A(5,9,15)             111.6162         -DE/DX =   -0.0052              !
 ! A22   A(11,9,15)            122.6432         -DE/DX =    0.0032              !
 ! A23   A(6,10,14)            108.9943         -DE/DX =    0.0033              !
 ! A24   A(9,15,16)            108.4431         -DE/DX =   -0.0001              !
 ! D1    D(2,1,3,5)            -72.1212         -DE/DX =    0.0021              !
 ! D2    D(2,1,3,6)             57.1603         -DE/DX =   -0.0039              !
 ! D3    D(12,1,3,5)           168.6706         -DE/DX =    0.001               !
 ! D4    D(12,1,3,6)           -62.0479         -DE/DX =   -0.005               !
 ! D5    D(1,3,5,4)            105.974          -DE/DX =   -0.0164              !
 ! D6    D(1,3,5,7)            -51.1039         -DE/DX =    0.0                 !
 ! D7    D(1,3,5,8)             66.6729         -DE/DX =   -0.0011              !
 ! D8    D(1,3,5,9)           -171.9482         -DE/DX =    0.0025              !
 ! D9    D(6,3,5,4)            -21.8583         -DE/DX =   -0.0211              !
 ! D10   D(6,3,5,7)           -178.9362         -DE/DX =   -0.0047              !
 ! D11   D(6,3,5,8)            -61.1595         -DE/DX =   -0.0058              !
 ! D12   D(6,3,5,9)             60.2194         -DE/DX =   -0.0022              !
 ! D13   D(1,3,6,10)            79.3521         -DE/DX =   -0.0045              !
 ! D14   D(1,3,6,13)           -97.5352         -DE/DX =   -0.012               !
 ! D15   D(5,3,6,10)          -154.323          -DE/DX =   -0.0135              !
 ! D16   D(5,3,6,13)            28.7897         -DE/DX =   -0.021               !
 ! D17   D(3,5,9,11)             2.9254         -DE/DX =   -0.0056              !
 ! D18   D(3,5,9,15)          -177.3997         -DE/DX =   -0.0049              !
 ! D19   D(4,5,9,11)            61.564          -DE/DX =   -0.0099              !
 ! D20   D(4,5,9,15)          -118.7611         -DE/DX =   -0.0092              !
 ! D21   D(7,5,9,11)          -118.4212         -DE/DX =   -0.0015              !
 ! D22   D(7,5,9,15)            61.2537         -DE/DX =   -0.0008              !
 ! D23   D(8,5,9,11)           128.1859         -DE/DX =    0.0144              !
 ! D24   D(8,5,9,15)           -52.1392         -DE/DX =    0.0152              !
 ! D25   D(3,6,10,14)         -174.1094         -DE/DX =   -0.0012              !
 ! D26   D(13,6,10,14)           2.7746         -DE/DX =    0.0049              !
 ! D27   D(5,9,15,16)         -179.3306         -DE/DX =   -0.0005              !
 ! D28   D(11,9,15,16)           0.356          -DE/DX =    0.0001              !
 --------------------------------------------------------------------------------
 GradGradGradGradGradGradGradGradGradGradGradGradGradGradGradGradGradGrad

 Largest change from initial coordinates is atom    0       0.000 Angstoms.
 Leave Link  103 at Tue Apr 19 12:41:09 2016, MaxMem=   33554432 cpu:       1.0
 (Enter c:\G09w03\l202.exe)
                          Input orientation:                          
 ---------------------------------------------------------------------
 Center     Atomic      Atomic             Coordinates (Angstroms)
 Number     Number       Type             X           Y           Z
 ---------------------------------------------------------------------
      1          7           0       -1.558528    1.854657   -0.156925
      2          1           0       -1.733417    2.008137    0.832747
      3          6           0       -0.706126    0.675717   -0.365850
      4          1           0        0.010626    0.062669    0.920296
      5          6           0        0.686665    0.949185    0.194177
      6          6           0       -1.330893   -0.565263    0.276593
      7          1           0        1.062045    1.886156   -0.225888
      8          1           0        0.654101    1.083936    1.279043
      9          6           0        1.680888   -0.139773   -0.120017
     10          8           0       -2.202346   -1.168502   -0.553475
     11          8           0        1.455674   -1.127763   -0.783292
     12          1           0       -2.459329    1.732314   -0.608974
     13          8           0       -1.137163   -0.937511    1.412458
     14          1           0       -2.629618   -1.899474   -0.077954
     15          8           0        2.886324    0.114402    0.423695
     16          1           0        3.490092   -0.607403    0.185250
 ---------------------------------------------------------------------
                    Distance matrix (angstroms):
                    1          2          3          4          5
     1  N    0.000000
     2  H    1.016658   0.000000
     3  C    1.469741   2.065746   0.000000
     4  H    2.614167   2.614230   1.594909   0.000000
     5  C    2.446231   2.717710   1.525871   1.330485   0.000000
     6  C    2.468961   2.663404   1.530718   1.615031   2.524061
     7  H    2.621669   2.991688   2.147366   2.396733   1.093288
     8  H    2.748043   2.598763   2.173139   1.259265   1.093688
     9  C    3.804330   4.144726   2.534422   1.978134   1.507656
    10  O    3.116287   3.497505   2.382230   2.930021   3.659230
    11  O    4.286325   4.755602   2.846081   2.531305   2.420854
    12  H    1.015263   1.637555   2.061365   3.350680   3.340003
    13  O    3.230590   3.060788   2.439401   1.600000   2.893126
    14  H    3.904737   4.111201   3.227122   3.437643   4.380256
    15  O    4.808567   5.009547   3.720773   2.918721   2.363904
    16  H    5.627378   5.877529   4.422483   3.618837   3.206595
                    6          7          8          9         10
     6  C    0.000000
     7  H    3.462383   0.000000
     8  H    2.768567   1.753509   0.000000
     9  C    3.067436   2.120982   2.123470   0.000000
    10  O    1.346232   4.482689   4.073191   4.040504   0.000000
    11  O    3.033928   3.090202   3.128475   1.211107   3.665458
    12  H    2.708589   3.545490   3.698439   4.570031   2.912706
    13  O    1.210904   3.936215   2.704196   3.305492   2.247858
    14  H    1.895392   5.289731   4.639503   4.656048   0.971083
    15  O    4.274167   2.624703   2.579619   1.346590   5.338096
    16  H    4.822034   3.504609   3.478485   1.893432   5.767530
                   11         12         13         14         15
    11  O    0.000000
    12  H    4.851564   0.000000
    13  O    3.402987   3.600316   0.000000
    14  H    4.216948   3.674352   2.318215   0.000000
    15  O    2.246453   5.679793   4.274649   5.893468   0.000000
    16  H    2.312510   6.442102   4.798594   6.260158   0.970770
                   16
    16  H    0.000000
 Symmetry turned off by external request.
 Stoichiometry    C4H7NO4
 Framework group  C1[X(C4H7NO4)]
 Deg. of freedom    42
 Full point group                 C1      NOp   1
 Rotational constants (GHZ):      2.5727096      1.1173958      0.9422118
 Leave Link  202 at Tue Apr 19 12:41:09 2016, MaxMem=   33554432 cpu:       0.0
 (Enter c:\G09w03\l9999.exe)


 PENOTUS DIED A HUNDRED YEARS OLD WANTING BUT TWO...
 AND HE USED TO SAY BEFORE HE DIED, HAVING SPENT HIS
 WHOLE LIFE IN VAINLY SEARCHING AFTER THE PHILOSOPHER'S
 STONE, THAT IF HE HAD A MORTAL ENEMY HE DID NOT DARE
 TO ENCOUNTER OPENLY, HE WOULD ADVISE HIM ABOVE ALL
 THINGS TO GIVE HIMSELF UP TO THE STUDY AND PRACTICE
 OF ALCHEMY.  --  NICOLAS LEMERY, M.D.
 "A COURSE OF CHYMISTRY", WALTER KETTILBY, LONDON, 1686
 Error termination request processed by link 9999.
 Error termination via Lnk1e in c:\G09w03\l9999.exe at Tue Apr 19 12:41:09 2016.
 Job cpu time:  0 days  0 hours 40 minutes 44.0 seconds.
 File lengths (MBytes):  RWF=    121 Int=      0 D2E=      0 Chk=      8 Scr=      1
