 Entering Link 1 = c:\G09w02\l1.exe PID=      2404.
  
 Copyright (c) 1988,1990,1992,1993,1995,1998,2003,2009,2010,
            Gaussian, Inc.  All Rights Reserved.
  
 This is part of the Gaussian(R) 09 program.  It is based on
 the Gaussian(R) 03 system (copyright 2003, Gaussian, Inc.),
 the Gaussian(R) 98 system (copyright 1998, Gaussian, Inc.),
 the Gaussian(R) 94 system (copyright 1995, Gaussian, Inc.),
 the Gaussian 92(TM) system (copyright 1992, Gaussian, Inc.),
 the Gaussian 90(TM) system (copyright 1990, Gaussian, Inc.),
 the Gaussian 88(TM) system (copyright 1988, Gaussian, Inc.),
 the Gaussian 86(TM) system (copyright 1986, Carnegie Mellon
 University), and the Gaussian 82(TM) system (copyright 1983,
 Carnegie Mellon University). Gaussian is a federally registered
 trademark of Gaussian, Inc.
  
 This software contains proprietary and confidential information,
 including trade secrets, belonging to Gaussian, Inc.
  
 This software is provided under written license and may be
 used, copied, transmitted, or stored only in accord with that
 written license.
  
 The following legend is applicable only to US Government
 contracts under FAR:
  
                    RESTRICTED RIGHTS LEGEND
  
 Use, reproduction and disclosure by the US Government is
 subject to restrictions as set forth in subparagraphs (a)
 and (c) of the Commercial Computer Software - Restricted
 Rights clause in FAR 52.227-19.
  
 Gaussian, Inc.
 340 Quinnipiac St., Bldg. 40, Wallingford CT 06492
  
  
 ---------------------------------------------------------------
 Warning -- This program may not be used in any manner that
 competes with the business of Gaussian, Inc. or will provide
 assistance to any competitor of Gaussian, Inc.  The licensee
 of this program is prohibited from giving any competitor of
 Gaussian, Inc. access to this program.  By using this program,
 the user acknowledges that Gaussian, Inc. is engaged in the
 business of creating and licensing software in the field of
 computational chemistry and represents and warrants to the
 licensee that it is not a competitor of Gaussian, Inc. and that
 it will not use this program in any manner prohibited above.
 ---------------------------------------------------------------
  

 Cite this work as:
 Gaussian 09, Revision B.01,
 M. J. Frisch, G. W. Trucks, H. B. Schlegel, G. E. Scuseria, 
 M. A. Robb, J. R. Cheeseman, G. Scalmani, V. Barone, B. Mennucci, 
 G. A. Petersson, H. Nakatsuji, M. Caricato, X. Li, H. P. Hratchian, 
 A. F. Izmaylov, J. Bloino, G. Zheng, J. L. Sonnenberg, M. Hada, 
 M. Ehara, K. Toyota, R. Fukuda, J. Hasegawa, M. Ishida, T. Nakajima, 
 Y. Honda, O. Kitao, H. Nakai, T. Vreven, J. A. Montgomery, Jr., 
 J. E. Peralta, F. Ogliaro, M. Bearpark, J. J. Heyd, E. Brothers, 
 K. N. Kudin, V. N. Staroverov, T. Keith, R. Kobayashi, J. Normand, 
 K. Raghavachari, A. Rendell, J. C. Burant, S. S. Iyengar, J. Tomasi, 
 M. Cossi, N. Rega, J. M. Millam, M. Klene, J. E. Knox, J. B. Cross, 
 V. Bakken, C. Adamo, J. Jaramillo, R. Gomperts, R. E. Stratmann, 
 O. Yazyev, A. J. Austin, R. Cammi, C. Pomelli, J. W. Ochterski, 
 R. L. Martin, K. Morokuma, V. G. Zakrzewski, G. A. Voth, 
 P. Salvador, J. J. Dannenberg, S. Dapprich, A. D. Daniels, 
 O. Farkas, J. B. Foresman, J. V. Ortiz, J. Cioslowski, 
 and D. J. Fox, Gaussian, Inc., Wallingford CT, 2010.
 
 ******************************************
 Gaussian 09:  IA32W-G09RevB.01 12-Aug-2010
                19-Apr-2016 
 ******************************************
 %chk=Asp-S-opt-freq-cpcm-w-tsa2-6-311++gdp.chk
 ----------------------------------------------------------------------
 #p opt=(calcfc,ts) freq rb3lyp/6-311++g(d,p) scrf=(cpcm,solvent=water)
  nosymm
 ----------------------------------------------------------------------
 1/5=1,10=4,14=-1,18=20,26=3,38=1/1,3;
 2/9=110,12=2,15=1,17=6,18=5,40=1/2;
 3/5=4,6=6,7=1111,11=2,16=1,25=1,30=1,70=2101,71=2,72=1,74=-5,116=1/1,2,3;
 4//1;
 5/5=2,38=5,53=1/2;
 8/6=4,10=90,11=11/1;
 11/6=1,8=1,9=11,15=111,16=1,31=1/1,2,10;
 10/6=1,7=6,13=1,31=1/2;
 6/7=2,8=2,9=2,10=2,28=1/1;
 7/10=1,18=20,25=1,30=1/1,2,3,16;
 1/5=1,10=4,14=-1,18=20/3(2);
 2/9=110,15=1/2;
 99//99;
 2/9=110,15=1/2;
 3/5=4,6=6,7=1111,11=2,16=1,25=1,30=1,70=2105,71=1,72=1,74=-5,116=1/1,2,3;
 4/5=5,16=3/1;
 5/5=2,38=5,53=1/2;
 7/30=1/1,2,3,16;
 1/5=1,14=-1,18=20/3(-5);
 2/9=110,15=1/2;
 6/7=2,8=2,9=2,10=2,19=2,28=1/1;
 99/9=1/99;
 Leave Link    1 at Tue Apr 19 17:55:05 2016, MaxMem=          0 cpu:       0.0
 (Enter c:\G09w02\l101.exe)
 -------------------------------------
 Asp-S-opt-freq-cpcm-w-tsa2-6-311++gdp
 -------------------------------------
 Symbolic Z-matrix:
 Charge =  0 Multiplicity = 1
 N                    -1.50649   1.83035  -0.1659 
 H                    -1.68138   1.98383   0.82377 
 C                    -0.65409   0.65141  -0.37483 
 H                    -0.07225  -0.03846   0.90987 
 C                     0.7387    0.92487   0.1852 
 C                    -1.27886  -0.58957   0.26761 
 H                     1.11408   1.86184  -0.23487 
 H                     0.70614   1.05962   1.27006 
 C                     1.73293  -0.16408  -0.129 
 O                    -2.15031  -1.19281  -0.56245 
 O                     1.50771  -1.15207  -0.79227 
 H                    -2.40729   1.708    -0.61795 
 O                    -1.08513  -0.96182   1.40348 
 H                    -2.57758  -1.92379  -0.08693 
 O                     2.93836   0.09009   0.41472 
 H                     3.54213  -0.63171   0.17627 
 
 NAtoms=     16 NQM=     16 NQMF=      0 NMic=      0 NMicF=      0 NTot=     16.
                    Isotopes and Nuclear Properties:
 (Nuclear quadrupole moments (NQMom) in fm**2, nuclear magnetic moments (NMagM)
  in nuclear magnetons)

  Atom         1           2           3           4           5           6           7           8           9          10
 IAtWgt=          14           1          12           1          12          12           1           1          12          16
 AtmWgt=  14.0030740   1.0078250  12.0000000   1.0078250  12.0000000  12.0000000   1.0078250   1.0078250  12.0000000  15.9949146
 NucSpn=           2           1           0           1           0           0           1           1           0           0
 AtZEff=   0.0000000   0.0000000   0.0000000   0.0000000   0.0000000   0.0000000   0.0000000   0.0000000   0.0000000   0.0000000
 NQMom=    2.0440000   0.0000000   0.0000000   0.0000000   0.0000000   0.0000000   0.0000000   0.0000000   0.0000000   0.0000000
 NMagM=    0.4037610   2.7928460   0.0000000   2.7928460   0.0000000   0.0000000   2.7928460   2.7928460   0.0000000   0.0000000

  Atom        11          12          13          14          15          16
 IAtWgt=          16           1          16           1          16           1
 AtmWgt=  15.9949146   1.0078250  15.9949146   1.0078250  15.9949146   1.0078250
 NucSpn=           0           1           0           1           0           1
 AtZEff=   0.0000000   0.0000000   0.0000000   0.0000000   0.0000000   0.0000000
 NQMom=    0.0000000   0.0000000   0.0000000   0.0000000   0.0000000   0.0000000
 NMagM=    0.0000000   2.7928460   0.0000000   2.7928460   0.0000000   2.7928460
 Leave Link  101 at Tue Apr 19 17:55:06 2016, MaxMem=   33554432 cpu:       0.0
 (Enter c:\G09w02\l103.exe)

 GradGradGradGradGradGradGradGradGradGradGradGradGradGradGradGradGradGrad
 Berny optimization.
 Initialization pass.
                           ----------------------------
                           !    Initial Parameters    !
                           ! (Angstroms and Degrees)  !
 --------------------------                            --------------------------
 ! Name  Definition              Value          Derivative Info.                !
 --------------------------------------------------------------------------------
 ! R1    R(1,2)                  1.0167         calculate D2E/DX2 analytically  !
 ! R2    R(1,3)                  1.4697         calculate D2E/DX2 analytically  !
 ! R3    R(1,12)                 1.0153         calculate D2E/DX2 analytically  !
 ! R4    R(3,4)                  1.57           calculate D2E/DX2 analytically  !
 ! R5    R(3,5)                  1.5259         calculate D2E/DX2 analytically  !
 ! R6    R(3,6)                  1.5307         calculate D2E/DX2 analytically  !
 ! R7    R(4,5)                  1.4529         calculate D2E/DX2 analytically  !
 ! R8    R(4,6)                  1.4738         calculate D2E/DX2 analytically  !
 ! R9    R(4,13)                 1.4568         calculate D2E/DX2 analytically  !
 ! R10   R(5,7)                  1.0933         calculate D2E/DX2 analytically  !
 ! R11   R(5,8)                  1.0937         calculate D2E/DX2 analytically  !
 ! R12   R(5,9)                  1.5077         calculate D2E/DX2 analytically  !
 ! R13   R(6,10)                 1.3462         calculate D2E/DX2 analytically  !
 ! R14   R(6,13)                 1.2109         calculate D2E/DX2 analytically  !
 ! R15   R(9,11)                 1.2111         calculate D2E/DX2 analytically  !
 ! R16   R(9,15)                 1.3466         calculate D2E/DX2 analytically  !
 ! R17   R(10,14)                0.9711         calculate D2E/DX2 analytically  !
 ! R18   R(15,16)                0.9708         calculate D2E/DX2 analytically  !
 ! A1    A(2,1,3)              111.0536         calculate D2E/DX2 analytically  !
 ! A2    A(2,1,12)             107.3974         calculate D2E/DX2 analytically  !
 ! A3    A(3,1,12)             110.7706         calculate D2E/DX2 analytically  !
 ! A4    A(1,3,4)              116.8128         calculate D2E/DX2 analytically  !
 ! A5    A(1,3,5)              109.4785         calculate D2E/DX2 analytically  !
 ! A6    A(1,3,6)              110.7281         calculate D2E/DX2 analytically  !
 ! A7    A(5,3,6)              111.3346         calculate D2E/DX2 analytically  !
 ! A8    A(3,4,13)             107.344          calculate D2E/DX2 analytically  !
 ! A9    A(5,4,6)              119.1802         calculate D2E/DX2 analytically  !
 ! A10   A(5,4,13)             167.7906         calculate D2E/DX2 analytically  !
 ! A11   A(3,5,7)              109.0251         calculate D2E/DX2 analytically  !
 ! A12   A(3,5,8)              111.0366         calculate D2E/DX2 analytically  !
 ! A13   A(3,5,9)              113.3283         calculate D2E/DX2 analytically  !
 ! A14   A(4,5,7)              162.0917         calculate D2E/DX2 analytically  !
 ! A15   A(4,5,8)               64.5519         calculate D2E/DX2 analytically  !
 ! A16   A(4,5,9)               89.6059         calculate D2E/DX2 analytically  !
 ! A17   A(7,5,8)              106.6039         calculate D2E/DX2 analytically  !
 ! A18   A(7,5,9)              108.2112         calculate D2E/DX2 analytically  !
 ! A19   A(8,5,9)              108.3816         calculate D2E/DX2 analytically  !
 ! A20   A(3,6,10)             111.6358         calculate D2E/DX2 analytically  !
 ! A21   A(3,6,13)             125.2831         calculate D2E/DX2 analytically  !
 ! A22   A(4,6,10)             165.0657         calculate D2E/DX2 analytically  !
 ! A23   A(10,6,13)            122.9694         calculate D2E/DX2 analytically  !
 ! A24   A(5,9,11)             125.5015         calculate D2E/DX2 analytically  !
 ! A25   A(5,9,15)             111.706          calculate D2E/DX2 analytically  !
 ! A26   A(11,9,15)            122.7909         calculate D2E/DX2 analytically  !
 ! A27   A(6,10,14)            108.6743         calculate D2E/DX2 analytically  !
 ! A28   A(9,15,16)            108.4956         calculate D2E/DX2 analytically  !
 ! D1    D(2,1,3,4)             -5.8825         calculate D2E/DX2 analytically  !
 ! D2    D(2,1,3,5)            -66.7644         calculate D2E/DX2 analytically  !
 ! D3    D(2,1,3,6)             56.3599         calculate D2E/DX2 analytically  !
 ! D4    D(12,1,3,4)          -125.1346         calculate D2E/DX2 analytically  !
 ! D5    D(12,1,3,5)           173.9835         calculate D2E/DX2 analytically  !
 ! D6    D(12,1,3,6)           -62.8922         calculate D2E/DX2 analytically  !
 ! D7    D(1,3,4,13)            84.7841         calculate D2E/DX2 analytically  !
 ! D8    D(1,3,5,7)            -52.5136         calculate D2E/DX2 analytically  !
 ! D9    D(1,3,5,8)             64.6457         calculate D2E/DX2 analytically  !
 ! D10   D(1,3,5,9)           -173.0917         calculate D2E/DX2 analytically  !
 ! D11   D(6,3,5,7)           -175.278          calculate D2E/DX2 analytically  !
 ! D12   D(6,3,5,8)            -58.1188         calculate D2E/DX2 analytically  !
 ! D13   D(6,3,5,9)             64.1438         calculate D2E/DX2 analytically  !
 ! D14   D(1,3,6,10)            86.119          calculate D2E/DX2 analytically  !
 ! D15   D(1,3,6,13)           -90.1198         calculate D2E/DX2 analytically  !
 ! D16   D(5,3,6,10)          -151.8372         calculate D2E/DX2 analytically  !
 ! D17   D(5,3,6,13)            31.924          calculate D2E/DX2 analytically  !
 ! D18   D(6,4,5,7)             83.6273         calculate D2E/DX2 analytically  !
 ! D19   D(6,4,5,8)            147.3046         calculate D2E/DX2 analytically  !
 ! D20   D(6,4,5,9)           -102.0545         calculate D2E/DX2 analytically  !
 ! D21   D(13,4,5,7)            74.0311         calculate D2E/DX2 analytically  !
 ! D22   D(13,4,5,8)           137.7084         calculate D2E/DX2 analytically  !
 ! D23   D(13,4,5,9)          -111.6507         calculate D2E/DX2 analytically  !
 ! D24   D(5,4,6,10)            57.7093         calculate D2E/DX2 analytically  !
 ! D25   D(3,5,9,11)             2.3629         calculate D2E/DX2 analytically  !
 ! D26   D(3,5,9,15)          -178.0883         calculate D2E/DX2 analytically  !
 ! D27   D(4,5,9,11)            63.1614         calculate D2E/DX2 analytically  !
 ! D28   D(4,5,9,15)          -117.2897         calculate D2E/DX2 analytically  !
 ! D29   D(7,5,9,11)          -118.6751         calculate D2E/DX2 analytically  !
 ! D30   D(7,5,9,15)            60.8737         calculate D2E/DX2 analytically  !
 ! D31   D(8,5,9,11)           126.0905         calculate D2E/DX2 analytically  !
 ! D32   D(8,5,9,15)           -54.3607         calculate D2E/DX2 analytically  !
 ! D33   D(3,6,10,14)         -175.0375         calculate D2E/DX2 analytically  !
 ! D34   D(4,6,10,14)          119.1536         calculate D2E/DX2 analytically  !
 ! D35   D(13,6,10,14)           1.303          calculate D2E/DX2 analytically  !
 ! D36   D(5,9,15,16)         -179.3746         calculate D2E/DX2 analytically  !
 ! D37   D(11,9,15,16)           0.1884         calculate D2E/DX2 analytically  !
 --------------------------------------------------------------------------------
 Trust Radius=3.00D-01 FncErr=1.00D-07 GrdErr=1.00D-06
 Number of steps in this run=     93 maximum allowed number of steps=    100.
 Search for a saddle point of order  1.
 GradGradGradGradGradGradGradGradGradGradGradGradGradGradGradGradGradGrad

 Leave Link  103 at Tue Apr 19 17:55:06 2016, MaxMem=   33554432 cpu:       0.0
 (Enter c:\G09w02\l202.exe)
                          Input orientation:                          
 ---------------------------------------------------------------------
 Center     Atomic      Atomic             Coordinates (Angstroms)
 Number     Number       Type             X           Y           Z
 ---------------------------------------------------------------------
      1          7           0       -1.506491    1.830346   -0.165904
      2          1           0       -1.681380    1.983826    0.823768
      3          6           0       -0.654089    0.651406   -0.374829
      4          1           0       -0.072254   -0.038456    0.909873
      5          6           0        0.738703    0.924874    0.185198
      6          6           0       -1.278856   -0.589574    0.267614
      7          1           0        1.114083    1.861845   -0.234867
      8          1           0        0.706139    1.059625    1.270064
      9          6           0        1.732926   -0.164084   -0.128996
     10          8           0       -2.150309   -1.192813   -0.562454
     11          8           0        1.507712   -1.152074   -0.792271
     12          1           0       -2.407292    1.708003   -0.617953
     13          8           0       -1.085126   -0.961822    1.403479
     14          1           0       -2.577581   -1.923785   -0.086933
     15          8           0        2.938362    0.090091    0.414716
     16          1           0        3.542130   -0.631714    0.176271
 ---------------------------------------------------------------------
                    Distance matrix (angstroms):
                    1          2          3          4          5
     1  N    0.000000
     2  H    1.016658   0.000000
     3  C    1.469741   2.065746   0.000000
     4  H    2.589740   2.585793   1.570000   0.000000
     5  C    2.446231   2.717710   1.525871   1.452862   0.000000
     6  C    2.468961   2.663404   1.530718   1.473810   2.524061
     7  H    2.621669   2.991688   2.147366   2.515744   1.093288
     8  H    2.748043   2.598763   2.173139   1.393346   1.093688
     9  C    3.804330   4.144726   2.534422   2.086553   1.507656
    10  O    3.116287   3.497505   2.382230   2.796176   3.659230
    11  O    4.286325   4.755602   2.846081   2.575603   2.420854
    12  H    1.015263   1.637555   2.061365   3.291925   3.340003
    13  O    3.230590   3.060788   2.439401   1.456764   2.893126
    14  H    3.904737   4.111201   3.227122   3.290099   4.380256
    15  O    4.808567   5.009547   3.720773   3.053770   2.363904
    16  H    5.627378   5.877529   4.422483   3.735491   3.206595
                    6          7          8          9         10
     6  C    0.000000
     7  H    3.462383   0.000000
     8  H    2.768567   1.753509   0.000000
     9  C    3.067436   2.120982   2.123470   0.000000
    10  O    1.346232   4.482689   4.073191   4.040504   0.000000
    11  O    3.033928   3.090202   3.128475   1.211107   3.665458
    12  H    2.708589   3.545490   3.698439   4.570031   2.912706
    13  O    1.210904   3.936215   2.704196   3.305492   2.247858
    14  H    1.895392   5.289731   4.639503   4.656048   0.971083
    15  O    4.274167   2.624703   2.579619   1.346590   5.338096
    16  H    4.822034   3.504609   3.478485   1.893432   5.767530
                   11         12         13         14         15
    11  O    0.000000
    12  H    4.851564   0.000000
    13  O    3.402987   3.600316   0.000000
    14  H    4.216948   3.674352   2.318215   0.000000
    15  O    2.246453   5.679793   4.274649   5.893468   0.000000
    16  H    2.312510   6.442102   4.798594   6.260158   0.970770
                   16
    16  H    0.000000
 Symmetry turned off by external request.
 Stoichiometry    C4H7NO4
 Framework group  C1[X(C4H7NO4)]
 Deg. of freedom    42
 Full point group                 C1      NOp   1
 Rotational constants (GHZ):      2.5729377      1.1173830      0.9422184
 Leave Link  202 at Tue Apr 19 17:55:06 2016, MaxMem=   33554432 cpu:       0.0
 (Enter c:\G09w02\l301.exe)
 Standard basis: 6-311++G(d,p) (5D, 7F)
 Ernie: Thresh=  0.10000D-02 Tol=  0.10000D-05 Strict=F.
 Integral buffers will be    262144 words long.
 Raffenetti 2 integral format.
 Two-electron integral symmetry is turned off.
   247 basis functions,   387 primitive gaussians,   256 cartesian basis functions
    35 alpha electrons       35 beta electrons
       nuclear repulsion energy       472.8570362778 Hartrees.
 IExCor=  402 DFT=T Ex+Corr=B3LYP ExCW=0 ScaHFX=  0.200000
 ScaDFX=  0.800000  0.720000  1.000000  0.810000 ScalE2=  1.000000  1.000000
 IRadAn=      0 IRanWt=     -1 IRanGd=            0 ICorTp=0
 NAtoms=   16 NActive=   16 NUniq=   16 SFac= 1.00D+00 NAtFMM=   50 NAOKFM=F Big=F
 ------------------------------------------------------------------------------
 Polarizable Continuum Model (PCM)
 =================================
 Model                : C-PCM.
 Atomic radii         : UFF (Universal Force Field).
 Polarization charges : Total charges.
 Charge compensation  : None.
 Solution method      : Matrix inversion.
 Cavity type          : Scaled VdW (van der Waals Surface) (Alpha=1.100).
 Cavity algorithm     : GePol (No added spheres)
                        Default sphere list used, NSphG=   16.
                        Lebedev-Laikov grids with approx.  5.0 points / Ang**2.
                        Smoothing algorithm: Karplus/York (Gamma=1.0000).
                        Polarization charges: spherical gaussians, with
                                              point-specific exponents (IZeta= 3).
                        Self-potential: point-specific (ISelfS= 7).
                        Self-field    : sphere-specific E.n sum rule (ISelfD= 2).
 1st derivatives      : Analytical E(r).r(x)/FMM algorithm (CHGder, D1EAlg=3).
                        Cavity 1st derivative terms included.
 2nd derivatives      : Analytical E(r).r(xy)/FMM algorithm (CHGder, D2EAlg=3).
                        Cavity 2nd derivative terms included.
 Solvent              : Water, Eps=  78.355300 Eps(inf)=   1.777849
 ------------------------------------------------------------------------------
 Spheres list:
 ISph  on   Nord    Re0     Alpha      Xe            Ye            Ze
    1   N      1    1.830   1.100     -1.506491      1.830346     -0.165904
    2   H      2    1.443   1.100     -1.681380      1.983826      0.823768
    3   C      3    1.926   1.100     -0.654089      0.651406     -0.374829
    4   H      4    1.443   1.100     -0.072254     -0.038456      0.909873
    5   C      5    1.926   1.100      0.738703      0.924874      0.185198
    6   C      6    1.926   1.100     -1.278856     -0.589574      0.267614
    7   H      7    1.443   1.100      1.114083      1.861845     -0.234867
    8   H      8    1.443   1.100      0.706139      1.059625      1.270064
    9   C      9    1.926   1.100      1.732926     -0.164084     -0.128996
   10   O     10    1.750   1.100     -2.150309     -1.192813     -0.562454
   11   O     11    1.750   1.100      1.507712     -1.152074     -0.792271
   12   H     12    1.443   1.100     -2.407292      1.708003     -0.617953
   13   O     13    1.750   1.100     -1.085126     -0.961822      1.403479
   14   H     14    1.443   1.100     -2.577581     -1.923785     -0.086933
   15   O     15    1.750   1.100      2.938362      0.090091      0.414716
   16   H     16    1.443   1.100      3.542130     -0.631714      0.176271
 ------------------------------------------------------------------------------
 GePol: Number of generator spheres                  =      16
 GePol: Total number of spheres                      =      16
 GePol: Number of exposed spheres                    =      16 (100.00%)
 GePol: Number of points                             =    1369
 GePol: Average weight of points                     =       0.13
 GePol: Minimum weight of points                     =   0.18D-08
 GePol: Maximum weight of points                     =    0.20577
 GePol: Number of points with low weight             =      80
 GePol: Fraction of low-weight points (<1% of avg)   =       5.84%
 GePol: Cavity surface area                          =    184.812 Ang**2
 GePol: Cavity volume                                =    177.286 Ang**3
 Leave Link  301 at Tue Apr 19 17:55:06 2016, MaxMem=   33554432 cpu:       0.0
 (Enter c:\G09w02\l302.exe)
 NPDir=0 NMtPBC=     1 NCelOv=     1 NCel=       1 NClECP=     1 NCelD=      1
         NCelK=      1 NCelE2=     1 NClLst=     1 CellRange=     0.0.
 One-electron integrals computed using PRISM.
 NBasis=   247 RedAO= T  NBF=   247
 NBsUse=   247 1.00D-06 NBFU=   247
 Precomputing XC quadrature grid using
 IXCGrd= 2 IRadAn=           0 IRanWt=          -1 IRanGd=           0 AccXCQ= 0.00D+00.
 NRdTot=    1040 NPtTot=      132656 NUsed=      137508 NTot=      137524
 NSgBfM=   256   256   256   256   256 NAtAll=    16    16.
 Leave Link  302 at Tue Apr 19 17:55:07 2016, MaxMem=   33554432 cpu:       1.0
 (Enter c:\G09w02\l303.exe)
 DipDrv:  MaxL=1.
 Leave Link  303 at Tue Apr 19 17:55:07 2016, MaxMem=   33554432 cpu:       0.0
 (Enter c:\G09w02\l401.exe)
 Harris functional with IExCor=  402 diagonalized for initial guess.
 ExpMin= 3.60D-02 ExpMax= 8.59D+03 ExpMxC= 1.30D+03 IAcc=3 IRadAn=         0 AccDes= 0.00D+00
 HarFok:  IExCor=  402 AccDes= 0.00D+00 IRadAn=         0 IDoV= 1
 ScaDFX=  1.000000  1.000000  1.000000  1.000000
 FoFCou: FMM=F IPFlag=           0 FMFlag=      100000 FMFlg1=           0
         NFxFlg=           0 DoJE=T BraDBF=F KetDBF=T FulRan=T
         Omega=  0.000000  0.000000  1.000000  0.000000  0.000000 ICntrl=     500 IOpCl=  0
         NMat0=    1 NMatS0=    1 NMatT0=    0 NMatD0=    1 NMtDS0=    0 NMtDT0=    0
         I1Cent=           4 NGrid=           0.
 Symmetry not used in FoFCou.
 Harris En= -512.283070058879    
 Leave Link  401 at Tue Apr 19 17:55:16 2016, MaxMem=   33554432 cpu:       9.0
 (Enter c:\G09w02\l502.exe)
 Closed shell SCF:
 Requested convergence on RMS density matrix=1.00D-08 within 128 cycles.
 Requested convergence on MAX density matrix=1.00D-06.
 Requested convergence on             energy=1.00D-06.
 No special actions if energy rises.
 Using DIIS extrapolation, IDIIS=  1040.
 Two-electron integral symmetry not used.
       137368 words used for storage of precomputed grid.
 IEnd=      355072 IEndB=      355072 NGot=    33554432 MDV=    33281793
 LenX=    33281793 LenY=    33215816
 Fock matrices will be formed incrementally for  20 cycles.

 Cycle   1  Pass 1  IDiag  1:
 FoFCou: FMM=F IPFlag=           0 FMFlag=      100000 FMFlg1=           0
         NFxFlg=           0 DoJE=F BraDBF=F KetDBF=F FulRan=T
         Omega=  0.000000  0.000000  1.000000  0.000000  0.000000 ICntrl=       0 IOpCl=  0
         NMat0=    1 NMatS0=    1 NMatT0=    0 NMatD0=    1 NMtDS0=    0 NMtDT0=    0
         I1Cent=           0 NGrid=           0.
 Symmetry not used in FoFCou.
 E= -512.001285432793    
 DIIS: error= 2.74D-02 at cycle   1 NSaved=   1.
 NSaved= 1 IEnMin= 1 EnMin= -512.001285432793     IErMin= 1 ErrMin= 2.74D-02
 ErrMax= 2.74D-02 EMaxC= 1.00D-01 BMatC= 3.82D-01 BMatP= 3.82D-01
 IDIUse=3 WtCom= 7.26D-01 WtEn= 2.74D-01
 Coeff-Com:  0.100D+01
 Coeff-En:   0.100D+01
 Coeff:      0.100D+01
 Gap=     0.067 Goal=   None    Shift=    0.000
 GapD=    0.067 DampG=0.500 DampE=0.500 DampFc=0.2500 IDamp=-1.
 Damping current iteration by 2.50D-01
 RMSDP=9.91D-03 MaxDP=3.86D-01              OVMax= 2.78D-01

 Cycle   2  Pass 1  IDiag  1:
 RMSU=  1.75D-03    CP:  1.01D+00
 E= -512.101986351126     Delta-E=       -0.100700918333 Rises=F Damp=T
 DIIS: error= 1.09D-02 at cycle   2 NSaved=   2.
 NSaved= 2 IEnMin= 2 EnMin= -512.101986351126     IErMin= 2 ErrMin= 1.09D-02
 ErrMax= 1.09D-02 EMaxC= 1.00D-01 BMatC= 6.47D-02 BMatP= 3.82D-01
 IDIUse=3 WtCom= 8.91D-01 WtEn= 1.09D-01
 Coeff-Com: -0.567D+00 0.157D+01
 Coeff-En:   0.000D+00 0.100D+01
 Coeff:     -0.505D+00 0.151D+01
 Gap=     0.146 Goal=   None    Shift=    0.000
 RMSDP=3.94D-03 MaxDP=4.20D-01 DE=-1.01D-01 OVMax= 1.80D-01

 Cycle   3  Pass 1  IDiag  1:
 RMSU=  2.10D-03    CP:  8.89D-01  1.26D+00
 E= -512.261118784969     Delta-E=       -0.159132433843 Rises=F Damp=F
 DIIS: error= 6.74D-03 at cycle   3 NSaved=   3.
 NSaved= 3 IEnMin= 3 EnMin= -512.261118784969     IErMin= 3 ErrMin= 6.74D-03
 ErrMax= 6.74D-03 EMaxC= 1.00D-01 BMatC= 1.74D-02 BMatP= 6.47D-02
 IDIUse=3 WtCom= 9.33D-01 WtEn= 6.74D-02
 Coeff-Com: -0.313D+00 0.814D+00 0.499D+00
 Coeff-En:   0.000D+00 0.000D+00 0.100D+01
 Coeff:     -0.292D+00 0.759D+00 0.533D+00
 Gap=     0.142 Goal=   None    Shift=    0.000
 RMSDP=9.68D-04 MaxDP=5.44D-02 DE=-1.59D-01 OVMax= 5.66D-02

 Cycle   4  Pass 1  IDiag  1:
 RMSU=  6.60D-04    CP:  8.77D-01  1.24D+00  1.02D+00
 E= -512.271499123006     Delta-E=       -0.010380338037 Rises=F Damp=F
 DIIS: error= 3.68D-03 at cycle   4 NSaved=   4.
 NSaved= 4 IEnMin= 4 EnMin= -512.271499123006     IErMin= 4 ErrMin= 3.68D-03
 ErrMax= 3.68D-03 EMaxC= 1.00D-01 BMatC= 4.84D-03 BMatP= 1.74D-02
 IDIUse=3 WtCom= 9.63D-01 WtEn= 3.68D-02
 Coeff-Com: -0.947D-01 0.221D+00 0.345D+00 0.529D+00
 Coeff-En:   0.000D+00 0.000D+00 0.219D+00 0.781D+00
 Coeff:     -0.913D-01 0.213D+00 0.340D+00 0.539D+00
 Gap=     0.141 Goal=   None    Shift=    0.000
 RMSDP=4.93D-04 MaxDP=4.10D-02 DE=-1.04D-02 OVMax= 2.39D-02

 Cycle   5  Pass 1  IDiag  1:
 RMSU=  2.25D-04    CP:  8.66D-01  1.23D+00  1.10D+00  8.22D-01
 E= -512.274546353988     Delta-E=       -0.003047230983 Rises=F Damp=F
 DIIS: error= 8.30D-04 at cycle   5 NSaved=   5.
 NSaved= 5 IEnMin= 5 EnMin= -512.274546353988     IErMin= 5 ErrMin= 8.30D-04
 ErrMax= 8.30D-04 EMaxC= 1.00D-01 BMatC= 4.14D-04 BMatP= 4.84D-03
 IDIUse=3 WtCom= 9.92D-01 WtEn= 8.30D-03
 Coeff-Com: -0.213D-01 0.410D-01 0.144D+00 0.316D+00 0.520D+00
 Coeff-En:   0.000D+00 0.000D+00 0.000D+00 0.339D-01 0.966D+00
 Coeff:     -0.212D-01 0.406D-01 0.143D+00 0.314D+00 0.524D+00
 Gap=     0.142 Goal=   None    Shift=    0.000
 RMSDP=1.75D-04 MaxDP=2.15D-02 DE=-3.05D-03 OVMax= 5.29D-03

 Cycle   6  Pass 1  IDiag  1:
 RMSU=  8.78D-05    CP:  8.62D-01  1.22D+00  1.12D+00  8.38D-01  8.27D-01
 E= -512.274871246647     Delta-E=       -0.000324892659 Rises=F Damp=F
 DIIS: error= 1.52D-04 at cycle   6 NSaved=   6.
 NSaved= 6 IEnMin= 6 EnMin= -512.274871246647     IErMin= 6 ErrMin= 1.52D-04
 ErrMax= 1.52D-04 EMaxC= 1.00D-01 BMatC= 1.49D-05 BMatP= 4.14D-04
 IDIUse=3 WtCom= 9.98D-01 WtEn= 1.52D-03
 Coeff-Com: -0.340D-02 0.427D-02 0.411D-01 0.102D+00 0.242D+00 0.614D+00
 Coeff-En:   0.000D+00 0.000D+00 0.000D+00 0.000D+00 0.000D+00 0.100D+01
 Coeff:     -0.340D-02 0.426D-02 0.410D-01 0.102D+00 0.241D+00 0.615D+00
 Gap=     0.142 Goal=   None    Shift=    0.000
 RMSDP=4.86D-05 MaxDP=4.55D-03 DE=-3.25D-04 OVMax= 1.02D-03

 Cycle   7  Pass 1  IDiag  1:
 RMSU=  2.49D-05    CP:  8.62D-01  1.22D+00  1.12D+00  8.40D-01  8.95D-01
                    CP:  8.32D-01
 E= -512.274880689162     Delta-E=       -0.000009442515 Rises=F Damp=F
 DIIS: error= 8.47D-05 at cycle   7 NSaved=   7.
 NSaved= 7 IEnMin= 7 EnMin= -512.274880689162     IErMin= 7 ErrMin= 8.47D-05
 ErrMax= 8.47D-05 EMaxC= 1.00D-01 BMatC= 3.20D-06 BMatP= 1.49D-05
 IDIUse=1 WtCom= 1.00D+00 WtEn= 0.00D+00
 Coeff-Com: -0.100D-03-0.102D-02 0.127D-01 0.345D-01 0.107D+00 0.381D+00
 Coeff-Com:  0.466D+00
 Coeff:     -0.100D-03-0.102D-02 0.127D-01 0.345D-01 0.107D+00 0.381D+00
 Coeff:      0.466D+00
 Gap=     0.142 Goal=   None    Shift=    0.000
 RMSDP=1.27D-05 MaxDP=1.14D-03 DE=-9.44D-06 OVMax= 5.04D-04

 Cycle   8  Pass 1  IDiag  1:
 RMSU=  6.08D-06    CP:  8.62D-01  1.22D+00  1.13D+00  8.43D-01  9.02D-01
                    CP:  8.48D-01  9.42D-01
 E= -512.274882895919     Delta-E=       -0.000002206757 Rises=F Damp=F
 DIIS: error= 2.77D-05 at cycle   8 NSaved=   8.
 NSaved= 8 IEnMin= 8 EnMin= -512.274882895919     IErMin= 8 ErrMin= 2.77D-05
 ErrMax= 2.77D-05 EMaxC= 1.00D-01 BMatC= 2.42D-07 BMatP= 3.20D-06
 IDIUse=1 WtCom= 1.00D+00 WtEn= 0.00D+00
 Coeff-Com:  0.221D-03-0.729D-03 0.278D-02 0.797D-02 0.333D-01 0.138D+00
 Coeff-Com:  0.257D+00 0.562D+00
 Coeff:      0.221D-03-0.729D-03 0.278D-02 0.797D-02 0.333D-01 0.138D+00
 Coeff:      0.257D+00 0.562D+00
 Gap=     0.142 Goal=   None    Shift=    0.000
 RMSDP=7.87D-06 MaxDP=7.46D-04 DE=-2.21D-06 OVMax= 1.92D-04

 Cycle   9  Pass 1  IDiag  1:
 RMSU=  3.07D-06    CP:  8.62D-01  1.22D+00  1.13D+00  8.44D-01  9.07D-01
                    CP:  8.64D-01  9.54D-01  9.21D-01
 E= -512.274883059201     Delta-E=       -0.000000163282 Rises=F Damp=F
 DIIS: error= 9.29D-06 at cycle   9 NSaved=   9.
 NSaved= 9 IEnMin= 9 EnMin= -512.274883059201     IErMin= 9 ErrMin= 9.29D-06
 ErrMax= 9.29D-06 EMaxC= 1.00D-01 BMatC= 5.25D-08 BMatP= 2.42D-07
 IDIUse=1 WtCom= 1.00D+00 WtEn= 0.00D+00
 Coeff-Com:  0.181D-03-0.347D-03-0.392D-03-0.730D-03 0.311D-02 0.175D-01
 Coeff-Com:  0.726D-01 0.354D+00 0.554D+00
 Coeff:      0.181D-03-0.347D-03-0.392D-03-0.730D-03 0.311D-02 0.175D-01
 Coeff:      0.726D-01 0.354D+00 0.554D+00
 Gap=     0.142 Goal=   None    Shift=    0.000
 RMSDP=3.77D-06 MaxDP=3.51D-04 DE=-1.63D-07 OVMax= 5.93D-05

 Cycle  10  Pass 1  IDiag  1:
 RMSU=  8.24D-07    CP:  8.62D-01  1.22D+00  1.13D+00  8.45D-01  9.11D-01
                    CP:  8.73D-01  9.75D-01  1.01D+00  1.05D+00
 E= -512.274883098143     Delta-E=       -0.000000038942 Rises=F Damp=F
 DIIS: error= 2.37D-06 at cycle  10 NSaved=  10.
 NSaved=10 IEnMin=10 EnMin= -512.274883098143     IErMin=10 ErrMin= 2.37D-06
 ErrMax= 2.37D-06 EMaxC= 1.00D-01 BMatC= 2.40D-09 BMatP= 5.25D-08
 IDIUse=1 WtCom= 1.00D+00 WtEn= 0.00D+00
 Coeff-Com:  0.469D-04-0.743D-04-0.433D-03-0.105D-02-0.129D-02-0.379D-02
 Coeff-Com:  0.121D-01 0.131D+00 0.252D+00 0.611D+00
 Coeff:      0.469D-04-0.743D-04-0.433D-03-0.105D-02-0.129D-02-0.379D-02
 Coeff:      0.121D-01 0.131D+00 0.252D+00 0.611D+00
 Gap=     0.142 Goal=   None    Shift=    0.000
 RMSDP=9.35D-07 MaxDP=5.76D-05 DE=-3.89D-08 OVMax= 2.07D-05

 Cycle  11  Pass 1  IDiag  1:
 RMSU=  2.84D-07    CP:  8.62D-01  1.22D+00  1.13D+00  8.45D-01  9.12D-01
                    CP:  8.73D-01  9.93D-01  1.03D+00  1.08D+00  8.82D-01
 E= -512.274883100187     Delta-E=       -0.000000002044 Rises=F Damp=F
 DIIS: error= 7.86D-07 at cycle  11 NSaved=  11.
 NSaved=11 IEnMin=11 EnMin= -512.274883100187     IErMin=11 ErrMin= 7.86D-07
 ErrMax= 7.86D-07 EMaxC= 1.00D-01 BMatC= 3.38D-10 BMatP= 2.40D-09
 IDIUse=1 WtCom= 1.00D+00 WtEn= 0.00D+00
 Coeff-Com:  0.440D-05-0.512D-05-0.203D-03-0.494D-03-0.103D-02-0.388D-02
 Coeff-Com: -0.157D-02 0.326D-01 0.625D-01 0.308D+00 0.604D+00
 Coeff:      0.440D-05-0.512D-05-0.203D-03-0.494D-03-0.103D-02-0.388D-02
 Coeff:     -0.157D-02 0.326D-01 0.625D-01 0.308D+00 0.604D+00
 Gap=     0.142 Goal=   None    Shift=    0.000
 RMSDP=4.22D-07 MaxDP=3.47D-05 DE=-2.04D-09 OVMax= 9.15D-06

 Cycle  12  Pass 1  IDiag  1:
 RMSU=  7.97D-08    CP:  8.62D-01  1.22D+00  1.13D+00  8.45D-01  9.13D-01
                    CP:  8.74D-01  9.95D-01  1.05D+00  1.11D+00  9.65D-01
                    CP:  1.00D+00
 E= -512.274883100498     Delta-E=       -0.000000000310 Rises=F Damp=F
 DIIS: error= 3.11D-07 at cycle  12 NSaved=  12.
 NSaved=12 IEnMin=12 EnMin= -512.274883100498     IErMin=12 ErrMin= 3.11D-07
 ErrMax= 3.11D-07 EMaxC= 1.00D-01 BMatC= 4.04D-11 BMatP= 3.38D-10
 IDIUse=1 WtCom= 1.00D+00 WtEn= 0.00D+00
 Coeff-Com: -0.795D-05 0.126D-04-0.307D-04-0.781D-04-0.284D-03-0.128D-02
 Coeff-Com: -0.237D-02-0.238D-02-0.764D-02 0.611D-01 0.298D+00 0.655D+00
 Coeff:     -0.795D-05 0.126D-04-0.307D-04-0.781D-04-0.284D-03-0.128D-02
 Coeff:     -0.237D-02-0.238D-02-0.764D-02 0.611D-01 0.298D+00 0.655D+00
 Gap=     0.142 Goal=   None    Shift=    0.000
 RMSDP=1.92D-07 MaxDP=1.64D-05 DE=-3.10D-10 OVMax= 6.52D-06

 Cycle  13  Pass 1  IDiag  1:
 RMSU=  2.87D-08    CP:  8.62D-01  1.22D+00  1.13D+00  8.45D-01  9.13D-01
                    CP:  8.74D-01  9.97D-01  1.05D+00  1.13D+00  1.00D+00
                    CP:  1.04D+00  9.14D-01
 E= -512.274883100547     Delta-E=       -0.000000000049 Rises=F Damp=F
 DIIS: error= 1.05D-07 at cycle  13 NSaved=  13.
 NSaved=13 IEnMin=13 EnMin= -512.274883100547     IErMin=13 ErrMin= 1.05D-07
 ErrMax= 1.05D-07 EMaxC= 1.00D-01 BMatC= 3.76D-12 BMatP= 4.04D-11
 IDIUse=1 WtCom= 1.00D+00 WtEn= 0.00D+00
 Coeff-Com: -0.348D-05 0.506D-05 0.578D-05 0.138D-04-0.104D-04-0.143D-03
 Coeff-Com: -0.858D-03-0.417D-02-0.886D-02-0.562D-02 0.606D-01 0.291D+00
 Coeff-Com:  0.668D+00
 Coeff:     -0.348D-05 0.506D-05 0.578D-05 0.138D-04-0.104D-04-0.143D-03
 Coeff:     -0.858D-03-0.417D-02-0.886D-02-0.562D-02 0.606D-01 0.291D+00
 Coeff:      0.668D+00
 Gap=     0.142 Goal=   None    Shift=    0.000
 RMSDP=5.87D-08 MaxDP=5.31D-06 DE=-4.89D-11 OVMax= 1.99D-06

 Cycle  14  Pass 1  IDiag  1:
 RMSU=  8.85D-09    CP:  8.62D-01  1.22D+00  1.13D+00  8.45D-01  9.13D-01
                    CP:  8.75D-01  9.97D-01  1.05D+00  1.13D+00  1.02D+00
                    CP:  1.06D+00  1.01D+00  9.95D-01
 E= -512.274883100545     Delta-E=        0.000000000002 Rises=F Damp=F
 DIIS: error= 3.04D-08 at cycle  14 NSaved=  14.
 NSaved=14 IEnMin=13 EnMin= -512.274883100547     IErMin=14 ErrMin= 3.04D-08
 ErrMax= 3.04D-08 EMaxC= 1.00D-01 BMatC= 4.91D-13 BMatP= 3.76D-12
 IDIUse=1 WtCom= 1.00D+00 WtEn= 0.00D+00
 Coeff-Com: -0.260D-06 0.481D-06 0.514D-05 0.123D-04 0.303D-04 0.100D-03
 Coeff-Com: -0.610D-04-0.146D-02-0.202D-02-0.127D-01-0.209D-01 0.351D-01
 Coeff-Com:  0.290D+00 0.712D+00
 Coeff:     -0.260D-06 0.481D-06 0.514D-05 0.123D-04 0.303D-04 0.100D-03
 Coeff:     -0.610D-04-0.146D-02-0.202D-02-0.127D-01-0.209D-01 0.351D-01
 Coeff:      0.290D+00 0.712D+00
 Gap=     0.142 Goal=   None    Shift=    0.000
 RMSDP=2.05D-08 MaxDP=1.20D-06 DE= 1.93D-12 OVMax= 9.33D-07

 Cycle  15  Pass 1  IDiag  1:
 RMSU=  3.89D-09    CP:  8.62D-01  1.22D+00  1.13D+00  8.45D-01  9.13D-01
                    CP:  8.75D-01  9.97D-01  1.05D+00  1.13D+00  1.02D+00
                    CP:  1.07D+00  1.04D+00  1.05D+00  1.04D+00
 E= -512.274883100540     Delta-E=        0.000000000005 Rises=F Damp=F
 DIIS: error= 7.25D-09 at cycle  15 NSaved=  15.
 NSaved=15 IEnMin=13 EnMin= -512.274883100547     IErMin=15 ErrMin= 7.25D-09
 ErrMax= 7.25D-09 EMaxC= 1.00D-01 BMatC= 3.47D-14 BMatP= 4.91D-13
 IDIUse=1 WtCom= 1.00D+00 WtEn= 0.00D+00
 Coeff-Com:  0.201D-06-0.252D-06 0.146D-05 0.383D-05 0.138D-04 0.513D-04
 Coeff-Com:  0.365D-04-0.207D-03 0.143D-03-0.413D-02-0.126D-01-0.876D-02
 Coeff-Com:  0.410D-01 0.244D+00 0.741D+00
 Coeff:      0.201D-06-0.252D-06 0.146D-05 0.383D-05 0.138D-04 0.513D-04
 Coeff:      0.365D-04-0.207D-03 0.143D-03-0.413D-02-0.126D-01-0.876D-02
 Coeff:      0.410D-01 0.244D+00 0.741D+00
 Gap=     0.142 Goal=   None    Shift=    0.000
 RMSDP=4.58D-09 MaxDP=3.98D-07 DE= 4.77D-12 OVMax= 2.72D-07

 Error on total polarization charges =  0.01357
 SCF Done:  E(RB3LYP) =  -512.274883101     A.U. after   15 cycles
             Convg  =    0.4576D-08             -V/T =  2.0031
 KE= 5.106850676417D+02 PE=-2.148141733229D+03 EE= 6.523247462093D+02
 Leave Link  502 at Tue Apr 19 18:04:30 2016, MaxMem=   33554432 cpu:     554.0
 (Enter c:\G09w02\l801.exe)
 Range of M.O.s used for correlation:     1   247
 NBasis=   247 NAE=    35 NBE=    35 NFC=     0 NFV=     0
 NROrb=    247 NOA=    35 NOB=    35 NVA=   212 NVB=   212

 **** Warning!!: The largest alpha MO coefficient is  0.76813154D+02

 Leave Link  801 at Tue Apr 19 18:04:30 2016, MaxMem=   33554432 cpu:       0.0
 (Enter c:\G09w02\l1101.exe)
 Using compressed storage, NAtomX=    16.
 Will process  17 centers per pass.
 Leave Link 1101 at Tue Apr 19 18:04:31 2016, MaxMem=   33554432 cpu:       1.0
 (Enter c:\G09w02\l1102.exe)
 Symmetrizing basis deriv contribution to polar:
 IMax=3 JMax=2 DiffMx= 0.00D+00
 Leave Link 1102 at Tue Apr 19 18:04:31 2016, MaxMem=   33554432 cpu:       0.0
 (Enter c:\G09w02\l1110.exe)
 Forming Gx(P) for the SCF density, NAtomX=    16.
 Integral derivatives from FoFDir/FoFCou, PRISM(SPDF).
 Do as many integral derivatives as possible in FoFDir.
 G2DrvN: MDV=      33554282.
 G2DrvN: will do    17 centers at a time, making    1 passes doing MaxLOS=2.
 Calling FoFCou, ICntrl=  3107 FMM=F I1Cent=   0 AccDes= 0.00D+00.
 FoFCou: FMM=F IPFlag=           0 FMFlag=      100000 FMFlg1=           0
         NFxFlg=           0 DoJE=F BraDBF=F KetDBF=F FulRan=T
         Omega=  0.000000  0.000000  1.000000  0.000000  0.000000 ICntrl=    3107 IOpCl=  0
         NMat0=    1 NMatS0=    1 NMatT0=    0 NMatD0=    1 NMtDS0=    0 NMtDT0=    0
         I1Cent=           0 NGrid=           0.
 Symmetry not used in FoFCou.
 FoFDir/FoFCou used for L=0 through L=2.
 G2PCM: DoFxE=T DoFxN=T DoGrad=T DoPD/DQ/DG=FFF NFrqRd=   0 IEInf=0 DoCFld=F IF1Alg=4.
 GePol: Maximum number of non-zero 1st derivatives   =     203
 End of G2Drv Frequency-dependent properties file   721 does not exist.
 End of G2Drv Frequency-dependent properties file   722 does not exist.
 Leave Link 1110 at Tue Apr 19 18:15:32 2016, MaxMem=   33554432 cpu:     661.0
 (Enter c:\G09w02\l1002.exe)
 Minotr:  Closed shell wavefunction.
          IDoAtm=1111111111111111
 NEqPCM:  Using equilibrium solvation (IEInf=0, Eps=  78.3553, EpsInf=   1.7778)
          Direct CPHF calculation.
          Differentiating once with respect to nuclear coordinates.
          Requested convergence is 1.0D-06 RMS, and 1.0D-05 maximum.
          Secondary convergence is 1.0D-12 RMS, and 1.0D-12 maximum.
          NewPWx=T KeepS1=F KeepF1=F KeepIn=T MapXYZ=F SortEE=F KeepMc=T.
          MDV=      33554316 using IRadAn=       2.
 Generate precomputed XC quadrature information.
          Solving linear equations simultaneously, MaxMat=       0.
 Symmetry not used in FoFDir.
 MinBra= 0 MaxBra= 2 Meth= 1.
 IRaf=       0 NMat=  51 IRICut=     127 DoRegI=T DoRafI=T ISym2E= 0 JSym2E=0.
          There are    51 degrees of freedom in the 1st order CPHF.  IDoFFX=5.
     45 vectors produced by pass  0 Test12= 1.45D-10 1.96D-07 XBig12= 2.75D-01 1.49D-01.
 AX will form    45 AO Fock derivatives at one time.
     45 vectors produced by pass  1 Test12= 1.45D-10 1.96D-07 XBig12= 8.42D-02 1.02D-01.
     45 vectors produced by pass  2 Test12= 1.45D-10 1.96D-07 XBig12= 7.18D-04 5.59D-03.
     45 vectors produced by pass  3 Test12= 1.45D-10 1.96D-07 XBig12= 4.06D-06 2.70D-04.
     34 vectors produced by pass  4 Test12= 1.45D-10 1.96D-07 XBig12= 1.64D-08 1.51D-05.
      4 vectors produced by pass  5 Test12= 1.45D-10 1.96D-07 XBig12= 3.64D-11 7.52D-07.
 Inverted reduced A of dimension   218 with in-core refinement.
 End of Minotr Frequency-dependent properties file   721 does not exist.
 End of Minotr Frequency-dependent properties file   722 does not exist.
 Leave Link 1002 at Tue Apr 19 18:34:06 2016, MaxMem=   33554432 cpu:    1114.0
 (Enter c:\G09w02\l601.exe)
 Copying SCF densities to generalized density rwf, IOpCl= 0 IROHF=0.

 **********************************************************************

            Population analysis using the SCF density.

 **********************************************************************

 Alpha  occ. eigenvalues --  -19.19332 -19.19178 -19.18356 -19.14181 -14.31316
 Alpha  occ. eigenvalues --  -10.34390 -10.33672 -10.22772 -10.18806  -1.16249
 Alpha  occ. eigenvalues --   -1.13616  -1.07641  -1.04749  -0.90702  -0.82535
 Alpha  occ. eigenvalues --   -0.71512  -0.65790  -0.60464  -0.55821  -0.54135
 Alpha  occ. eigenvalues --   -0.53345  -0.51258  -0.49462  -0.48903  -0.48416
 Alpha  occ. eigenvalues --   -0.44567  -0.43185  -0.41297  -0.40664  -0.37484
 Alpha  occ. eigenvalues --   -0.36467  -0.35173  -0.31239  -0.27438  -0.18946
 Alpha virt. eigenvalues --   -0.04723  -0.03421  -0.02266  -0.00051   0.00331
 Alpha virt. eigenvalues --    0.01118   0.02335   0.03652   0.05052   0.05309
 Alpha virt. eigenvalues --    0.06611   0.07078   0.08495   0.08940   0.09336
 Alpha virt. eigenvalues --    0.09776   0.09939   0.10651   0.10847   0.12114
 Alpha virt. eigenvalues --    0.12898   0.13341   0.14533   0.14653   0.15268
 Alpha virt. eigenvalues --    0.16291   0.17126   0.18326   0.19037   0.19995
 Alpha virt. eigenvalues --    0.20211   0.21407   0.21597   0.22583   0.23036
 Alpha virt. eigenvalues --    0.24194   0.25207   0.25458   0.26137   0.26488
 Alpha virt. eigenvalues --    0.27301   0.27975   0.28164   0.28885   0.29770
 Alpha virt. eigenvalues --    0.30396   0.30844   0.31597   0.32120   0.32972
 Alpha virt. eigenvalues --    0.33872   0.34515   0.35589   0.36389   0.37226
 Alpha virt. eigenvalues --    0.38287   0.39912   0.42818   0.44572   0.46909
 Alpha virt. eigenvalues --    0.50862   0.54086   0.54447   0.55480   0.56496
 Alpha virt. eigenvalues --    0.57215   0.58164   0.59758   0.60976   0.62732
 Alpha virt. eigenvalues --    0.65468   0.65663   0.66849   0.69375   0.70730
 Alpha virt. eigenvalues --    0.71884   0.73283   0.75917   0.78742   0.81328
 Alpha virt. eigenvalues --    0.83282   0.86410   0.87140   0.92826   0.94857
 Alpha virt. eigenvalues --    0.99157   1.02378   1.03712   1.05948   1.09449
 Alpha virt. eigenvalues --    1.10352   1.11925   1.14050   1.14086   1.15844
 Alpha virt. eigenvalues --    1.16261   1.17556   1.18988   1.21036   1.22530
 Alpha virt. eigenvalues --    1.23029   1.25036   1.26480   1.29200   1.37731
 Alpha virt. eigenvalues --    1.39012   1.40779   1.42113   1.45910   1.47692
 Alpha virt. eigenvalues --    1.51105   1.51855   1.53905   1.55813   1.57066
 Alpha virt. eigenvalues --    1.58287   1.60730   1.63804   1.65270   1.69416
 Alpha virt. eigenvalues --    1.70097   1.73878   1.76842   1.78504   1.81967
 Alpha virt. eigenvalues --    1.82790   1.86163   1.90470   1.91043   1.94132
 Alpha virt. eigenvalues --    1.97058   2.00346   2.01494   2.04504   2.07352
 Alpha virt. eigenvalues --    2.09804   2.16569   2.18913   2.22597   2.27061
 Alpha virt. eigenvalues --    2.32621   2.38497   2.49917   2.53999   2.54341
 Alpha virt. eigenvalues --    2.55394   2.57645   2.58710   2.64115   2.69468
 Alpha virt. eigenvalues --    2.69880   2.73098   2.75182   2.79278   2.83293
 Alpha virt. eigenvalues --    2.87136   2.88443   2.90556   2.93138   2.97409
 Alpha virt. eigenvalues --    3.00071   3.03402   3.03580   3.04214   3.09418
 Alpha virt. eigenvalues --    3.10790   3.14529   3.16686   3.19096   3.21022
 Alpha virt. eigenvalues --    3.24071   3.25341   3.30736   3.32733   3.40178
 Alpha virt. eigenvalues --    3.43272   3.58754   3.59709   3.62265   3.65477
 Alpha virt. eigenvalues --    3.78822   3.80001   3.83406   3.90218   4.04118
 Alpha virt. eigenvalues --    4.04860   4.07082   4.10572   4.31438   4.72524
 Alpha virt. eigenvalues --    4.83245   4.94932   4.97337   5.00399   5.04890
 Alpha virt. eigenvalues --    5.13937   5.17411   5.35551   5.37292   5.56765
 Alpha virt. eigenvalues --    5.60322   5.83343   5.85415  23.73204  23.77927
 Alpha virt. eigenvalues --   23.79289  23.90250  35.59778  49.84934  49.86455
 Alpha virt. eigenvalues --   49.95401  49.98608
          Condensed to atoms (all electrons):
              1          2          3          4          5          6
     1  N    6.676606   0.382044  -0.074846  -0.029528   0.027971  -0.055225
     2  H    0.382044   0.567773  -0.156638  -0.008259   0.015099  -0.013048
     3  C   -0.074846  -0.156638   9.444246   0.111886  -1.186663  -0.986426
     4  H   -0.029528  -0.008259   0.111886   0.600881  -0.160683   0.032689
     5  C    0.027971   0.015099  -1.186663  -0.160683   8.210806   0.145632
     6  C   -0.055225  -0.013048  -0.986426   0.032689   0.145632   6.124072
     7  H    0.007843  -0.015581  -0.043581   0.021644   0.326303   0.019999
     8  H    0.003353   0.038178  -0.149542  -0.118051   0.635301  -0.099516
     9  C    0.000034  -0.009231  -0.008323   0.068239  -1.149989   0.195748
    10  O   -0.027671  -0.004394  -0.172580   0.036136  -0.015660   0.324878
    11  O   -0.002160   0.000467   0.036762  -0.002116  -0.127628   0.034769
    12  H    0.410575  -0.058820  -0.105992   0.001536   0.014523   0.028599
    13  O    0.024187   0.040735  -0.393157   0.040312   0.137582   0.348817
    14  H    0.005530   0.001034  -0.030755   0.012160  -0.008572   0.018175
    15  O    0.000107   0.000791   0.022756  -0.003138  -0.324881   0.008544
    16  H    0.000026   0.000033  -0.014558  -0.002151  -0.048937   0.006188
              7          8          9         10         11         12
     1  N    0.007843   0.003353   0.000034  -0.027671  -0.002160   0.410575
     2  H   -0.015581   0.038178  -0.009231  -0.004394   0.000467  -0.058820
     3  C   -0.043581  -0.149542  -0.008323  -0.172580   0.036762  -0.105992
     4  H    0.021644  -0.118051   0.068239   0.036136  -0.002116   0.001536
     5  C    0.326303   0.635301  -1.149989  -0.015660  -0.127628   0.014523
     6  C    0.019999  -0.099516   0.195748   0.324878   0.034769   0.028599
     7  H    0.431474  -0.065293   0.053940   0.000948  -0.002004   0.002094
     8  H   -0.065293   0.675131  -0.210868  -0.005473   0.007717  -0.002771
     9  C    0.053940  -0.210868   6.210015   0.002776   0.447874   0.003832
    10  O    0.000948  -0.005473   0.002776   7.917757  -0.000530   0.003345
    11  O   -0.002004   0.007717   0.447874  -0.000530   8.042829   0.000169
    12  H    0.002094  -0.002771   0.003832   0.003345   0.000169   0.426481
    13  O   -0.014257   0.061713  -0.052718  -0.133005  -0.003656  -0.004139
    14  H    0.000023  -0.002177   0.002772   0.257274   0.000905  -0.000111
    15  O   -0.010974   0.002736   0.339558   0.000322  -0.128467  -0.000043
    16  H    0.000052   0.002077   0.056165  -0.000156  -0.006801   0.000028
             13         14         15         16
     1  N    0.024187   0.005530   0.000107   0.000026
     2  H    0.040735   0.001034   0.000791   0.000033
     3  C   -0.393157  -0.030755   0.022756  -0.014558
     4  H    0.040312   0.012160  -0.003138  -0.002151
     5  C    0.137582  -0.008572  -0.324881  -0.048937
     6  C    0.348817   0.018175   0.008544   0.006188
     7  H   -0.014257   0.000023  -0.010974   0.000052
     8  H    0.061713  -0.002177   0.002736   0.002077
     9  C   -0.052718   0.002772   0.339558   0.056165
    10  O   -0.133005   0.257274   0.000322  -0.000156
    11  O   -0.003656   0.000905  -0.128467  -0.006801
    12  H   -0.004139  -0.000111  -0.000043   0.000028
    13  O    8.123738   0.003889   0.000230   0.000167
    14  H    0.003889   0.431412   0.000163   0.000054
    15  O    0.000230   0.000163   7.988503   0.271666
    16  H    0.000167   0.000054   0.271666   0.412414
 Mulliken atomic charges:
              1
     1  N   -0.348846
     2  H    0.219816
     3  C   -0.292589
     4  H    0.398445
     5  C   -0.490203
     6  C   -0.133894
     7  H    0.287371
     8  H    0.227484
     9  C    0.050176
    10  O   -0.183968
    11  O   -0.298132
    12  H    0.280694
    13  O   -0.180437
    14  H    0.308224
    15  O   -0.167874
    16  H    0.323733
 Sum of Mulliken atomic charges =   0.00000
 Mulliken charges with hydrogens summed into heavy atoms:
              1
     1  N    0.151664
     3  C   -0.292589
     5  C    0.423097
     6  C   -0.133894
     9  C    0.050176
    10  O    0.124257
    11  O   -0.298132
    13  O   -0.180437
    15  O    0.155859
 Sum of Mulliken charges with hydrogens summed into heavy atoms =   0.00000
 APT atomic charges:
              1
     1  N   -1.120994
     2  H    0.369775
     3  C   -0.049583
     4  H    0.233721
     5  C   -0.964596
     6  C   -0.175704
     7  H    0.550406
     8  H    0.287411
     9  C    0.069116
    10  O   -0.520442
    11  O   -0.323948
    12  H    0.638692
    13  O   -0.136979
    14  H    0.799400
    15  O   -0.516057
    16  H    0.859780
 Sum of APT charges=   0.00000
 APT Atomic charges with hydrogens summed into heavy atoms:
              1
     1  N   -0.112527
     2  H    0.000000
     3  C   -0.049583
     4  H    0.000000
     5  C    0.106942
     6  C   -0.175704
     7  H    0.000000
     8  H    0.000000
     9  C    0.069116
    10  O    0.278958
    11  O   -0.323948
    12  H    0.000000
    13  O   -0.136979
    14  H    0.000000
    15  O    0.343723
    16  H    0.000000
 Sum of APT charges=   0.00000
 Electronic spatial extent (au):  <R**2>=           1260.4683
 Charge=              0.0000 electrons
 Dipole moment (field-independent basis, Debye):
    X=              0.0658    Y=             -0.3405    Z=              3.7845  Tot=              3.8003
 Quadrupole moment (field-independent basis, Debye-Ang):
   XX=            -37.1461   YY=            -54.8572   ZZ=            -60.4681
   XY=              2.6227   XZ=             -1.8449   YZ=              0.7113
 Traceless Quadrupole moment (field-independent basis, Debye-Ang):
   XX=             13.6777   YY=             -4.0334   ZZ=             -9.6443
   XY=              2.6227   XZ=             -1.8449   YZ=              0.7113
 Octapole moment (field-independent basis, Debye-Ang**2):
  XXX=              7.8186  YYY=            -18.6678  ZZZ=             -4.6844  XYY=            -10.2576
  XXY=            -21.1605  XXZ=             -1.5639  XZZ=              2.8191  YZZ=              7.5013
  YYZ=              4.6714  XYZ=             -7.3684
 Hexadecapole moment (field-independent basis, Debye-Ang**3):
 XXXX=           -710.3766 YYYY=           -427.7960 ZZZZ=           -202.9943 XXXY=            -35.4816
 XXXZ=            -14.2161 YYYX=             57.9068 YYYZ=             11.6582 ZZZX=              0.8931
 ZZZY=              7.9395 XXYY=           -175.8222 XXZZ=           -202.5793 YYZZ=           -106.0136
 XXYZ=            -15.3805 YYXZ=             -2.1255 ZZXY=             -4.6288
 N-N= 4.728570362778D+02 E-N=-2.148141733196D+03  KE= 5.106850676417D+02
  Exact polarizability:   0.000   0.000   0.000   0.000   0.000   0.000
 Approx polarizability: 110.685  11.525 119.960  13.469  -2.486 118.493
 No NMR shielding tensors so no spin-rotation constants.
 Leave Link  601 at Tue Apr 19 18:34:07 2016, MaxMem=   33554432 cpu:       1.0
 (Enter c:\G09w02\l701.exe)
 Compute integral second derivatives.
 ... and contract with generalized density number  0.
 D2PCM: C-PCM CHGder 2nd derivatives, FixD1E=F FixD2E=F DoIter=F DoCFld=F I1PDM=0
 GePol: Maximum number of non-zero 2nd derivatives   =     203
 Leave Link  701 at Tue Apr 19 18:34:54 2016, MaxMem=   33554432 cpu:      47.0
 (Enter c:\G09w02\l702.exe)
 L702 exits ... SP integral derivatives will be done elsewhere.
 Leave Link  702 at Tue Apr 19 18:34:54 2016, MaxMem=   33554432 cpu:       0.0
 (Enter c:\G09w02\l703.exe)
 Compute integral second derivatives, UseDBF=F ICtDFT=           0.
 Integral derivatives from FoFDir, PRISM(SPDF).
 Calling FoFJK, ICntrl=    100147 FMM=F ISym2X=0 I1Cent= 0 IOpClX= 0 NMat=1 NMatS=1 NMatT=0.
 FoFCou: FMM=F IPFlag=           0 FMFlag=      100000 FMFlg1=         800
         NFxFlg=           0 DoJE=F BraDBF=F KetDBF=F FulRan=T
         Omega=  0.000000  0.000000  1.000000  0.000000  0.000000 ICntrl=  100147 IOpCl=  0
         NMat0=    1 NMatS0=    1 NMatT0=    0 NMatD0=    1 NMtDS0=    0 NMtDT0=    0
         I1Cent=           0 NGrid=           0.
 Symmetry not used in FoFCou.
 Leave Link  703 at Tue Apr 19 18:49:57 2016, MaxMem=   33554432 cpu:     903.0
 (Enter c:\G09w02\l716.exe)
 Dipole        = 2.58845450D-02-1.33956077D-01 1.48892866D+00
 Polarizability= 0.00000000D+00 0.00000000D+00 0.00000000D+00
                 0.00000000D+00 0.00000000D+00 0.00000000D+00
 -------------------------------------------------------------------
 Center     Atomic                   Forces (Hartrees/Bohr)
 Number     Number              X              Y              Z
 -------------------------------------------------------------------
      1        7           0.005112792   -0.004638256    0.000590575
      2        1          -0.005774183    0.004979290    0.005088677
      3        6          -0.015157483   -0.027088763    0.000267427
      4        1          -0.021935944    0.013746745    0.014187293
      5        6           0.003670503   -0.015809275    0.001083524
      6        6          -0.033475553    0.030507365   -0.098589995
      7        1          -0.003355474    0.004433336    0.003972917
      8        1           0.023384662    0.018842441    0.020113766
      9        6           0.016898981   -0.009446275   -0.009896176
     10        8           0.000410749   -0.002755909    0.015818954
     11        8           0.001127900    0.003717789    0.004728705
     12        1           0.001111474    0.000063003   -0.000797493
     13        8           0.034396300   -0.016954923    0.043622845
     14        1          -0.003985674   -0.000899585   -0.000186130
     15        8          -0.002494220    0.001504185   -0.000024675
     16        1           0.000065171   -0.000201167    0.000019783
 -------------------------------------------------------------------
 Cartesian Forces:  Max     0.098589995 RMS     0.020168547
 Leave Link  716 at Tue Apr 19 18:49:57 2016, MaxMem=   33554432 cpu:       0.0
 (Enter c:\G09w02\l103.exe)

 GradGradGradGradGradGradGradGradGradGradGradGradGradGradGradGradGradGrad
 Berny optimization.
 Red2BG is reusing G-inverse.
 Internal  Forces:  Max     0.049267493 RMS     0.009263246
 Search for a saddle point.
 Step number   1 out of a maximum of   93
 All quantities printed in internal units (Hartrees-Bohrs-Radians)
 Swaping is turned off.
 Second derivative matrix not updated -- analytic derivatives used.
 ITU=  0
     Eigenvalues ---   -0.05474  -0.00711  -0.00565  -0.00154  -0.00087
     Eigenvalues ---    0.00088   0.00298   0.00881   0.01190   0.01411
     Eigenvalues ---    0.01789   0.03118   0.03400   0.03752   0.04303
     Eigenvalues ---    0.04919   0.05796   0.06501   0.07410   0.08860
     Eigenvalues ---    0.10390   0.13079   0.13816   0.14970   0.16752
     Eigenvalues ---    0.17826   0.18526   0.20241   0.21691   0.24586
     Eigenvalues ---    0.31198   0.32944   0.33242   0.35518   0.39032
     Eigenvalues ---    0.39763   0.42856   0.44915   0.50370   0.50741
     Eigenvalues ---    0.68970   0.83474
 Eigenvectors required to have negative eigenvalues:
                          R9        R4        D16       D17       D14
   1                   -0.54724   0.32262  -0.27019  -0.26006  -0.23049
                          D15       A22       D24       A9        A23
   1                   -0.22036   0.19710   0.17238  -0.16155   0.14752
 Eigenvalue     2 is  -7.11D-03 should be greater than     0.000000 Eigenvector:
                          R7        D24       D14       D34       D23
   1                   -0.38289   0.32152   0.30684  -0.29489  -0.29142
                          D22       D18       D15       A22       D13
   1                   -0.28071   0.22797   0.18458  -0.16976   0.16700
 Eigenvalue     3 is  -5.65D-03 should be greater than     0.000000 Eigenvector:
                          R7        D34       D24       R9        D16
   1                    0.41644  -0.41199   0.40112  -0.25673   0.21741
                          D13       D11       D17       D14       D1
   1                   -0.18395  -0.17766   0.16880   0.15927   0.15297
 Eigenvalue     4 is  -1.54D-03 should be greater than     0.000000 Eigenvector:
                          D21       D22       D23       R8        D27
   1                    0.49409   0.43283   0.42619   0.17240   0.15148
                          R7        D18       D28       D1        D31
   1                   -0.15051   0.14902   0.14464  -0.14052   0.14016
 Eigenvalue     5 is  -8.73D-04 should be greater than     0.000000 Eigenvector:
                          D25       D31       D26       D29       D27
   1                    0.35630   0.33878   0.33280   0.33197   0.32408
                          D32       D30       D28       D22       D21
   1                    0.31527   0.30847   0.30058  -0.17001  -0.15141
 RFO step:  Lambda0=4.256991392D-03 Lambda=-3.54291200D-02.
 Linear search not attempted -- option 19 set.
 Maximum step size (   0.300) exceeded in Quadratic search.
    -- Step size scaled by   0.497
 Iteration  1 RMS(Cart)=  0.06935744 RMS(Int)=  0.00918308
 Iteration  2 RMS(Cart)=  0.00666382 RMS(Int)=  0.00297121
 Iteration  3 RMS(Cart)=  0.00009702 RMS(Int)=  0.00296622
 Iteration  4 RMS(Cart)=  0.00000187 RMS(Int)=  0.00296621
 Iteration  5 RMS(Cart)=  0.00000001 RMS(Int)=  0.00296621
 Variable       Old X    -DE/DX   Delta X   Delta X   Delta X     New X
                                 (Linear)    (Quad)   (Total)
    R1        1.92120   0.00666   0.00000   0.00436   0.00436   1.92556
    R2        2.77741   0.00074   0.00000   0.00491   0.00491   2.78232
    R3        1.91857  -0.00063   0.00000  -0.00002  -0.00002   1.91855
    R4        2.96687  -0.00096   0.00000  -0.14962  -0.15095   2.81592
    R5        2.88348   0.02139   0.00000   0.03114   0.03598   2.91946
    R6        2.89264  -0.01883   0.00000  -0.07740  -0.07782   2.81481
    R7        2.74551   0.00580   0.00000   0.03754   0.03921   2.78473
    R8        2.78510   0.01880   0.00000   0.06087   0.05742   2.84252
    R9        2.75288  -0.00596   0.00000   0.08680   0.08416   2.83704
   R10        2.06602   0.00113   0.00000   0.00482   0.00482   2.07084
   R11        2.06677   0.02156   0.00000   0.01603   0.01603   2.08280
   R12        2.84906   0.01457   0.00000   0.00780   0.00780   2.85685
   R13        2.54401  -0.00572   0.00000  -0.00588  -0.00588   2.53813
   R14        2.28828   0.04927   0.00000   0.03428   0.03576   2.32404
   R15        2.28866  -0.00583   0.00000  -0.00308  -0.00308   2.28558
   R16        2.54469  -0.00192   0.00000  -0.00152  -0.00152   2.54317
   R17        1.83508   0.00236   0.00000  -0.00061  -0.00061   1.83447
   R18        1.83449   0.00018   0.00000  -0.00002  -0.00002   1.83447
    A1        1.93825   0.01018   0.00000   0.01296   0.01298   1.95123
    A2        1.87444  -0.00291   0.00000  -0.00467  -0.00465   1.86979
    A3        1.93331  -0.00255   0.00000  -0.00731  -0.00730   1.92601
    A4        2.03877  -0.00689   0.00000   0.00603   0.00760   2.04637
    A5        1.91076  -0.00536   0.00000  -0.00596  -0.00802   1.90274
    A6        1.93257  -0.00306   0.00000  -0.01302  -0.01451   1.91806
    A7        1.94316   0.00901   0.00000   0.09884   0.10018   2.04333
    A8        1.87351   0.00657   0.00000  -0.01380  -0.01405   1.85945
    A9        2.08009  -0.00320   0.00000   0.02701   0.02724   2.10733
   A10        2.92850   0.01446   0.00000   0.02341   0.02196   2.95046
   A11        1.90285   0.00221   0.00000  -0.00357  -0.01070   1.89214
   A12        1.93795   0.00825   0.00000   0.04178   0.04642   1.98437
   A13        1.97795   0.00487   0.00000   0.02644   0.02586   2.00381
   A14        2.82903  -0.00680   0.00000  -0.06548  -0.06916   2.75988
   A15        1.12664   0.01083   0.00000   0.09133   0.09697   1.22361
   A16        1.56392   0.01005   0.00000   0.06311   0.06266   1.62658
   A17        1.86059  -0.01100   0.00000  -0.06466  -0.05803   1.80256
   A18        1.88864  -0.00323   0.00000   0.00712   0.00754   1.89618
   A19        1.89162  -0.00240   0.00000  -0.01365  -0.01900   1.87262
   A20        1.94841   0.00669   0.00000   0.04628   0.05532   2.00373
   A21        2.18660  -0.01662   0.00000  -0.03110  -0.03287   2.15373
   A22        2.88094   0.01280   0.00000   0.07358   0.06975   2.95069
   A23        2.14622   0.00975   0.00000  -0.01816  -0.02611   2.12011
   A24        2.19041   0.00253   0.00000   0.00039   0.00039   2.19081
   A25        1.94964  -0.00374   0.00000  -0.00535  -0.00536   1.94428
   A26        2.14311   0.00122   0.00000   0.00499   0.00498   2.14809
   A27        1.89672   0.00448   0.00000   0.00249   0.00249   1.89921
   A28        1.89360  -0.00005   0.00000   0.00019   0.00019   1.89380
    D1       -0.10267  -0.00490   0.00000  -0.03370  -0.03489  -0.13756
    D2       -1.16526  -0.00059   0.00000  -0.07469  -0.07422  -1.23948
    D3        0.98367   0.00507   0.00000   0.03721   0.03792   1.02158
    D4       -2.18401  -0.00621   0.00000  -0.03149  -0.03267  -2.21668
    D5        3.03659  -0.00189   0.00000  -0.07248  -0.07200   2.96459
    D6       -1.09768   0.00377   0.00000   0.03942   0.04014  -1.05753
    D7        1.47976   0.00214   0.00000   0.03111   0.02960   1.50936
    D8       -0.91653   0.00118   0.00000   0.05918   0.05582  -0.86072
    D9        1.12828  -0.00607   0.00000   0.00251   0.00478   1.13306
   D10       -3.02102   0.00054   0.00000   0.03532   0.03671  -2.98431
   D11       -3.05918   0.00271   0.00000   0.01336   0.00835  -3.05083
   D12       -1.01436  -0.00455   0.00000  -0.04330  -0.04269  -1.05705
   D13        1.11952   0.00207   0.00000  -0.01049  -0.01075   1.10877
   D14        1.50306  -0.00712   0.00000  -0.11095  -0.10888   1.39418
   D15       -1.57289  -0.00453   0.00000  -0.06066  -0.06221  -1.63509
   D16       -2.65006  -0.00987   0.00000  -0.05935  -0.05650  -2.70655
   D17        0.55718  -0.00729   0.00000  -0.00906  -0.00982   0.54736
   D18        1.45957  -0.00390   0.00000  -0.15822  -0.15303   1.30654
   D19        2.57095   0.00771   0.00000   0.06463   0.05815   2.62910
   D20       -1.78119  -0.00214   0.00000   0.00001  -0.00117  -1.78236
   D21        1.29209  -0.00243   0.00000  -0.00024   0.00553   1.29761
   D22        2.40346   0.00918   0.00000   0.22261   0.21670   2.62017
   D23       -1.94867  -0.00067   0.00000   0.15799   0.15738  -1.79129
   D24        1.00722   0.00398   0.00000  -0.18643  -0.18826   0.81896
   D25        0.04124  -0.00201   0.00000   0.00781   0.00496   0.04620
   D26       -3.10823  -0.00128   0.00000   0.01163   0.00877  -3.09946
   D27        1.10238  -0.00560   0.00000  -0.05410  -0.05668   1.04569
   D28       -2.04709  -0.00487   0.00000  -0.05028  -0.05287  -2.09996
   D29       -2.07127  -0.00568   0.00000  -0.00968  -0.00392  -2.07519
   D30        1.06245  -0.00494   0.00000  -0.00586  -0.00011   1.06234
   D31        2.20069   0.01019   0.00000   0.06969   0.06938   2.27007
   D32       -0.94877   0.01092   0.00000   0.07351   0.07319  -0.87558
   D33       -3.05498   0.00601   0.00000   0.02790   0.02536  -3.02962
   D34        2.07962  -0.00438   0.00000   0.16932   0.17088   2.25051
   D35        0.02274   0.00234   0.00000  -0.02168  -0.02071   0.00203
   D36       -3.13068  -0.00046   0.00000  -0.00019  -0.00020  -3.13088
   D37        0.00329   0.00026   0.00000   0.00348   0.00348   0.00677
         Item               Value     Threshold  Converged?
 Maximum Force            0.049267     0.000450     NO 
 RMS     Force            0.009263     0.000300     NO 
 Maximum Displacement     0.298071     0.001800     NO 
 RMS     Displacement     0.074840     0.001200     NO 
 Predicted change in Energy=-1.667002D-02
 Optimization stopped.
    -- Wrong number of Negative eigenvalues: Desired=  1 Actual=  5
    -- Flag reset to prevent archiving.
                           ----------------------------
                           ! Non-Optimized Parameters !
                           ! (Angstroms and Degrees)  !
 --------------------------                            --------------------------
 ! Name  Definition              Value          Derivative Info.                !
 --------------------------------------------------------------------------------
 ! R1    R(1,2)                  1.019          -DE/DX =    0.0067              !
 ! R2    R(1,3)                  1.4723         -DE/DX =    0.0007              !
 ! R3    R(1,12)                 1.0153         -DE/DX =   -0.0006              !
 ! R4    R(3,4)                  1.4901         -DE/DX =   -0.001               !
 ! R5    R(3,5)                  1.5449         -DE/DX =    0.0214              !
 ! R6    R(3,6)                  1.4895         -DE/DX =   -0.0188              !
 ! R7    R(4,5)                  1.4736         -DE/DX =    0.0058              !
 ! R8    R(4,6)                  1.5042         -DE/DX =    0.0188              !
 ! R9    R(4,13)                 1.5013         -DE/DX =   -0.006               !
 ! R10   R(5,7)                  1.0958         -DE/DX =    0.0011              !
 ! R11   R(5,8)                  1.1022         -DE/DX =    0.0216              !
 ! R12   R(5,9)                  1.5118         -DE/DX =    0.0146              !
 ! R13   R(6,10)                 1.3431         -DE/DX =   -0.0057              !
 ! R14   R(6,13)                 1.2298         -DE/DX =    0.0493              !
 ! R15   R(9,11)                 1.2095         -DE/DX =   -0.0058              !
 ! R16   R(9,15)                 1.3458         -DE/DX =   -0.0019              !
 ! R17   R(10,14)                0.9708         -DE/DX =    0.0024              !
 ! R18   R(15,16)                0.9708         -DE/DX =    0.0002              !
 ! A1    A(2,1,3)              111.7971         -DE/DX =    0.0102              !
 ! A2    A(2,1,12)             107.1311         -DE/DX =   -0.0029              !
 ! A3    A(3,1,12)             110.3524         -DE/DX =   -0.0025              !
 ! A4    A(1,3,4)              117.2485         -DE/DX =   -0.0069              !
 ! A5    A(1,3,5)              109.0189         -DE/DX =   -0.0054              !
 ! A6    A(1,3,6)              109.8968         -DE/DX =   -0.0031              !
 ! A7    A(5,3,6)              117.0743         -DE/DX =    0.009               !
 ! A8    A(3,4,13)             106.5389         -DE/DX =    0.0066              !
 ! A9    A(5,4,6)              120.7412         -DE/DX =   -0.0032              !
 ! A10   A(5,4,13)             169.049          -DE/DX =    0.0145              !
 ! A11   A(3,5,7)              108.4118         -DE/DX =    0.0022              !
 ! A12   A(3,5,8)              113.6963         -DE/DX =    0.0083              !
 ! A13   A(3,5,9)              114.8099         -DE/DX =    0.0049              !
 ! A14   A(4,5,7)              158.1294         -DE/DX =   -0.0068              !
 ! A15   A(4,5,8)               70.1079         -DE/DX =    0.0108              !
 ! A16   A(4,5,9)               93.196          -DE/DX =    0.01                !
 ! A17   A(7,5,8)              103.2792         -DE/DX =   -0.011               !
 ! A18   A(7,5,9)              108.6434         -DE/DX =   -0.0032              !
 ! A19   A(8,5,9)              107.2932         -DE/DX =   -0.0024              !
 ! A20   A(3,6,10)             114.8055         -DE/DX =    0.0067              !
 ! A21   A(3,6,13)             123.3997         -DE/DX =   -0.0166              !
 ! A22   A(4,6,10)             169.0622         -DE/DX =    0.0128              !
 ! A23   A(10,6,13)            121.4734         -DE/DX =    0.0097              !
 ! A24   A(5,9,11)             125.524          -DE/DX =    0.0025              !
 ! A25   A(5,9,15)             111.3991         -DE/DX =   -0.0037              !
 ! A26   A(11,9,15)            123.0764         -DE/DX =    0.0012              !
 ! A27   A(6,10,14)            108.8169         -DE/DX =    0.0045              !
 ! A28   A(9,15,16)            108.5066         -DE/DX =    0.0                 !
 ! D1    D(2,1,3,4)             -7.8815         -DE/DX =   -0.0049              !
 ! D2    D(2,1,3,5)            -71.0171         -DE/DX =   -0.0006              !
 ! D3    D(2,1,3,6)             58.5324         -DE/DX =    0.0051              !
 ! D4    D(12,1,3,4)          -127.0062         -DE/DX =   -0.0062              !
 ! D5    D(12,1,3,5)           169.8582         -DE/DX =   -0.0019              !
 ! D6    D(12,1,3,6)           -60.5923         -DE/DX =    0.0038              !
 ! D7    D(1,3,4,13)            86.4798         -DE/DX =    0.0021              !
 ! D8    D(1,3,5,7)            -49.3156         -DE/DX =    0.0012              !
 ! D9    D(1,3,5,8)             64.9193         -DE/DX =   -0.0061              !
 ! D10   D(1,3,5,9)           -170.9883         -DE/DX =    0.0005              !
 ! D11   D(6,3,5,7)           -174.7996         -DE/DX =    0.0027              !
 ! D12   D(6,3,5,8)            -60.5647         -DE/DX =   -0.0045              !
 ! D13   D(6,3,5,9)             63.5277         -DE/DX =    0.0021              !
 ! D14   D(1,3,6,10)            79.8805         -DE/DX =   -0.0071              !
 ! D15   D(1,3,6,13)           -93.684          -DE/DX =   -0.0045              !
 ! D16   D(5,3,6,10)          -155.0742         -DE/DX =   -0.0099              !
 ! D17   D(5,3,6,13)            31.3614         -DE/DX =   -0.0073              !
 ! D18   D(6,4,5,7)             74.8594         -DE/DX =   -0.0039              !
 ! D19   D(6,4,5,8)            150.6361         -DE/DX =    0.0077              !
 ! D20   D(6,4,5,9)           -102.1217         -DE/DX =   -0.0021              !
 ! D21   D(13,4,5,7)            74.3478         -DE/DX =   -0.0024              !
 ! D22   D(13,4,5,8)           150.1246         -DE/DX =    0.0092              !
 ! D23   D(13,4,5,9)          -102.6333         -DE/DX =   -0.0007              !
 ! D24   D(5,4,6,10)            46.9228         -DE/DX =    0.004               !
 ! D25   D(3,5,9,11)             2.6468         -DE/DX =   -0.002               !
 ! D26   D(3,5,9,15)          -177.5859         -DE/DX =   -0.0013              !
 ! D27   D(4,5,9,11)            59.9138         -DE/DX =   -0.0056              !
 ! D28   D(4,5,9,15)          -120.3189         -DE/DX =   -0.0049              !
 ! D29   D(7,5,9,11)          -118.8998         -DE/DX =   -0.0057              !
 ! D30   D(7,5,9,15)            60.8675         -DE/DX =   -0.0049              !
 ! D31   D(8,5,9,11)           130.0656         -DE/DX =    0.0102              !
 ! D32   D(8,5,9,15)           -50.1671         -DE/DX =    0.0109              !
 ! D33   D(3,6,10,14)         -173.5845         -DE/DX =    0.006               !
 ! D34   D(4,6,10,14)          128.9445         -DE/DX =   -0.0044              !
 ! D35   D(13,6,10,14)           0.1166         -DE/DX =    0.0023              !
 ! D36   D(5,9,15,16)         -179.386          -DE/DX =   -0.0005              !
 ! D37   D(11,9,15,16)           0.388          -DE/DX =    0.0003              !
 --------------------------------------------------------------------------------
 GradGradGradGradGradGradGradGradGradGradGradGradGradGradGradGradGradGrad

 Largest change from initial coordinates is atom    0       0.000 Angstoms.
 Leave Link  103 at Tue Apr 19 18:49:57 2016, MaxMem=   33554432 cpu:       0.0
 (Enter c:\G09w02\l202.exe)
                          Input orientation:                          
 ---------------------------------------------------------------------
 Center     Atomic      Atomic             Coordinates (Angstroms)
 Number     Number       Type             X           Y           Z
 ---------------------------------------------------------------------
      1          7           0       -1.506491    1.830346   -0.165904
      2          1           0       -1.681380    1.983826    0.823768
      3          6           0       -0.654089    0.651406   -0.374829
      4          1           0       -0.072254   -0.038456    0.909873
      5          6           0        0.738703    0.924874    0.185198
      6          6           0       -1.278856   -0.589574    0.267614
      7          1           0        1.114083    1.861845   -0.234867
      8          1           0        0.706139    1.059625    1.270064
      9          6           0        1.732926   -0.164084   -0.128996
     10          8           0       -2.150309   -1.192813   -0.562454
     11          8           0        1.507712   -1.152074   -0.792271
     12          1           0       -2.407292    1.708003   -0.617953
     13          8           0       -1.085126   -0.961822    1.403479
     14          1           0       -2.577581   -1.923785   -0.086933
     15          8           0        2.938362    0.090091    0.414716
     16          1           0        3.542130   -0.631714    0.176271
 ---------------------------------------------------------------------
                    Distance matrix (angstroms):
                    1          2          3          4          5
     1  N    0.000000
     2  H    1.016658   0.000000
     3  C    1.469741   2.065746   0.000000
     4  H    2.589740   2.585793   1.570000   0.000000
     5  C    2.446231   2.717710   1.525871   1.452862   0.000000
     6  C    2.468961   2.663404   1.530718   1.473810   2.524061
     7  H    2.621669   2.991688   2.147366   2.515744   1.093288
     8  H    2.748043   2.598763   2.173139   1.393346   1.093688
     9  C    3.804330   4.144726   2.534422   2.086553   1.507656
    10  O    3.116287   3.497505   2.382230   2.796176   3.659230
    11  O    4.286325   4.755602   2.846081   2.575603   2.420854
    12  H    1.015263   1.637555   2.061365   3.291925   3.340003
    13  O    3.230590   3.060788   2.439401   1.456764   2.893126
    14  H    3.904737   4.111201   3.227122   3.290099   4.380256
    15  O    4.808567   5.009547   3.720773   3.053770   2.363904
    16  H    5.627378   5.877529   4.422483   3.735491   3.206595
                    6          7          8          9         10
     6  C    0.000000
     7  H    3.462383   0.000000
     8  H    2.768567   1.753509   0.000000
     9  C    3.067436   2.120982   2.123470   0.000000
    10  O    1.346232   4.482689   4.073191   4.040504   0.000000
    11  O    3.033928   3.090202   3.128475   1.211107   3.665458
    12  H    2.708589   3.545490   3.698439   4.570031   2.912706
    13  O    1.210904   3.936215   2.704196   3.305492   2.247858
    14  H    1.895392   5.289731   4.639503   4.656048   0.971083
    15  O    4.274167   2.624703   2.579619   1.346590   5.338096
    16  H    4.822034   3.504609   3.478485   1.893432   5.767530
                   11         12         13         14         15
    11  O    0.000000
    12  H    4.851564   0.000000
    13  O    3.402987   3.600316   0.000000
    14  H    4.216948   3.674352   2.318215   0.000000
    15  O    2.246453   5.679793   4.274649   5.893468   0.000000
    16  H    2.312510   6.442102   4.798594   6.260158   0.970770
                   16
    16  H    0.000000
 Symmetry turned off by external request.
 Stoichiometry    C4H7NO4
 Framework group  C1[X(C4H7NO4)]
 Deg. of freedom    42
 Full point group                 C1      NOp   1
 Rotational constants (GHZ):      2.5729377      1.1173830      0.9422184
 Leave Link  202 at Tue Apr 19 18:49:57 2016, MaxMem=   33554432 cpu:       0.0
 (Enter c:\G09w02\l9999.exe)


 THAT'S WHAT MAKES US A GREAT COUNTRY.
 THE LITTLE THINGS ARE SERIOUS AND THE BIG ONES ARE NOT.
           WILL ROGERS
 Error termination request processed by link 9999.
 Error termination via Lnk1e in c:\G09w02\l9999.exe at Tue Apr 19 18:49:58 2016.
 Job cpu time:  0 days  0 hours 54 minutes 53.0 seconds.
 File lengths (MBytes):  RWF=    121 Int=      0 D2E=      0 Chk=      8 Scr=      1
