 Entering Gaussian System, Link 0=g09
 Input=Ala-S-opt-freq-qst2-tsb1-6-31g.com
 Output=Ala-S-opt-freq-qst2-tsb1-6-31g.log
 Initial command:
 /usr/local/gau/g09/l1.exe "/tmp/Gau-4567.inp" -scrdir="/tmp/"
 Entering Link 1 = /usr/local/gau/g09/l1.exe PID=      4569.
  
 Copyright (c) 1988,1990,1992,1993,1995,1998,2003,2009,2013,
            Gaussian, Inc.  All Rights Reserved.
  
 This is part of the Gaussian(R) 09 program.  It is based on
 the Gaussian(R) 03 system (copyright 2003, Gaussian, Inc.),
 the Gaussian(R) 98 system (copyright 1998, Gaussian, Inc.),
 the Gaussian(R) 94 system (copyright 1995, Gaussian, Inc.),
 the Gaussian 92(TM) system (copyright 1992, Gaussian, Inc.),
 the Gaussian 90(TM) system (copyright 1990, Gaussian, Inc.),
 the Gaussian 88(TM) system (copyright 1988, Gaussian, Inc.),
 the Gaussian 86(TM) system (copyright 1986, Carnegie Mellon
 University), and the Gaussian 82(TM) system (copyright 1983,
 Carnegie Mellon University). Gaussian is a federally registered
 trademark of Gaussian, Inc.
  
 This software contains proprietary and confidential information,
 including trade secrets, belonging to Gaussian, Inc.
  
 This software is provided under written license and may be
 used, copied, transmitted, or stored only in accord with that
 written license.
  
 The following legend is applicable only to US Government
 contracts under FAR:
  
                    RESTRICTED RIGHTS LEGEND
  
 Use, reproduction and disclosure by the US Government is
 subject to restrictions as set forth in subparagraphs (a)
 and (c) of the Commercial Computer Software - Restricted
 Rights clause in FAR 52.227-19.
  
 Gaussian, Inc.
 340 Quinnipiac St., Bldg. 40, Wallingford CT 06492
  
  
 ---------------------------------------------------------------
 Warning -- This program may not be used in any manner that
 competes with the business of Gaussian, Inc. or will provide
 assistance to any competitor of Gaussian, Inc.  The licensee
 of this program is prohibited from giving any competitor of
 Gaussian, Inc. access to this program.  By using this program,
 the user acknowledges that Gaussian, Inc. is engaged in the
 business of creating and licensing software in the field of
 computational chemistry and represents and warrants to the
 licensee that it is not a competitor of Gaussian, Inc. and that
 it will not use this program in any manner prohibited above.
 ---------------------------------------------------------------
  

 Cite this work as:
 Gaussian 09, Revision D.01,
 M. J. Frisch, G. W. Trucks, H. B. Schlegel, G. E. Scuseria, 
 M. A. Robb, J. R. Cheeseman, G. Scalmani, V. Barone, B. Mennucci, 
 G. A. Petersson, H. Nakatsuji, M. Caricato, X. Li, H. P. Hratchian, 
 A. F. Izmaylov, J. Bloino, G. Zheng, J. L. Sonnenberg, M. Hada, 
 M. Ehara, K. Toyota, R. Fukuda, J. Hasegawa, M. Ishida, T. Nakajima, 
 Y. Honda, O. Kitao, H. Nakai, T. Vreven, J. A. Montgomery, Jr., 
 J. E. Peralta, F. Ogliaro, M. Bearpark, J. J. Heyd, E. Brothers, 
 K. N. Kudin, V. N. Staroverov, T. Keith, R. Kobayashi, J. Normand, 
 K. Raghavachari, A. Rendell, J. C. Burant, S. S. Iyengar, J. Tomasi, 
 M. Cossi, N. Rega, J. M. Millam, M. Klene, J. E. Knox, J. B. Cross, 
 V. Bakken, C. Adamo, J. Jaramillo, R. Gomperts, R. E. Stratmann, 
 O. Yazyev, A. J. Austin, R. Cammi, C. Pomelli, J. W. Ochterski, 
 R. L. Martin, K. Morokuma, V. G. Zakrzewski, G. A. Voth, 
 P. Salvador, J. J. Dannenberg, S. Dapprich, A. D. Daniels, 
 O. Farkas, J. B. Foresman, J. V. Ortiz, J. Cioslowski, 
 and D. J. Fox, Gaussian, Inc., Wallingford CT, 2013.
 
 ******************************************
 Gaussian 09:  ES64L-G09RevD.01 24-Apr-2013
                14-Apr-2016 
 ******************************************
 %chk=Ala-S-opt-freq-qst2-tsb1-6-31g.chk
 -----------------------------
 #p freq rb3lyp/6-31g opt=QST2
 -----------------------------
 1/5=1,14=-1,18=20,26=3,27=202,38=1/1,3;
 2/9=110,12=2,17=6,18=5,40=1/2;
 3/5=1,6=6,11=2,16=1,25=1,30=1,71=1,74=-5,116=1/1,2,3;
 4//1;
 5/5=2,38=5/2;
 6/7=2,8=2,9=2,10=2,28=1/1;
 7//1,2,3,16;
 1/5=1,14=-1,18=20,26=3,27=202/3(2);
 2/9=110/2;
 99//99;
 2/9=110/2;
 3/5=1,6=6,11=2,16=1,25=1,30=1,71=1,74=-5,116=1/1,2,3;
 4/5=5,16=3,69=1/1;
 5/5=2,38=5/2;
 7//1,2,3,16;
 1/5=1,14=-1,18=20,26=3,27=202/3(-5);
 2/9=110/2;
 6/7=2,8=2,9=2,10=2,19=2,28=1/1;
 99/9=1/99;
 Leave Link    1 at Thu Apr 14 05:26:23 2016, MaxMem=           0 cpu:         0.0
 (Enter /usr/local/gau/g09/l101.exe)
 ----------------------------
 Ala-S-opt-freq-6-311++g(d,p)
 ----------------------------
 Symbolic Z-matrix:
 Charge =  0 Multiplicity = 1
 N                    -1.41515  -1.08616  -0.44237 
 H                    -1.19241  -1.6585    0.3664 
 C                    -0.65403   0.15792  -0.40998 
 H                    -0.62201   0.57997  -1.41901 
 C                    -1.19795   1.24002   0.55106 
 C                     0.77509  -0.16871  -0.01055 
 H                    -1.20783   0.87043   1.58011 
 H                    -0.59729   2.15221   0.50792 
 H                    -2.22253   1.49551   0.26808 
 O                     1.10761  -1.09841   0.68073 
 H                    -2.41213  -0.90308  -0.44562 
 O                     1.65384   0.74679  -0.48074 
 H                     2.52999   0.5041   -0.1444 
 
 ------------------------
 Ala-S-opt-freq-pb1-6-31g
 ------------------------
 Symbolic Z-matrix:
 Charge =  0 Multiplicity = 1
 N                    -1.36237  -1.10314   0.48248 
 H                    -1.12512  -1.69368   1.2709 
 C                    -0.66837   0.18023   0.43833 
 H                    -0.72545   0.63842   1.43037 
 C                    -1.34244   1.11188  -0.58783 
 C                     0.82225   0.06999   0.1254 
 H                    -2.39539   1.22847  -0.31874 
 H                    -0.86224   2.09596  -0.60544 
 H                    -1.28271   0.67931  -1.5927 
 O                     1.73899   0.6423    0.71992 
 H                    -1.34974  -1.60991  -0.39557 
 O                     1.0594   -0.76492  -0.95442 
 H                     2.02154  -0.80827  -1.14556 
 
 Iteration  1 RMS(Cart)=  0.09543721 RMS(Int)=  0.68669104
 Iteration  2 RMS(Cart)=  0.06403782 RMS(Int)=  0.65850255
 Iteration  3 RMS(Cart)=  0.06245018 RMS(Int)=  0.63500177
 Iteration  4 RMS(Cart)=  0.06513522 RMS(Int)=  0.61473844
 Iteration  5 RMS(Cart)=  0.06850183 RMS(Int)=  0.59752357
 Iteration  6 RMS(Cart)=  0.07059730 RMS(Int)=  0.58606006
 Iteration  7 RMS(Cart)=  0.07352314 RMS(Int)=  0.57898653
 Iteration  8 RMS(Cart)=  0.07068347 RMS(Int)=  0.57800072
 Iteration  9 RMS(Cart)=  0.06747659 RMS(Int)=  0.58277703
 Iteration 10 RMS(Cart)=  0.05114270 RMS(Int)=  0.59137394
 Iteration 11 RMS(Cart)=  0.03375448 RMS(Int)=  0.60083870
 Iteration 12 RMS(Cart)=  0.02032780 RMS(Int)=  0.60770566
 Iteration 13 RMS(Cart)=  0.01704602 RMS(Int)=  0.61306924
 Iteration 14 RMS(Cart)=  0.01343514 RMS(Int)=  0.61712681
 Iteration 15 RMS(Cart)=  0.00916740 RMS(Int)=  0.61903418
 Iteration 16 RMS(Cart)=  0.00725142 RMS(Int)=  0.62007661
 Iteration 17 RMS(Cart)=  0.00601125 RMS(Int)=  0.62074674
 Iteration 18 RMS(Cart)=  0.00507250 RMS(Int)=  0.62123750
 Iteration 19 RMS(Cart)=  0.00431585 RMS(Int)=  0.62162770
 Iteration 20 RMS(Cart)=  0.00368865 RMS(Int)=  0.62195197
 Iteration 21 RMS(Cart)=  0.00316126 RMS(Int)=  0.62222739
 Iteration 22 RMS(Cart)=  0.00271408 RMS(Int)=  0.62246372
 Iteration 23 RMS(Cart)=  0.00233289 RMS(Int)=  0.62266744
 Iteration 24 RMS(Cart)=  0.00200681 RMS(Int)=  0.62284339
 Iteration 25 RMS(Cart)=  0.00172724 RMS(Int)=  0.62299545
 Iteration 26 RMS(Cart)=  0.00148714 RMS(Int)=  0.62312686
 Iteration 27 RMS(Cart)=  0.00128073 RMS(Int)=  0.62324042
 Iteration 28 RMS(Cart)=  0.00110315 RMS(Int)=  0.62333853
 Iteration 29 RMS(Cart)=  0.00095031 RMS(Int)=  0.62342326
 Iteration 30 RMS(Cart)=  0.00081871 RMS(Int)=  0.62349641
 Iteration 31 RMS(Cart)=  0.00070538 RMS(Int)=  0.62355956
 Iteration 32 RMS(Cart)=  0.00060777 RMS(Int)=  0.62361406
 Iteration 33 RMS(Cart)=  0.00052368 RMS(Int)=  0.62366108
 Iteration 34 RMS(Cart)=  0.00045124 RMS(Int)=  0.62370165
 Iteration 35 RMS(Cart)=  0.00038883 RMS(Int)=  0.62373664
 Iteration 36 RMS(Cart)=  0.00033506 RMS(Int)=  0.62376681
 Iteration 37 RMS(Cart)=  0.00028872 RMS(Int)=  0.62379284
 Iteration 38 RMS(Cart)=  0.00024880 RMS(Int)=  0.62381528
 Iteration 39 RMS(Cart)=  0.00021440 RMS(Int)=  0.62383462
 Iteration 40 RMS(Cart)=  0.00018476 RMS(Int)=  0.62385131
 Iteration 41 RMS(Cart)=  0.00015922 RMS(Int)=  0.62386569
 Iteration 42 RMS(Cart)=  0.00013721 RMS(Int)=  0.62387808
 Iteration 43 RMS(Cart)=  0.00011824 RMS(Int)=  0.62388877
 Iteration 44 RMS(Cart)=  0.00010190 RMS(Int)=  0.62389798
 Iteration 45 RMS(Cart)=  0.00008781 RMS(Int)=  0.62390592
 Iteration 46 RMS(Cart)=  0.00007567 RMS(Int)=  0.62391277
 Iteration 47 RMS(Cart)=  0.00006521 RMS(Int)=  0.62391867
 Iteration 48 RMS(Cart)=  0.00005620 RMS(Int)=  0.62392375
 Iteration 49 RMS(Cart)=  0.00004843 RMS(Int)=  0.62392813
 Iteration 50 RMS(Cart)=  0.00004174 RMS(Int)=  0.62393191
 Iteration 51 RMS(Cart)=  0.00003597 RMS(Int)=  0.62393516
 Iteration 52 RMS(Cart)=  0.00003100 RMS(Int)=  0.62393797
 Iteration 53 RMS(Cart)=  0.00002671 RMS(Int)=  0.62394039
 Iteration 54 RMS(Cart)=  0.00002302 RMS(Int)=  0.62394247
 Iteration 55 RMS(Cart)=  0.00001984 RMS(Int)=  0.62394427
 Iteration 56 RMS(Cart)=  0.00001710 RMS(Int)=  0.62394581
 Iteration 57 RMS(Cart)=  0.00001473 RMS(Int)=  0.62394715
 Iteration 58 RMS(Cart)=  0.00001270 RMS(Int)=  0.62394830
 Iteration 59 RMS(Cart)=  0.00001094 RMS(Int)=  0.62394929
 Iteration 60 RMS(Cart)=  0.00000943 RMS(Int)=  0.62395014
 Iteration 61 RMS(Cart)=  0.00000813 RMS(Int)=  0.62395088
 Iteration 62 RMS(Cart)=  0.00000700 RMS(Int)=  0.62395151
 Iteration 63 RMS(Cart)=  0.00000604 RMS(Int)=  0.62395206
 Iteration 64 RMS(Cart)=  0.00000520 RMS(Int)=  0.62395253
 Iteration 65 RMS(Cart)=  0.00000448 RMS(Int)=  0.62395294
 Iteration 66 RMS(Cart)=  0.00000386 RMS(Int)=  0.62395329
 Iteration 67 RMS(Cart)=  0.00000333 RMS(Int)=  0.62395359
 Iteration 68 RMS(Cart)=  0.00000287 RMS(Int)=  0.62395385
 Iteration 69 RMS(Cart)=  0.00000247 RMS(Int)=  0.62395407
 Iteration 70 RMS(Cart)=  0.00000213 RMS(Int)=  0.62395426
 Iteration 71 RMS(Cart)=  0.00000184 RMS(Int)=  0.62395443
 Iteration 72 RMS(Cart)=  0.00000158 RMS(Int)=  0.62395457
 Iteration 73 RMS(Cart)=  0.00000136 RMS(Int)=  0.62395470
 Iteration 74 RMS(Cart)=  0.00000118 RMS(Int)=  0.62395480
 Iteration 75 RMS(Cart)=  0.00000101 RMS(Int)=  0.62395490
 Iteration 76 RMS(Cart)=  0.00000087 RMS(Int)=  0.62395497
 Iteration  1 RMS(Cart)=  0.00000075 RMS(Int)=  0.62395504
 Iteration  1 RMS(Cart)=  0.00000065 RMS(Int)=  0.62395510
 Iteration  1 RMS(Cart)=  0.00000056 RMS(Int)=  0.62395515
 Iteration  1 RMS(Cart)=  0.00000048 RMS(Int)=  0.62395520
 Iteration  1 RMS(Cart)=  0.00000041 RMS(Int)=  0.62395523
 Iteration  1 RMS(Cart)=  0.00000036 RMS(Int)=  0.62395527
 Iteration  1 RMS(Cart)=  0.00000031 RMS(Int)=  0.62395529
 Iteration  1 RMS(Cart)=  0.00000027 RMS(Int)=  0.62395532
 Iteration  1 RMS(Cart)=  0.00000023 RMS(Int)=  0.62395534
   Var     Old X     New X   DQ Goal   DQ Act.  Rel. Err.   Overall
     1    1.9191    1.9169   -0.0022   -0.0022
     2    2.7567    2.7575    0.0008    0.0008
     3    1.9155    1.9157    0.0002    0.0002
     4    2.0678    2.0678    0.0000    0.0000
     5    2.9217    2.9171   -0.0046   -0.0046
     6    2.8713    2.8785    0.0073    0.0073
     7    2.0663    2.0659   -0.0004   -0.0004
     8    2.0655    2.0675    0.0020    0.0020
     9    2.0659    2.0682    0.0023    0.0023
    10    2.2777    2.3043    0.0266    0.0266    1.0000
    11    2.5574    2.5877    0.0303    0.0303    1.0000
    12    1.8318    1.8437    0.0119    0.0119    1.0000
    13    1.9268    2.1008    0.0413    0.1740    4.2149
    14    1.8966    2.0644    0.0318    0.1678    5.2761
    15    1.9382    2.0970    0.0261    0.1588    6.0944
    16    1.9005    1.8906   -0.0041   -0.0099
    17    2.0121    2.1603   -0.0452    0.1481   -3.2745
    18    1.8894    2.2264    0.0502    0.3370    6.7143
    19    1.8897    2.2323    0.0075    0.3426
    20    1.8732    0.3360   -0.0161   -1.5372   95.4905
    21    1.8944    1.8965    0.0086    0.0022
    22    1.9301    1.9366   -0.0158    0.0065   -0.4118
    23    1.9458    1.9457   -0.0022   -0.0001
    24    1.9096    1.8958    0.0084   -0.0138
    25    1.9009    1.9441    0.0033    0.0431
    26    1.8903    1.8927    0.0033    0.0024
    27    1.8858    1.8454    0.0033   -0.0404
    28    2.1847    2.1953    0.0106    0.0106    1.0034
    29    1.9541    1.9522   -0.0020   -0.0019
    30    2.1435    2.1354   -0.0082   -0.0082
    31    1.8723    1.8982    0.0259    0.0259    1.0000
    32    2.7899    1.0076   -1.8071   -1.7823    0.9863
    33   -1.3661   -2.1402   -0.7703   -0.7741    1.0049
    34    0.7587    0.9939    0.2308    0.2352    1.0189
    35   -1.3884   -2.3562   -0.8693   -0.9677    1.1132
    36    0.7388    0.7793    0.1675    0.0405    0.2419
    37    2.8636   -2.3699   -1.9730   -5.2334    2.6525
    38    1.0485    1.0566   -0.0256    0.0081   -0.3164
    39   -3.1170   -3.0488    3.1082    0.0682    0.0220
    40   -1.0322   -1.0223   -0.0251    0.0099   -0.3945
    41   -3.1017   -2.0924    1.0121    1.0093    0.9972
    42   -0.9841    0.0854    1.0043    1.0694    1.0648
    43    1.1008    2.1118    1.0126    1.0111    0.9985
    44   -1.0736   -2.0787   -1.0056   -1.0051    0.9995
    45    1.0440    0.0991   -1.0133   -0.9449    0.9325
    46    3.1288    2.1256   -1.0051   -1.0033    0.9982
    47   -0.4991   -1.3886   -0.9147   -0.8895    0.9725
    48    2.6858    1.7809   -0.9302   -0.9050    0.9729
    49   -2.5478   -1.4280    1.1467    1.1198    0.9766
    50    0.6370    1.7414    1.1312    1.1044    0.9763
    51    1.6966    1.7464    0.0482    0.0498    1.0323
    52   -1.4017   -1.3673    0.0327    0.0344    1.0491
    53    3.0835    3.1045    0.0209    0.0210    1.0035
    54   -0.0160   -0.0104    0.0057    0.0056
 NAtoms=     13 NQM=       13 NQMF=       0 NMMI=      0 NMMIF=      0
                NMic=       0 NMicF=      0.
                    Isotopes and Nuclear Properties:
 (Nuclear quadrupole moments (NQMom) in fm**2, nuclear magnetic moments (NMagM)
  in nuclear magnetons)

  Atom         1           2           3           4           5           6           7           8           9          10
 IAtWgt=          14           1          12           1          12          12           1           1           1          16
 AtmWgt=  14.0030740   1.0078250  12.0000000   1.0078250  12.0000000  12.0000000   1.0078250   1.0078250   1.0078250  15.9949146
 NucSpn=           2           1           0           1           0           0           1           1           1           0
 AtZEff=   0.0000000   0.0000000   0.0000000   0.0000000   0.0000000   0.0000000   0.0000000   0.0000000   0.0000000   0.0000000
 NQMom=    2.0440000   0.0000000   0.0000000   0.0000000   0.0000000   0.0000000   0.0000000   0.0000000   0.0000000   0.0000000
 NMagM=    0.4037610   2.7928460   0.0000000   2.7928460   0.0000000   0.0000000   2.7928460   2.7928460   2.7928460   0.0000000
 AtZNuc=   7.0000000   1.0000000   6.0000000   1.0000000   6.0000000   6.0000000   1.0000000   1.0000000   1.0000000   8.0000000

  Atom        11          12          13
 IAtWgt=           1          16           1
 AtmWgt=   1.0078250  15.9949146   1.0078250
 NucSpn=           1           0           1
 AtZEff=   0.0000000   0.0000000   0.0000000
 NQMom=    0.0000000   0.0000000   0.0000000
 NMagM=    2.7928460   0.0000000   2.7928460
 AtZNuc=   1.0000000   8.0000000   1.0000000
 Leave Link  101 at Thu Apr 14 05:26:23 2016, MaxMem=    33554432 cpu:         0.3
 (Enter /usr/local/gau/g09/l103.exe)

 GradGradGradGradGradGradGradGradGradGradGradGradGradGradGradGradGradGrad
 Berny optimization.
 Initialization pass.
                           ----------------------------
                           !    Initial Parameters    !
                           ! (Angstroms and Degrees)  !
 --------------------------                            --------------------------
 ! Name  Definition        TS        Reactant  Product Derivative Info.         !
 --------------------------------------------------------------------------------
 ! R1    R(1,2)             1.0144    1.0155    1.0132 estimate D2E/DX2         !
 ! R2    R(1,3)             1.4592    1.4588    1.4597 estimate D2E/DX2         !
 ! R3    R(1,11)            1.0138    1.0137    1.0139 estimate D2E/DX2         !
 ! R4    R(3,4)             1.0942    1.0942    1.0942 estimate D2E/DX2         !
 ! R5    R(3,5)             1.5436    1.5461    1.5412 estimate D2E/DX2         !
 ! R6    R(3,6)             1.5233    1.5194    1.5271 estimate D2E/DX2         !
 ! R7    R(5,7)             1.0932    1.0935    1.093  estimate D2E/DX2         !
 ! R8    R(5,8)             1.0941    1.093     1.0951 estimate D2E/DX2         !
 ! R9    R(5,9)             1.0944    1.0932    1.0957 estimate D2E/DX2         !
 ! R10   R(6,10)            1.2194    1.2053    1.2335 estimate D2E/DX2         !
 ! R11   R(6,12)            1.3694    1.3533    1.3854 estimate D2E/DX2         !
 ! R12   R(12,13)           0.9756    0.9694    0.9819 estimate D2E/DX2         !
 ! A1    A(2,1,3)         120.3688  110.397   115.1286 estimate D2E/DX2         !
 ! A2    A(2,1,11)        118.28    108.6676  112.3114 estimate D2E/DX2         !
 ! A3    A(3,1,11)        120.1515  111.0515  114.0378 estimate D2E/DX2         !
 ! A4    A(1,3,4)         108.3236  108.8891  108.4169 estimate D2E/DX2         !
 ! A5    A(1,3,5)         123.7738  115.2856  110.1011 estimate D2E/DX2         !
 ! A6    A(1,3,6)         127.562   108.2548  114.0059 estimate D2E/DX2         !
 ! A7    A(4,3,5)         127.9016  108.2732  109.129  estimate D2E/DX2         !
 ! A8    A(4,3,6)          19.2507  107.3259  105.4812 estimate D2E/DX2         !
 ! A9    A(5,3,6)         108.6631  108.5388  109.5189 estimate D2E/DX2         !
 ! A10   A(3,5,7)         110.9568  110.5846  108.7772 estimate D2E/DX2         !
 ! A11   A(3,5,8)         111.4793  111.4838  111.2309 estimate D2E/DX2         !
 ! A12   A(3,5,9)         108.6228  109.4138  110.374  estimate D2E/DX2         !
 ! A13   A(7,5,8)         111.3886  108.9163  109.3001 estimate D2E/DX2         !
 ! A14   A(7,5,9)         108.4439  108.308   108.6881 estimate D2E/DX2         !
 ! A15   A(8,5,9)         105.7318  108.0458  108.4282 estimate D2E/DX2         !
 ! A16   A(3,6,10)        125.7823  125.1745  126.386  estimate D2E/DX2         !
 ! A17   A(3,6,12)        111.8505  111.962   111.7347 estimate D2E/DX2         !
 ! A18   A(10,6,12)       122.3475  122.815   121.8756 estimate D2E/DX2         !
 ! A19   A(6,12,13)       108.7616  107.2766  110.2467 estimate D2E/DX2         !
 ! D1    D(2,1,3,4)        57.7305  159.8487  -47.2258 estimate D2E/DX2         !
 ! D2    D(2,1,3,5)      -122.6226  -78.2711 -166.5433 estimate D2E/DX2         !
 ! D3    D(2,1,3,6)        56.946    43.4703   69.9205 estimate D2E/DX2         !
 ! D4    D(11,1,3,4)     -134.9983  -79.5522 -179.1654 estimate D2E/DX2         !
 ! D5    D(11,1,3,5)       44.6486   42.328    61.517  estimate D2E/DX2         !
 ! D6    D(11,1,3,6)     -135.7828  164.0694  -62.0192 estimate D2E/DX2         !
 ! D7    D(1,3,5,7)        60.5395   60.0762   57.1481 estimate D2E/DX2         !
 ! D8    D(1,3,5,8)      -174.684  -178.5935  177.5856 estimate D2E/DX2         !
 ! D9    D(1,3,5,9)       -58.5757  -59.1421  -62.0137 estimate D2E/DX2         !
 ! D10   D(4,3,5,7)      -119.8853 -177.7128  -61.7346 estimate D2E/DX2         !
 ! D11   D(4,3,5,8)         4.8913  -56.3825   58.7029 estimate D2E/DX2         !
 ! D12   D(4,3,5,9)       120.9995   63.0689  179.1036 estimate D2E/DX2         !
 ! D13   D(6,3,5,7)      -119.0995  -61.5121 -176.7399 estimate D2E/DX2         !
 ! D14   D(6,3,5,8)         5.677    59.8182  -56.3024 estimate D2E/DX2         !
 ! D15   D(6,3,5,9)       121.7853  179.2696   64.0984 estimate D2E/DX2         !
 ! D16   D(1,3,6,10)      -79.5592  -28.5941 -133.4119 estimate D2E/DX2         !
 ! D17   D(1,3,6,12)      102.0354  153.8859   47.2919 estimate D2E/DX2         !
 ! D18   D(4,3,6,10)      -81.8185 -145.9808  -14.5819 estimate D2E/DX2         !
 ! D19   D(4,3,6,12)       99.7761   36.4992  166.1219 estimate D2E/DX2         !
 ! D20   D(5,3,6,10)      100.0623   97.2085  102.7373 estimate D2E/DX2         !
 ! D21   D(5,3,6,12)      -78.3431  -80.3115  -76.5588 estimate D2E/DX2         !
 ! D22   D(3,6,12,13)     177.8733  176.6707  179.0674 estimate D2E/DX2         !
 ! D23   D(10,6,12,13)     -0.5955   -0.9173   -0.2653 estimate D2E/DX2         !
 --------------------------------------------------------------------------------
 Trust Radius=3.00D-01 FncErr=1.00D-07 GrdErr=1.00D-06
 Number of steps in this run=     64 maximum allowed number of steps=    100.
 Search for a saddle point of order  1.
 GradGradGradGradGradGradGradGradGradGradGradGradGradGradGradGradGradGrad

 Leave Link  103 at Thu Apr 14 05:26:23 2016, MaxMem=    33554432 cpu:         0.0
 (Enter /usr/local/gau/g09/l202.exe)
                          Input orientation:                          
 ---------------------------------------------------------------------
 Center     Atomic      Atomic             Coordinates (Angstroms)
 Number     Number       Type             X           Y           Z
 ---------------------------------------------------------------------
      1          7           0       -1.645861   -1.025694   -0.478753
      2          1           0       -1.573658   -1.991361   -0.176698
      3          6           0       -0.732413   -0.017424    0.048835
      4          1           0        0.291933   -0.330660   -0.174596
      5          6           0       -1.194881    1.259942    0.781847
      6          6           0        0.789861   -0.024278   -0.005307
      7          1           0       -1.759828    1.010292    1.683894
      8          1           0       -0.351668    1.919117    1.008804
      9          1           0       -1.845932    1.830724    0.112424
     10          8           0        1.526743   -0.655105    0.733590
     11          1           0       -2.471905   -0.744310   -0.994697
     12          8           0        1.268828    0.806835   -0.982530
     13          1           0        2.243994    0.794020   -0.955181
 ---------------------------------------------------------------------
                    Distance matrix (angstroms):
                    1          2          3          4          5
     1  N    0.000000
     2  H    1.014378   0.000000
     3  C    1.459227   2.157542   0.000000
     4  H    2.081016   2.497671   1.094222   0.000000
     5  C    2.648892   3.410755   1.543647   2.378111   0.000000
     6  C    2.675767   3.079776   1.523252   0.608656   2.491592
     7  H    2.972418   3.536437   2.187510   3.076013   1.093243
     8  H    3.543963   4.265034   2.194698   2.622242   1.094088
     9  H    2.923806   3.842663   2.158615   3.053593   1.094435
    10  O    3.416508   3.496669   2.445263   1.566787   3.328208
    11  H    1.013767   1.741007   2.154798   2.912468   2.967141
    12  O    3.479564   4.069274   2.397516   1.703225   3.064016
    13  H    4.320800   4.789452   3.244301   2.384274   3.880749
                    6          7          8          9         10
     6  C    0.000000
     7  H    3.228722   0.000000
     8  H    2.471496   1.806827   0.000000
     9  H    3.225260   1.774836   1.744745   0.000000
    10  O    1.219388   3.805019   3.198561   4.235580   0.000000
    11  H    3.483742   3.280325   3.950097   2.871996   4.357077
    12  O    1.369352   4.040293   2.797961   3.456733   2.269110
    13  H    1.919993   4.800217   3.443913   4.352245   2.338025
                   11         12         13
    11  H    0.000000
    12  O    4.049602   0.000000
    13  H    4.960616   0.975633   0.000000
 Stoichiometry    C3H7NO2
 Framework group  C1[X(C3H7NO2)]
 Deg. of freedom    33
 Full point group                 C1      NOp   1
 Largest Abelian subgroup         C1      NOp   1
 Largest concise Abelian subgroup C1      NOp   1
                         Standard orientation:                         
 ---------------------------------------------------------------------
 Center     Atomic      Atomic             Coordinates (Angstroms)
 Number     Number       Type             X           Y           Z
 ---------------------------------------------------------------------
      1          7           0       -1.660600   -1.086758   -0.354194
      2          1           0       -1.680703   -1.963470    0.155644
      3          6           0       -0.709105   -0.042500    0.011220
      4          1           0        0.300833   -0.457990   -0.057445
      5          6           0       -1.119590    1.391202    0.409778
      6          6           0        0.808681   -0.151784    0.079632
      7          1           0       -1.757872    1.382728    1.297305
      8          1           0       -0.245212    2.033003    0.553244
      9          1           0       -1.681956    1.836298   -0.416916
     10          8           0        1.447523   -0.644947    0.993732
     11          1           0       -2.428660   -0.878686   -0.982297
     12          8           0        1.409995    0.410876   -1.014424
     13          1           0        2.377713    0.346482   -0.908419
 ---------------------------------------------------------------------
 Rotational constants (GHZ):      4.8626458      2.6178946      2.3259490
 Leave Link  202 at Thu Apr 14 05:26:23 2016, MaxMem=    33554432 cpu:         0.0
 (Enter /usr/local/gau/g09/l301.exe)
 Standard basis: 6-31G (6D, 7F)
 Ernie: Thresh=  0.10000D-02 Tol=  0.10000D-05 Strict=F.
 There are    68 symmetry adapted cartesian basis functions of A   symmetry.
 There are    68 symmetry adapted basis functions of A   symmetry.
    68 basis functions,   160 primitive gaussians,    68 cartesian basis functions
    24 alpha electrons       24 beta electrons
       nuclear repulsion energy       249.1240222874 Hartrees.
 IExCor=  402 DFT=T Ex+Corr=B3LYP ExCW=0 ScaHFX=  0.200000
 ScaDFX=  0.800000  0.720000  1.000000  0.810000 ScalE2=  1.000000  1.000000
 IRadAn=      0 IRanWt=     -1 IRanGd=            0 ICorTp=0 IEmpDi=  4
 NAtoms=   13 NActive=   13 NUniq=   13 SFac= 1.00D+00 NAtFMM=   60 NAOKFM=F Big=F
 Integral buffers will be    131072 words long.
 Raffenetti 2 integral format.
 Two-electron integral symmetry is turned on.
 Leave Link  301 at Thu Apr 14 05:26:23 2016, MaxMem=    33554432 cpu:         0.0
 (Enter /usr/local/gau/g09/l302.exe)
 NPDir=0 NMtPBC=     1 NCelOv=     1 NCel=       1 NClECP=     1 NCelD=      1
         NCelK=      1 NCelE2=     1 NClLst=     1 CellRange=     0.0.
 One-electron integrals computed using PRISM.
 NBasis=    68 RedAO= T EigKep=  8.20D-04  NBF=    68
 NBsUse=    68 1.00D-06 EigRej= -1.00D+00 NBFU=    68
 Precomputing XC quadrature grid using
 IXCGrd= 4 IRadAn=           0 IRanWt=          -1 IRanGd=           0 AccXCQ= 0.00D+00.
 Generated NRdTot=       0 NPtTot=           0 NUsed=           0 NTot=          32
 NSgBfM=    68    68    68    68    68 MxSgAt=    13 MxSgA2=    13.
 Leave Link  302 at Thu Apr 14 05:26:23 2016, MaxMem=    33554432 cpu:         0.3
 (Enter /usr/local/gau/g09/l303.exe)
 DipDrv:  MaxL=1.
 Leave Link  303 at Thu Apr 14 05:26:24 2016, MaxMem=    33554432 cpu:         0.0
 (Enter /usr/local/gau/g09/l401.exe)
 ExpMin= 1.61D-01 ExpMax= 5.48D+03 ExpMxC= 8.25D+02 IAcc=1 IRadAn=         1 AccDes= 0.00D+00
 Harris functional with IExCor=  402 and IRadAn=       1 diagonalized for initial guess.
 HarFok:  IExCor=  402 AccDes= 0.00D+00 IRadAn=         1 IDoV= 1 UseB2=F ITyADJ=14
 ICtDFT=  3500011 ScaDFX=  1.000000  1.000000  1.000000  1.000000
 FoFCou: FMM=F IPFlag=           0 FMFlag=      100000 FMFlg1=           0
         NFxFlg=           0 DoJE=T BraDBF=F KetDBF=T FulRan=T
         wScrn=  0.000000 ICntrl=     500 IOpCl=  0 I1Cent=   200000004 NGrid=           0
         NMat0=    1 NMatS0=      1 NMatT0=    0 NMatD0=    1 NMtDS0=    0 NMtDT0=    0
 Petite list used in FoFCou.
 Harris En= -322.926629935750    
 JPrj=0 DoOrth=F DoCkMO=F.
 Leave Link  401 at Thu Apr 14 05:26:24 2016, MaxMem=    33554432 cpu:         0.5
 (Enter /usr/local/gau/g09/l502.exe)
 Closed shell SCF:
 Using DIIS extrapolation, IDIIS=  1040.
 Integral symmetry usage will be decided dynamically.
 Keep R1 ints in memory in canonical form, NReq=3676491.
 IVT=       33364 IEndB=       33364 NGot=    33554432 MDV=    30768038
 LenX=    30768038 LenY=    30762973
 Requested convergence on RMS density matrix=1.00D-08 within 128 cycles.
 Requested convergence on MAX density matrix=1.00D-06.
 Requested convergence on             energy=1.00D-06.
 No special actions if energy rises.
 FoFCou: FMM=F IPFlag=           0 FMFlag=           0 FMFlg1=           0
         NFxFlg=           0 DoJE=F BraDBF=F KetDBF=F FulRan=T
         wScrn=  0.000000 ICntrl=     600 IOpCl=  0 I1Cent=           0 NGrid=           0
         NMat0=    1 NMatS0=   2346 NMatT0=    0 NMatD0=    1 NMtDS0=    0 NMtDT0=    0
 Symmetry not used in FoFCou.
 Integral accuracy reduced to 1.0D-05 until final iterations.

 Cycle   1  Pass 0  IDiag  1:
 E= -322.521231630204    
 DIIS: error= 6.46D-02 at cycle   1 NSaved=   1.
 NSaved= 1 IEnMin= 1 EnMin= -322.521231630204     IErMin= 1 ErrMin= 6.46D-02
 ErrMax= 6.46D-02  0.00D+00 EMaxC= 1.00D-01 BMatC= 2.75D-01 BMatP= 2.75D-01
 IDIUse=3 WtCom= 3.54D-01 WtEn= 6.46D-01
 Coeff-Com:  0.100D+01
 Coeff-En:   0.100D+01
 Coeff:      0.100D+01
 Gap=    -0.093 Goal=   None    Shift=    0.000
 GapD=   -0.093 DampG=0.250 DampE=0.500 DampFc=0.2500 IDamp=-1.
 Damping current iteration by 2.50D-01
 RMSDP=8.37D-02 MaxDP=2.43D+00              OVMax= 9.68D-01

 Cycle   2  Pass 0  IDiag  1:
 E= -322.482175492928     Delta-E=        0.039056137277 Rises=F Damp=T
 DIIS: error= 1.90D-02 at cycle   2 NSaved=   2.
 NSaved= 2 IEnMin= 1 EnMin= -322.521231630204     IErMin= 2 ErrMin= 1.90D-02
 ErrMax= 1.90D-02  0.00D+00 EMaxC= 1.00D-01 BMatC= 5.84D-02 BMatP= 2.75D-01
 IDIUse=3 WtCom= 8.10D-01 WtEn= 1.90D-01
 Coeff-Com:  0.718D-01 0.928D+00
 Coeff-En:   0.567D+00 0.433D+00
 Coeff:      0.166D+00 0.834D+00
 Gap=    -0.286 Goal=   None    Shift=    0.000
 RMSDP=2.49D-02 MaxDP=6.04D-01 DE= 3.91D-02 OVMax= 7.16D-01

 Cycle   3  Pass 0  IDiag  1:
 E= -322.691451548371     Delta-E=       -0.209276055443 Rises=F Damp=F
 DIIS: error= 4.91D-02 at cycle   3 NSaved=   3.
 NSaved= 3 IEnMin= 3 EnMin= -322.691451548371     IErMin= 2 ErrMin= 1.90D-02
 ErrMax= 4.91D-02  0.00D+00 EMaxC= 1.00D-01 BMatC= 1.64D-01 BMatP= 5.84D-02
 IDIUse=2 WtCom= 0.00D+00 WtEn= 1.00D+00
 EnCoef did     3 forward-backward iterations
 Coeff-En:   0.146D+00 0.626D-01 0.791D+00
 Coeff:      0.146D+00 0.626D-01 0.791D+00
 Gap=     0.089 Goal=   None    Shift=    0.000
 RMSDP=2.27D-02 MaxDP=2.66D-01 DE=-2.09D-01 OVMax= 5.64D-01

 Cycle   4  Pass 0  IDiag  1:
 E= -322.019104182149     Delta-E=        0.672347366222 Rises=F Damp=F
 DIIS: error= 1.72D-01 at cycle   4 NSaved=   4.
 NSaved= 4 IEnMin= 3 EnMin= -322.691451548371     IErMin= 2 ErrMin= 1.90D-02
 ErrMax= 1.72D-01  0.00D+00 EMaxC= 1.00D-01 BMatC= 8.78D-01 BMatP= 5.84D-02
 IDIUse=2 WtCom= 0.00D+00 WtEn= 1.00D+00
 EnCoef did     2 forward-backward iterations
 Coeff-En:   0.840D-01 0.000D+00 0.704D+00 0.212D+00
 Coeff:      0.840D-01 0.000D+00 0.704D+00 0.212D+00
 Gap=     0.194 Goal=   None    Shift=    0.000
 RMSDP=1.47D-02 MaxDP=1.52D-01 DE= 6.72D-01 OVMax= 2.78D-01

 Cycle   5  Pass 0  IDiag  1:
 E= -322.803750981188     Delta-E=       -0.784646799039 Rises=F Damp=F
 DIIS: error= 3.22D-02 at cycle   5 NSaved=   5.
 NSaved= 5 IEnMin= 5 EnMin= -322.803750981188     IErMin= 2 ErrMin= 1.90D-02
 ErrMax= 3.22D-02  0.00D+00 EMaxC= 1.00D-01 BMatC= 5.51D-02 BMatP= 5.84D-02
 IDIUse=3 WtCom= 6.78D-01 WtEn= 3.22D-01
 Coeff-Com:  0.866D-02 0.163D+00 0.348D+00-0.356D-02 0.484D+00
 Coeff-En:   0.000D+00 0.000D+00 0.277D+00 0.000D+00 0.723D+00
 Coeff:      0.587D-02 0.110D+00 0.325D+00-0.241D-02 0.561D+00
 Gap=     0.071 Goal=   None    Shift=    0.000
 RMSDP=5.49D-03 MaxDP=5.27D-02 DE=-7.85D-01 OVMax= 1.39D-01

 Cycle   6  Pass 0  IDiag  1:
 E= -322.846489814186     Delta-E=       -0.042738832998 Rises=F Damp=F
 DIIS: error= 8.03D-03 at cycle   6 NSaved=   6.
 NSaved= 6 IEnMin= 6 EnMin= -322.846489814186     IErMin= 6 ErrMin= 8.03D-03
 ErrMax= 8.03D-03  0.00D+00 EMaxC= 1.00D-01 BMatC= 5.68D-03 BMatP= 5.51D-02
 IDIUse=3 WtCom= 9.20D-01 WtEn= 8.03D-02
 Coeff-Com: -0.362D-01 0.749D-01 0.993D-01-0.282D-01 0.343D+00 0.547D+00
 Coeff-En:   0.000D+00 0.000D+00 0.000D+00 0.000D+00 0.141D+00 0.859D+00
 Coeff:     -0.333D-01 0.689D-01 0.914D-01-0.259D-01 0.327D+00 0.572D+00
 Gap=     0.080 Goal=   None    Shift=    0.000
 RMSDP=2.81D-03 MaxDP=3.72D-02 DE=-4.27D-02 OVMax= 8.96D-02

 Cycle   7  Pass 0  IDiag  1:
 E= -322.852707088602     Delta-E=       -0.006217274416 Rises=F Damp=F
 DIIS: error= 2.23D-03 at cycle   7 NSaved=   7.
 NSaved= 7 IEnMin= 7 EnMin= -322.852707088602     IErMin= 7 ErrMin= 2.23D-03
 ErrMax= 2.23D-03  0.00D+00 EMaxC= 1.00D-01 BMatC= 6.81D-04 BMatP= 5.68D-03
 IDIUse=3 WtCom= 9.78D-01 WtEn= 2.23D-02
 Coeff-Com: -0.131D-01 0.570D-02 0.588D-02-0.163D-01 0.151D+00 0.395D+00
 Coeff-Com:  0.472D+00
 Coeff-En:   0.000D+00 0.000D+00 0.000D+00 0.000D+00 0.000D+00 0.709D-01
 Coeff-En:   0.929D+00
 Coeff:     -0.128D-01 0.557D-02 0.575D-02-0.160D-01 0.147D+00 0.388D+00
 Coeff:      0.482D+00
 Gap=     0.080 Goal=   None    Shift=    0.000
 RMSDP=5.67D-04 MaxDP=8.80D-03 DE=-6.22D-03 OVMax= 5.79D-03

 Cycle   8  Pass 0  IDiag  1:
 E= -322.853315449527     Delta-E=       -0.000608360925 Rises=F Damp=F
 DIIS: error= 1.04D-03 at cycle   8 NSaved=   8.
 NSaved= 8 IEnMin= 8 EnMin= -322.853315449527     IErMin= 8 ErrMin= 1.04D-03
 ErrMax= 1.04D-03  0.00D+00 EMaxC= 1.00D-01 BMatC= 8.85D-05 BMatP= 6.81D-04
 IDIUse=3 WtCom= 9.90D-01 WtEn= 1.04D-02
 Coeff-Com:  0.710D-02-0.813D-02-0.128D-01-0.258D-02-0.511D-02 0.930D-01
 Coeff-Com:  0.854D-01 0.843D+00
 Coeff-En:   0.000D+00 0.000D+00 0.000D+00 0.000D+00 0.000D+00 0.000D+00
 Coeff-En:   0.000D+00 0.100D+01
 Coeff:      0.702D-02-0.804D-02-0.127D-01-0.256D-02-0.506D-02 0.920D-01
 Coeff:      0.846D-01 0.845D+00
 Gap=     0.080 Goal=   None    Shift=    0.000
 RMSDP=2.70D-04 MaxDP=2.57D-03 DE=-6.08D-04 OVMax= 5.00D-03

 Cycle   9  Pass 0  IDiag  1:
 E= -322.853365925859     Delta-E=       -0.000050476333 Rises=F Damp=F
 DIIS: error= 9.27D-04 at cycle   9 NSaved=   9.
 NSaved= 9 IEnMin= 9 EnMin= -322.853365925859     IErMin= 9 ErrMin= 9.27D-04
 ErrMax= 9.27D-04  0.00D+00 EMaxC= 1.00D-01 BMatC= 4.25D-05 BMatP= 8.85D-05
 IDIUse=3 WtCom= 9.91D-01 WtEn= 9.27D-03
 Coeff-Com:  0.646D-02-0.477D-02-0.328D-02-0.252D-02-0.321D-02 0.363D-01
 Coeff-Com: -0.353D-01 0.392D+00 0.615D+00
 Coeff-En:   0.000D+00 0.000D+00 0.000D+00 0.000D+00 0.000D+00 0.000D+00
 Coeff-En:   0.000D+00 0.000D+00 0.100D+01
 Coeff:      0.640D-02-0.472D-02-0.325D-02-0.250D-02-0.318D-02 0.359D-01
 Coeff:     -0.350D-01 0.388D+00 0.618D+00
 Gap=     0.079 Goal=   None    Shift=    0.000
 RMSDP=9.96D-05 MaxDP=1.31D-03 DE=-5.05D-05 OVMax= 1.72D-03

 Cycle  10  Pass 0  IDiag  1:
 E= -322.853400214932     Delta-E=       -0.000034289073 Rises=F Damp=F
 DIIS: error= 3.89D-04 at cycle  10 NSaved=  10.
 NSaved=10 IEnMin=10 EnMin= -322.853400214932     IErMin=10 ErrMin= 3.89D-04
 ErrMax= 3.89D-04  0.00D+00 EMaxC= 1.00D-01 BMatC= 1.17D-05 BMatP= 4.25D-05
 IDIUse=3 WtCom= 9.96D-01 WtEn= 3.89D-03
 Coeff-Com:  0.200D-02-0.126D-02 0.462D-02-0.154D-02 0.682D-02-0.205D-02
 Coeff-Com: -0.687D-01-0.156D+00 0.103D+00 0.111D+01
 Coeff-En:   0.000D+00 0.000D+00 0.000D+00 0.000D+00 0.000D+00 0.000D+00
 Coeff-En:   0.000D+00 0.000D+00 0.000D+00 0.100D+01
 Coeff:      0.199D-02-0.125D-02 0.460D-02-0.154D-02 0.680D-02-0.204D-02
 Coeff:     -0.684D-01-0.156D+00 0.103D+00 0.111D+01
 Gap=     0.079 Goal=   None    Shift=    0.000
 RMSDP=8.46D-05 MaxDP=7.29D-04 DE=-3.43D-05 OVMax= 1.32D-03

 Cycle  11  Pass 0  IDiag  1:
 E= -322.853412250586     Delta-E=       -0.000012035654 Rises=F Damp=F
 DIIS: error= 1.23D-04 at cycle  11 NSaved=  11.
 NSaved=11 IEnMin=11 EnMin= -322.853412250586     IErMin=11 ErrMin= 1.23D-04
 ErrMax= 1.23D-04  0.00D+00 EMaxC= 1.00D-01 BMatC= 4.83D-07 BMatP= 1.17D-05
 IDIUse=3 WtCom= 9.99D-01 WtEn= 1.23D-03
 Coeff-Com:  0.151D-03 0.158D-03-0.366D-05-0.839D-04-0.861D-03 0.314D-02
 Coeff-Com:  0.119D-01 0.543D-02-0.157D+00 0.204D+00 0.933D+00
 Coeff-En:   0.000D+00 0.000D+00 0.000D+00 0.000D+00 0.000D+00 0.000D+00
 Coeff-En:   0.000D+00 0.000D+00 0.000D+00 0.000D+00 0.100D+01
 Coeff:      0.151D-03 0.158D-03-0.366D-05-0.838D-04-0.859D-03 0.313D-02
 Coeff:      0.119D-01 0.543D-02-0.157D+00 0.203D+00 0.933D+00
 Gap=     0.079 Goal=   None    Shift=    0.000
 RMSDP=2.22D-05 MaxDP=2.00D-04 DE=-1.20D-05 OVMax= 5.78D-04

 Cycle  12  Pass 0  IDiag  1:
 E= -322.853412753508     Delta-E=       -0.000000502922 Rises=F Damp=F
 DIIS: error= 9.96D-06 at cycle  12 NSaved=  12.
 NSaved=12 IEnMin=12 EnMin= -322.853412753508     IErMin=12 ErrMin= 9.96D-06
 ErrMax= 9.96D-06  0.00D+00 EMaxC= 1.00D-01 BMatC= 1.12D-08 BMatP= 4.83D-07
 IDIUse=1 WtCom= 1.00D+00 WtEn= 0.00D+00
 Coeff-Com:  0.521D-04-0.261D-04-0.754D-04 0.195D-04-0.511D-03 0.116D-02
 Coeff-Com:  0.534D-02 0.103D-02-0.739D-01 0.812D-01 0.437D+00 0.549D+00
 Coeff:      0.521D-04-0.261D-04-0.754D-04 0.195D-04-0.511D-03 0.116D-02
 Coeff:      0.534D-02 0.103D-02-0.739D-01 0.812D-01 0.437D+00 0.549D+00
 Gap=     0.079 Goal=   None    Shift=    0.000
 RMSDP=3.42D-06 MaxDP=5.52D-05 DE=-5.03D-07 OVMax= 5.85D-05

 Initial convergence to 1.0D-05 achieved.  Increase integral accuracy.
 Cycle  13  Pass 1  IDiag  1:
 E= -322.853427736214     Delta-E=       -0.000014982706 Rises=F Damp=F
 DIIS: error= 1.47D-05 at cycle   1 NSaved=   1.
 NSaved= 1 IEnMin= 1 EnMin= -322.853427736214     IErMin= 1 ErrMin= 1.47D-05
 ErrMax= 1.47D-05  0.00D+00 EMaxC= 1.00D-01 BMatC= 2.03D-08 BMatP= 2.03D-08
 IDIUse=1 WtCom= 1.00D+00 WtEn= 0.00D+00
 Coeff-Com:  0.100D+01
 Coeff:      0.100D+01
 Gap=     0.079 Goal=   None    Shift=    0.000
 RMSDP=3.42D-06 MaxDP=5.52D-05 DE=-1.50D-05 OVMax= 8.53D-05

 Cycle  14  Pass 1  IDiag  1:
 E= -322.853427768313     Delta-E=       -0.000000032098 Rises=F Damp=F
 DIIS: error= 9.22D-06 at cycle   2 NSaved=   2.
 NSaved= 2 IEnMin= 2 EnMin= -322.853427768313     IErMin= 2 ErrMin= 9.22D-06
 ErrMax= 9.22D-06  0.00D+00 EMaxC= 1.00D-01 BMatC= 6.36D-09 BMatP= 2.03D-08
 IDIUse=1 WtCom= 1.00D+00 WtEn= 0.00D+00
 Coeff-Com:  0.289D+00 0.711D+00
 Coeff:      0.289D+00 0.711D+00
 Gap=     0.079 Goal=   None    Shift=    0.000
 RMSDP=5.07D-06 MaxDP=5.54D-05 DE=-3.21D-08 OVMax= 1.58D-04

 Cycle  15  Pass 1  IDiag  1:
 E= -322.853427757071     Delta-E=        0.000000011242 Rises=F Damp=F
 DIIS: error= 1.29D-05 at cycle   3 NSaved=   3.
 NSaved= 3 IEnMin= 2 EnMin= -322.853427768313     IErMin= 2 ErrMin= 9.22D-06
 ErrMax= 1.29D-05  0.00D+00 EMaxC= 1.00D-01 BMatC= 1.74D-08 BMatP= 6.36D-09
 IDIUse=1 WtCom= 1.00D+00 WtEn= 0.00D+00
 Coeff-Com:  0.171D-01 0.621D+00 0.362D+00
 Coeff:      0.171D-01 0.621D+00 0.362D+00
 Gap=     0.079 Goal=   None    Shift=    0.000
 RMSDP=3.75D-06 MaxDP=4.37D-05 DE= 1.12D-08 OVMax= 1.22D-04

 Cycle  16  Pass 1  IDiag  1:
 E= -322.853427773168     Delta-E=       -0.000000016097 Rises=F Damp=F
 DIIS: error= 7.16D-06 at cycle   4 NSaved=   4.
 NSaved= 4 IEnMin= 4 EnMin= -322.853427773168     IErMin= 4 ErrMin= 7.16D-06
 ErrMax= 7.16D-06  0.00D+00 EMaxC= 1.00D-01 BMatC= 1.69D-09 BMatP= 6.36D-09
 IDIUse=1 WtCom= 1.00D+00 WtEn= 0.00D+00
 Coeff-Com: -0.194D-01 0.384D+00 0.278D+00 0.358D+00
 Coeff:     -0.194D-01 0.384D+00 0.278D+00 0.358D+00
 Gap=     0.079 Goal=   None    Shift=    0.000
 RMSDP=7.26D-07 MaxDP=7.74D-06 DE=-1.61D-08 OVMax= 1.69D-05

 Cycle  17  Pass 1  IDiag  1:
 E= -322.853427774678     Delta-E=       -0.000000001510 Rises=F Damp=F
 DIIS: error= 4.78D-07 at cycle   5 NSaved=   5.
 NSaved= 5 IEnMin= 5 EnMin= -322.853427774678     IErMin= 5 ErrMin= 4.78D-07
 ErrMax= 4.78D-07  0.00D+00 EMaxC= 1.00D-01 BMatC= 2.85D-11 BMatP= 1.69D-09
 IDIUse=1 WtCom= 1.00D+00 WtEn= 0.00D+00
 Coeff-Com: -0.967D-02 0.136D+00 0.114D+00 0.161D+00 0.599D+00
 Coeff:     -0.967D-02 0.136D+00 0.114D+00 0.161D+00 0.599D+00
 Gap=     0.079 Goal=   None    Shift=    0.000
 RMSDP=2.51D-07 MaxDP=3.08D-06 DE=-1.51D-09 OVMax= 6.25D-06

 Cycle  18  Pass 1  IDiag  1:
 E= -322.853427774706     Delta-E=       -0.000000000028 Rises=F Damp=F
 DIIS: error= 2.18D-07 at cycle   6 NSaved=   6.
 NSaved= 6 IEnMin= 6 EnMin= -322.853427774706     IErMin= 6 ErrMin= 2.18D-07
 ErrMax= 2.18D-07  0.00D+00 EMaxC= 1.00D-01 BMatC= 5.73D-12 BMatP= 2.85D-11
 IDIUse=1 WtCom= 1.00D+00 WtEn= 0.00D+00
 Coeff-Com: -0.428D-02 0.407D-01 0.369D-01 0.587D-01 0.352D+00 0.516D+00
 Coeff:     -0.428D-02 0.407D-01 0.369D-01 0.587D-01 0.352D+00 0.516D+00
 Gap=     0.079 Goal=   None    Shift=    0.000
 RMSDP=4.34D-08 MaxDP=4.11D-07 DE=-2.84D-11 OVMax= 6.58D-07

 Cycle  19  Pass 1  IDiag  1:
 E= -322.853427774715     Delta-E=       -0.000000000008 Rises=F Damp=F
 DIIS: error= 9.18D-08 at cycle   7 NSaved=   7.
 NSaved= 7 IEnMin= 7 EnMin= -322.853427774715     IErMin= 7 ErrMin= 9.18D-08
 ErrMax= 9.18D-08  0.00D+00 EMaxC= 1.00D-01 BMatC= 6.22D-13 BMatP= 5.73D-12
 IDIUse=1 WtCom= 1.00D+00 WtEn= 0.00D+00
 Coeff-Com: -0.514D-03 0.134D-02-0.811D-05 0.937D-02 0.963D-01 0.207D+00
 Coeff-Com:  0.687D+00
 Coeff:     -0.514D-03 0.134D-02-0.811D-05 0.937D-02 0.963D-01 0.207D+00
 Coeff:      0.687D+00
 Gap=     0.079 Goal=   None    Shift=    0.000
 RMSDP=2.45D-08 MaxDP=2.69D-07 DE=-8.19D-12 OVMax= 5.73D-07

 Cycle  20  Pass 1  IDiag  1:
 E= -322.853427774715     Delta-E=        0.000000000000 Rises=F Damp=F
 DIIS: error= 4.61D-08 at cycle   8 NSaved=   8.
 NSaved= 8 IEnMin= 8 EnMin= -322.853427774715     IErMin= 8 ErrMin= 4.61D-08
 ErrMax= 4.61D-08  0.00D+00 EMaxC= 1.00D-01 BMatC= 2.90D-13 BMatP= 6.22D-13
 IDIUse=1 WtCom= 1.00D+00 WtEn= 0.00D+00
 Coeff-Com:  0.218D-03-0.354D-02-0.565D-02-0.334D-03 0.100D-01 0.257D-01
 Coeff-Com:  0.442D+00 0.532D+00
 Coeff:      0.218D-03-0.354D-02-0.565D-02-0.334D-03 0.100D-01 0.257D-01
 Coeff:      0.442D+00 0.532D+00
 Gap=     0.079 Goal=   None    Shift=    0.000
 RMSDP=1.35D-08 MaxDP=2.17D-07 DE=-2.27D-13 OVMax= 2.10D-07

 Cycle  21  Pass 1  IDiag  1:
 E= -322.853427774712     Delta-E=        0.000000000003 Rises=F Damp=F
 DIIS: error= 1.24D-08 at cycle   9 NSaved=   9.
 NSaved= 9 IEnMin= 8 EnMin= -322.853427774715     IErMin= 9 ErrMin= 1.24D-08
 ErrMax= 1.24D-08  0.00D+00 EMaxC= 1.00D-01 BMatC= 2.78D-14 BMatP= 2.90D-13
 IDIUse=1 WtCom= 1.00D+00 WtEn= 0.00D+00
 Coeff-Com:  0.114D-03-0.895D-03-0.170D-02-0.101D-02-0.598D-02-0.382D-01
 Coeff-Com: -0.137D-01-0.325D-01 0.109D+01
 Coeff:      0.114D-03-0.895D-03-0.170D-02-0.101D-02-0.598D-02-0.382D-01
 Coeff:     -0.137D-01-0.325D-01 0.109D+01
 Gap=     0.079 Goal=   None    Shift=    0.000
 RMSDP=5.86D-09 MaxDP=4.96D-08 DE= 2.96D-12 OVMax= 9.23D-08

 SCF Done:  E(RB3LYP) =  -322.853427775     A.U. after   21 cycles
            NFock= 21  Conv=0.59D-08     -V/T= 1.9990
 KE= 3.231802497286D+02 PE=-1.254993216045D+03 EE= 3.598355162546D+02
 Leave Link  502 at Thu Apr 14 05:26:39 2016, MaxMem=    33554432 cpu:        15.1
 (Enter /usr/local/gau/g09/l601.exe)
 Copying SCF densities to generalized density rwf, IOpCl= 0 IROHF=0.

 **********************************************************************

            Population analysis using the SCF density.

 **********************************************************************

 Orbital symmetries:
       Occupied  (A) (A) (A) (A) (A) (A) (A) (A) (A) (A) (A) (A)
                 (A) (A) (A) (A) (A) (A) (A) (A) (A) (A) (A) (A)
       Virtual   (A) (A) (A) (A) (A) (A) (A) (A) (A) (A) (A) (A)
                 (A) (A) (A) (A) (A) (A) (A) (A) (A) (A) (A) (A)
                 (A) (A) (A) (A) (A) (A) (A) (A) (A) (A) (A) (A)
                 (A) (A) (A) (A) (A) (A) (A) (A)
 The electronic state is 1-A.
 Alpha  occ. eigenvalues --  -19.18946 -19.14229 -14.34766 -10.35617 -10.23710
 Alpha  occ. eigenvalues --  -10.19865  -1.15168  -1.03875  -0.96540  -0.86340
 Alpha  occ. eigenvalues --   -0.72776  -0.60493  -0.54683  -0.51333  -0.50043
 Alpha  occ. eigenvalues --   -0.46864  -0.42089  -0.41026  -0.40398  -0.38808
 Alpha  occ. eigenvalues --   -0.31847  -0.29844  -0.27038  -0.15325
 Alpha virt. eigenvalues --   -0.07451   0.05913   0.06971   0.11438   0.13335
 Alpha virt. eigenvalues --    0.15295   0.16617   0.17676   0.22256   0.25182
 Alpha virt. eigenvalues --    0.30231   0.31912   0.38755   0.53882   0.55373
 Alpha virt. eigenvalues --    0.55899   0.58651   0.63256   0.64431   0.66905
 Alpha virt. eigenvalues --    0.72404   0.75125   0.77715   0.80330   0.82266
 Alpha virt. eigenvalues --    0.86909   0.90879   0.91290   0.92376   0.94037
 Alpha virt. eigenvalues --    0.95540   0.97373   0.98922   1.00001   1.07490
 Alpha virt. eigenvalues --    1.09196   1.17970   1.24871   1.33114   1.39630
 Alpha virt. eigenvalues --    1.45457   1.76669   1.85405   2.14171
          Condensed to atoms (all electrons):
               1          2          3          4          5          6
     1  N    6.848863   0.313123   0.343909   0.019380  -0.037882  -0.068780
     2  H    0.313123   0.441313  -0.034898   0.004829   0.003588   0.001177
     3  C    0.343909  -0.034898   5.595365   0.034909   0.326219   0.028298
     4  H    0.019380   0.004829   0.034909   1.730227  -0.067628  -0.464552
     5  C   -0.037882   0.003588   0.326219  -0.067628   5.040163   0.025864
     6  C   -0.068780   0.001177   0.028298  -0.464552   0.025864   5.311299
     7  H   -0.001754   0.000624  -0.046993   0.007987   0.379805  -0.003704
     8  H    0.002891  -0.000057  -0.038866   0.000608   0.369785   0.002449
     9  H   -0.000224  -0.000599  -0.057593  -0.002926   0.354143  -0.002910
    10  O   -0.000423   0.001060  -0.157027   0.112552   0.001065   0.302840
    11  H    0.340163  -0.043972  -0.051272  -0.005706  -0.002469  -0.000359
    12  O    0.003660  -0.000261  -0.078970  -0.133883  -0.004372   0.213507
    13  H   -0.000239   0.000020   0.004891   0.017409  -0.000023  -0.025030
               7          8          9         10         11         12
     1  N   -0.001754   0.002891  -0.000224  -0.000423   0.340163   0.003660
     2  H    0.000624  -0.000057  -0.000599   0.001060  -0.043972  -0.000261
     3  C   -0.046993  -0.038866  -0.057593  -0.157027  -0.051272  -0.078970
     4  H    0.007987   0.000608  -0.002926   0.112552  -0.005706  -0.133883
     5  C    0.379805   0.369785   0.354143   0.001065  -0.002469  -0.004372
     6  C   -0.003704   0.002449  -0.002910   0.302840  -0.000359   0.213507
     7  H    0.567169  -0.020679  -0.051953   0.000957  -0.001473   0.000080
     8  H   -0.020679   0.557312  -0.035646   0.000170  -0.000126   0.000617
     9  H   -0.051953  -0.035646   0.657293  -0.000290   0.005683   0.001049
    10  O    0.000957   0.000170  -0.000290   8.220680  -0.000128  -0.119639
    11  H   -0.001473  -0.000126   0.005683  -0.000128   0.442444   0.000249
    12  O    0.000080   0.000617   0.001049  -0.119639   0.000249   8.415450
    13  H    0.000012   0.000206  -0.000094   0.008634  -0.000011   0.223975
              13
     1  N   -0.000239
     2  H    0.000020
     3  C    0.004891
     4  H    0.017409
     5  C   -0.000023
     6  C   -0.025030
     7  H    0.000012
     8  H    0.000206
     9  H   -0.000094
    10  O    0.008634
    11  H   -0.000011
    12  O    0.223975
    13  H    0.382471
 Mulliken charges:
               1
     1  N   -0.762686
     2  H    0.314054
     3  C    0.132028
     4  H   -0.253207
     5  C   -0.388259
     6  C    0.679901
     7  H    0.169920
     8  H    0.161335
     9  H    0.134067
    10  O   -0.370450
    11  H    0.316978
    12  O   -0.521462
    13  H    0.387779
 Sum of Mulliken charges =   0.00000
 Mulliken charges with hydrogens summed into heavy atoms:
               1
     1  N   -0.131654
     3  C    0.132028
     5  C    0.077064
     6  C    0.426695
    10  O   -0.370450
    12  O   -0.133683
 Electronic spatial extent (au):  <R**2>=            604.8641
 Charge=              0.0000 electrons
 Dipole moment (field-independent basis, Debye):
    X=             -1.4728    Y=              0.2271    Z=             -1.1846  Tot=              1.9037
 Quadrupole moment (field-independent basis, Debye-Ang):
   XX=            -28.5328   YY=            -33.6123   ZZ=            -40.5564
   XY=              3.7928   XZ=             -2.6943   YZ=              2.5134
 Traceless Quadrupole moment (field-independent basis, Debye-Ang):
   XX=              5.7010   YY=              0.6215   ZZ=             -6.3225
   XY=              3.7928   XZ=             -2.6943   YZ=              2.5134
 Octapole moment (field-independent basis, Debye-Ang**2):
  XXX=             10.4161  YYY=             -8.7330  ZZZ=             -1.7133  XYY=             -4.1037
  XXY=             -1.1577  XXZ=            -15.6461  XZZ=             -3.1233  YZZ=              0.7206
  YYZ=              1.8771  XYZ=              1.7782
 Hexadecapole moment (field-independent basis, Debye-Ang**3):
 XXXX=           -324.5652 YYYY=           -193.6160 ZZZZ=           -129.6107 XXXY=             30.3482
 XXXZ=            -11.9472 YYYX=             18.1977 YYYZ=             -4.1422 ZZZX=             -1.7669
 ZZZY=              0.7693 XXYY=            -92.2503 XXZZ=            -80.4084 YYZZ=            -57.8007
 XXYZ=              6.4273 YYXZ=             -3.8937 ZZXY=              3.0946
 N-N= 2.491240222874D+02 E-N=-1.254993216161D+03  KE= 3.231802497286D+02
 No NMR shielding tensors so no spin-rotation constants.
 Leave Link  601 at Thu Apr 14 05:26:39 2016, MaxMem=    33554432 cpu:         0.1
 (Enter /usr/local/gau/g09/l701.exe)
 Compute integral first derivatives.
 ... and contract with generalized density number  0.
 Leave Link  701 at Thu Apr 14 05:26:40 2016, MaxMem=    33554432 cpu:         0.1
 (Enter /usr/local/gau/g09/l702.exe)
 L702 exits ... SP integral derivatives will be done elsewhere.
 Leave Link  702 at Thu Apr 14 05:26:40 2016, MaxMem=    33554432 cpu:         0.0
 (Enter /usr/local/gau/g09/l703.exe)
 Compute integral first derivatives, UseDBF=F ICtDFT=           0.
 Integral derivatives from FoFJK, PRISM(SPDF).
 Calling FoFJK, ICntrl=      2127 FMM=F ISym2X=0 I1Cent= 0 IOpClX= 0 NMat=1 NMatS=1 NMatT=0.
 FoFJK:  IHMeth= 1 ICntrl=    2127 DoSepK=F KAlg= 0 I1Cent=   0 FoldK=F
 IRaf=         0 NMat=   1 IRICut=       1 DoRegI=T DoRafI=F ISym2E= 0.
 FoFCou: FMM=F IPFlag=           0 FMFlag=      100000 FMFlg1=         800
         NFxFlg=           0 DoJE=F BraDBF=F KetDBF=F FulRan=T
         wScrn=  0.000000 ICntrl=    2127 IOpCl=  0 I1Cent=           0 NGrid=           0
         NMat0=    1 NMatS0=      1 NMatT0=    0 NMatD0=    1 NMtDS0=    0 NMtDT0=    0
 Symmetry not used in FoFCou.
 Leave Link  703 at Thu Apr 14 05:26:42 2016, MaxMem=    33554432 cpu:         2.5
 (Enter /usr/local/gau/g09/l716.exe)
 Dipole        =-5.79457337D-01 8.93320852D-02-4.66038231D-01
 ***** Axes restored to original set *****
 -------------------------------------------------------------------
 Center     Atomic                   Forces (Hartrees/Bohr)
 Number     Number              X              Y              Z
 -------------------------------------------------------------------
      1        7           0.051124814    0.028323993    0.029350087
      2        1          -0.007099721    0.003772366    0.002428869
      3        6          -0.180013943    0.009007667    0.058487322
      4        1          -1.284782510   -0.855504108   -0.533521615
      5        6           0.004799821    0.005491043   -0.046359212
      6        6           1.343299783    0.805084367    0.449736253
      7        1           0.004931189   -0.006500614    0.002080533
      8        1          -0.001540671   -0.001831590    0.005148873
      9        1          -0.007978135    0.009144538    0.003142243
     10        8           0.057337009   -0.034836675    0.039503670
     11        1           0.010120051    0.001249008   -0.004173467
     12        8           0.004086490    0.028896383   -0.011552542
     13        1           0.005715822    0.007703621    0.005728986
 -------------------------------------------------------------------
 Cartesian Forces:  Max     1.343299783 RMS     0.371141245
 Leave Link  716 at Thu Apr 14 05:26:42 2016, MaxMem=    33554432 cpu:         0.0
 (Enter /usr/local/gau/g09/l103.exe)

 GradGradGradGradGradGradGradGradGradGradGradGradGradGradGradGradGradGrad
 Berny optimization.
 FormGI is forming the generalized inverse of G from B-inverse, IUseBI=4.
 Internal  Forces:  Max     1.428808794 RMS     0.353663810
 Search for a saddle point.
 Step number   1 out of a maximum of   64
 All quantities printed in internal units (Hartrees-Bohrs-Radians)
 Second derivative matrix not updated -- first step.
 ITU=  0
 LST/QST climbing along tangent vector
     Eigenvalues ---    0.00230   0.00458   0.00486   0.00579   0.00846
     Eigenvalues ---    0.00874   0.00981   0.02097   0.05274   0.05800
     Eigenvalues ---    0.15969   0.15999   0.16000   0.16000   0.16000
     Eigenvalues ---    0.16000   0.16000   0.22737   0.22745   0.24994
     Eigenvalues ---    0.25000   0.28198   0.30055   0.34305   0.34329
     Eigenvalues ---    0.34344   0.34441   0.37061   0.45247   0.45348
     Eigenvalues ---    0.51098   0.52242   0.956501000.000001000.00000
     Eigenvalues --- 1000.000001000.000001000.000001000.000001000.00000
     Eigenvalues --- 1000.000001000.000001000.000001000.000001000.00000
     Eigenvalues --- 1000.000001000.000001000.000001000.000001000.00000
     Eigenvalues --- 1000.000001000.000001000.000001000.00000
 Eigenvectors required to have negative eigenvalues:
                          D10       D12       D11       D7        D9
   1                    0.33449   0.33449   0.33449   0.33312   0.33312
                          D8        D13       D15       D14       D18
   1                    0.33312   0.33236   0.33236   0.33236   0.00388
 Eigenvalue     1 is   2.30D-03 should be less than     0.000000 Eigenvector:
                          D10       D12       D11       D7        D9
   1                    0.33449   0.33449   0.33449   0.33312   0.33312
                          D8        D13       D15       D14       D18
   1                    0.33312   0.33236   0.33236   0.33236   0.00388
 QST in optimization variable space.
 Eigenvectors 1 and   4 swapped, overlap=  1.0000
                        Tangent   TS vect  // Eig F  Eigenval
   1         R1        -0.00062  -0.00062  -0.09402   0.00579
   2         R2         0.00023   0.00023   0.01383   0.00458
   3         R3         0.00006   0.00006  -0.00797   0.00486
   4         R4         0.00001   0.00001   0.00083   0.00230
   5         R5        -0.00132  -0.00132   0.01252   0.00846
   6         R6         0.00208   0.00208  -0.00285   0.00874
   7         R7        -0.00012  -0.00012   0.00764   0.00981
   8         R8         0.00057   0.00057  -0.00578   0.02097
   9         R9         0.00066   0.00066  -0.00598   0.05274
  10         R10        0.00761   0.00761   0.00301   0.05800
  11         R11        0.00868   0.00868   0.82453   0.15969
  12         R12        0.00339   0.00339   0.11029   0.15999
  13         A1         0.01917   0.01917  -0.00036   0.16000
  14         A2         0.01663   0.01663   0.00799   0.16000
  15         A3         0.01481   0.01481  -0.00286   0.16000
  16         A4         0.01514   0.01514  -0.00132   0.16000
  17         A5        -0.00887  -0.00887  -0.00444   0.16000
  18         A6         0.00049   0.00049  -0.57191   0.22737
  19         A7        -0.00564  -0.00564  -0.03024   0.22745
  20         A8        -0.02299  -0.02299   0.01226   0.24994
  21         A9         0.00925   0.00925  -0.00819   0.25000
  22         A10       -0.00435  -0.00435  -0.00612   0.28198
  23         A11       -0.00053  -0.00053   0.69454   0.30055
  24         A12        0.00228   0.00228   0.00383   0.34305
  25         A13        0.00129   0.00129  -0.42445   0.34329
  26         A14        0.00090   0.00090  -0.00057   0.34344
  27         A15        0.00077   0.00077   0.00032   0.34441
  28         A16        0.00302   0.00302  -0.03344   0.37061
  29         A17       -0.00057  -0.00057  -0.00173   0.45247
  30         A18       -0.00235  -0.00235  -0.00288   0.45348
  31         A19        0.00742   0.00742   0.01542   0.51098
  32         D1        -0.34622  -0.34622   0.00306   0.52242
  33         D2        -0.24463  -0.24463   0.03870   0.95650
  34         D3        -0.07916  -0.07916   0.000001000.00000
  35         D4        -0.07938  -0.07938   0.000001000.00000
  36         D5         0.02220   0.02220   0.000001000.00000
  37         D6         0.18767   0.18767   0.000001000.00000
  38         D7         0.00367   0.00367   0.000001000.00000
  39         D8         0.00172   0.00172   0.000001000.00000
  40         D9         0.00374   0.00374   0.000001000.00000
  41         D10        0.12595   0.12595   0.000001000.00000
  42         D11        0.12401   0.12401   0.000001000.00000
  43         D12        0.12603   0.12603   0.000001000.00000
  44         D13       -0.13476  -0.13476   0.000001000.00000
  45         D14       -0.13670  -0.13670   0.000001000.00000
  46         D15       -0.13468  -0.13468   0.000001000.00000
  47         D16       -0.27733  -0.27733   0.000001000.00000
  48         D17       -0.28176  -0.28176   0.000001000.00000
  49         D18        0.48971   0.48971   0.000001000.00000
  50         D19        0.48528   0.48528   0.000001000.00000
  51         D20       -0.13221  -0.13221   0.000001000.00000
  52         D21       -0.13665  -0.13665   0.000001000.00000
  53         D22        0.00598   0.00598   0.000001000.00000
  54         D23        0.00163   0.00163   0.000001000.00000
 RFO step:  Lambda0=9.696295587D-02 Lambda=-1.18866116D+00.
 Linear search not attempted -- option 19 set.
 Maximum step size (   0.300) exceeded in Quadratic search.
    -- Step size scaled by   0.333
 Iteration  1 RMS(Cart)=  0.08215786 RMS(Int)=  0.01509779
 Iteration  2 RMS(Cart)=  0.01000959 RMS(Int)=  0.00802044
 Iteration  3 RMS(Cart)=  0.00079600 RMS(Int)=  0.00801029
 Iteration  4 RMS(Cart)=  0.00002410 RMS(Int)=  0.00801028
 Iteration  5 RMS(Cart)=  0.00000135 RMS(Int)=  0.00801028
 Iteration  6 RMS(Cart)=  0.00000005 RMS(Int)=  0.00801028
 ITry= 1 IFail=0 DXMaxC= 2.95D-01 DCOld= 1.00D+10 DXMaxT= 3.00D-01 DXLimC= 3.00D+00 Rises=F
 Variable       Old X    -DE/DX   Delta X   Delta X   Delta X     New X
                                 (Linear)    (Quad)   (Total)
    R1        1.91690  -0.00337   0.00000  -0.00056  -0.00056   1.91634
    R2        2.75754  -0.06692   0.00000  -0.00706  -0.00706   2.75048
    R3        1.91574  -0.00578   0.00000  -0.00056  -0.00056   1.91518
    R4        2.06778  -0.84890   0.00000  -0.09217  -0.09217   1.97561
    R5        2.91707  -0.01193   0.00000  -0.00181  -0.00181   2.91526
    R6        2.87853   1.38872   0.00000   0.15584   0.15584   3.03437
    R7        2.06593   0.00065   0.00000   0.00003   0.00003   2.06596
    R8        2.06753  -0.00122   0.00000   0.00007   0.00007   2.06759
    R9        2.06818   0.00759   0.00000   0.00106   0.00106   2.06924
   R10        2.30431   0.07661   0.00000   0.00860   0.00860   2.31291
   R11        2.58770   0.02981   0.00000   0.00597   0.00597   2.59367
   R12        1.84368   0.00577   0.00000   0.00175   0.00175   1.84543
    A1        2.10083   0.00606   0.00000   0.00756   0.00626   2.10709
    A2        2.06438   0.00015   0.00000   0.00593   0.00462   2.06900
    A3        2.09704  -0.00603   0.00000   0.00452   0.00323   2.10027
    A4        1.89060  -0.72787   0.00000  -0.08579  -0.07967   1.81094
    A5        2.16026   0.00776   0.00000  -0.00223  -0.00153   2.15873
    A6        2.22638   0.70011   0.00000   0.08243   0.07581   2.30219
    A7        2.23230   0.71989   0.00000   0.08821   0.08048   2.31278
    A8        0.33599   1.42881   0.00000   0.16536   0.16302   0.49901
    A9        1.89653  -0.70798   0.00000  -0.07990  -0.07559   1.82094
   A10        1.93656  -0.01389   0.00000  -0.00328  -0.00328   1.93328
   A11        1.94568   0.00244   0.00000   0.00011   0.00011   1.94579
   A12        1.89582   0.01723   0.00000   0.00296   0.00296   1.89879
   A13        1.94410   0.00026   0.00000   0.00044   0.00044   1.94453
   A14        1.89270  -0.00112   0.00000   0.00019   0.00019   1.89289
   A15        1.84537  -0.00383   0.00000  -0.00015  -0.00015   1.84522
   A16        2.19531   0.02290   0.00000   0.00371   0.00371   2.19903
   A17        1.95216  -0.01425   0.00000  -0.00185  -0.00185   1.95031
   A18        2.13537  -0.00910   0.00000  -0.00188  -0.00188   2.13348
   A19        1.89825   0.00143   0.00000   0.00280   0.00280   1.90105
    D1        1.00759   0.03378   0.00000  -0.11872  -0.13136   0.87623
    D2       -2.14017   0.00088   0.00000  -0.08683  -0.08861  -2.22877
    D3        0.99389  -0.02297   0.00000  -0.03092  -0.01664   0.97725
    D4       -2.35616   0.03474   0.00000  -0.02376  -0.03631  -2.39248
    D5        0.77927   0.00183   0.00000   0.00812   0.00644   0.78570
    D6       -2.36986  -0.02202   0.00000   0.06403   0.07840  -2.29145
    D7        1.05661   0.01392   0.00000   0.00314  -0.00005   1.05656
    D8       -3.04881   0.00572   0.00000   0.00135  -0.00184  -3.05065
    D9       -1.02234   0.01284   0.00000   0.00302  -0.00017  -1.02251
   D10       -2.09239  -0.03160   0.00000   0.04078   0.05558  -2.03681
   D11        0.08537  -0.03981   0.00000   0.03899   0.05380   0.13916
   D12        2.11184  -0.03269   0.00000   0.04066   0.05547   2.16731
   D13       -2.07868   0.02898   0.00000  -0.04421  -0.05583  -2.13451
   D14        0.09908   0.02077   0.00000  -0.04600  -0.05762   0.04146
   D15        2.12555   0.02790   0.00000  -0.04433  -0.05595   2.06960
   D16       -1.38857   0.01070   0.00000  -0.09703  -0.09295  -1.48152
   D17        1.78085   0.02910   0.00000  -0.09605  -0.09197   1.68888
   D18       -1.42800  -0.00091   0.00000   0.17350   0.15264  -1.27536
   D19        1.74142   0.01748   0.00000   0.17448   0.15362   1.89504
   D20        1.74642  -0.00861   0.00000  -0.04780  -0.03101   1.71540
   D21       -1.36735   0.00978   0.00000  -0.04682  -0.03004  -1.39738
   D22        3.10447  -0.01685   0.00000  -0.00021  -0.00021   3.10427
   D23       -0.01039   0.00022   0.00000   0.00063   0.00062  -0.00977
         Item               Value     Threshold  Converged?
 Maximum Force            1.428809     0.000450     NO 
 RMS     Force            0.353664     0.000300     NO 
 Maximum Displacement     0.294722     0.001800     NO 
 RMS     Displacement     0.080634     0.001200     NO 
 Predicted change in Energy=-7.232630D-01
 Lowest energy point so far.  Saving SCF results.
 GradGradGradGradGradGradGradGradGradGradGradGradGradGradGradGradGradGrad

 Leave Link  103 at Thu Apr 14 05:26:42 2016, MaxMem=    33554432 cpu:         0.0
 (Enter /usr/local/gau/g09/l202.exe)
                          Input orientation:                          
 ---------------------------------------------------------------------
 Center     Atomic      Atomic             Coordinates (Angstroms)
 Number     Number       Type             X           Y           Z
 ---------------------------------------------------------------------
      1          7           0       -1.700734   -1.029455   -0.470848
      2          1           0       -1.630322   -2.010262   -0.223013
      3          6           0       -0.756464   -0.058205    0.061587
      4          1           0        0.177128   -0.486619   -0.132913
      5          6           0       -1.178200    1.241949    0.776865
      6          6           0        0.846748    0.017078    0.012743
      7          1           0       -1.766649    1.019199    1.670915
      8          1           0       -0.312611    1.867743    1.014027
      9          1           0       -1.795532    1.835598    0.094593
     10          8           0        1.616728   -0.534827    0.787701
     11          1           0       -2.504171   -0.721775   -1.006516
     12          8           0        1.287068    0.824108   -1.006377
     13          1           0        2.262223    0.867569   -0.977132
 ---------------------------------------------------------------------
                    Distance matrix (angstroms):
                    1          2          3          4          5
     1  N    0.000000
     2  H    1.014082   0.000000
     3  C    1.455493   2.157581   0.000000
     4  H    1.983743   2.365688   1.045448   0.000000
     5  C    2.643692   3.432353   1.542687   2.377511   0.000000
     6  C    2.796204   3.209605   1.605721   0.850481   2.486887
     7  H    2.964536   3.575358   2.184309   3.049517   1.093258
     8  H    3.539137   4.278499   2.193950   2.664270   1.094124
     9  H    2.921855   3.862487   2.160380   3.055461   1.094994
    10  O    3.582478   3.706991   2.527142   1.709474   3.311899
    11  H    1.013468   1.742896   2.153056   2.829813   2.965612
    12  O    3.556606   4.142279   2.468814   1.926892   3.071170
    13  H    4.422675   4.899236   3.323923   2.625672   3.879842
                    6          7          8          9         10
     6  C    0.000000
     7  H    3.253248   0.000000
     8  H    2.402424   1.807139   0.000000
     9  H    3.208638   1.775424   1.745120   0.000000
    10  O    1.223939   3.826526   3.089647   4.212224   0.000000
    11  H    3.579588   3.277738   3.948560   2.873111   4.498440
    12  O    1.372511   4.065850   2.780319   3.426028   2.274664
    13  H    1.925294   4.823582   3.405118   4.307093   2.344784
                   11         12         13
    11  H    0.000000
    12  O    4.094294   0.000000
    13  H    5.024479   0.976561   0.000000
 Stoichiometry    C3H7NO2
 Framework group  C1[X(C3H7NO2)]
 Deg. of freedom    33
 Full point group                 C1      NOp   1
 RotChk:  IX=2 Diff= 8.74D-02
 Largest Abelian subgroup         C1      NOp   1
 Largest concise Abelian subgroup C1      NOp   1
                         Standard orientation:                         
 ---------------------------------------------------------------------
 Center     Atomic      Atomic             Coordinates (Angstroms)
 Number     Number       Type             X           Y           Z
 ---------------------------------------------------------------------
      1          7           0       -1.788191   -1.027015   -0.295863
      2          1           0       -1.846190   -1.912251    0.195416
      3          6           0       -0.755180   -0.057514    0.037931
      4          1           0        0.126828   -0.618560    0.022100
      5          6           0       -1.044653    1.420538    0.371775
      6          6           0        0.846096   -0.168634    0.081589
      7          1           0       -1.689985    1.500268    1.250640
      8          1           0       -0.119839    1.990455    0.502236
      9          1           0       -1.558931    1.880087   -0.478721
     10          8           0        1.513219   -0.580424    1.021485
     11          1           0       -2.527242   -0.784355   -0.945507
     12          8           0        1.419773    0.296124   -1.075424
     13          1           0        2.391178    0.241526   -0.991374
 ---------------------------------------------------------------------
 Rotational constants (GHZ):      4.9158199      2.4676442      2.2582806
 Leave Link  202 at Thu Apr 14 05:26:42 2016, MaxMem=    33554432 cpu:         0.0
 (Enter /usr/local/gau/g09/l301.exe)
 Standard basis: 6-31G (6D, 7F)
 Ernie: Thresh=  0.10000D-02 Tol=  0.10000D-05 Strict=F.
 There are    68 symmetry adapted cartesian basis functions of A   symmetry.
 There are    68 symmetry adapted basis functions of A   symmetry.
    68 basis functions,   160 primitive gaussians,    68 cartesian basis functions
    24 alpha electrons       24 beta electrons
       nuclear repulsion energy       244.8965779204 Hartrees.
 IExCor=  402 DFT=T Ex+Corr=B3LYP ExCW=0 ScaHFX=  0.200000
 ScaDFX=  0.800000  0.720000  1.000000  0.810000 ScalE2=  1.000000  1.000000
 IRadAn=      0 IRanWt=     -1 IRanGd=            0 ICorTp=0 IEmpDi=  4
 NAtoms=   13 NActive=   13 NUniq=   13 SFac= 1.00D+00 NAtFMM=   60 NAOKFM=F Big=F
 Integral buffers will be    131072 words long.
 Raffenetti 2 integral format.
 Two-electron integral symmetry is turned on.
 Leave Link  301 at Thu Apr 14 05:26:42 2016, MaxMem=    33554432 cpu:         0.0
 (Enter /usr/local/gau/g09/l302.exe)
 NPDir=0 NMtPBC=     1 NCelOv=     1 NCel=       1 NClECP=     1 NCelD=      1
         NCelK=      1 NCelE2=     1 NClLst=     1 CellRange=     0.0.
 One-electron integrals computed using PRISM.
 NBasis=    68 RedAO= T EigKep=  2.12D-03  NBF=    68
 NBsUse=    68 1.00D-06 EigRej= -1.00D+00 NBFU=    68
 Precomputing XC quadrature grid using
 IXCGrd= 4 IRadAn=           0 IRanWt=          -1 IRanGd=           0 AccXCQ= 0.00D+00.
 Generated NRdTot=       0 NPtTot=           0 NUsed=           0 NTot=          32
 NSgBfM=    68    68    68    68    68 MxSgAt=    13 MxSgA2=    13.
 Leave Link  302 at Thu Apr 14 05:26:43 2016, MaxMem=    33554432 cpu:         0.2
 (Enter /usr/local/gau/g09/l303.exe)
 DipDrv:  MaxL=1.
 Leave Link  303 at Thu Apr 14 05:26:43 2016, MaxMem=    33554432 cpu:         0.0
 (Enter /usr/local/gau/g09/l401.exe)
 Initial guess from the checkpoint file:  "Ala-S-opt-freq-qst2-tsb1-6-31g.chk"
 B after Tr=     0.000000    0.000000    0.000000
         Rot=    0.999468    0.025179   -0.009649    0.018341 Ang=   3.74 deg.
 Guess basis will be translated and rotated to current coordinates.
 JPrj=2 DoOrth=T DoCkMO=T.
 Generating alternative initial guess.
 ExpMin= 1.61D-01 ExpMax= 5.48D+03 ExpMxC= 8.25D+02 IAcc=1 IRadAn=         1 AccDes= 0.00D+00
 Harris functional with IExCor=  402 and IRadAn=       1 diagonalized for initial guess.
 HarFok:  IExCor=  402 AccDes= 0.00D+00 IRadAn=         1 IDoV= 1 UseB2=F ITyADJ=14
 ICtDFT=  3500011 ScaDFX=  1.000000  1.000000  1.000000  1.000000
 FoFCou: FMM=F IPFlag=           0 FMFlag=      100000 FMFlg1=           0
         NFxFlg=           0 DoJE=T BraDBF=F KetDBF=T FulRan=T
         wScrn=  0.000000 ICntrl=     500 IOpCl=  0 I1Cent=   200000004 NGrid=           0
         NMat0=    1 NMatS0=      1 NMatT0=    0 NMatD0=    1 NMtDS0=    0 NMtDT0=    0
 Petite list used in FoFCou.
 Harris En= -323.289492663481    
 Leave Link  401 at Thu Apr 14 05:26:43 2016, MaxMem=    33554432 cpu:         0.6
 (Enter /usr/local/gau/g09/l502.exe)
 Closed shell SCF:
 Using DIIS extrapolation, IDIIS=  1040.
 Integral symmetry usage will be decided dynamically.
 Keep R1 ints in memory in canonical form, NReq=3676491.
 IVT=       33364 IEndB=       33364 NGot=    33554432 MDV=    30768038
 LenX=    30768038 LenY=    30762973
 Requested convergence on RMS density matrix=1.00D-08 within 128 cycles.
 Requested convergence on MAX density matrix=1.00D-06.
 Requested convergence on             energy=1.00D-06.
 No special actions if energy rises.
 FoFCou: FMM=F IPFlag=           0 FMFlag=           0 FMFlg1=           0
         NFxFlg=           0 DoJE=F BraDBF=F KetDBF=F FulRan=T
         wScrn=  0.000000 ICntrl=     600 IOpCl=  0 I1Cent=           0 NGrid=           0
         NMat0=    1 NMatS0=   2346 NMatT0=    0 NMatD0=    1 NMtDS0=    0 NMtDT0=    0
 Symmetry not used in FoFCou.
 Integral accuracy reduced to 1.0D-05 until final iterations.

 Cycle   1  Pass 0  IDiag  1:
 E= -323.204504335906    
 DIIS: error= 1.23D-02 at cycle   1 NSaved=   1.
 NSaved= 1 IEnMin= 1 EnMin= -323.204504335906     IErMin= 1 ErrMin= 1.23D-02
 ErrMax= 1.23D-02  0.00D+00 EMaxC= 1.00D-01 BMatC= 3.04D-02 BMatP= 3.04D-02
 IDIUse=3 WtCom= 8.77D-01 WtEn= 1.23D-01
 Coeff-Com:  0.100D+01
 Coeff-En:   0.100D+01
 Coeff:      0.100D+01
 Recover alternate guess density for next cycle.
 RMSDP=1.64D-02 MaxDP=2.98D-01              OVMax= 0.00D+00

 Cycle   2  Pass 0  IDiag  1:
 E= -323.060842695494     Delta-E=        0.143661640412 Rises=F Damp=F
 Switch densities from cycles 1 and 2 for lowest energy.
 DIIS: error= 4.15D-02 at cycle   2 NSaved=   2.
 NSaved= 2 IEnMin= 1 EnMin= -323.204504335906     IErMin= 1 ErrMin= 1.23D-02
 ErrMax= 4.15D-02  0.00D+00 EMaxC= 1.00D+00 BMatC= 1.95D-01 BMatP= 3.04D-02
 IDIUse=1 WtCom= 1.00D+00 WtEn= 0.00D+00
 Coeff-Com:  0.833D+00 0.167D+00
 Coeff:      0.833D+00 0.167D+00
 Gap=     0.074 Goal=   None    Shift=    0.000
 RMSDP=1.35D-02 MaxDP=2.52D-01 DE= 1.44D-01 OVMax= 1.19D-01

 Cycle   3  Pass 0  IDiag  1:
 E= -323.238371616146     Delta-E=       -0.177528920653 Rises=F Damp=F
 DIIS: error= 7.41D-03 at cycle   3 NSaved=   3.
 NSaved= 3 IEnMin= 3 EnMin= -323.238371616146     IErMin= 3 ErrMin= 7.41D-03
 ErrMax= 7.41D-03  0.00D+00 EMaxC= 1.00D+00 BMatC= 6.15D-03 BMatP= 3.04D-02
 IDIUse=1 WtCom= 1.00D+00 WtEn= 0.00D+00
 Coeff-Com:  0.155D+00 0.980D-01 0.747D+00
 Coeff:      0.155D+00 0.980D-01 0.747D+00
 Gap=     0.051 Goal=   None    Shift=    0.000
 RMSDP=3.37D-03 MaxDP=2.93D-02 DE=-1.78D-01 OVMax= 1.02D-01

 Cycle   4  Pass 0  IDiag  1:
 E= -323.237564119808     Delta-E=        0.000807496339 Rises=F Damp=F
 DIIS: error= 8.73D-03 at cycle   4 NSaved=   4.
 NSaved= 4 IEnMin= 3 EnMin= -323.238371616146     IErMin= 3 ErrMin= 7.41D-03
 ErrMax= 8.73D-03  0.00D+00 EMaxC= 1.00D+00 BMatC= 6.05D-03 BMatP= 6.15D-03
 IDIUse=1 WtCom= 1.00D+00 WtEn= 0.00D+00
 Coeff-Com:  0.317D-01 0.674D-01 0.506D+00 0.395D+00
 Coeff:      0.317D-01 0.674D-01 0.506D+00 0.395D+00
 Gap=     0.068 Goal=   None    Shift=    0.000
 RMSDP=3.01D-03 MaxDP=2.72D-02 DE= 8.07D-04 OVMax= 1.10D-01

 Cycle   5  Pass 0  IDiag  1:
 E= -323.243278249624     Delta-E=       -0.005714129816 Rises=F Damp=F
 DIIS: error= 5.13D-03 at cycle   5 NSaved=   5.
 NSaved= 5 IEnMin= 5 EnMin= -323.243278249624     IErMin= 5 ErrMin= 5.13D-03
 ErrMax= 5.13D-03  0.00D+00 EMaxC= 1.00D+00 BMatC= 1.77D-03 BMatP= 6.05D-03
 IDIUse=1 WtCom= 1.00D+00 WtEn= 0.00D+00
 Coeff-Com: -0.504D-02 0.428D-01 0.282D+00 0.334D+00 0.346D+00
 Coeff:     -0.504D-02 0.428D-01 0.282D+00 0.334D+00 0.346D+00
 Gap=     0.066 Goal=   None    Shift=    0.000
 RMSDP=5.85D-04 MaxDP=8.62D-03 DE=-5.71D-03 OVMax= 1.30D-02

 Cycle   6  Pass 0  IDiag  1:
 E= -323.244770833642     Delta-E=       -0.001492584018 Rises=F Damp=F
 DIIS: error= 8.23D-04 at cycle   6 NSaved=   6.
 NSaved= 6 IEnMin= 6 EnMin= -323.244770833642     IErMin= 6 ErrMin= 8.23D-04
 ErrMax= 8.23D-04  0.00D+00 EMaxC= 1.00D+00 BMatC= 6.15D-05 BMatP= 1.77D-03
 IDIUse=1 WtCom= 1.00D+00 WtEn= 0.00D+00
 Coeff-Com: -0.479D-02 0.644D-02 0.417D-01 0.130D+00 0.101D+00 0.726D+00
 Coeff:     -0.479D-02 0.644D-02 0.417D-01 0.130D+00 0.101D+00 0.726D+00
 Gap=     0.065 Goal=   None    Shift=    0.000
 RMSDP=2.68D-04 MaxDP=2.62D-03 DE=-1.49D-03 OVMax= 4.46D-03

 Cycle   7  Pass 0  IDiag  1:
 E= -323.244826743952     Delta-E=       -0.000055910311 Rises=F Damp=F
 DIIS: error= 8.03D-04 at cycle   7 NSaved=   7.
 NSaved= 7 IEnMin= 7 EnMin= -323.244826743952     IErMin= 7 ErrMin= 8.03D-04
 ErrMax= 8.03D-04  0.00D+00 EMaxC= 1.00D+00 BMatC= 2.43D-05 BMatP= 6.15D-05
 IDIUse=1 WtCom= 1.00D+00 WtEn= 0.00D+00
 Coeff-Com: -0.170D-02-0.197D-02-0.145D-01 0.523D-01-0.190D-02 0.397D+00
 Coeff-Com:  0.571D+00
 Coeff:     -0.170D-02-0.197D-02-0.145D-01 0.523D-01-0.190D-02 0.397D+00
 Coeff:      0.571D+00
 Gap=     0.065 Goal=   None    Shift=    0.000
 RMSDP=1.45D-04 MaxDP=1.36D-03 DE=-5.59D-05 OVMax= 4.01D-03

 Cycle   8  Pass 0  IDiag  1:
 E= -323.244847417067     Delta-E=       -0.000020673115 Rises=F Damp=F
 DIIS: error= 2.94D-04 at cycle   8 NSaved=   8.
 NSaved= 8 IEnMin= 8 EnMin= -323.244847417067     IErMin= 8 ErrMin= 2.94D-04
 ErrMax= 2.94D-04  0.00D+00 EMaxC= 1.00D+00 BMatC= 8.01D-06 BMatP= 2.43D-05
 IDIUse=1 WtCom= 1.00D+00 WtEn= 0.00D+00
 Coeff-Com:  0.664D-03-0.312D-02-0.215D-01 0.454D-02-0.437D-01-0.577D-01
 Coeff-Com:  0.332D+00 0.789D+00
 Coeff:      0.664D-03-0.312D-02-0.215D-01 0.454D-02-0.437D-01-0.577D-01
 Coeff:      0.332D+00 0.789D+00
 Gap=     0.064 Goal=   None    Shift=    0.000
 RMSDP=1.48D-04 MaxDP=1.43D-03 DE=-2.07D-05 OVMax= 3.04D-03

 Cycle   9  Pass 0  IDiag  1:
 E= -323.244857651290     Delta-E=       -0.000010234222 Rises=F Damp=F
 DIIS: error= 1.14D-04 at cycle   9 NSaved=   9.
 NSaved= 9 IEnMin= 9 EnMin= -323.244857651290     IErMin= 9 ErrMin= 1.14D-04
 ErrMax= 1.14D-04  0.00D+00 EMaxC= 1.00D+00 BMatC= 1.20D-06 BMatP= 8.01D-06
 IDIUse=1 WtCom= 1.00D+00 WtEn= 0.00D+00
 Coeff-Com:  0.654D-03-0.139D-02-0.949D-02-0.402D-02-0.273D-01-0.135D+00
 Coeff-Com:  0.886D-01 0.360D+00 0.727D+00
 Coeff:      0.654D-03-0.139D-02-0.949D-02-0.402D-02-0.273D-01-0.135D+00
 Coeff:      0.886D-01 0.360D+00 0.727D+00
 Gap=     0.064 Goal=   None    Shift=    0.000
 RMSDP=7.57D-05 MaxDP=7.81D-04 DE=-1.02D-05 OVMax= 1.94D-03

 Cycle  10  Pass 0  IDiag  1:
 E= -323.244859500551     Delta-E=       -0.000001849261 Rises=F Damp=F
 DIIS: error= 4.32D-05 at cycle  10 NSaved=  10.
 NSaved=10 IEnMin=10 EnMin= -323.244859500551     IErMin=10 ErrMin= 4.32D-05
 ErrMax= 4.32D-05  0.00D+00 EMaxC= 1.00D+00 BMatC= 1.63D-07 BMatP= 1.20D-06
 IDIUse=1 WtCom= 1.00D+00 WtEn= 0.00D+00
 Coeff-Com:  0.726D-04 0.233D-04 0.216D-03-0.133D-02-0.316D-02-0.467D-01
 Coeff-Com: -0.267D-01-0.661D-01 0.258D+00 0.886D+00
 Coeff:      0.726D-04 0.233D-04 0.216D-03-0.133D-02-0.316D-02-0.467D-01
 Coeff:     -0.267D-01-0.661D-01 0.258D+00 0.886D+00
 Gap=     0.063 Goal=   None    Shift=    0.000
 RMSDP=3.96D-05 MaxDP=4.21D-04 DE=-1.85D-06 OVMax= 1.02D-03

 Cycle  11  Pass 0  IDiag  1:
 E= -323.244859794058     Delta-E=       -0.000000293507 Rises=F Damp=F
 DIIS: error= 6.43D-06 at cycle  11 NSaved=  11.
 NSaved=11 IEnMin=11 EnMin= -323.244859794058     IErMin=11 ErrMin= 6.43D-06
 ErrMax= 6.43D-06  0.00D+00 EMaxC= 1.00D+00 BMatC= 4.25D-09 BMatP= 1.63D-07
 IDIUse=1 WtCom= 1.00D+00 WtEn= 0.00D+00
 Coeff-Com:  0.164D-04 0.339D-04 0.303D-03-0.212D-03-0.663D-03-0.125D-01
 Coeff-Com: -0.124D-01-0.407D-01 0.705D-01 0.331D+00 0.665D+00
 Coeff:      0.164D-04 0.339D-04 0.303D-03-0.212D-03-0.663D-03-0.125D-01
 Coeff:     -0.124D-01-0.407D-01 0.705D-01 0.331D+00 0.665D+00
 Gap=     0.063 Goal=   None    Shift=    0.000
 RMSDP=3.67D-06 MaxDP=3.81D-05 DE=-2.94D-07 OVMax= 8.54D-05

 Initial convergence to 1.0D-05 achieved.  Increase integral accuracy.
 Cycle  12  Pass 1  IDiag  1:
 E= -323.244923563608     Delta-E=       -0.000063769550 Rises=F Damp=F
 DIIS: error= 1.33D-05 at cycle   1 NSaved=   1.
 NSaved= 1 IEnMin= 1 EnMin= -323.244923563608     IErMin= 1 ErrMin= 1.33D-05
 ErrMax= 1.33D-05  0.00D+00 EMaxC= 1.00D+00 BMatC= 2.22D-08 BMatP= 2.22D-08
 IDIUse=1 WtCom= 1.00D+00 WtEn= 0.00D+00
 Coeff-Com:  0.100D+01
 Coeff:      0.100D+01
 Gap=     0.063 Goal=   None    Shift=    0.000
 RMSDP=3.67D-06 MaxDP=3.81D-05 DE=-6.38D-05 OVMax= 1.56D-04

 Cycle  13  Pass 1  IDiag  1:
 E= -323.244923603135     Delta-E=       -0.000000039527 Rises=F Damp=F
 DIIS: error= 6.88D-06 at cycle   2 NSaved=   2.
 NSaved= 2 IEnMin= 2 EnMin= -323.244923603135     IErMin= 2 ErrMin= 6.88D-06
 ErrMax= 6.88D-06  0.00D+00 EMaxC= 1.00D+00 BMatC= 6.69D-09 BMatP= 2.22D-08
 IDIUse=1 WtCom= 1.00D+00 WtEn= 0.00D+00
 Coeff-Com:  0.262D+00 0.738D+00
 Coeff:      0.262D+00 0.738D+00
 Gap=     0.063 Goal=   None    Shift=    0.000
 RMSDP=5.12D-06 MaxDP=6.54D-05 DE=-3.95D-08 OVMax= 1.69D-04

 Cycle  14  Pass 1  IDiag  1:
 E= -323.244923594189     Delta-E=        0.000000008946 Rises=F Damp=F
 DIIS: error= 1.37D-05 at cycle   3 NSaved=   3.
[...]
    A6        1.99362  -0.00445   0.00000   0.06195   0.06215   2.05577
    A7        2.06476  -0.00292   0.00000  -0.01105  -0.01232   2.05244
    A8        0.05899   0.00409   0.00000  -0.01889  -0.01891   0.04008
    A9        2.12157   0.00106   0.00000  -0.02946  -0.03069   2.09089
   A10        1.90325   0.00132   0.00000   0.00754   0.00754   1.91078
   A11        1.88905   0.00030   0.00000  -0.00148  -0.00150   1.88756
   A12        2.02737  -0.00077   0.00000  -0.00468  -0.00469   2.02268
   A13        1.84561  -0.00054   0.00000   0.00264   0.00264   1.84824
   A14        1.89048  -0.00008   0.00000   0.00162   0.00163   1.89211
   A15        1.89971  -0.00023   0.00000  -0.00500  -0.00503   1.89468
   A16        2.25860   0.00163   0.00000   0.02817   0.02766   2.28626
   A17        1.84726   0.00265   0.00000  -0.00370  -0.00425   1.84302
   A18        2.17013  -0.00435   0.00000  -0.01768  -0.01826   2.15187
   A19        1.92768   0.00095   0.00000   0.00254   0.00254   1.93023
    D1        0.55668   0.00316   0.00000  -0.01510  -0.01518   0.54150
    D2        2.99257   0.00429   0.00000   0.04518   0.04667   3.03924
    D3        0.52603   0.00122   0.00000  -0.00076  -0.00213   0.52389
    D4       -2.42575  -0.00057   0.00000  -0.08654  -0.08665  -2.51240
    D5        0.01014   0.00057   0.00000  -0.02627  -0.02480  -0.01466
    D6       -2.45640  -0.00251   0.00000  -0.07221  -0.07361  -2.53001
    D7        2.19139  -0.00096   0.00000  -0.02192  -0.02132   2.17007
    D8       -2.09195  -0.00076   0.00000  -0.01566  -0.01506  -2.10701
    D9        0.05015  -0.00136   0.00000  -0.02675  -0.02614   0.02402
   D10       -1.66451   0.00122   0.00000   0.06588   0.06546  -1.59905
   D11        0.33534   0.00143   0.00000   0.07214   0.07171   0.40705
   D12        2.47744   0.00082   0.00000   0.06105   0.06064   2.53808
   D13       -1.68281   0.00011   0.00000   0.07106   0.07087  -1.61194
   D14        0.31704   0.00031   0.00000   0.07732   0.07712   0.39417
   D15        2.45915  -0.00029   0.00000   0.06623   0.06605   2.52520
   D16        1.48986   0.00226   0.00000   0.19765   0.19781   1.68767
   D17       -1.52542   0.00318   0.00000   0.14022   0.13992  -1.38550
   D18       -1.17110  -0.00073   0.00000   0.10785   0.10805  -1.06305
   D19        2.09680   0.00019   0.00000   0.05043   0.05016   2.14696
   D20       -0.89433  -0.00271   0.00000   0.11999   0.12033  -0.77400
   D21        2.37357  -0.00178   0.00000   0.06257   0.06244   2.43601
   D22        3.00112   0.00039   0.00000   0.05905   0.05831   3.05943
   D23       -0.02233   0.00074   0.00000   0.00119   0.00193  -0.02039
         Item               Value     Threshold  Converged?
 Maximum Force            0.020397     0.000450     NO 
 RMS     Force            0.004369     0.000300     NO 
 Maximum Displacement     0.383828     0.001800     NO 
 RMS     Displacement     0.083756     0.001200     NO 
 Predicted change in Energy=-2.520771D-03
 Optimization stopped.
    -- Number of steps exceeded,  NStep=  64
    -- Flag reset to prevent archiving.
                           ----------------------------
                           ! Non-Optimized Parameters !
                           ! (Angstroms and Degrees)  !
 --------------------------                            --------------------------
 ! Name  Definition        TS        Reactant  Product Derivative Info.         !
 --------------------------------------------------------------------------------
 ! R1    R(1,2)             1.0126    1.0155    1.0132 -DE/DX =    0.0003       !
 ! R2    R(1,3)             1.3267    1.4588    1.4597 -DE/DX =    0.0052       !
 ! R3    R(1,11)            1.0289    1.0137    1.0139 -DE/DX =   -0.0002       !
 ! R4    R(3,4)             2.3567    1.0942    1.0942 -DE/DX =   -0.0204       !
 ! R5    R(3,5)             1.5126    1.5461    1.5412 -DE/DX =    0.0027       !
 ! R6    R(3,6)             3.4518    1.5194    1.5271 -DE/DX =    0.0195       !
 ! R7    R(5,7)             1.0978    1.0935    1.093  -DE/DX =    0.0001       !
 ! R8    R(5,8)             1.0972    1.093     1.0951 -DE/DX =    0.0003       !
 ! R9    R(5,9)             1.1072    1.0932    1.0957 -DE/DX =   -0.0004       !
 ! R10   R(6,10)            1.232     1.2053    1.2335 -DE/DX =   -0.004        !
 ! R11   R(6,12)            1.3781    1.3533    1.3854 -DE/DX =    0.0003       !
 ! R12   R(12,13)           0.9849    0.9694    0.9819 -DE/DX =   -0.0003       !
 ! A1    A(2,1,3)         120.391   110.397   115.1286 -DE/DX =    0.001        !
 ! A2    A(2,1,11)        114.5854  108.6676  112.3114 -DE/DX =    0.0003       !
 ! A3    A(3,1,11)        124.8521  111.0515  114.0378 -DE/DX =   -0.0008       !
 ! A4    A(1,3,4)         119.9063  108.8891  108.4169 -DE/DX =   -0.0008       !
 ! A5    A(1,3,5)         111.4269  115.2856  110.1011 -DE/DX =    0.0055       !
 ! A6    A(1,3,6)         117.7869  108.2548  114.0059 -DE/DX =   -0.0044       !
 ! A7    A(4,3,5)         117.5959  108.2732  109.129  -DE/DX =   -0.0029       !
 ! A8    A(4,3,6)           2.2963  107.3259  105.4812 -DE/DX =    0.0041       !
 ! A9    A(5,3,6)         119.799   108.5388  109.5189 -DE/DX =    0.0011       !
 ! A10   A(3,5,7)         109.4798  110.5846  108.7772 -DE/DX =    0.0013       !
 ! A11   A(3,5,8)         108.149   111.4838  111.2309 -DE/DX =    0.0003       !
 ! A12   A(3,5,9)         115.8909  109.4138  110.374  -DE/DX =   -0.0008       !
 ! A13   A(7,5,8)         105.8964  108.9163  109.3001 -DE/DX =   -0.0005       !
 ! A14   A(7,5,9)         108.4098  108.308   108.6881 -DE/DX =   -0.0001       !
 ! A15   A(8,5,9)         108.5571  108.0458  108.4282 -DE/DX =   -0.0002       !
 ! A16   A(3,6,10)        130.9931  125.1745  126.386  -DE/DX =    0.0016       !
 ! A17   A(3,6,12)        105.5971  111.962   111.7347 -DE/DX =    0.0027       !
 ! A18   A(10,6,12)       123.2932  122.815   121.8756 -DE/DX =   -0.0044       !
 ! A19   A(6,12,13)       110.5938  107.2766  110.2467 -DE/DX =    0.001        !
 ! D1    D(2,1,3,4)        31.0258  159.8487  -47.2258 -DE/DX =    0.0032       !
 ! D2    D(2,1,3,5)       174.1357  -78.2711 -166.5433 -DE/DX =    0.0043       !
 ! D3    D(2,1,3,6)        30.0168   43.4703   69.9205 -DE/DX =    0.0012       !
 ! D4    D(11,1,3,4)     -143.9499  -79.5522 -179.1654 -DE/DX =   -0.0006       !
 ! D5    D(11,1,3,5)       -0.84     42.328    61.517  -DE/DX =    0.0006       !
 ! D6    D(11,1,3,6)     -144.9589  164.0694  -62.0192 -DE/DX =   -0.0025       !
 ! D7    D(1,3,5,7)       124.336    60.0762   57.1481 -DE/DX =   -0.001        !
 ! D8    D(1,3,5,8)      -120.7227 -178.5935  177.5856 -DE/DX =   -0.0008       !
 ! D9    D(1,3,5,9)         1.3762  -59.1421  -62.0137 -DE/DX =   -0.0014       !
 ! D10   D(4,3,5,7)       -91.6188 -177.7128  -61.7346 -DE/DX =    0.0012       !
 ! D11   D(4,3,5,8)        23.3225  -56.3825   58.7029 -DE/DX =    0.0014       !
 ! D12   D(4,3,5,9)       145.4214   63.0689  179.1036 -DE/DX =    0.0008       !
 ! D13   D(6,3,5,7)       -92.3571  -61.5121 -176.7399 -DE/DX =    0.0001       !
 ! D14   D(6,3,5,8)        22.5841   59.8182  -56.3024 -DE/DX =    0.0003       !
 ! D15   D(6,3,5,9)       144.683   179.2696   64.0984 -DE/DX =   -0.0003       !
 ! D16   D(1,3,6,10)       96.6966  -28.5941 -133.4119 -DE/DX =    0.0023       !
 ! D17   D(1,3,6,12)      -79.3835  153.8859   47.2919 -DE/DX =    0.0032       !
 ! D18   D(4,3,6,10)      -60.9083 -145.9808  -14.5819 -DE/DX =   -0.0007       !
 ! D19   D(4,3,6,12)      123.0116   36.4992  166.1219 -DE/DX =    0.0002       !
 ! D20   D(5,3,6,10)      -44.3468   97.2085  102.7373 -DE/DX =   -0.0027       !
 ! D21   D(5,3,6,12)      139.573   -80.3115  -76.5588 -DE/DX =   -0.0018       !
 ! D22   D(3,6,12,13)     175.2924  176.6707  179.0674 -DE/DX =    0.0004       !
 ! D23   D(10,6,12,13)     -1.1684   -0.9173   -0.2653 -DE/DX =    0.0007       !
 --------------------------------------------------------------------------------
 Lowest energy point so far.  Saving SCF results.
 GradGradGradGradGradGradGradGradGradGradGradGradGradGradGradGradGradGrad

 Largest change from initial coordinates is atom   10       2.172 Angstoms.
 Leave Link  103 at Thu Apr 14 05:40:30 2016, MaxMem=    33554432 cpu:         0.0
 (Enter /usr/local/gau/g09/l202.exe)
                          Input orientation:                          
 ---------------------------------------------------------------------
 Center     Atomic      Atomic             Coordinates (Angstroms)
 Number     Number       Type             X           Y           Z
 ---------------------------------------------------------------------
      1          7           0       -1.879028   -0.641096    1.076165
      2          1           0       -1.375027   -1.482528    1.326470
      3          6           0       -1.218846    0.440530    0.695413
      4          1           0        0.918526    0.097197   -0.516232
      5          6           0       -2.174467    1.487548    0.177896
      6          6           0        1.848137   -0.228990   -0.928651
      7          1           0       -2.009963    2.424561    0.725318
      8          1           0       -1.915016    1.703145   -0.865997
      9          1           0       -3.252168    1.235910    0.234238
     10          8           0        2.067581   -0.474317   -2.117766
     11          1           0       -2.900079   -0.758029    1.019337
     12          8           0        2.788138   -0.329416    0.070716
     13          1           0        3.647425   -0.642413   -0.295276
 ---------------------------------------------------------------------
                    Distance matrix (angstroms):
                    1          2          3          4          5
     1  N    0.000000
     2  H    1.012264   0.000000
     3  C    1.323151   2.029971   0.000000
     4  H    3.302592   3.339381   2.480790   0.000000
     5  C    2.329227   3.283243   1.509066   3.461430   0.000000
     6  C    4.252162   4.128646   3.534435   1.068020   4.511352
     7  H    3.088445   4.003732   2.136150   3.941334   1.097599
     8  H    3.044463   3.904743   2.125288   3.275723   1.097047
     9  H    2.473359   3.479445   2.231526   4.388002   1.108123
    10  O    5.079836   4.973008   4.421711   2.052284   5.207107
    11  H    1.029295   1.716105   2.089980   4.203704   2.505425
    12  O    4.784403   4.498725   4.127830   2.005482   5.285858
    13  H    5.694080   5.344238   5.082797   2.835972   6.217319
                    6          7          8          9         10
     6  C    0.000000
     7  H    4.966073   0.000000
     8  H    4.230649   1.749783   0.000000
     9  H    5.432436   1.788051   1.793545   0.000000
    10  O    1.233830   5.754389   4.708434   6.062717   0.000000
    11  H    5.159467   3.317776   3.253031   2.171667   5.882139
    12  O    1.375653   5.570876   5.208493   6.241978   2.308605
    13  H    1.951799   6.515672   6.063672   7.170277   2.417775
                   11         12         13
    11  H    0.000000
    12  O    5.782682   0.000000
    13  H    6.679176   0.985034   0.000000
 Stoichiometry    C3H7NO2
 Framework group  C1[X(C3H7NO2)]
 Deg. of freedom    33
 Full point group                 C1      NOp   1
 RotChk:  IX=0 Diff= 5.45D-16
 Largest Abelian subgroup         C1      NOp   1
 Largest concise Abelian subgroup C1      NOp   1
                         Standard orientation:                         
 ---------------------------------------------------------------------
 Center     Atomic      Atomic             Coordinates (Angstroms)
 Number     Number       Type             X           Y           Z
 ---------------------------------------------------------------------
      1          7           0       -2.204462   -1.053986   -0.574052
      2          1           0       -1.665310   -1.846659   -0.899113
      3          6           0       -1.669770   -0.188700    0.272182
      4          1           0        0.774043    0.202537    0.101797
      5          6           0       -2.575015    1.005774    0.448384
      6          6           0        1.831685    0.174644   -0.044081
      7          1           0       -2.781774    1.143933    1.517443
      8          1           0       -2.026263    1.901852    0.133065
      9          1           0       -3.542038    0.969764   -0.091529
     10          8           0        2.478391    0.901309   -0.803071
     11          1           0       -3.106493   -0.927873   -1.053512
     12          8           0        2.383984   -0.797978    0.756790
     13          1           0        3.358668   -0.842601    0.621544
 ---------------------------------------------------------------------
 Rotational constants (GHZ):      5.3433037      1.0305476      0.9684655
 Leave Link  202 at Thu Apr 14 05:40:30 2016, MaxMem=    33554432 cpu:         0.0
 (Enter /usr/local/gau/g09/l601.exe)
 Copying SCF densities to generalized density rwf, IOpCl= 0 IROHF=0.

 **********************************************************************

            Population analysis using the SCF density.

 **********************************************************************

 Orbital symmetries:
       Occupied  (A) (A) (A) (A) (A) (A) (A) (A) (A) (A) (A) (A)
                 (A) (A) (A) (A) (A) (A) (A) (A) (A) (A) (A) (A)
       Virtual   (A) (A) (A) (A) (A) (A) (A) (A) (A) (A) (A) (A)
                 (A) (A) (A) (A) (A) (A) (A) (A) (A) (A) (A) (A)
                 (A) (A) (A) (A) (A) (A) (A) (A) (A) (A) (A) (A)
                 (A) (A) (A) (A) (A) (A) (A) (A)
 The electronic state is 1-A.
 Alpha  occ. eigenvalues --  -19.18861 -19.14248 -14.38313 -10.30977 -10.21442
 Alpha  occ. eigenvalues --  -10.18020  -1.10232  -1.01894  -0.95055  -0.74078
 Alpha  occ. eigenvalues --   -0.65426  -0.61397  -0.54931  -0.50875  -0.46048
 Alpha  occ. eigenvalues --   -0.43961  -0.42725  -0.42500  -0.38562  -0.37710
 Alpha  occ. eigenvalues --   -0.33992  -0.31053  -0.27404  -0.19981
 Alpha virt. eigenvalues --   -0.01014  -0.00095   0.06392   0.07230   0.11036
 Alpha virt. eigenvalues --    0.12561   0.16055   0.16230   0.21487   0.24448
 Alpha virt. eigenvalues --    0.27627   0.28939   0.36726   0.52611   0.55309
 Alpha virt. eigenvalues --    0.56487   0.58267   0.59256   0.63467   0.66833
 Alpha virt. eigenvalues --    0.68111   0.70945   0.73223   0.73332   0.79257
 Alpha virt. eigenvalues --    0.80666   0.82355   0.87964   0.89571   0.91625
 Alpha virt. eigenvalues --    0.92024   0.93532   0.94550   0.96364   1.00408
 Alpha virt. eigenvalues --    1.01889   1.10901   1.11851   1.14823   1.27098
 Alpha virt. eigenvalues --    1.34692   1.37502   1.66866   1.74123
          Condensed to atoms (all electrons):
               1          2          3          4          5          6
     1  N    6.933796   0.330314   0.281359  -0.002632  -0.065703   0.000345
     2  H    0.330314   0.418395  -0.046444  -0.001057   0.009861   0.000468
     3  C    0.281359  -0.046444   5.280311   0.068413   0.318507  -0.022909
     4  H   -0.002632  -0.001057   0.068413   0.589929  -0.002361   0.286143
     5  C   -0.065703   0.009861   0.318507  -0.002361   5.296507   0.000310
     6  C    0.000345   0.000468  -0.022909   0.286143   0.000310   4.832837
     7  H    0.002458  -0.000252  -0.026158   0.000023   0.360071  -0.000003
     8  H    0.001302  -0.000295  -0.026186  -0.000082   0.362668   0.000103
     9  H   -0.025569  -0.000545  -0.029799   0.000282   0.295695  -0.000036
    10  O    0.000000  -0.000003   0.000271  -0.055239  -0.000005   0.454487
    11  H    0.224817  -0.051237  -0.006348   0.000524  -0.037115  -0.000093
    12  O   -0.000003  -0.000002   0.000510  -0.079067   0.000001   0.143753
    13  H    0.000000   0.000001  -0.000050   0.008022   0.000000  -0.006683
               7          8          9         10         11         12
     1  N    0.002458   0.001302  -0.025569   0.000000   0.224817  -0.000003
     2  H   -0.000252  -0.000295  -0.000545  -0.000003  -0.051237  -0.000002
     3  C   -0.026158  -0.026186  -0.029799   0.000271  -0.006348   0.000510
     4  H    0.000023  -0.000082   0.000282  -0.055239   0.000524  -0.079067
     5  C    0.360071   0.362668   0.295695  -0.000005  -0.037115   0.000001
     6  C   -0.000003   0.000103  -0.000036   0.454487  -0.000093   0.143753
     7  H    0.545152  -0.024113  -0.030989   0.000000   0.000221   0.000000
     8  H   -0.024113   0.539221  -0.031003   0.000001   0.000021   0.000000
     9  H   -0.030989  -0.031003   0.686565   0.000000   0.035184   0.000000
    10  O    0.000000   0.000001   0.000000   8.092763   0.000000  -0.091000
    11  H    0.000221   0.000021   0.035184   0.000000   0.550585   0.000000
    12  O    0.000000   0.000000   0.000000  -0.091000   0.000000   8.344368
    13  H    0.000000   0.000000   0.000000   0.007630   0.000000   0.208147
              13
     1  N    0.000000
     2  H    0.000001
     3  C   -0.000050
     4  H    0.008022
     5  C    0.000000
     6  C   -0.006683
     7  H    0.000000
     8  H    0.000000
     9  H    0.000000
    10  O    0.007630
    11  H    0.000000
    12  O    0.208147
    13  H    0.411704
 Mulliken charges:
               1
     1  N   -0.680486
     2  H    0.340795
     3  C    0.208522
     4  H    0.187102
     5  C   -0.538436
     6  C    0.311278
     7  H    0.173590
     8  H    0.178364
     9  H    0.100216
    10  O   -0.408905
    11  H    0.283440
    12  O   -0.526708
    13  H    0.371229
 Sum of Mulliken charges =   0.00000
 Mulliken charges with hydrogens summed into heavy atoms:
               1
     1  N   -0.056251
     3  C    0.208522
     5  C   -0.086266
     6  C    0.498379
    10  O   -0.408905
    12  O   -0.155479
 Electronic spatial extent (au):  <R**2>=           1178.1943
 Charge=              0.0000 electrons
 Dipole moment (field-independent basis, Debye):
    X=             -2.8465    Y=             -1.8486    Z=             -0.8036  Tot=              3.4879
 Quadrupole moment (field-independent basis, Debye-Ang):
   XX=            -27.0544   YY=            -35.2943   ZZ=            -37.9882
   XY=             -3.2075   XZ=              6.6716   YZ=              5.8598
 Traceless Quadrupole moment (field-independent basis, Debye-Ang):
   XX=              6.3913   YY=             -1.8487   ZZ=             -4.5426
   XY=             -3.2075   XZ=              6.6716   YZ=              5.8598
 Octapole moment (field-independent basis, Debye-Ang**2):
  XXX=             17.1181  YYY=             -9.0748  ZZZ=             -2.6143  XYY=             -4.8059
  XXY=            -24.7628  XXZ=              6.6725  XZZ=             -4.8235  YZZ=             -3.4607
  YYZ=             -3.9201  XYZ=             -0.3781
 Hexadecapole moment (field-independent basis, Debye-Ang**3):
 XXXX=           -998.6445 YYYY=           -179.0576 ZZZZ=           -109.8252 XXXY=            -45.6511
 XXXZ=             79.9135 YYYX=              8.7271 YYYZ=              9.5204 ZZZX=              6.4731
 ZZZY=              5.0558 XXYY=           -225.0090 XXZZ=           -209.3924 YYZZ=            -48.1548
 XXYZ=             24.4630 YYXZ=             13.3409 ZZXY=              2.8914
 N-N= 2.052863943517D+02 E-N=-1.168142694283D+03  KE= 3.217932137714D+02
 No NMR shielding tensors so no spin-rotation constants.
 Leave Link  601 at Thu Apr 14 05:40:30 2016, MaxMem=    33554432 cpu:         0.1
 (Enter /usr/local/gau/g09/l9999.exe)


 A SLIP OF THE FOOT YOU MAY SOON RECOVER, BUT A SLIP OF THE TONGUE
 YOU MAY NEVER GET OVER. -- BEN FRANKLIN
 Error termination request processed by link 9999.
 Error termination via Lnk1e in /usr/local/gau/g09/l9999.exe at Thu Apr 14 05:40:30 2016.
 Job cpu time:       0 days  0 hours 14 minutes  6.1 seconds.
 File lengths (MBytes):  RWF=      5 Int=      0 D2E=      0 Chk=      2 Scr=      1
