 Entering Link 1 = c:\G09w03\l1.exe PID=       712.
  
 Copyright (c) 1988,1990,1992,1993,1995,1998,2003,2009,2010,
            Gaussian, Inc.  All Rights Reserved.
  
 This is part of the Gaussian(R) 09 program.  It is based on
 the Gaussian(R) 03 system (copyright 2003, Gaussian, Inc.),
 the Gaussian(R) 98 system (copyright 1998, Gaussian, Inc.),
 the Gaussian(R) 94 system (copyright 1995, Gaussian, Inc.),
 the Gaussian 92(TM) system (copyright 1992, Gaussian, Inc.),
 the Gaussian 90(TM) system (copyright 1990, Gaussian, Inc.),
 the Gaussian 88(TM) system (copyright 1988, Gaussian, Inc.),
 the Gaussian 86(TM) system (copyright 1986, Carnegie Mellon
 University), and the Gaussian 82(TM) system (copyright 1983,
 Carnegie Mellon University). Gaussian is a federally registered
 trademark of Gaussian, Inc.
  
 This software contains proprietary and confidential information,
 including trade secrets, belonging to Gaussian, Inc.
  
 This software is provided under written license and may be
 used, copied, transmitted, or stored only in accord with that
 written license.
  
 The following legend is applicable only to US Government
 contracts under FAR:
  
                    RESTRICTED RIGHTS LEGEND
  
 Use, reproduction and disclosure by the US Government is
 subject to restrictions as set forth in subparagraphs (a)
 and (c) of the Commercial Computer Software - Restricted
 Rights clause in FAR 52.227-19.
  
 Gaussian, Inc.
 340 Quinnipiac St., Bldg. 40, Wallingford CT 06492
  
  
 ---------------------------------------------------------------
 Warning -- This program may not be used in any manner that
 competes with the business of Gaussian, Inc. or will provide
 assistance to any competitor of Gaussian, Inc.  The licensee
 of this program is prohibited from giving any competitor of
 Gaussian, Inc. access to this program.  By using this program,
 the user acknowledges that Gaussian, Inc. is engaged in the
 business of creating and licensing software in the field of
 computational chemistry and represents and warrants to the
 licensee that it is not a competitor of Gaussian, Inc. and that
 it will not use this program in any manner prohibited above.
 ---------------------------------------------------------------
  

 Cite this work as:
 Gaussian 09, Revision B.01,
 M. J. Frisch, G. W. Trucks, H. B. Schlegel, G. E. Scuseria, 
 M. A. Robb, J. R. Cheeseman, G. Scalmani, V. Barone, B. Mennucci, 
 G. A. Petersson, H. Nakatsuji, M. Caricato, X. Li, H. P. Hratchian, 
 A. F. Izmaylov, J. Bloino, G. Zheng, J. L. Sonnenberg, M. Hada, 
 M. Ehara, K. Toyota, R. Fukuda, J. Hasegawa, M. Ishida, T. Nakajima, 
 Y. Honda, O. Kitao, H. Nakai, T. Vreven, J. A. Montgomery, Jr., 
 J. E. Peralta, F. Ogliaro, M. Bearpark, J. J. Heyd, E. Brothers, 
 K. N. Kudin, V. N. Staroverov, T. Keith, R. Kobayashi, J. Normand, 
 K. Raghavachari, A. Rendell, J. C. Burant, S. S. Iyengar, J. Tomasi, 
 M. Cossi, N. Rega, J. M. Millam, M. Klene, J. E. Knox, J. B. Cross, 
 V. Bakken, C. Adamo, J. Jaramillo, R. Gomperts, R. E. Stratmann, 
 O. Yazyev, A. J. Austin, R. Cammi, C. Pomelli, J. W. Ochterski, 
 R. L. Martin, K. Morokuma, V. G. Zakrzewski, G. A. Voth, 
 P. Salvador, J. J. Dannenberg, S. Dapprich, A. D. Daniels, 
 O. Farkas, J. B. Foresman, J. V. Ortiz, J. Cioslowski, 
 and D. J. Fox, Gaussian, Inc., Wallingford CT, 2010.
 
 ******************************************
 Gaussian 09:  IA32W-G09RevB.01 12-Aug-2010
                19-Apr-2016 
 ******************************************
 %chk=Ala-S-opt-freq-cpcm-w-pc3-6-311++gdp.chk
 -----------------------------------------------------------------
 #p opt freq rb3lyp/6-311++g(d,p) scrf=(cpcm,solvent=water) nosymm
 -----------------------------------------------------------------
 1/14=-1,18=20,19=15,26=3,38=1/1,3;
 2/9=110,12=2,15=1,17=6,18=5,40=1/2;
 3/5=4,6=6,7=1111,11=2,16=1,25=1,30=1,70=2101,71=1,72=1,74=-5,116=1/1,2,3;
 4//1;
 5/5=2,38=5,53=1/2;
 6/7=2,8=2,9=2,10=2,28=1/1;
 7/30=1/1,2,3,16;
 1/14=-1,18=20,19=15/3(2);
 2/9=110,15=1/2;
 99//99;
 2/9=110,15=1/2;
 3/5=4,6=6,7=1111,11=2,16=1,25=1,30=1,70=2105,71=1,72=1,74=-5,116=1/1,2,3;
 4/5=5,16=3/1;
 5/5=2,38=5,53=1/2;
 7/30=1/1,2,3,16;
 1/14=-1,18=20,19=15/3(-5);
 2/9=110,15=1/2;
 6/7=2,8=2,9=2,10=2,19=2,28=1/1;
 99/9=1/99;
 Leave Link    1 at Tue Apr 19 17:47:45 2016, MaxMem=          0 cpu:       1.0
 (Enter c:\G09w03\l101.exe)
 ------------------------------------
 Ala-S-opt-freq-cpcm-w-pc3-6-311++gdp
 ------------------------------------
 Symbolic Z-matrix:
 Charge =  0 Multiplicity = 1
 N                    -1.14728  -1.34766  -0.02184 
 H                    -2.12419  -1.57238   0.05948 
 C                    -0.67743  -0.07681   0.09387 
 H                     2.23443   1.24671  -0.02223 
 C                    -1.63293   1.07392   0.13328 
 C                     0.7056    0.07169   0.223 
 H                    -2.41227   0.93088   0.89484 
 H                    -1.1001    2.00151   0.3432 
 H                    -2.13724   1.18259  -0.83655 
 O                     1.58069  -1.09991   0.06009 
 H                    -0.46215  -2.07882  -0.16804 
 O                     1.26225   1.33593  -0.06491 
 H                     0.75361   0.07917   1.19178 
 
 NAtoms=     13 NQM=     13 NQMF=      0 NMic=      0 NMicF=      0 NTot=     13.
                    Isotopes and Nuclear Properties:
 (Nuclear quadrupole moments (NQMom) in fm**2, nuclear magnetic moments (NMagM)
  in nuclear magnetons)

  Atom         1           2           3           4           5           6           7           8           9          10
 IAtWgt=          14           1          12           1          12          12           1           1           1          16
 AtmWgt=  14.0030740   1.0078250  12.0000000   1.0078250  12.0000000  12.0000000   1.0078250   1.0078250   1.0078250  15.9949146
 NucSpn=           2           1           0           1           0           0           1           1           1           0
 AtZEff=   0.0000000   0.0000000   0.0000000   0.0000000   0.0000000   0.0000000   0.0000000   0.0000000   0.0000000   0.0000000
 NQMom=    2.0440000   0.0000000   0.0000000   0.0000000   0.0000000   0.0000000   0.0000000   0.0000000   0.0000000   0.0000000
 NMagM=    0.4037610   2.7928460   0.0000000   2.7928460   0.0000000   0.0000000   2.7928460   2.7928460   2.7928460   0.0000000

  Atom        11          12          13
 IAtWgt=           1          16           1
 AtmWgt=   1.0078250  15.9949146   1.0078250
 NucSpn=           1           0           1
 AtZEff=   0.0000000   0.0000000   0.0000000
 NQMom=    0.0000000   0.0000000   0.0000000
 NMagM=    2.7928460   0.0000000   2.7928460
 Leave Link  101 at Tue Apr 19 17:47:45 2016, MaxMem=   33554432 cpu:       0.0
 (Enter c:\G09w03\l103.exe)

 GradGradGradGradGradGradGradGradGradGradGradGradGradGradGradGradGradGrad
 Berny optimization.
 Initialization pass.
                           ----------------------------
                           !    Initial Parameters    !
                           ! (Angstroms and Degrees)  !
 --------------------------                            --------------------------
 ! Name  Definition              Value          Derivative Info.                !
 --------------------------------------------------------------------------------
 ! R1    R(1,2)                  1.0057         estimate D2E/DX2                !
 ! R2    R(1,3)                  1.3599         estimate D2E/DX2                !
 ! R3    R(1,11)                 1.0126         estimate D2E/DX2                !
 ! R4    R(3,5)                  1.4962         estimate D2E/DX2                !
 ! R5    R(3,6)                  1.397          estimate D2E/DX2                !
 ! R6    R(4,12)                 0.9772         estimate D2E/DX2                !
 ! R7    R(5,7)                  1.099          estimate D2E/DX2                !
 ! R8    R(5,8)                  1.0901         estimate D2E/DX2                !
 ! R9    R(5,9)                  1.0985         estimate D2E/DX2                !
 ! R10   R(6,10)                 1.4714         estimate D2E/DX2                !
 ! R11   R(6,12)                 1.411          estimate D2E/DX2                !
 ! R12   R(6,13)                 0.97           estimate D2E/DX2                !
 ! A1    A(2,1,3)              122.5169         estimate D2E/DX2                !
 ! A2    A(2,1,11)             120.5013         estimate D2E/DX2                !
 ! A3    A(3,1,11)             116.9564         estimate D2E/DX2                !
 ! A4    A(1,3,5)              120.0229         estimate D2E/DX2                !
 ! A5    A(1,3,6)              116.6967         estimate D2E/DX2                !
 ! A6    A(5,3,6)              123.2333         estimate D2E/DX2                !
 ! A7    A(3,5,7)              111.7781         estimate D2E/DX2                !
 ! A8    A(3,5,8)              110.3256         estimate D2E/DX2                !
 ! A9    A(3,5,9)              110.2436         estimate D2E/DX2                !
 ! A10   A(7,5,8)              108.8992         estimate D2E/DX2                !
 ! A11   A(7,5,9)              107.4038         estimate D2E/DX2                !
 ! A12   A(8,5,9)              108.0723         estimate D2E/DX2                !
 ! A13   A(3,6,10)             119.5996         estimate D2E/DX2                !
 ! A14   A(3,6,12)             117.8354         estimate D2E/DX2                !
 ! A15   A(3,6,13)              98.1718         estimate D2E/DX2                !
 ! A16   A(10,6,12)            117.1426         estimate D2E/DX2                !
 ! A17   A(10,6,13)             95.0074         estimate D2E/DX2                !
 ! A18   A(12,6,13)            100.2151         estimate D2E/DX2                !
 ! A19   A(4,12,6)             107.563          estimate D2E/DX2                !
 ! D1    D(2,1,3,5)             -9.7446         estimate D2E/DX2                !
 ! D2    D(2,1,3,6)            167.842          estimate D2E/DX2                !
 ! D3    D(11,1,3,5)           172.0797         estimate D2E/DX2                !
 ! D4    D(11,1,3,6)           -10.3337         estimate D2E/DX2                !
 ! D5    D(1,3,5,7)             52.153          estimate D2E/DX2                !
 ! D6    D(1,3,5,8)            173.4821         estimate D2E/DX2                !
 ! D7    D(1,3,5,9)            -67.2297         estimate D2E/DX2                !
 ! D8    D(6,3,5,7)           -125.2692         estimate D2E/DX2                !
 ! D9    D(6,3,5,8)             -3.9401         estimate D2E/DX2                !
 ! D10   D(6,3,5,9)            115.3481         estimate D2E/DX2                !
 ! D11   D(1,3,6,10)             7.5993         estimate D2E/DX2                !
 ! D12   D(1,3,6,12)           160.8888         estimate D2E/DX2                !
 ! D13   D(1,3,6,13)           -92.9446         estimate D2E/DX2                !
 ! D14   D(5,3,6,10)          -174.8988         estimate D2E/DX2                !
 ! D15   D(5,3,6,12)           -21.6094         estimate D2E/DX2                !
 ! D16   D(5,3,6,13)            84.5572         estimate D2E/DX2                !
 ! D17   D(3,6,12,4)          -173.9514         estimate D2E/DX2                !
 ! D18   D(10,6,12,4)          -20.0037         estimate D2E/DX2                !
 ! D19   D(13,6,12,4)           81.0687         estimate D2E/DX2                !
 --------------------------------------------------------------------------------
 Trust Radius=3.00D-01 FncErr=1.00D-07 GrdErr=1.00D-06
 Number of steps in this run=     60 maximum allowed number of steps=    100.
 GradGradGradGradGradGradGradGradGradGradGradGradGradGradGradGradGradGrad

 Leave Link  103 at Tue Apr 19 17:47:45 2016, MaxMem=   33554432 cpu:       0.0
 (Enter c:\G09w03\l202.exe)
                          Input orientation:                          
 ---------------------------------------------------------------------
 Center     Atomic      Atomic             Coordinates (Angstroms)
 Number     Number       Type             X           Y           Z
 ---------------------------------------------------------------------
      1          7           0       -1.147279   -1.347664   -0.021841
      2          1           0       -2.124193   -1.572383    0.059484
      3          6           0       -0.677435   -0.076806    0.093865
      4          1           0        2.234428    1.246713   -0.022228
      5          6           0       -1.632927    1.073916    0.133276
      6          6           0        0.705602    0.071687    0.222998
      7          1           0       -2.412268    0.930882    0.894840
      8          1           0       -1.100098    2.001515    0.343201
      9          1           0       -2.137240    1.182595   -0.836548
     10          8           0        1.580690   -1.099911    0.060089
     11          1           0       -0.462151   -2.078824   -0.168037
     12          8           0        1.262247    1.335931   -0.064905
     13          1           0        0.753610    0.079168    1.191780
 ---------------------------------------------------------------------
                    Distance matrix (angstroms):
                    1          2          3          4          5
     1  N    0.000000
     2  H    1.005721   0.000000
     3  C    1.359862   2.081116   0.000000
     4  H    4.262246   5.191490   3.200645   0.000000
     5  C    2.474665   2.692524   1.496221   3.874336   0.000000
     6  C    2.346843   3.276804   1.396966   1.943742   2.545826
     7  H    2.762657   2.654646   2.160241   4.746847   1.099005
     8  H    3.369345   3.728541   2.135469   3.438362   1.090145
     9  H    2.836544   2.897058   2.140745   4.447326   1.098499
    10  O    2.740422   3.734889   2.479317   2.437374   3.880491
    11  H    1.012605   1.752322   2.030522   4.283924   3.376577
    12  O    3.606848   4.465618   2.404869   0.977199   2.913753
    13  H    2.668728   3.505920   1.810424   2.242721   2.793835
                    6          7          8          9         10
     6  C    0.000000
     7  H    3.303135   0.000000
     8  H    2.645607   1.781109   0.000000
     9  H    3.230867   1.771075   1.771469   0.000000
    10  O    1.471380   4.556824   4.109212   4.453851   0.000000
    11  H    2.478155   3.740454   4.161431   3.726886   2.276733
    12  O    1.411047   3.819324   2.488017   3.489334   2.459747
    13  H    0.970000   3.291865   2.802095   3.699822   1.831669
                   11         12         13
    11  H    0.000000
    12  O    3.826844   0.000000
    13  H    2.825617   1.848627   0.000000
 Symmetry turned off by external request.
 Stoichiometry    C3H7NO2
 Framework group  C1[X(C3H7NO2)]
 Deg. of freedom    33
 Full point group                 C1      NOp   1
 Rotational constants (GHZ):      4.7827350      3.3065275      2.0118369
 Leave Link  202 at Tue Apr 19 17:47:45 2016, MaxMem=   33554432 cpu:       0.0
 (Enter c:\G09w03\l301.exe)
 Standard basis: 6-311++G(d,p) (5D, 7F)
 Ernie: Thresh=  0.10000D-02 Tol=  0.10000D-05 Strict=F.
 Integral buffers will be    262144 words long.
 Raffenetti 2 integral format.
 Two-electron integral symmetry is turned off.
   181 basis functions,   279 primitive gaussians,   187 cartesian basis functions
    24 alpha electrons       24 beta electrons
       nuclear repulsion energy       245.9264556641 Hartrees.
 IExCor=  402 DFT=T Ex+Corr=B3LYP ExCW=0 ScaHFX=  0.200000
 ScaDFX=  0.800000  0.720000  1.000000  0.810000 ScalE2=  1.000000  1.000000
 IRadAn=      0 IRanWt=     -1 IRanGd=            0 ICorTp=0
 NAtoms=   13 NActive=   13 NUniq=   13 SFac= 1.00D+00 NAtFMM=   50 NAOKFM=F Big=F
 ------------------------------------------------------------------------------
 Polarizable Continuum Model (PCM)
 =================================
 Model                : C-PCM.
 Atomic radii         : UFF (Universal Force Field).
 Polarization charges : Total charges.
 Charge compensation  : None.
 Solution method      : Matrix inversion.
 Cavity type          : Scaled VdW (van der Waals Surface) (Alpha=1.100).
 Cavity algorithm     : GePol (No added spheres)
                        Default sphere list used, NSphG=   13.
                        Lebedev-Laikov grids with approx.  5.0 points / Ang**2.
                        Smoothing algorithm: Karplus/York (Gamma=1.0000).
                        Polarization charges: spherical gaussians, with
                                              point-specific exponents (IZeta= 3).
                        Self-potential: point-specific (ISelfS= 7).
                        Self-field    : sphere-specific E.n sum rule (ISelfD= 2).
 1st derivatives      : Analytical E(r).r(x)/FMM algorithm (CHGder, D1EAlg=3).
                        Cavity 1st derivative terms included.
 Solvent              : Water, Eps=  78.355300 Eps(inf)=   1.777849
 ------------------------------------------------------------------------------
 Spheres list:
 ISph  on   Nord    Re0     Alpha      Xe            Ye            Ze
    1   N      1    1.830   1.100     -1.147279     -1.347664     -0.021841
    2   H      2    1.443   1.100     -2.124193     -1.572383      0.059484
    3   C      3    1.926   1.100     -0.677435     -0.076806      0.093865
    4   H      4    1.443   1.100      2.234428      1.246713     -0.022228
    5   C      5    1.926   1.100     -1.632927      1.073916      0.133276
    6   C      6    1.926   1.100      0.705602      0.071687      0.222998
    7   H      7    1.443   1.100     -2.412268      0.930882      0.894840
    8   H      8    1.443   1.100     -1.100098      2.001515      0.343201
    9   H      9    1.443   1.100     -2.137240      1.182595     -0.836548
   10   O     10    1.750   1.100      1.580690     -1.099911      0.060089
   11   H     11    1.443   1.100     -0.462151     -2.078824     -0.168037
   12   O     12    1.750   1.100      1.262247      1.335931     -0.064905
   13   H     13    1.443   1.100      0.753610      0.079168      1.191780
 ------------------------------------------------------------------------------
 GePol: Number of generator spheres                  =      13
 GePol: Total number of spheres                      =      13
 GePol: Number of exposed spheres                    =      13 (100.00%)
 GePol: Number of points                             =    1122
 GePol: Average weight of points                     =       0.13
 GePol: Minimum weight of points                     =   0.88D-09
 GePol: Maximum weight of points                     =    0.20577
 GePol: Number of points with low weight             =      70
 GePol: Fraction of low-weight points (<1% of avg)   =       6.24%
 GePol: Cavity surface area                          =    150.047 Ang**2
 GePol: Cavity volume                                =    137.650 Ang**3
 Leave Link  301 at Tue Apr 19 17:47:45 2016, MaxMem=   33554432 cpu:       0.0
 (Enter c:\G09w03\l302.exe)
 NPDir=0 NMtPBC=     1 NCelOv=     1 NCel=       1 NClECP=     1 NCelD=      1
         NCelK=      1 NCelE2=     1 NClLst=     1 CellRange=     0.0.
 One-electron integrals computed using PRISM.
 NBasis=   181 RedAO= T  NBF=   181
 NBsUse=   181 1.00D-06 NBFU=   181
 Precomputing XC quadrature grid using
 IXCGrd= 2 IRadAn=           0 IRanWt=          -1 IRanGd=           0 AccXCQ= 0.00D+00.
 NRdTot=     842 NPtTot=      107204 NUsed=      111136 NTot=      111152
 NSgBfM=   187   187   187   187   187 NAtAll=    13    13.
 Leave Link  302 at Tue Apr 19 17:47:45 2016, MaxMem=   33554432 cpu:       0.0
 (Enter c:\G09w03\l303.exe)
 DipDrv:  MaxL=1.
 Leave Link  303 at Tue Apr 19 17:47:45 2016, MaxMem=   33554432 cpu:       0.0
 (Enter c:\G09w03\l401.exe)
 Harris functional with IExCor=  402 diagonalized for initial guess.
 ExpMin= 3.60D-02 ExpMax= 8.59D+03 ExpMxC= 1.30D+03 IAcc=3 IRadAn=         0 AccDes= 0.00D+00
 HarFok:  IExCor=  402 AccDes= 0.00D+00 IRadAn=         0 IDoV= 1
 ScaDFX=  1.000000  1.000000  1.000000  1.000000
 FoFCou: FMM=F IPFlag=           0 FMFlag=      100000 FMFlg1=           0
         NFxFlg=           0 DoJE=T BraDBF=F KetDBF=T FulRan=T
         Omega=  0.000000  0.000000  1.000000  0.000000  0.000000 ICntrl=     500 IOpCl=  0
         NMat0=    1 NMatS0=    1 NMatT0=    0 NMatD0=    1 NMtDS0=    0 NMtDT0=    0
         I1Cent=           4 NGrid=           0.
 Symmetry not used in FoFCou.
 Harris En= -323.787164320382    
 Leave Link  401 at Tue Apr 19 17:47:50 2016, MaxMem=   33554432 cpu:       5.0
 (Enter c:\G09w03\l502.exe)
 Closed shell SCF:
 Requested convergence on RMS density matrix=1.00D-08 within 128 cycles.
 Requested convergence on MAX density matrix=1.00D-06.
 Requested convergence on             energy=1.00D-06.
 No special actions if energy rises.
 Using DIIS extrapolation, IDIIS=  1040.
 Two-electron integral symmetry not used.
       111019 words used for storage of precomputed grid.
 IEnd=      236225 IEndB=      236225 NGot=    33554432 MDV=    33370004
 LenX=    33370004 LenY=    33334594
 Fock matrices will be formed incrementally for  20 cycles.

 Cycle   1  Pass 1  IDiag  1:
 FoFCou: FMM=F IPFlag=           0 FMFlag=      100000 FMFlg1=           0
         NFxFlg=           0 DoJE=F BraDBF=F KetDBF=F FulRan=T
         Omega=  0.000000  0.000000  1.000000  0.000000  0.000000 ICntrl=       0 IOpCl=  0
         NMat0=    1 NMatS0=    1 NMatT0=    0 NMatD0=    1 NMtDS0=    0 NMtDT0=    0
         I1Cent=           0 NGrid=           0.
 Symmetry not used in FoFCou.
 E= -323.531360808292    
 DIIS: error= 2.67D-02 at cycle   1 NSaved=   1.
 NSaved= 1 IEnMin= 1 EnMin= -323.531360808292     IErMin= 1 ErrMin= 2.67D-02
 ErrMax= 2.67D-02 EMaxC= 1.00D-01 BMatC= 2.86D-01 BMatP= 2.86D-01
 IDIUse=3 WtCom= 7.33D-01 WtEn= 2.67D-01
 Coeff-Com:  0.100D+01
 Coeff-En:   0.100D+01
 Coeff:      0.100D+01
 Gap=    -0.040 Goal=   None    Shift=    0.000
 GapD=   -0.040 DampG=0.250 DampE=0.500 DampFc=0.2500 IDamp=-1.
 Damping current iteration by 2.50D-01
 RMSDP=4.00D-02 MaxDP=3.07D+00              OVMax= 8.67D-01

 Cycle   2  Pass 1  IDiag  1:
 RMSU=  6.45D-03    CP:  1.21D+00
 E= -323.551610630260     Delta-E=       -0.020249821968 Rises=F Damp=T
 DIIS: error= 1.05D-02 at cycle   2 NSaved=   2.
 NSaved= 2 IEnMin= 2 EnMin= -323.551610630260     IErMin= 2 ErrMin= 1.05D-02
 ErrMax= 1.05D-02 EMaxC= 1.00D-01 BMatC= 5.25D-02 BMatP= 2.86D-01
 IDIUse=3 WtCom= 8.95D-01 WtEn= 1.05D-01
 Coeff-Com: -0.845D-01 0.108D+01
 Coeff-En:   0.431D+00 0.569D+00
 Coeff:     -0.305D-01 0.103D+01
 Gap=     0.094 Goal=   None    Shift=    0.000
 RMSDP=9.61D-03 MaxDP=6.68D-01 DE=-2.02D-02 OVMax= 5.68D-01

 Cycle   3  Pass 1  IDiag  1:
 RMSU=  4.47D-03    CP:  1.13D+00  2.27D-01
 E= -323.613196697240     Delta-E=       -0.061586066981 Rises=F Damp=F
 DIIS: error= 2.57D-02 at cycle   3 NSaved=   3.
 NSaved= 3 IEnMin= 3 EnMin= -323.613196697240     IErMin= 2 ErrMin= 1.05D-02
 ErrMax= 2.57D-02 EMaxC= 1.00D-01 BMatC= 1.60D-01 BMatP= 5.25D-02
 IDIUse=2 WtCom= 0.00D+00 WtEn= 1.00D+00
 Coeff-En:   0.000D+00 0.356D+00 0.644D+00
 Coeff:      0.000D+00 0.356D+00 0.644D+00
 Gap=     0.148 Goal=   None    Shift=    0.000
 RMSDP=9.48D-03 MaxDP=3.33D-01 DE=-6.16D-02 OVMax= 5.47D-01

 Cycle   4  Pass 1  IDiag  1:
 RMSU=  4.94D-03    CP:  1.12D+00  6.97D-01  2.46D-01
 E= -323.329240489029     Delta-E=        0.283956208211 Rises=F Damp=F
 DIIS: error= 4.82D-02 at cycle   4 NSaved=   4.
 NSaved= 4 IEnMin= 3 EnMin= -323.613196697240     IErMin= 2 ErrMin= 1.05D-02
 ErrMax= 4.82D-02 EMaxC= 1.00D-01 BMatC= 4.72D-01 BMatP= 5.25D-02
 IDIUse=2 WtCom= 0.00D+00 WtEn= 1.00D+00
 EnCoef did     3 forward-backward iterations
 Coeff-En:   0.325D-01 0.000D+00 0.663D+00 0.304D+00
 Coeff:      0.325D-01 0.000D+00 0.663D+00 0.304D+00
 Gap=     0.078 Goal=   None    Shift=    0.000
 RMSDP=7.10D-03 MaxDP=3.68D-01 DE= 2.84D-01 OVMax= 4.31D-01

 Cycle   5  Pass 1  IDiag  1:
 RMSU=  1.28D-03    CP:  1.01D+00  1.20D-01  3.58D-01  4.60D-01
 E= -323.741112597937     Delta-E=       -0.411872108907 Rises=F Damp=F
 DIIS: error= 6.68D-03 at cycle   5 NSaved=   5.
 NSaved= 5 IEnMin= 5 EnMin= -323.741112597937     IErMin= 5 ErrMin= 6.68D-03
 ErrMax= 6.68D-03 EMaxC= 1.00D-01 BMatC= 1.55D-02 BMatP= 5.25D-02
 IDIUse=3 WtCom= 9.33D-01 WtEn= 6.68D-02
 Coeff-Com: -0.194D+00 0.316D+00 0.249D+00-0.416D-01 0.671D+00
 Coeff-En:   0.000D+00 0.000D+00 0.266D-01 0.000D+00 0.973D+00
 Coeff:     -0.181D+00 0.295D+00 0.234D+00-0.388D-01 0.692D+00
 Gap=     0.142 Goal=   None    Shift=    0.000
 RMSDP=1.44D-03 MaxDP=7.95D-02 DE=-4.12D-01 OVMax= 5.16D-02

 Cycle   6  Pass 1  IDiag  1:
 RMSU=  2.34D-04    CP:  1.03D+00  1.46D-01  5.14D-01  3.45D-01  9.01D-01
 E= -323.750653596454     Delta-E=       -0.009540998517 Rises=F Damp=F
 DIIS: error= 3.35D-03 at cycle   6 NSaved=   6.
 NSaved= 6 IEnMin= 6 EnMin= -323.750653596454     IErMin= 6 ErrMin= 3.35D-03
 ErrMax= 3.35D-03 EMaxC= 1.00D-01 BMatC= 2.93D-03 BMatP= 1.55D-02
 IDIUse=3 WtCom= 9.66D-01 WtEn= 3.35D-02
 Coeff-Com: -0.114D+00 0.152D+00 0.717D-01-0.146D-01 0.352D+00 0.552D+00
 Coeff-En:   0.000D+00 0.000D+00 0.000D+00 0.000D+00 0.117D+00 0.883D+00
 Coeff:     -0.110D+00 0.147D+00 0.693D-01-0.141D-01 0.344D+00 0.564D+00
 Gap=     0.138 Goal=   None    Shift=    0.000
 RMSDP=3.78D-04 MaxDP=1.11D-02 DE=-9.54D-03 OVMax= 1.24D-02

 Cycle   7  Pass 1  IDiag  1:
 RMSU=  1.44D-04    CP:  1.03D+00  1.62D-01  5.12D-01  3.81D-01  9.53D-01
                    CP:  8.17D-01
 E= -323.752809415641     Delta-E=       -0.002155819187 Rises=F Damp=F
 DIIS: error= 1.42D-03 at cycle   7 NSaved=   7.
 NSaved= 7 IEnMin= 7 EnMin= -323.752809415641     IErMin= 7 ErrMin= 1.42D-03
 ErrMax= 1.42D-03 EMaxC= 1.00D-01 BMatC= 4.02D-04 BMatP= 2.93D-03
 IDIUse=3 WtCom= 9.86D-01 WtEn= 1.42D-02
 Coeff-Com: -0.222D-01 0.228D-01-0.447D-01 0.791D-02-0.254D-01 0.269D+00
 Coeff-Com:  0.793D+00
 Coeff-En:   0.000D+00 0.000D+00 0.000D+00 0.000D+00 0.000D+00 0.000D+00
 Coeff-En:   0.100D+01
 Coeff:     -0.219D-01 0.225D-01-0.441D-01 0.780D-02-0.251D-01 0.265D+00
 Coeff:      0.796D+00
 Gap=     0.136 Goal=   None    Shift=    0.000
 RMSDP=1.94D-04 MaxDP=4.50D-03 DE=-2.16D-03 OVMax= 6.18D-03

 Cycle   8  Pass 1  IDiag  1:
 RMSU=  5.66D-05    CP:  1.03D+00  1.64D-01  5.05D-01  4.01D-01  9.96D-01
                    CP:  9.29D-01  1.13D+00
 E= -323.753167839781     Delta-E=       -0.000358424140 Rises=F Damp=F
 DIIS: error= 3.01D-04 at cycle   8 NSaved=   8.
 NSaved= 8 IEnMin= 8 EnMin= -323.753167839781     IErMin= 8 ErrMin= 3.01D-04
 ErrMax= 3.01D-04 EMaxC= 1.00D-01 BMatC= 2.49D-05 BMatP= 4.02D-04
 IDIUse=3 WtCom= 9.97D-01 WtEn= 3.01D-03
 Coeff-Com:  0.250D-02-0.510D-02-0.371D-01 0.687D-02-0.672D-01 0.660D-01
 Coeff-Com:  0.430D+00 0.604D+00
 Coeff-En:   0.000D+00 0.000D+00 0.000D+00 0.000D+00 0.000D+00 0.000D+00
 Coeff-En:   0.000D+00 0.100D+01
 Coeff:      0.249D-02-0.509D-02-0.370D-01 0.685D-02-0.670D-01 0.658D-01
 Coeff:      0.428D+00 0.606D+00
 Gap=     0.135 Goal=   None    Shift=    0.000
 RMSDP=5.53D-05 MaxDP=1.87D-03 DE=-3.58D-04 OVMax= 1.78D-03

 Cycle   9  Pass 1  IDiag  1:
 RMSU=  2.39D-05    CP:  1.03D+00  1.65D-01  5.07D-01  4.06D-01  1.00D+00
                    CP:  9.86D-01  1.19D+00  1.20D+00
 E= -323.753188789839     Delta-E=       -0.000020950058 Rises=F Damp=F
 DIIS: error= 9.83D-05 at cycle   9 NSaved=   9.
 NSaved= 9 IEnMin= 9 EnMin= -323.753188789839     IErMin= 9 ErrMin= 9.83D-05
 ErrMax= 9.83D-05 EMaxC= 1.00D-01 BMatC= 2.16D-06 BMatP= 2.49D-05
 IDIUse=1 WtCom= 1.00D+00 WtEn= 0.00D+00
 Coeff-Com:  0.106D-02-0.121D-02-0.512D-02 0.839D-03-0.975D-02-0.239D-02
 Coeff-Com:  0.383D-01 0.298D+00 0.681D+00
 Coeff:      0.106D-02-0.121D-02-0.512D-02 0.839D-03-0.975D-02-0.239D-02
 Coeff:      0.383D-01 0.298D+00 0.681D+00
 Gap=     0.136 Goal=   None    Shift=    0.000
 RMSDP=1.71D-05 MaxDP=8.90D-04 DE=-2.10D-05 OVMax= 4.81D-04

 Cycle  10  Pass 1  IDiag  1:
 RMSU=  4.92D-06    CP:  1.03D+00  1.64D-01  5.05D-01  4.06D-01  1.00D+00
                    CP:  9.71D-01  1.20D+00  1.25D+00  7.75D-01
 E= -323.753190579795     Delta-E=       -0.000001789956 Rises=F Damp=F
 DIIS: error= 2.09D-05 at cycle  10 NSaved=  10.
 NSaved=10 IEnMin=10 EnMin= -323.753190579795     IErMin=10 ErrMin= 2.09D-05
 ErrMax= 2.09D-05 EMaxC= 1.00D-01 BMatC= 1.32D-07 BMatP= 2.16D-06
 IDIUse=1 WtCom= 1.00D+00 WtEn= 0.00D+00
 Coeff-Com:  0.140D-03 0.207D-03-0.107D-02 0.271D-04-0.212D-02-0.352D-02
 Coeff-Com:  0.490D-02 0.130D+00 0.344D+00 0.527D+00
 Coeff:      0.140D-03 0.207D-03-0.107D-02 0.271D-04-0.212D-02-0.352D-02
 Coeff:      0.490D-02 0.130D+00 0.344D+00 0.527D+00
 Gap=     0.136 Goal=   None    Shift=    0.000
 RMSDP=5.46D-06 MaxDP=4.03D-04 DE=-1.79D-06 OVMax= 9.21D-05

 Cycle  11  Pass 1  IDiag  1:
 RMSU=  1.41D-06    CP:  1.03D+00  1.64D-01  5.06D-01  4.05D-01  1.00D+00
                    CP:  9.73D-01  1.21D+00  1.27D+00  8.13D-01  8.75D-01
 E= -323.753190677847     Delta-E=       -0.000000098052 Rises=F Damp=F
 DIIS: error= 6.93D-06 at cycle  11 NSaved=  11.
 NSaved=11 IEnMin=11 EnMin= -323.753190677847     IErMin=11 ErrMin= 6.93D-06
 ErrMax= 6.93D-06 EMaxC= 1.00D-01 BMatC= 1.08D-08 BMatP= 1.32D-07
 IDIUse=1 WtCom= 1.00D+00 WtEn= 0.00D+00
 Coeff-Com: -0.110D-03 0.112D-03 0.297D-03-0.611D-04 0.681D-03-0.123D-02
 Coeff-Com: -0.387D-02 0.359D-02 0.247D-01 0.166D+00 0.810D+00
 Coeff:     -0.110D-03 0.112D-03 0.297D-03-0.611D-04 0.681D-03-0.123D-02
 Coeff:     -0.387D-02 0.359D-02 0.247D-01 0.166D+00 0.810D+00
 Gap=     0.136 Goal=   None    Shift=    0.000
 RMSDP=2.02D-06 MaxDP=5.75D-05 DE=-9.81D-08 OVMax= 3.35D-05

 Cycle  12  Pass 1  IDiag  1:
 RMSU=  4.29D-07    CP:  1.03D+00  1.64D-01  5.06D-01  4.06D-01  1.00D+00
                    CP:  9.73D-01  1.21D+00  1.28D+00  8.23D-01  9.79D-01
                    CP:  1.06D+00
 E= -323.753190687138     Delta-E=       -0.000000009291 Rises=F Damp=F
 DIIS: error= 1.21D-06 at cycle  12 NSaved=  12.
 NSaved=12 IEnMin=12 EnMin= -323.753190687138     IErMin=12 ErrMin= 1.21D-06
 ErrMax= 1.21D-06 EMaxC= 1.00D-01 BMatC= 3.44D-10 BMatP= 1.08D-08
 IDIUse=1 WtCom= 1.00D+00 WtEn= 0.00D+00
 Coeff-Com: -0.178D-04 0.188D-04 0.572D-04-0.119D-04 0.825D-04-0.281D-03
 Coeff-Com: -0.102D-02-0.223D-02-0.237D-02 0.865D-02 0.108D+00 0.889D+00
 Coeff:     -0.178D-04 0.188D-04 0.572D-04-0.119D-04 0.825D-04-0.281D-03
 Coeff:     -0.102D-02-0.223D-02-0.237D-02 0.865D-02 0.108D+00 0.889D+00
 Gap=     0.136 Goal=   None    Shift=    0.000
 RMSDP=5.39D-07 MaxDP=2.78D-05 DE=-9.29D-09 OVMax= 1.01D-05

 Cycle  13  Pass 1  IDiag  1:
 RMSU=  7.86D-08    CP:  1.03D+00  1.64D-01  5.06D-01  4.06D-01  1.00D+00
                    CP:  9.73D-01  1.21D+00  1.28D+00  8.26D-01  9.95D-01
                    CP:  1.11D+00  1.07D+00
 E= -323.753190687510     Delta-E=       -0.000000000371 Rises=F Damp=F
 DIIS: error= 1.89D-07 at cycle  13 NSaved=  13.
 NSaved=13 IEnMin=13 EnMin= -323.753190687510     IErMin=13 ErrMin= 1.89D-07
 ErrMax= 1.89D-07 EMaxC= 1.00D-01 BMatC= 9.63D-12 BMatP= 3.44D-10
 IDIUse=1 WtCom= 1.00D+00 WtEn= 0.00D+00
 Coeff-Com:  0.384D-05-0.383D-05-0.271D-05 0.263D-06-0.181D-04-0.171D-04
 Coeff-Com: -0.128D-03-0.614D-03-0.132D-02-0.649D-02-0.187D-01 0.165D+00
 Coeff-Com:  0.862D+00
 Coeff:      0.384D-05-0.383D-05-0.271D-05 0.263D-06-0.181D-04-0.171D-04
 Coeff:     -0.128D-03-0.614D-03-0.132D-02-0.649D-02-0.187D-01 0.165D+00
 Coeff:      0.862D+00
 Gap=     0.136 Goal=   None    Shift=    0.000
 RMSDP=1.47D-07 MaxDP=4.92D-06 DE=-3.71D-10 OVMax= 2.22D-06

 Cycle  14  Pass 1  IDiag  1:
 RMSU=  1.83D-08    CP:  1.03D+00  1.64D-01  5.06D-01  4.06D-01  1.00D+00
                    CP:  9.73D-01  1.21D+00  1.29D+00  8.27D-01  9.99D-01
                    CP:  1.12D+00  1.13D+00  1.13D+00
 E= -323.753190687516     Delta-E=       -0.000000000006 Rises=F Damp=F
 DIIS: error= 4.66D-08 at cycle  14 NSaved=  14.
 NSaved=14 IEnMin=14 EnMin= -323.753190687516     IErMin=14 ErrMin= 4.66D-08
 ErrMax= 4.66D-08 EMaxC= 1.00D-01 BMatC= 4.50D-13 BMatP= 9.63D-12
 IDIUse=1 WtCom= 1.00D+00 WtEn= 0.00D+00
 Coeff-Com:  0.806D-06-0.567D-06-0.166D-05 0.125D-06-0.220D-05 0.169D-04
 Coeff-Com:  0.150D-04-0.139D-04-0.106D-03-0.139D-02-0.712D-02-0.592D-02
 Coeff-Com:  0.113D+00 0.902D+00
 Coeff:      0.806D-06-0.567D-06-0.166D-05 0.125D-06-0.220D-05 0.169D-04
 Coeff:      0.150D-04-0.139D-04-0.106D-03-0.139D-02-0.712D-02-0.592D-02
 Coeff:      0.113D+00 0.902D+00
 Gap=     0.136 Goal=   None    Shift=    0.000
 RMSDP=2.56D-08 MaxDP=1.37D-06 DE=-6.03D-12 OVMax= 6.44D-07

 Cycle  15  Pass 1  IDiag  1:
 RMSU=  4.31D-09    CP:  1.03D+00  1.64D-01  5.06D-01  4.06D-01  1.00D+00
                    CP:  9.73D-01  1.21D+00  1.29D+00  8.28D-01  1.00D+00
                    CP:  1.12D+00  1.15D+00  1.18D+00  1.06D+00
 E= -323.753190687520     Delta-E=       -0.000000000005 Rises=F Damp=F
 DIIS: error= 7.73D-09 at cycle  15 NSaved=  15.
 NSaved=15 IEnMin=15 EnMin= -323.753190687520     IErMin=15 ErrMin= 7.73D-09
 ErrMax= 7.73D-09 EMaxC= 1.00D-01 BMatC= 1.85D-14 BMatP= 4.50D-13
 IDIUse=1 WtCom= 1.00D+00 WtEn= 0.00D+00
 Coeff-Com:  0.316D-06-0.420D-06-0.763D-06 0.117D-06-0.727D-06 0.763D-05
 Coeff-Com:  0.123D-04 0.126D-04-0.433D-05-0.290D-03-0.182D-02-0.725D-02
 Coeff-Com: -0.492D-03 0.305D+00 0.705D+00
 Coeff:      0.316D-06-0.420D-06-0.763D-06 0.117D-06-0.727D-06 0.763D-05
 Coeff:      0.123D-04 0.126D-04-0.433D-05-0.290D-03-0.182D-02-0.725D-02
 Coeff:     -0.492D-03 0.305D+00 0.705D+00
 Gap=     0.136 Goal=   None    Shift=    0.000
 RMSDP=3.68D-09 MaxDP=1.94D-07 DE=-4.55D-12 OVMax= 6.92D-08

 Error on total polarization charges =  0.01411
 SCF Done:  E(RB3LYP) =  -323.753190688     A.U. after   15 cycles
             Convg  =    0.3680D-08             -V/T =  2.0039
 KE= 3.224977280573D+02 PE=-1.250517675392D+03 EE= 3.583403009831D+02
 Leave Link  502 at Tue Apr 19 17:50:58 2016, MaxMem=   33554432 cpu:     188.0
 (Enter c:\G09w03\l601.exe)
 Copying SCF densities to generalized density rwf, IOpCl= 0 IROHF=0.

 **********************************************************************

            Population analysis using the SCF density.

 **********************************************************************

 Alpha  occ. eigenvalues --  -19.14151 -19.05115 -14.39003 -10.29575 -10.25884
 Alpha  occ. eigenvalues --  -10.19990  -1.05523  -0.98135  -0.89233  -0.80099
 Alpha  occ. eigenvalues --   -0.72009  -0.62111  -0.57829  -0.53785  -0.50653
 Alpha  occ. eigenvalues --   -0.46115  -0.44990  -0.43277  -0.41436  -0.36357
 Alpha  occ. eigenvalues --   -0.35291  -0.29961  -0.23832  -0.21895
 Alpha virt. eigenvalues --   -0.08342  -0.01078   0.00794   0.01438   0.02926
 Alpha virt. eigenvalues --    0.03824   0.04426   0.05348   0.06754   0.07872
 Alpha virt. eigenvalues --    0.09015   0.10000   0.10494   0.10998   0.11790
 Alpha virt. eigenvalues --    0.12507   0.12887   0.13878   0.14619   0.15258
 Alpha virt. eigenvalues --    0.16258   0.17218   0.17602   0.18209   0.18638
 Alpha virt. eigenvalues --    0.19601   0.19993   0.20919   0.22208   0.23567
 Alpha virt. eigenvalues --    0.24412   0.24862   0.27139   0.28685   0.29363
 Alpha virt. eigenvalues --    0.30390   0.32021   0.32142   0.33713   0.34704
 Alpha virt. eigenvalues --    0.37397   0.39424   0.40268   0.41854   0.45303
 Alpha virt. eigenvalues --    0.46927   0.53380   0.54266   0.55773   0.57720
 Alpha virt. eigenvalues --    0.58350   0.59615   0.64334   0.64555   0.66630
 Alpha virt. eigenvalues --    0.69083   0.70379   0.71462   0.73779   0.77652
 Alpha virt. eigenvalues --    0.79488   0.81721   0.82733   0.90015   0.96083
 Alpha virt. eigenvalues --    0.97590   1.01992   1.05457   1.07994   1.11976
 Alpha virt. eigenvalues --    1.15239   1.16289   1.17101   1.20964   1.22834
 Alpha virt. eigenvalues --    1.23590   1.29317   1.35910   1.37402   1.42723
 Alpha virt. eigenvalues --    1.44376   1.49335   1.50824   1.54760   1.56712
 Alpha virt. eigenvalues --    1.57832   1.58752   1.61467   1.62579   1.68411
 Alpha virt. eigenvalues --    1.69771   1.74413   1.77328   1.81166   1.81901
 Alpha virt. eigenvalues --    1.84611   1.89178   1.92779   2.01589   2.04417
 Alpha virt. eigenvalues --    2.07891   2.12684   2.13552   2.15614   2.26443
 Alpha virt. eigenvalues --    2.30002   2.36142   2.38153   2.43706   2.44683
 Alpha virt. eigenvalues --    2.50034   2.53299   2.55881   2.59050   2.62784
 Alpha virt. eigenvalues --    2.64697   2.67015   2.72724   2.79080   2.83594
 Alpha virt. eigenvalues --    2.87055   2.89559   2.91590   2.93127   2.97236
 Alpha virt. eigenvalues --    3.02476   3.05307   3.07511   3.09808   3.16685
 Alpha virt. eigenvalues --    3.17839   3.23270   3.39275   3.41538   3.47550
 Alpha virt. eigenvalues --    3.75151   3.78692   3.82272   3.84291   3.92841
 Alpha virt. eigenvalues --    4.01189   4.07743   4.25602   4.73587   4.89329
 Alpha virt. eigenvalues --    5.02867   5.11933   5.17149   5.38203   5.58521
 Alpha virt. eigenvalues --    5.74057  23.71997  23.92544  24.05790  35.58310
 Alpha virt. eigenvalues --   49.90443  49.96077
          Condensed to atoms (all electrons):
              1          2          3          4          5          6
     1  N    6.497350   0.356953   0.266637   0.000412  -0.198064   0.006174
     2  H    0.356953   0.333195  -0.030010  -0.000087   0.032673  -0.020304
     3  C    0.266637  -0.030010   7.616914  -0.015682  -0.070217  -1.473203
     4  H    0.000412  -0.000087  -0.015682   0.426109  -0.010276   0.037927
     5  C   -0.198064   0.032673  -0.070217  -0.010276   6.296954  -0.560037
     6  C    0.006174  -0.020304  -1.473203   0.037927  -0.560037   7.254698
     7  H   -0.004561   0.001280  -0.022403  -0.000271   0.446586  -0.062049
     8  H    0.024432  -0.000978  -0.021580  -0.002475   0.388917  -0.044952
     9  H   -0.008115  -0.000620  -0.008053   0.000748   0.339717   0.031693
    10  O   -0.036708   0.002362  -0.219770  -0.000688   0.025484   0.412511
    11  H    0.332979  -0.005598  -0.087428   0.000728   0.009245   0.039803
    12  O    0.005023   0.000170  -0.264058   0.260530   0.055734   0.182750
    13  H   -0.007530  -0.000315  -0.325809  -0.003953  -0.126769   0.740021
              7          8          9         10         11         12
     1  N   -0.004561   0.024432  -0.008115  -0.036708   0.332979   0.005023
     2  H    0.001280  -0.000978  -0.000620   0.002362  -0.005598   0.000170
     3  C   -0.022403  -0.021580  -0.008053  -0.219770  -0.087428  -0.264058
     4  H   -0.000271  -0.002475   0.000748  -0.000688   0.000728   0.260530
     5  C    0.446586   0.388917   0.339717   0.025484   0.009245   0.055734
     6  C   -0.062049  -0.044952   0.031693   0.412511   0.039803   0.182750
     7  H    0.518167  -0.022916  -0.043687   0.000432  -0.000574   0.007418
     8  H   -0.022916   0.494325  -0.014756   0.000053  -0.000804   0.001598
     9  H   -0.043687  -0.014756   0.491124   0.002070   0.001193  -0.006492
    10  O    0.000432   0.000053   0.002070   8.707472   0.047387  -0.105474
    11  H   -0.000574  -0.000804   0.001193   0.047387   0.342236   0.006316
    12  O    0.007418   0.001598  -0.006492  -0.105474   0.006316   8.274579
    13  H   -0.008247   0.000011   0.003539  -0.084624   0.005334  -0.100025
             13
     1  N   -0.007530
     2  H   -0.000315
     3  C   -0.325809
     4  H   -0.003953
     5  C   -0.126769
     6  C    0.740021
     7  H   -0.008247
     8  H    0.000011
     9  H    0.003539
    10  O   -0.084624
    11  H    0.005334
    12  O   -0.100025
    13  H    0.633525
 Mulliken atomic charges:
              1
     1  N   -0.234983
     2  H    0.331280
     3  C    0.654663
     4  H    0.306980
     5  C   -0.629946
     6  C   -0.545031
     7  H    0.190824
     8  H    0.199125
     9  H    0.211639
    10  O   -0.750507
    11  H    0.309183
    12  O   -0.318069
    13  H    0.274842
 Sum of Mulliken atomic charges =   0.00000
 Mulliken charges with hydrogens summed into heavy atoms:
              1
     1  N    0.405480
     3  C    0.654663
     5  C   -0.028359
     6  C   -0.270189
    10  O   -0.750507
    12  O   -0.011089
 Sum of Mulliken charges with hydrogens summed into heavy atoms =   0.00000
 Electronic spatial extent (au):  <R**2>=            607.4679
 Charge=              0.0000 electrons
 Dipole moment (field-independent basis, Debye):
    X=             -9.0750    Y=              1.3931    Z=              1.1040  Tot=              9.2474
 Quadrupole moment (field-independent basis, Debye-Ang):
   XX=            -33.6752   YY=            -37.6932   ZZ=            -37.4777
   XY=             10.3667   XZ=              0.4762   YZ=              1.0878
 Traceless Quadrupole moment (field-independent basis, Debye-Ang):
   XX=              2.6068   YY=             -1.4112   ZZ=             -1.1957
   XY=             10.3667   XZ=              0.4762   YZ=              1.0878
 Octapole moment (field-independent basis, Debye-Ang**2):
  XXX=            -26.0922  YYY=            -10.6428  ZZZ=             -7.4363  XYY=            -19.9664
  XXY=             14.1537  XXZ=             -1.3766  XZZ=             -2.7659  YZZ=              1.9390
  YYZ=             -3.7694  XYZ=              1.2790
 Hexadecapole moment (field-independent basis, Debye-Ang**3):
 XXXX=           -374.7098 YYYY=           -278.6730 ZZZZ=            -53.7556 XXXY=             69.4408
 XXXZ=             -2.6333 YYYX=             31.2531 YYYZ=              3.2607 ZZZX=              3.6172
 ZZZY=             -1.7380 XXYY=           -109.9018 XXZZ=            -80.1787 YYZZ=            -63.1812
 XXYZ=             -0.5172 YYXZ=              0.3810 ZZXY=              2.0072
 N-N= 2.459264556641D+02 E-N=-1.250517674573D+03  KE= 3.224977280573D+02
 No NMR shielding tensors so no spin-rotation constants.
 Leave Link  601 at Tue Apr 19 17:50:58 2016, MaxMem=   33554432 cpu:       0.0
 (Enter c:\G09w03\l701.exe)
 Compute integral first derivatives.
 ... and contract with generalized density number  0.
 D1PCM: C-PCM CHGder 1st derivatives, ID1Alg=3 FixD1E=F DoIter=F DoCFld=F I1PDM=0.
 GePol: Maximum number of non-zero 1st derivatives   =     210
 Leave Link  701 at Tue Apr 19 17:51:02 2016, MaxMem=   33554432 cpu:       4.0
 (Enter c:\G09w03\l702.exe)
 L702 exits ... SP integral derivatives will be done elsewhere.
 Leave Link  702 at Tue Apr 19 17:51:02 2016, MaxMem=   33554432 cpu:       0.0
 (Enter c:\G09w03\l703.exe)
 Compute integral first derivatives, UseDBF=F ICtDFT=           0.
 Integral derivatives from FoFDir, PRISM(SPDF).
 Calling FoFJK, ICntrl=      2127 FMM=F ISym2X=0 I1Cent= 0 IOpClX= 0 NMat=1 NMatS=1 NMatT=0.
 FoFCou: FMM=F IPFlag=           0 FMFlag=      100000 FMFlg1=         800
         NFxFlg=           0 DoJE=F BraDBF=F KetDBF=F FulRan=T
         Omega=  0.000000  0.000000  1.000000  0.000000  0.000000 ICntrl=    2127 IOpCl=  0
         NMat0=    1 NMatS0=    1 NMatT0=    0 NMatD0=    1 NMtDS0=    0 NMtDT0=    0
         I1Cent=           0 NGrid=           0.
 Symmetry not used in FoFCou.
 Leave Link  703 at Tue Apr 19 17:51:35 2016, MaxMem=   33554432 cpu:      33.0
 (Enter c:\G09w03\l716.exe)
 Dipole        =-3.57036379D+00 5.48077925D-01 4.34350187D-01
 -------------------------------------------------------------------
 Center     Atomic                   Forces (Hartrees/Bohr)
 Number     Number              X              Y              Z
 -------------------------------------------------------------------
      1        7           0.022886357    0.052366093    0.005756911
      2        1          -0.004705181    0.000820404   -0.000672227
      3        6          -0.073504994   -0.045808637   -0.029569234
      4        1          -0.013418877   -0.004436443    0.001184031
      5        6          -0.000608099    0.001859219    0.005756956
      6        6           0.099319298   -0.052206772   -0.072367994
      7        1           0.002662646   -0.001241831   -0.003029065
      8        1          -0.000654245   -0.001716920   -0.000111924
      9        1           0.002698884   -0.002804081    0.001526492
     10        8          -0.036820221    0.043297468   -0.015789556
     11        1           0.004928670   -0.001181334    0.002284856
     12        8           0.006156261    0.012928305   -0.027051896
     13        1          -0.008940498   -0.001875471    0.132082648
 -------------------------------------------------------------------
 Cartesian Forces:  Max     0.132082648 RMS     0.036437048
 Leave Link  716 at Tue Apr 19 17:51:35 2016, MaxMem=   33554432 cpu:       0.0
 (Enter c:\G09w03\l103.exe)

 GradGradGradGradGradGradGradGradGradGradGradGradGradGradGradGradGradGrad
 Berny optimization.
 Internal  Forces:  Max     0.131456957 RMS     0.023826361
 Search for a local minimum.
 Step number   1 out of a maximum of   60
 All quantities printed in internal units (Hartrees-Bohrs-Radians)
 RMS Force = .23826D-01 SwitMx=.10000D-02 MixMth= 1
 Mixed Optimization -- RFO/linear search
 Second derivative matrix not updated -- first step.
 ITU=  0
     Eigenvalues ---    0.00816   0.01546   0.01633   0.02129   0.02223
     Eigenvalues ---    0.02226   0.04821   0.07205   0.07407   0.08608
     Eigenvalues ---    0.12787   0.16000   0.16000   0.16000   0.16000
     Eigenvalues ---    0.16000   0.16000   0.23759   0.24557   0.24980
     Eigenvalues ---    0.24982   0.32777   0.33792   0.33849   0.34796
     Eigenvalues ---    0.35576   0.43838   0.45539   0.46127   0.46697
     Eigenvalues ---    0.51933   0.52975   0.53377
 RFO step:  Lambda=-6.27831508D-02 EMin= 8.15934389D-03
 Linear search not attempted -- first point.
 Maximum step size (   0.300) exceeded in Quadratic search.
    -- Step size scaled by   0.861
 Iteration  1 RMS(Cart)=  0.06699154 RMS(Int)=  0.00320593
 Iteration  2 RMS(Cart)=  0.00323398 RMS(Int)=  0.00204259
 Iteration  3 RMS(Cart)=  0.00001148 RMS(Int)=  0.00204258
 Iteration  4 RMS(Cart)=  0.00000004 RMS(Int)=  0.00204258
 Variable       Old X    -DE/DX   Delta X   Delta X   Delta X     New X
                                 (Linear)    (Quad)   (Total)
    R1        1.90054   0.00434   0.00000   0.00705   0.00705   1.90759
    R2        2.56977  -0.05721   0.00000  -0.08316  -0.08316   2.48661
    R3        1.91355   0.00385   0.00000   0.00640   0.00640   1.91995
    R4        2.82745  -0.00551   0.00000  -0.01214  -0.01214   2.81530
    R5        2.63988   0.04726   0.00000   0.07766   0.07766   2.71755
    R6        1.84664  -0.01289   0.00000  -0.01907  -0.01907   1.82757
    R7        2.07682  -0.00383   0.00000  -0.00822  -0.00822   2.06859
    R8        2.06007  -0.00180   0.00000  -0.00377  -0.00377   2.05630
    R9        2.07586  -0.00287   0.00000  -0.00615  -0.00615   2.06971
   R10        2.78051  -0.05462   0.00000  -0.11240  -0.11240   2.66811
   R11        2.66649   0.01002   0.00000   0.01721   0.01721   2.68371
   R12        1.83303   0.13146   0.00000   0.18978   0.18978   2.02281
    A1        2.13832  -0.00033   0.00000  -0.00136  -0.00139   2.13693
    A2        2.10314   0.00287   0.00000   0.01101   0.01097   2.11412
    A3        2.04127  -0.00258   0.00000  -0.01006  -0.01009   2.03118
    A4        2.09480   0.00345   0.00000   0.00941   0.00938   2.10418
    A5        2.03674  -0.00839   0.00000  -0.02325  -0.02326   2.01348
    A6        2.15083   0.00490   0.00000   0.01340   0.01338   2.16421
    A7        1.95090  -0.00134   0.00000  -0.00529  -0.00534   1.94556
    A8        1.92554   0.00099   0.00000   0.00505   0.00506   1.93060
    A9        1.92411  -0.00438   0.00000  -0.01805  -0.01810   1.90601
   A10        1.90065   0.00122   0.00000   0.00677   0.00677   1.90742
   A11        1.87455   0.00183   0.00000   0.00477   0.00467   1.87922
   A12        1.88622   0.00185   0.00000   0.00739   0.00740   1.89362
   A13        2.08741  -0.00327   0.00000  -0.02923  -0.03631   2.05109
   A14        2.05662  -0.01408   0.00000  -0.05612  -0.06238   1.99423
   A15        1.71342  -0.00502   0.00000   0.00022   0.00244   1.71586
   A16        2.04452   0.00544   0.00000  -0.00359  -0.01262   2.03190
   A17        1.65819   0.01324   0.00000   0.09120   0.09076   1.74895
   A18        1.74908   0.01846   0.00000   0.10515   0.10588   1.85496
   A19        1.87733  -0.01089   0.00000  -0.04211  -0.04211   1.83522
    D1       -0.17008   0.00144   0.00000   0.01556   0.01551  -0.15457
    D2        2.92940   0.00054   0.00000   0.00458   0.00464   2.93403
    D3        3.00336   0.00289   0.00000   0.03020   0.03015   3.03350
    D4       -0.18036   0.00199   0.00000   0.01923   0.01928  -0.16108
    D5        0.91024  -0.00193   0.00000  -0.01646  -0.01648   0.89376
    D6        3.02783  -0.00059   0.00000  -0.00793  -0.00799   3.01984
    D7       -1.17338  -0.00044   0.00000  -0.00699  -0.00710  -1.18048
    D8       -2.18636  -0.00063   0.00000  -0.00381  -0.00371  -2.19007
    D9       -0.06877   0.00070   0.00000   0.00471   0.00478  -0.06399
   D10        2.01320   0.00085   0.00000   0.00565   0.00567   2.01887
   D11        0.13263   0.01327   0.00000   0.10971   0.10732   0.23995
   D12        2.80804  -0.01283   0.00000  -0.09669  -0.09441   2.71363
   D13       -1.62219   0.00155   0.00000   0.00956   0.00958  -1.61261
   D14       -3.05256   0.01229   0.00000   0.09820   0.09588  -2.95668
   D15       -0.37716  -0.01381   0.00000  -0.10819  -0.10585  -0.48301
   D16        1.47580   0.00057   0.00000  -0.00195  -0.00186   1.47394
   D17       -3.03602   0.00912   0.00000   0.08144   0.07922  -2.95681
   D18       -0.34913  -0.01851   0.00000  -0.12630  -0.12636  -0.47549
   D19        1.41492   0.00867   0.00000   0.03703   0.03931   1.45422
         Item               Value     Threshold  Converged?
 Maximum Force            0.131457     0.000450     NO 
 RMS     Force            0.023826     0.000300     NO 
 Maximum Displacement     0.300328     0.001800     NO 
 RMS     Displacement     0.067806     0.001200     NO 
 Predicted change in Energy=-3.553332D-02
 GradGradGradGradGradGradGradGradGradGradGradGradGradGradGradGradGradGrad

 Leave Link  103 at Tue Apr 19 17:51:35 2016, MaxMem=   33554432 cpu:       0.0
 (Enter c:\G09w03\l202.exe)
                          Input orientation:                          
 ---------------------------------------------------------------------
 Center     Atomic      Atomic             Coordinates (Angstroms)
 Number     Number       Type             X           Y           Z
 ---------------------------------------------------------------------
      1          7           0       -1.127183   -1.308174   -0.028139
      2          1           0       -2.108240   -1.541388    0.018026
      3          6           0       -0.687900   -0.074900    0.104321
      4          1           0        2.216723    1.205506   -0.107555
      5          6           0       -1.641198    1.069545    0.135242
      6          6           0        0.733186    0.057253    0.280618
      7          1           0       -2.439513    0.906428    0.866235
      8          1           0       -1.120775    1.995390    0.371971
      9          1           0       -2.108716    1.175754   -0.849495
     10          8           0        1.533066   -1.072085    0.000873
     11          1           0       -0.420466   -2.029596   -0.139235
     12          8           0        1.256022    1.316185   -0.117594
     13          1           0        0.757979    0.046899    1.350707
 ---------------------------------------------------------------------
                    Distance matrix (angstroms):
                    1          2          3          4          5
     1  N    0.000000
     2  H    1.009452   0.000000
     3  C    1.315857   2.043380   0.000000
     4  H    4.184089   5.125086   3.181378   0.000000
     5  C    2.438125   2.654965   1.489795   3.867944   0.000000
     6  C    2.328239   3.270827   1.438065   1.915737   2.585260
     7  H    2.725174   2.611705   2.147479   4.766366   1.094653
     8  H    3.327711   3.689060   2.131928   3.463056   1.088149
     9  H    2.794267   2.852272   2.119580   4.388711   1.095245
    10  O    2.670862   3.671464   2.436753   2.380455   3.831525
    11  H    1.015994   1.763990   1.987883   4.173926   3.342185
    12  O    3.546115   4.416150   2.400666   0.967107   2.918672
    13  H    2.700237   3.537500   1.912819   2.365762   2.877362
                    6          7          8          9         10
     6  C    0.000000
     7  H    3.336175   0.000000
     8  H    2.683634   1.780226   0.000000
     9  H    3.256472   1.767963   1.771950   0.000000
    10  O    1.411902   4.521587   4.073080   4.363311   0.000000
    11  H    2.421183   3.702399   4.117314   3.691738   2.180078
    12  O    1.420156   3.846141   2.519952   3.446283   2.407202
    13  H    1.070425   3.346260   2.878239   3.785914   1.917012
                   11         12         13
    11  H    0.000000
    12  O    3.742370   0.000000
    13  H    2.814337   2.003757   0.000000
 Symmetry turned off by external request.
 Stoichiometry    C3H7NO2
 Framework group  C1[X(C3H7NO2)]
 Deg. of freedom    33
 Full point group                 C1      NOp   1
 Rotational constants (GHZ):      4.9191886      3.3364463      2.0628071
 Leave Link  202 at Tue Apr 19 17:51:35 2016, MaxMem=   33554432 cpu:       0.0
 (Enter c:\G09w03\l301.exe)
 Standard basis: 6-311++G(d,p) (5D, 7F)
 Ernie: Thresh=  0.10000D-02 Tol=  0.10000D-05 Strict=F.
 Integral buffers will be    262144 words long.
 Raffenetti 2 integral format.
 Two-electron integral symmetry is turned off.
   181 basis functions,   279 primitive gaussians,   187 cartesian basis functions
    24 alpha electrons       24 beta electrons
       nuclear repulsion energy       247.5534757517 Hartrees.
 IExCor=  402 DFT=T Ex+Corr=B3LYP ExCW=0 ScaHFX=  0.200000
 ScaDFX=  0.800000  0.720000  1.000000  0.810000 ScalE2=  1.000000  1.000000
 IRadAn=      0 IRanWt=     -1 IRanGd=            0 ICorTp=0
 NAtoms=   13 NActive=   13 NUniq=   13 SFac= 1.00D+00 NAtFMM=   50 NAOKFM=F Big=F
 ------------------------------------------------------------------------------
 Polarizable Continuum Model (PCM)
 =================================
 Model                : C-PCM.
 Atomic radii         : UFF (Universal Force Field).
 Polarization charges : Total charges.
 Charge compensation  : None.
 Solution method      : Matrix inversion.
 Cavity type          : Scaled VdW (van der Waals Surface) (Alpha=1.100).
 Cavity algorithm     : GePol (No added spheres)
                        Default sphere list used, NSphG=   13.
                        Lebedev-Laikov grids with approx.  5.0 points / Ang**2.
                        Smoothing algorithm: Karplus/York (Gamma=1.0000).
                        Polarization charges: spherical gaussians, with
                                              point-specific exponents (IZeta= 3).
                        Self-potential: point-specific (ISelfS= 7).
                        Self-field    : sphere-specific E.n sum rule (ISelfD= 2).
 1st derivatives      : Analytical E(r).r(x)/FMM algorithm (CHGder, D1EAlg=3).
                        Cavity 1st derivative terms included.
 Solvent              : Water, Eps=  78.355300 Eps(inf)=   1.777849
 ------------------------------------------------------------------------------
 Spheres list:
 ISph  on   Nord    Re0     Alpha      Xe            Ye            Ze
    1   N      1    1.830   1.100     -1.127183     -1.308174     -0.028139
    2   H      2    1.443   1.100     -2.108240     -1.541388      0.018026
    3   C      3    1.926   1.100     -0.687900     -0.074900      0.104321
    4   H      4    1.443   1.100      2.216723      1.205506     -0.107555
    5   C      5    1.926   1.100     -1.641198      1.069545      0.135242
    6   C      6    1.926   1.100      0.733186      0.057253      0.280618
    7   H      7    1.443   1.100     -2.439513      0.906428      0.866235
    8   H      8    1.443   1.100     -1.120775      1.995390      0.371971
    9   H      9    1.443   1.100     -2.108716      1.175754     -0.849495
   10   O     10    1.750   1.100      1.533066     -1.072085      0.000873
   11   H     11    1.443   1.100     -0.420466     -2.029596     -0.139235
   12   O     12    1.750   1.100      1.256022      1.316185     -0.117594
   13   H     13    1.443   1.100      0.757979      0.046899      1.350707
 ------------------------------------------------------------------------------
 GePol: Number of generator spheres                  =      13
 GePol: Total number of spheres                      =      13
 GePol: Number of exposed spheres                    =      13 (100.00%)
 GePol: Number of points                             =    1123
 GePol: Average weight of points                     =       0.13
 GePol: Minimum weight of points                     =   0.76D-09
 GePol: Maximum weight of points                     =    0.20577
 GePol: Number of points with low weight             =      56
 GePol: Fraction of low-weight points (<1% of avg)   =       4.99%
 GePol: Cavity surface area                          =    148.632 Ang**2
 GePol: Cavity volume                                =    136.734 Ang**3
 Leave Link  301 at Tue Apr 19 17:51:35 2016, MaxMem=   33554432 cpu:       0.0
 (Enter c:\G09w03\l302.exe)
 NPDir=0 NMtPBC=     1 NCelOv=     1 NCel=       1 NClECP=     1 NCelD=      1
         NCelK=      1 NCelE2=     1 NClLst=     1 CellRange=     0.0.
 One-electron integrals computed using PRISM.
 NBasis=   181 RedAO= T  NBF=   181
 NBsUse=   181 1.00D-06 NBFU=   181
 Precomputing XC quadrature grid using
 IXCGrd= 2 IRadAn=           0 IRanWt=          -1 IRanGd=           0 AccXCQ= 0.00D+00.
 NRdTot=     842 NPtTot=      107058 NUsed=      110990 NTot=      111006
 NSgBfM=   187   187   187   187   187 NAtAll=    13    13.
 Leave Link  302 at Tue Apr 19 17:51:36 2016, MaxMem=   33554432 cpu:       1.0
 (Enter c:\G09w03\l303.exe)
 DipDrv:  MaxL=1.
 Leave Link  303 at Tue Apr 19 17:51:36 2016, MaxMem=   33554432 cpu:       0.0
 (Enter c:\G09w03\l401.exe)
 Initial guess read from the read-write file.
 B after Tr=     0.000000    0.000000    0.000000
         Rot=    1.000000    0.000000    0.000000    0.000000 Ang=   0.00 deg.
 Guess basis will be translated and rotated to current coordinates.
 Generating alternative initial guess.
 Harris functional with IExCor=  402 diagonalized for initial guess.
 ExpMin= 3.60D-02 ExpMax= 8.59D+03 ExpMxC= 1.30D+03 IAcc=3 IRadAn=         0 AccDes= 0.00D+00
 HarFok:  IExCor=  402 AccDes= 0.00D+00 IRadAn=         0 IDoV= 1
 ScaDFX=  1.000000  1.000000  1.000000  1.000000
 FoFCou: FMM=F IPFlag=           0 FMFlag=      100000 FMFlg1=           0
         NFxFlg=           0 DoJE=T BraDBF=F KetDBF=T FulRan=T
         Omega=  0.000000  0.000000  1.000000  0.000000  0.000000 ICntrl=     500 IOpCl=  0
         NMat0=    1 NMatS0=    1 NMatT0=    0 NMatD0=    1 NMtDS0=    0 NMtDT0=    0
         I1Cent=           4 NGrid=           0.
 Symmetry not used in FoFCou.
 Harris En= -323.823256232935    
 Leave Link  401 at Tue Apr 19 17:51:40 2016, MaxMem=   33554432 cpu:       4.0
 (Enter c:\G09w03\l502.exe)
 Closed shell SCF:
 Requested convergence on RMS density matrix=1.00D-08 within 128 cycles.
 Requested convergence on MAX density matrix=1.00D-06.
 Requested convergence on             energy=1.00D-06.
 No special actions if energy rises.
 Using DIIS extrapolation, IDIIS=  1040.
 Two-electron integral symmetry not used.
       110873 words used for storage of precomputed grid.
 IEnd=      236079 IEndB=      236079 NGot=    33554432 MDV=    33370150
 LenX=    33370150 LenY=    33334740
 Fock matrices will be formed incrementally for  20 cycles.

 Cycle   1  Pass 1  IDiag  1:
 FoFCou: FMM=F IPFlag=           0 FMFlag=      100000 FMFlg1=           0
         NFxFlg=           0 DoJE=F BraDBF=F KetDBF=F FulRan=T
         Omega=  0.000000  0.000000  1.000000  0.000000  0.000000 ICntrl=       0 IOpCl=  0
         NMat0=    1 NMatS0=    1 NMatT0=    0 NMatD0=    1 NMtDS0=    0 NMtDT0=    0
         I1Cent=           0 NGrid=           0.
 Symmetry not used in FoFCou.
 E= -323.777384372144    
 DIIS: error= 3.48D-03 at cycle   1 NSaved=   1.
 NSaved= 1 IEnMin= 1 EnMin= -323.777384372144     IErMin= 1 ErrMin= 3.48D-03
 ErrMax= 3.48D-03 EMaxC= 1.00D-01 BMatC= 1.03D-02 BMatP= 1.03D-02
 IDIUse=3 WtCom= 9.65D-01 WtEn= 3.48D-02
 Coeff-Com:  0.100D+01
 Coeff-En:   0.100D+01
 Coeff:      0.100D+01
 Gap=     0.180 Goal=   None    Shift=    0.000
 GapD=    0.180 DampG=1.000 DampE=1.000 DampFc=1.0000 IDamp=-1.
 RMSDP=4.40D-03 MaxDP=2.85D-01              OVMax= 5.93D-02

 Cycle   2  Pass 1  IDiag  1:
 RMSU=  2.59D-03    CP:  8.81D-01
 E= -323.790764617080     Delta-E=       -0.013380244936 Rises=F Damp=F
 DIIS: error= 2.11D-03 at cycle   2 NSaved=   2.
 NSaved= 2 IEnMin= 2 EnMin= -323.790764617080     IErMin= 2 ErrMin= 2.11D-03
 ErrMax= 2.11D-03 EMaxC= 1.00D-01 BMatC= 1.17D-03 BMatP= 1.03D-02
 IDIUse=3 WtCom= 9.79D-01 WtEn= 2.11D-02
 Coeff-Com:  0.112D+00 0.888D+00
 Coeff-En:   0.000D+00 0.100D+01
 Coeff:      0.109D+00 0.891D+00
 Gap=     0.129 Goal=   None    Shift=    0.000
 RMSDP=6.98D-04 MaxDP=2.28D-02 DE=-1.34D-02 OVMax= 1.96D-02

 Cycle   3  Pass 1  IDiag  1:
 RMSU=  4.83D-04    CP:  8.84D-01  1.04D+00
 E= -323.789698922320     Delta-E=        0.001065694760 Rises=F Damp=F
 DIIS: error= 3.47D-03 at cycle   3 NSaved=   3.
 NSaved= 3 IEnMin= 2 EnMin= -323.790764617080     IErMin= 2 ErrMin= 2.11D-03
 ErrMax= 3.47D-03 EMaxC= 1.00D-01 BMatC= 2.83D-03 BMatP= 1.17D-03
 IDIUse=3 WtCom= 1.45D-01 WtEn= 8.55D-01
 Coeff-Com: -0.162D-01 0.621D+00 0.395D+00
 Coeff-En:   0.000D+00 0.656D+00 0.344D+00
 Coeff:     -0.234D-02 0.651D+00 0.352D+00
 Gap=     0.139 Goal=   None    Shift=    0.000
 RMSDP=4.97D-04 MaxDP=2.13D-02 DE= 1.07D-03 OVMax= 1.63D-02

 Cycle   4  Pass 1  IDiag  1:
 RMSU=  1.37D-04    CP:  8.71D-01  1.07D+00  4.60D-01
 E= -323.791707411039     Delta-E=       -0.002008488719 Rises=F Damp=F
 DIIS: error= 3.53D-04 at cycle   4 NSaved=   4.
 NSaved= 4 IEnMin= 4 EnMin= -323.791707411039     IErMin= 4 ErrMin= 3.53D-04
 ErrMax= 3.53D-04 EMaxC= 1.00D-01 BMatC= 4.73D-05 BMatP= 1.17D-03
 IDIUse=3 WtCom= 9.96D-01 WtEn= 3.53D-03
 Coeff-Com: -0.162D-01 0.269D+00 0.151D+00 0.596D+00
 Coeff-En:   0.000D+00 0.000D+00 0.000D+00 0.100D+01
 Coeff:     -0.162D-01 0.268D+00 0.150D+00 0.598D+00
 Gap=     0.138 Goal=   None    Shift=    0.000
 RMSDP=9.95D-05 MaxDP=4.68D-03 DE=-2.01D-03 OVMax= 1.73D-03

 Cycle   5  Pass 1  IDiag  1:
 RMSU=  4.57D-05    CP:  8.69D-01  1.09D+00  4.86D-01  9.03D-01
 E= -323.791741565446     Delta-E=       -0.000034154407 Rises=F Damp=F
 DIIS: error= 1.70D-04 at cycle   5 NSaved=   5.
 NSaved= 5 IEnMin= 5 EnMin= -323.791741565446     IErMin= 5 ErrMin= 1.70D-04
 ErrMax= 1.70D-04 EMaxC= 1.00D-01 BMatC= 8.88D-06 BMatP= 4.73D-05
 IDIUse=3 WtCom= 9.98D-01 WtEn= 1.70D-03
 Coeff-Com: -0.677D-02 0.673D-01 0.330D-01 0.319D+00 0.588D+00
 Coeff-En:   0.000D+00 0.000D+00 0.000D+00 0.791D-01 0.921D+00
 Coeff:     -0.676D-02 0.671D-01 0.329D-01 0.318D+00 0.589D+00
 Gap=     0.138 Goal=   None    Shift=    0.000
 RMSDP=3.37D-05 MaxDP=1.06D-03 DE=-3.42D-05 OVMax= 1.36D-03

 Cycle   6  Pass 1  IDiag  1:
 RMSU=  2.09D-05    CP:  8.70D-01  1.09D+00  4.77D-01  9.22D-01  8.24D-01
 E= -323.791748482346     Delta-E=       -0.000006916901 Rises=F Damp=F
 DIIS: error= 4.71D-05 at cycle   6 NSaved=   6.
 NSaved= 6 IEnMin= 6 EnMin= -323.791748482346     IErMin= 6 ErrMin= 4.71D-05
 ErrMax= 4.71D-05 EMaxC= 1.00D-01 BMatC= 5.94D-07 BMatP= 8.88D-06
 IDIUse=1 WtCom= 1.00D+00 WtEn= 0.00D+00
 Coeff-Com: -0.149D-02 0.713D-02 0.352D-02 0.740D-01 0.255D+00 0.662D+00
 Coeff:     -0.149D-02 0.713D-02 0.352D-02 0.740D-01 0.255D+00 0.662D+00
 Gap=     0.138 Goal=   None    Shift=    0.000
 RMSDP=1.52D-05 MaxDP=8.62D-04 DE=-6.92D-06 OVMax= 5.32D-04

 Cycle   7  Pass 1  IDiag  1:
 RMSU=  4.27D-06    CP:  8.69D-01  1.09D+00  4.85D-01  9.41D-01  9.12D-01
                    CP:  9.58D-01
 E= -323.791748899389     Delta-E=       -0.000000417043 Rises=F Damp=F
 DIIS: error= 2.13D-05 at cycle   7 NSaved=   7.
 NSaved= 7 IEnMin= 7 EnMin= -323.791748899389     IErMin= 7 ErrMin= 2.13D-05
 ErrMax= 2.13D-05 EMaxC= 1.00D-01 BMatC= 1.63D-07 BMatP= 5.94D-07
 IDIUse=1 WtCom= 1.00D+00 WtEn= 0.00D+00
 Coeff-Com:  0.324D-03-0.823D-02-0.324D-02-0.202D-01 0.457D-01 0.399D+00
 Coeff-Com:  0.587D+00
 Coeff:      0.324D-03-0.823D-02-0.324D-02-0.202D-01 0.457D-01 0.399D+00
 Coeff:      0.587D+00
 Gap=     0.138 Goal=   None    Shift=    0.000
 RMSDP=3.61D-06 MaxDP=1.24D-04 DE=-4.17D-07 OVMax= 1.60D-04

 Cycle   8  Pass 1  IDiag  1:
 RMSU=  1.76D-06    CP:  8.69D-01  1.09D+00  4.86D-01  9.42D-01  9.29D-01
                    CP:  1.03D+00  9.34D-01
 E= -323.791749051006     Delta-E=       -0.000000151617 Rises=F Damp=F
 DIIS: error= 2.58D-06 at cycle   8 NSaved=   8.
 NSaved= 8 IEnMin= 8 EnMin= -323.791749051006     IErMin= 8 ErrMin= 2.58D-06
 ErrMax= 2.58D-06 EMaxC= 1.00D-01 BMatC= 2.68D-09 BMatP= 1.63D-07
 IDIUse=1 WtCom= 1.00D+00 WtEn= 0.00D+00
 Coeff-Com:  0.152D-03-0.240D-02-0.706D-03-0.123D-01-0.311D-02 0.737D-01
 Coeff-Com:  0.127D+00 0.818D+00
 Coeff:      0.152D-03-0.240D-02-0.706D-03-0.123D-01-0.311D-02 0.737D-01
 Coeff:      0.127D+00 0.818D+00
 Gap=     0.138 Goal=   None    Shift=    0.000
 RMSDP=1.50D-06 MaxDP=7.15D-05 DE=-1.52D-07 OVMax= 6.59D-05

 Cycle   9  Pass 1  IDiag  1:
 RMSU=  4.63D-07    CP:  8.69D-01  1.09D+00  4.86D-01  9.40D-01  9.36D-01
                    CP:  1.07D+00  9.71D-01  1.17D+00
 E= -323.791749054185     Delta-E=       -0.000000003179 Rises=F Damp=F
 DIIS: error= 2.47D-06 at cycle   9 NSaved=   9.
 NSaved= 9 IEnMin= 9 EnMin= -323.791749054185     IErMin= 9 ErrMin= 2.47D-06
 ErrMax= 2.47D-06 EMaxC= 1.00D-01 BMatC= 1.70D-09 BMatP= 2.68D-09
 IDIUse=1 WtCom= 1.00D+00 WtEn= 0.00D+00
 Coeff-Com:  0.641D-04-0.529D-03 0.869D-05-0.586D-02-0.674D-02 0.298D-02
 Coeff-Com:  0.769D-02 0.507D+00 0.496D+00
 Coeff:      0.641D-04-0.529D-03 0.869D-05-0.586D-02-0.674D-02 0.298D-02
 Coeff:      0.769D-02 0.507D+00 0.496D+00
 Gap=     0.138 Goal=   None    Shift=    0.000
 RMSDP=4.87D-07 MaxDP=2.11D-05 DE=-3.18D-09 OVMax= 2.25D-05

 Cycle  10  Pass 1  IDiag  1:
 RMSU=  1.26D-07    CP:  8.69D-01  1.09D+00  4.86D-01  9.40D-01  9.38D-01
                    CP:  1.07D+00  1.00D+00  1.20D+00  8.12D-01
 E= -323.791749055709     Delta-E=       -0.000000001524 Rises=F Damp=F
 DIIS: error= 5.71D-07 at cycle  10 NSaved=  10.
 NSaved=10 IEnMin=10 EnMin= -323.791749055709     IErMin=10 ErrMin= 5.71D-07
 ErrMax= 5.71D-07 EMaxC= 1.00D-01 BMatC= 1.01D-10 BMatP= 1.70D-09
 IDIUse=1 WtCom= 1.00D+00 WtEn= 0.00D+00
 Coeff-Com: -0.403D-05 0.290D-03 0.219D-03-0.516D-03-0.258D-02-0.138D-01
 Coeff-Com: -0.250D-01 0.706D-01 0.200D+00 0.771D+00
 Coeff:     -0.403D-05 0.290D-03 0.219D-03-0.516D-03-0.258D-02-0.138D-01
 Coeff:     -0.250D-01 0.706D-01 0.200D+00 0.771D+00
 Gap=     0.138 Goal=   None    Shift=    0.000
 RMSDP=2.44D-07 MaxDP=1.51D-05 DE=-1.52D-09 OVMax= 8.89D-06

 Cycle  11  Pass 1  IDiag  1:
 RMSU=  4.26D-08    CP:  8.69D-01  1.09D+00  4.86D-01  9.40D-01  9.38D-01
                    CP:  1.08D+00  1.01D+00  1.23D+00  8.73D-01  1.02D+00
 E= -323.791749055820     Delta-E=       -0.000000000111 Rises=F Damp=F
 DIIS: error= 1.26D-07 at cycle  11 NSaved=  11.
 NSaved=11 IEnMin=11 EnMin= -323.791749055820     IErMin=11 ErrMin= 1.26D-07
 ErrMax= 1.26D-07 EMaxC= 1.00D-01 BMatC= 5.01D-12 BMatP= 1.01D-10
 IDIUse=1 WtCom= 1.00D+00 WtEn= 0.00D+00
 Coeff-Com: -0.287D-05 0.114D-03 0.796D-04-0.258D-04-0.523D-03-0.425D-02
 Coeff-Com: -0.835D-02 0.669D-02 0.482D-01 0.301D+00 0.657D+00
 Coeff:     -0.287D-05 0.114D-03 0.796D-04-0.258D-04-0.523D-03-0.425D-02
 Coeff:     -0.835D-02 0.669D-02 0.482D-01 0.301D+00 0.657D+00
 Gap=     0.138 Goal=   None    Shift=    0.000
 RMSDP=2.98D-08 MaxDP=1.75D-06 DE=-1.11D-10 OVMax= 1.26D-06

 Cycle  12  Pass 1  IDiag  1:
 RMSU=  1.19D-08    CP:  8.69D-01  1.09D+00  4.86D-01  9.40D-01  9.38D-01
                    CP:  1.08D+00  1.01D+00  1.24D+00  8.85D-01  1.05D+00
                    CP:  9.82D-01
 E= -323.791749055829     Delta-E=       -0.000000000009 Rises=F Damp=F
 DIIS: error= 4.30D-08 at cycle  12 NSaved=  12.
 NSaved=12 IEnMin=12 EnMin= -323.791749055829     IErMin=12 ErrMin= 4.30D-08
 ErrMax= 4.30D-08 EMaxC= 1.00D-01 BMatC= 4.96D-13 BMatP= 5.01D-12
 IDIUse=1 WtCom= 1.00D+00 WtEn= 0.00D+00
 Coeff-Com: -0.118D-05 0.183D-04 0.105D-04 0.427D-04 0.305D-04-0.420D-03
 Coeff-Com: -0.102D-02-0.522D-02-0.532D-02 0.306D-01 0.259D+00 0.723D+00
 Coeff:     -0.118D-05 0.183D-04 0.105D-04 0.427D-04 0.305D-04-0.420D-03
 Coeff:     -0.102D-02-0.522D-02-0.532D-02 0.306D-01 0.259D+00 0.723D+00
 Gap=     0.138 Goal=   None    Shift=    0.000
 RMSDP=9.77D-09 MaxDP=2.36D-07 DE=-8.53D-12 OVMax= 4.20D-07

 Error on total polarization charges =  0.01399
 SCF Done:  E(RB3LYP) =  -323.791749056     A.U. after   12 cycles
             Convg  =    0.9775D-08             -V/T =  2.0041
 KE= 3.224854217258D+02 PE=-1.253882432185D+03 EE= 3.600517856518D+02
 Leave Link  502 at Tue Apr 19 17:54:08 2016, MaxMem=   33554432 cpu:     148.0
 (Enter c:\G09w03\l701.exe)
 Compute integral first derivatives.
 ... and contract with generalized density number  0.
 D1PCM: C-PCM CHGder 1st derivatives, ID1Alg=3 FixD1E=F DoIter=F DoCFld=F I1PDM=0.
 GePol: Maximum number of non-zero 1st derivatives   =     211
 Leave Link  701 at Tue Apr 19 17:54:12 2016, MaxMem=   33554432 cpu:       4.0
 (Enter c:\G09w03\l702.exe)
 L702 exits ... SP integral derivatives will be done elsewhere.
 Leave Link  702 at Tue Apr 19 17:54:12 2016, MaxMem=   33554432 cpu:       0.0
 (Enter c:\G09w03\l703.exe)
 Compute integral first derivatives, UseDBF=F ICtDFT=           0.
 Integral derivatives from FoFDir, PRISM(SPDF).
 Calling FoFJK, ICntrl=      2127 FMM=F ISym2X=0 I1Cent= 0 IOpClX= 0 NMat=1 NMatS=1 NMatT=0.
 FoFCou: FMM=F IPFlag=           0 FMFlag=      100000 FMFlg1=         800
         NFxFlg=           0 DoJE=F BraDBF=F KetDBF=F FulRan=T
         Omega=  0.000000  0.000000  1.000000  0.000000  0.000000 ICntrl=    2127 IOpCl=  0
         NMat0=    1 NMatS0=    1 NMatT0=    0 NMatD0=    1 NMtDS0=    0 NMtDT0=    0
         I1Cent=           0 NGrid=           0.
 Symmetry not used in FoFCou.
 Leave Link  703 at Tue Apr 19 17:54:48 2016, MaxMem=   33554432 cpu:      36.0
 (Enter c:\G09w03\l716.exe)
 Dipole        =-3.62557663D+00 3.51218768D-01 5.04467483D-01
 -------------------------------------------------------------------
 Center     Atomic                   Forces (Hartrees/Bohr)
 Number     Number              X              Y              Z
 -------------------------------------------------------------------
      1        7           0.007497835    0.023320548    0.003682110
      2        1          -0.002151026   -0.000734050   -0.001955037
      3        6          -0.041826413   -0.019090204   -0.018429691
      4        1          -0.003036835   -0.001617352    0.000806842
      5        6           0.000781941    0.002439468    0.005074883
      6        6           0.071758686   -0.044168892   -0.002984687
      7        1           0.000475409   -0.000635764   -0.001328421
      8        1          -0.000317101   -0.000586920   -0.000061785
      9        1           0.001099944   -0.001105231    0.000135881
     10        8          -0.027205228    0.032269517   -0.008764945
     11        1           0.004584929   -0.001850442    0.001353217
     12        8          -0.003236642    0.003899399   -0.012884473
     13        1          -0.008425498    0.007859923    0.035356107
 -------------------------------------------------------------------
 Cartesian Forces:  Max     0.071758686 RMS     0.018738701
 Leave Link  716 at Tue Apr 19 17:54:48 2016, MaxMem=   33554432 cpu:       0.0
 (Enter c:\G09w03\l103.exe)

 GradGradGradGradGradGradGradGradGradGradGradGradGradGradGradGradGradGrad
 Berny optimization.
 Using GEDIIS/GDIIS optimizer.
 Internal  Forces:  Max     0.039490553 RMS     0.010326409
 Search for a local minimum.
 Step number   2 out of a maximum of   60
 All quantities printed in internal units (Hartrees-Bohrs-Radians)
 RMS Force = .10326D-01 SwitMx=.10000D-02 MixMth= 1
 Mixed Optimization -- RFO/linear search
 Update second derivatives using D2CorX and points    1    2
 DE= -3.86D-02 DEPred=-3.55D-02 R= 1.09D+00
 SS=  1.41D+00  RLast= 3.97D-01 DXNew= 5.0454D-01 1.1904D+00
 Trust test= 1.09D+00 RLast= 3.97D-01 DXMaxT set to 5.05D-01
 ITU=  1  0
 Use linear search instead of GDIIS.
     Eigenvalues ---    0.00816   0.01546   0.01626   0.02127   0.02220
     Eigenvalues ---    0.02233   0.05588   0.07225   0.07519   0.08554
     Eigenvalues ---    0.12515   0.15918   0.16000   0.16000   0.16000
     Eigenvalues ---    0.16000   0.16092   0.22243   0.23841   0.24758
     Eigenvalues ---    0.24999   0.29592   0.32798   0.33799   0.33854
     Eigenvalues ---    0.34797   0.43558   0.43916   0.45565   0.46695
     Eigenvalues ---    0.51942   0.52505   0.59631
 RFO step:  Lambda=-2.24244487D-02 EMin= 8.15852932D-03
 Quartic linear search produced a step of  1.08594.
 Iteration  1 RMS(Cart)=  0.12150204 RMS(Int)=  0.02426193
 Iteration  2 RMS(Cart)=  0.02280819 RMS(Int)=  0.01387651
 Iteration  3 RMS(Cart)=  0.00123906 RMS(Int)=  0.01385345
 Iteration  4 RMS(Cart)=  0.00007121 RMS(Int)=  0.01385340
 Iteration  5 RMS(Cart)=  0.00000340 RMS(Int)=  0.01385340
 Iteration  6 RMS(Cart)=  0.00000017 RMS(Int)=  0.01385340
 Variable       Old X    -DE/DX   Delta X   Delta X   Delta X     New X
                                 (Linear)    (Quad)   (Total)
    R1        1.90759   0.00217   0.00766   0.00147   0.00913   1.91672
    R2        2.48661  -0.02306  -0.09030   0.00349  -0.08681   2.39980
    R3        1.91995   0.00436   0.00695   0.01155   0.01851   1.93846
    R4        2.81530  -0.00115  -0.01319   0.00616  -0.00703   2.80828
    R5        2.71755   0.03075   0.08434   0.04591   0.13025   2.84780
    R6        1.82757  -0.00283  -0.02071   0.00952  -0.01119   1.81637
    R7        2.06859  -0.00114  -0.00893   0.00229  -0.00664   2.06195
    R8        2.05630  -0.00067  -0.00409   0.00033  -0.00377   2.05254
    R9        2.06971  -0.00070  -0.00668   0.00257  -0.00411   2.06560
   R10        2.66811  -0.03949  -0.12206  -0.09128  -0.21333   2.45478
   R11        2.68371   0.00311   0.01869  -0.00452   0.01417   2.69787
   R12        2.02281   0.03508   0.20609  -0.07242   0.13366   2.15647
    A1        2.13693   0.00201  -0.00151   0.02356   0.02201   2.15894
    A2        2.11412   0.00100   0.01191  -0.00037   0.01151   2.12562
    A3        2.03118  -0.00301  -0.01096  -0.02238  -0.03338   1.99781
    A4        2.10418   0.00478   0.01019   0.02516   0.03527   2.13945
    A5        2.01348  -0.00592  -0.02526  -0.01937  -0.04466   1.96882
    A6        2.16421   0.00112   0.01453  -0.00593   0.00854   2.17275
    A7        1.94556  -0.00030  -0.00580   0.00273  -0.00325   1.94231
    A8        1.93060   0.00064   0.00549   0.00453   0.01002   1.94061
    A9        1.90601  -0.00221  -0.01965  -0.00851  -0.02830   1.87771
   A10        1.90742   0.00056   0.00735   0.00492   0.01221   1.91963
   A11        1.87922   0.00062   0.00507  -0.00342   0.00134   1.88055
   A12        1.89362   0.00072   0.00804  -0.00059   0.00750   1.90112
   A13        2.05109  -0.00470  -0.03943  -0.05857  -0.13896   1.91213
   A14        1.99423  -0.01107  -0.06774  -0.08027  -0.17950   1.81473
   A15        1.71586  -0.00073   0.00265   0.03656   0.04655   1.76241
   A16        2.03190   0.00360  -0.01371  -0.02028  -0.09692   1.93498
   A17        1.74895   0.01275   0.09856   0.18815   0.28604   2.03499
   A18        1.85496   0.00598   0.11498   0.01309   0.12684   1.98180
   A19        1.83522  -0.00385  -0.04573   0.00173  -0.04399   1.79123
    D1       -0.15457   0.00172   0.01684   0.06265   0.07941  -0.07516
    D2        2.93403   0.00148   0.00503   0.05960   0.06471   2.99874
    D3        3.03350   0.00162   0.03274   0.04292   0.07557   3.10908
    D4       -0.16108   0.00137   0.02093   0.03986   0.06087  -0.10021
    D5        0.89376  -0.00119  -0.01790  -0.02784  -0.04586   0.84790
    D6        3.01984  -0.00025  -0.00867  -0.01654  -0.02541   2.99444
    D7       -1.18048  -0.00036  -0.00771  -0.01983  -0.02793  -1.20841
    D8       -2.19007  -0.00072  -0.00403  -0.02421  -0.02790  -2.21797
    D9       -0.06399   0.00022   0.00519  -0.01291  -0.00745  -0.07143
   D10        2.01887   0.00011   0.00616  -0.01620  -0.00996   2.00891
   D11        0.23995   0.00881   0.11654   0.11211   0.20484   0.44479
   D12        2.71363  -0.00691  -0.10253  -0.11883  -0.19973   2.51390
   D13       -1.61261  -0.00422   0.01040  -0.11120  -0.09921  -1.71182
   D14       -2.95668   0.00867   0.10412   0.10997   0.19068  -2.76601
   D15       -0.48301  -0.00705  -0.11495  -0.12097  -0.21389  -0.69690
   D16        1.47394  -0.00436  -0.00202  -0.11333  -0.11338   1.36056
   D17       -2.95681   0.00530   0.08603   0.08128   0.14410  -2.81271
   D18       -0.47549  -0.01347  -0.13722  -0.16192  -0.28387  -0.75936
   D19        1.45422   0.00774   0.04268   0.06642   0.11703   1.57126
         Item               Value     Threshold  Converged?
 Maximum Force            0.039491     0.000450     NO 
 RMS     Force            0.010326     0.000300     NO 
 Maximum Displacement     0.410845     0.001800     NO 
 RMS     Displacement     0.134996     0.001200     NO 
 Predicted change in Energy=-1.505116D-02
 GradGradGradGradGradGradGradGradGradGradGradGradGradGradGradGradGradGrad

 Leave Link  103 at Tue Apr 19 17:54:48 2016, MaxMem=   33554432 cpu:       0.0
 (Enter c:\G09w03\l202.exe)
                          Input orientation:                          
 ---------------------------------------------------------------------
 Center     Atomic      Atomic             Coordinates (Angstroms)
 Number     Number       Type             X           Y           Z
 ---------------------------------------------------------------------
      1          7           0       -1.084543   -1.272110   -0.042909
      2          1           0       -2.059264   -1.539040   -0.129153
      3          6           0       -0.694779   -0.077582    0.141147
      4          1           0        2.133675    1.120947   -0.288913
      5          6           0       -1.631183    1.076242    0.157171
      6          6           0        0.781390    0.017361    0.429115
      7          1           0       -2.489267    0.881067    0.802294
      8          1           0       -1.128306    1.985605    0.473254
      9          1           0       -2.004184    1.213004   -0.861144
     10          8           0        1.392018   -1.005880   -0.088128
     11          1           0       -0.330367   -1.967213   -0.059922
     12          8           0        1.181239    1.227108   -0.214953
     13          1           0        0.776556    0.087307    1.568117
 ---------------------------------------------------------------------
                    Distance matrix (angstroms):
                    1          2          3          4          5
     1  N    0.000000
     2  H    1.014283   0.000000
     3  C    1.269917   2.017607   0.000000
     4  H    4.017981   4.968077   3.101866   0.000000
     5  C    2.419423   2.665508   1.486075   3.791457   0.000000
     6  C    2.316732   3.286847   1.506988   1.887364   2.648715
     7  H    2.706250   2.628576   2.139231   4.756035   1.091139
     8  H    3.298644   3.694956   2.134241   3.459632   1.086156
     9  H    2.773273   2.848261   2.093977   4.178253   1.093069
    10  O    2.491240   3.492462   2.295436   2.261363   3.679015
    11  H    1.025787   1.782473   1.934923   3.957357   3.316906
    12  O    3.377789   4.261431   2.312676   0.961184   2.840943
    13  H    2.811958   3.683423   2.056273   2.521655   2.960737
                    6          7          8          9         10
     6  C    0.000000
[...]
    A5        1.96197   0.00001   0.00000   0.00017   0.00017   1.96213
    A6        2.15640  -0.00001   0.00000  -0.00009  -0.00009   2.15631
    A7        1.97387  -0.00001   0.00000  -0.00006  -0.00006   1.97381
    A8        1.89079   0.00000   0.00000  -0.00004  -0.00004   1.89075
    A9        1.90188   0.00001   0.00000   0.00009   0.00009   1.90197
   A10        1.90666   0.00000   0.00000  -0.00003  -0.00003   1.90663
   A11        1.92484   0.00000   0.00000   0.00000   0.00000   1.92484
   A12        1.86219   0.00000   0.00000   0.00005   0.00005   1.86223
   A13        1.95002   0.00001   0.00000   0.00017   0.00017   1.95019
   A14        1.79389  -0.00002   0.00000  -0.00017  -0.00017   1.79373
   A15        1.86041   0.00000   0.00000   0.00005   0.00005   1.86046
   A16        1.99825   0.00001   0.00000   0.00007   0.00007   1.99832
   A17        2.03969  -0.00001   0.00000  -0.00003  -0.00003   2.03966
   A18        1.79817   0.00000   0.00000  -0.00012  -0.00012   1.79805
   A19        1.81008   0.00001   0.00000   0.00006   0.00006   1.81014
    D1        0.04725   0.00000   0.00000   0.00014   0.00014   0.04739
    D2       -3.09957   0.00000   0.00000  -0.00002  -0.00002  -3.09959
    D3       -3.11184   0.00000   0.00000   0.00030   0.00030  -3.11153
    D4        0.02452   0.00000   0.00000   0.00014   0.00014   0.02467
    D5       -0.09119   0.00000   0.00000  -0.00020  -0.00020  -0.09139
    D6        2.02502   0.00000   0.00000  -0.00031  -0.00031   2.02471
    D7       -2.23852   0.00000   0.00000  -0.00022  -0.00022  -2.23873
    D8        3.05620   0.00000   0.00000  -0.00002  -0.00002   3.05618
    D9       -1.11077   0.00000   0.00000  -0.00013  -0.00013  -1.11090
   D10        0.90888   0.00000   0.00000  -0.00004  -0.00004   0.90884
   D11       -0.07846   0.00000   0.00000  -0.00042  -0.00042  -0.07887
   D12        2.07233   0.00001   0.00000  -0.00035  -0.00035   2.07198
   D13       -2.32613   0.00000   0.00000  -0.00053  -0.00053  -2.32666
   D14        3.05793  -0.00001   0.00000  -0.00057  -0.00057   3.05736
   D15       -1.07447   0.00000   0.00000  -0.00051  -0.00051  -1.07497
   D16        0.81026   0.00000   0.00000  -0.00068  -0.00068   0.80958
   D17       -1.64154   0.00000   0.00000   0.00026   0.00026  -1.64128
   D18        0.47669   0.00001   0.00000   0.00039   0.00039   0.47707
   D19        2.71000   0.00000   0.00000   0.00030   0.00030   2.71030
         Item               Value     Threshold  Converged?
 Maximum Force            0.000042     0.000450     YES
 RMS     Force            0.000010     0.000300     YES
 Maximum Displacement     0.001203     0.001800     YES
 RMS     Displacement     0.000362     0.001200     YES
 Predicted change in Energy=-2.389823D-08
 Optimization completed.
    -- Stationary point found.
                           ----------------------------
                           !   Optimized Parameters   !
                           ! (Angstroms and Degrees)  !
 --------------------------                            --------------------------
 ! Name  Definition              Value          Derivative Info.                !
 --------------------------------------------------------------------------------
 ! R1    R(1,2)                  1.013          -DE/DX =    0.0                 !
 ! R2    R(1,3)                  1.2814         -DE/DX =    0.0                 !
 ! R3    R(1,11)                 1.035          -DE/DX =    0.0                 !
 ! R4    R(3,5)                  1.4779         -DE/DX =    0.0                 !
 ! R5    R(3,6)                  1.5641         -DE/DX =    0.0                 !
 ! R6    R(4,12)                 0.9673         -DE/DX =    0.0                 !
 ! R7    R(5,7)                  1.0899         -DE/DX =    0.0                 !
 ! R8    R(5,8)                  1.0952         -DE/DX =    0.0                 !
 ! R9    R(5,9)                  1.092          -DE/DX =    0.0                 !
 ! R10   R(6,10)                 1.3109         -DE/DX =    0.0                 !
 ! R11   R(6,12)                 1.4813         -DE/DX =    0.0                 !
 ! R12   R(6,13)                 1.1082         -DE/DX =    0.0                 !
 ! A1    A(2,1,3)              124.8571         -DE/DX =    0.0                 !
 ! A2    A(2,1,11)             122.709          -DE/DX =    0.0                 !
 ! A3    A(3,1,11)             112.426          -DE/DX =    0.0                 !
 ! A4    A(1,3,5)              124.0341         -DE/DX =    0.0                 !
 ! A5    A(1,3,6)              112.4124         -DE/DX =    0.0                 !
 ! A6    A(5,3,6)              123.5528         -DE/DX =    0.0                 !
 ! A7    A(3,5,7)              113.0944         -DE/DX =    0.0                 !
 ! A8    A(3,5,8)              108.3343         -DE/DX =    0.0                 !
 ! A9    A(3,5,9)              108.9695         -DE/DX =    0.0                 !
 ! A10   A(7,5,8)              109.2437         -DE/DX =    0.0                 !
 ! A11   A(7,5,9)              110.2853         -DE/DX =    0.0                 !
 ! A12   A(8,5,9)              106.6954         -DE/DX =    0.0                 !
 ! A13   A(3,6,10)             111.7281         -DE/DX =    0.0                 !
 ! A14   A(3,6,12)             102.7824         -DE/DX =    0.0                 !
 ! A15   A(3,6,13)             106.5937         -DE/DX =    0.0                 !
 ! A16   A(10,6,12)            114.4914         -DE/DX =    0.0                 !
 ! A17   A(10,6,13)            116.8659         -DE/DX =    0.0                 !
 ! A18   A(12,6,13)            103.0276         -DE/DX =    0.0                 !
 ! A19   A(4,12,6)             103.7098         -DE/DX =    0.0                 !
 ! D1    D(2,1,3,5)              2.7074         -DE/DX =    0.0                 !
 ! D2    D(2,1,3,6)           -177.5923         -DE/DX =    0.0                 !
 ! D3    D(11,1,3,5)          -178.2952         -DE/DX =    0.0                 !
 ! D4    D(11,1,3,6)             1.4052         -DE/DX =    0.0                 !
 ! D5    D(1,3,5,7)             -5.2248         -DE/DX =    0.0                 !
 ! D6    D(1,3,5,8)            116.025          -DE/DX =    0.0                 !
 ! D7    D(1,3,5,9)           -128.2575         -DE/DX =    0.0                 !
 ! D8    D(6,3,5,7)            175.1076         -DE/DX =    0.0                 !
 ! D9    D(6,3,5,8)            -63.6425         -DE/DX =    0.0                 !
 ! D10   D(6,3,5,9)             52.0749         -DE/DX =    0.0                 !
 ! D11   D(1,3,6,10)            -4.4954         -DE/DX =    0.0                 !
 ! D12   D(1,3,6,12)           118.7355         -DE/DX =    0.0                 !
 ! D13   D(1,3,6,13)          -133.2775         -DE/DX =    0.0                 !
 ! D14   D(5,3,6,10)           175.2066         -DE/DX =    0.0                 !
 ! D15   D(5,3,6,12)           -61.5624         -DE/DX =    0.0                 !
 ! D16   D(5,3,6,13)            46.4245         -DE/DX =    0.0                 !
 ! D17   D(3,6,12,4)           -94.0532         -DE/DX =    0.0                 !
 ! D18   D(10,6,12,4)           27.3121         -DE/DX =    0.0                 !
 ! D19   D(13,6,12,4)          155.2716         -DE/DX =    0.0                 !
 --------------------------------------------------------------------------------
 GradGradGradGradGradGradGradGradGradGradGradGradGradGradGradGradGradGrad

 Leave Link  103 at Tue Apr 19 20:09:57 2016, MaxMem=   33554432 cpu:       0.0
 (Enter c:\G09w03\l9999.exe)
 1|1|UNPC-WIN-20150318OUM|Freq|RB3LYP|6-311++G(d,p)|C3H7N1O2|ADMINISTRA
 TOR|19-Apr-2016|0||#P Geom=AllCheck Guess=TCheck SCRF=Check GenChk RB3
 LYP/6-311++G(d,p) Freq||Ala-S-opt-freq-cpcm-w-pc3-6-311++gdp||0,1|N,-0
 .9886128728,-1.2662375345,-0.0670858196|H,-1.9088539897,-1.5903617525,
 -0.3394643399|C,-0.697387293,-0.0543815342,0.230523118|H,1.597680885,0
 .5273511939,-1.1963644132|C,-1.6828041324,1.0460809213,0.275091298|C,0
 .8221656132,0.1324219819,0.5505076863|H,-2.6753428137,0.7449643139,-0.
 0595993201|H,-1.7448113621,1.4114539632,1.305638942|H,-1.3148567301,1.
 8767822906,-0.3306587821|O,1.4644971075,-1.0102210627,0.5392873807|H,-
 0.1670921405,-1.8936635466,-0.0161162536|O,1.2601251628,1.0932964371,-
 0.4882963457|H,0.8782785659,0.7293323186,1.4825112991||Version=IA32W-G
 09RevB.01|HF=-323.8154706|RMSD=3.120e-009|RMSF=1.661e-005|ZeroPoint=0.
 1050042|Thermal=0.112159|Dipole=-3.7965745,-0.167621,-0.608766|DipoleD
 eriv=-0.64321,-0.2198056,-0.0626866,-0.0347608,-0.9908683,-0.0923185,-
 0.0284313,-0.172938,-0.3683877,0.2793624,0.0732272,-0.0110209,0.064469
 4,0.3205218,-0.0002773,-0.0352515,-0.0097345,0.3914663,0.3520236,-0.03
 42279,-0.0513357,0.0911919,1.232553,0.2002099,-0.0730212,0.2336337,0.1
 301578,0.3748348,-0.0097572,0.0225229,0.011505,0.2210149,-0.1111844,0.
 0138398,-0.047268,0.3030055,-0.1123518,0.1983804,0.0425012,0.1265199,-
 0.2937756,-0.0489339,0.0613985,-0.0774581,-0.0090655,1.2938672,-0.2533
 776,-0.07453,-0.4061996,1.7194147,-0.3241848,-0.0653723,-0.3478909,1.0
 40393,-0.098142,0.0025767,-0.0484905,-0.0482113,0.0259434,-0.041061,-0
 .0690783,-0.0229811,0.1043709,0.085164,0.0618539,-0.0322461,0.0054731,
 0.1323443,-0.0253332,-0.0259825,-0.0251996,-0.0073777,0.0729345,-0.003
 0084,0.0515103,-0.0362338,0.0845891,0.0484532,0.0135231,0.0877624,0.10
 52609,-1.2796672,0.4967535,-0.079327,0.3930104,-1.6033798,0.1882557,-0
 .0065798,0.036556,-0.8446707,0.6460618,-0.0009064,0.0583029,-0.0445594
 ,0.3082127,-0.0201247,0.0545847,-0.0079301,0.3183629,-0.937272,-0.2877
 029,0.1541562,-0.1508334,-0.9601999,0.4286173,0.1027498,0.5512967,-0.9
 389828,-0.0336054,-0.0240057,0.0306431,0.0286287,-0.1963703,-0.2021183
 ,0.0576208,-0.1978486,-0.2245329|Polar=73.7115744,0.1144373,82.0558495
 ,0.2050909,2.5309599,60.461129|PG=C01 [X(C3H7N1O2)]|NImag=0||0.8275742
 9,0.06484275,0.84290949,0.17515584,0.16607964,0.15317222,-0.38273945,-
 0.10173237,-0.10078291,0.38700010,-0.09562323,-0.10185681,-0.03781044,
 0.11510531,0.09723105,-0.10080111,-0.04037209,-0.05373631,0.10567690,0
 .04129803,0.05110324,-0.16803340,-0.08068935,-0.04061114,0.00059989,-0
 .03691646,-0.00675645,0.48301927,-0.09413853,-0.51216261,-0.11126800,-
 0.00416212,-0.00924843,-0.00117688,0.00099633,0.84308620,-0.04088337,-
 0.10971089,-0.09105048,-0.00057958,-0.01001398,-0.00074001,0.06099595,
 0.13009230,0.26061128,-0.00033901,-0.00059905,-0.00046204,-0.00003684,
 -0.00001771,-0.00009836,0.00001185,0.00005133,0.00304835,0.07073080,-0
 .00011984,-0.00093535,-0.00070274,0.00008885,-0.00012781,-0.00024414,0
 .00168031,0.00002398,0.00270235,-0.09258233,0.19673580,-0.00080973,-0.
 00029739,-0.00055801,0.00008609,0.00010446,-0.00028159,0.00024463,0.00
 012008,0.00032548,-0.14023687,0.19640083,0.29440024,0.01122296,-0.0087
 1524,-0.00280897,0.00198302,-0.00118131,0.00148038,-0.16829694,0.08405
 206,0.00038932,-0.00029271,0.00012780,-0.00042556,0.56572490,0.0281810
 0,-0.04276250,-0.00786179,0.00157720,0.00173890,0.00236867,0.05689988,
 -0.15240270,-0.00059622,0.00046786,0.00011800,0.00002414,0.04255830,0.
 51713406,0.00385903,-0.01336885,0.01372387,0.00257901,0.00135599,-0.00
 634275,-0.00816995,0.00294237,-0.08202476,-0.00016330,0.00005843,-0.00
 013431,0.02029013,-0.00105793,0.52480759,-0.01526446,-0.01898423,-0.00
 596222,-0.00096679,0.00579920,0.00027549,-0.09116316,-0.01552228,-0.02
 229197,-0.00522460,-0.01527312,0.01438632,-0.00459454,0.00673088,0.000
 36537,0.38598314,-0.03087469,-0.01506017,-0.00838145,0.00258659,-0.006
 50297,-0.00041656,0.00437184,-0.06812757,-0.02093182,0.00445017,0.0150
 3207,-0.01557586,0.01825381,0.00920198,0.00691772,-0.06535377,0.496027
 51,-0.01679318,-0.00892671,0.00997695,-0.00342533,-0.00345639,0.011857
 04,-0.01379909,-0.01651812,-0.08206001,0.01082244,0.02347650,-0.030663
 81,0.00298525,0.00060532,0.00650236,0.00065227,0.14957889,0.45865326,0
 .00286589,-0.00161521,0.00072294,0.00020869,0.00094311,0.00021019,-0.0
 2284562,-0.00643972,-0.00696557,0.00003407,0.00003429,-0.00013292,-0.2
 7002115,-0.06914483,-0.07617999,0.00463076,0.00249406,0.00092655,0.291
 73198,-0.00071924,0.00304933,0.00063879,-0.00076503,-0.00041876,0.0000
 8881,0.02944156,0.00761418,0.00981984,-0.00008253,0.00003396,-0.000013
 96,-0.07269249,-0.07243543,-0.02440280,-0.00199551,-0.00390851,-0.0014
 0451,0.07358492,0.07483096,0.00087281,0.00110240,-0.00050967,-0.000191
 35,0.00048665,0.00025330,0.00272703,0.00003293,-0.00082607,0.00008391,
 -0.00006410,0.00004238,-0.07721231,-0.02336149,-0.07204001,0.00038337,
 0.00002711,0.00151946,0.08330675,0.02664109,0.07204308,-0.00104056,0.0
 0267132,-0.00060546,-0.00050981,0.00003515,0.00040960,0.00029003,0.003
 89218,0.02268252,-0.00006629,-0.00002938,-0.00002268,-0.04727790,0.008
 80916,0.01331112,-0.00013326,-0.00068307,-0.00077966,0.00369267,-0.009
 40904,-0.02683441,0.04659480,0.00323618,-0.00157437,0.00227078,0.00039
 069,0.00056211,-0.00100390,0.00193111,-0.01440725,-0.02709669,-0.00003
 961,-0.00003405,0.00004808,0.00619530,-0.06618504,-0.08528739,-0.00054
 051,0.00035739,0.00037666,0.00090751,-0.00374004,-0.00745631,-0.009392
 49,0.07671595,0.00087683,0.00233831,-0.00006471,-0.00019961,0.00008703
 ,0.00019964,0.00165131,-0.00310614,-0.00057374,-0.00002561,-0.00001540
 ,0.00004795,0.01176445,-0.08362443,-0.27452851,-0.00057163,-0.00075253
 ,-0.00049944,0.00075651,-0.00174444,-0.00715970,-0.01559182,0.09245699
 ,0.29934782,-0.00259557,0.00433203,0.00234587,-0.00031571,0.00024895,-
 0.00080875,0.01149659,0.01365127,-0.01629959,-0.00028322,-0.00011838,0
 .00003297,-0.07905705,-0.06816319,0.04919891,0.00001469,-0.00014177,0.
 00080835,-0.00702187,-0.02001160,0.01641276,-0.00120590,-0.00174070,0.
 00109853,0.07932373,0.00422996,-0.00095710,-0.00012160,-0.00006382,0.0
 0026608,0.00083496,-0.00731537,-0.02534898,0.01349412,-0.00008737,0.00
 004243,-0.00015642,-0.06968924,-0.19642713,0.11682444,-0.00017040,-0.0
 0063455,0.00047596,-0.00160756,-0.00534450,0.00332765,0.00342539,0.009
 05508,-0.00608460,0.07305644,0.21809556,0.00125588,-0.00035375,-0.0004
 7198,-0.00019736,0.00011894,0.00043936,-0.00093025,-0.00429304,-0.0000
 3706,0.00019872,-0.00008046,0.00013015,0.04725809,0.11773970,-0.122516
 26,0.00003038,0.00043679,-0.00015082,-0.00264444,-0.00995696,0.0064369
 4,0.00938764,0.02337852,-0.01705986,-0.05479297,-0.12643441,0.13377323
 ,-0.02144790,0.00573450,-0.00399273,0.00009476,0.00374929,0.00029546,-
 0.04508535,0.03601439,-0.00487477,-0.00078643,0.00246522,-0.00312321,-
 0.00720104,-0.00463063,-0.00224052,-0.15059745,0.09976847,0.01209224,-
 0.00220545,0.00247075,0.00027056,0.00000398,0.00009682,0.00009805,0.00
 030656,-0.00000580,-0.00007153,0.19571272,-0.01591483,0.00275429,-0.00
 453110,-0.00277330,0.00449120,-0.00037376,0.02791314,-0.01755340,0.009
 56319,0.00097280,0.00130634,-0.00377736,0.00340376,0.00354738,-0.00018
 790,0.10726365,-0.25990032,-0.02660866,0.00160058,-0.00095821,-0.00035
 436,0.00004904,0.00005867,0.00013801,-0.00058979,0.00065418,-0.0001849
 2,-0.16723404,0.36554731,-0.00620592,0.00192658,0.00050153,-0.00071499
 ,0.00171925,-0.00015620,-0.00968791,0.00374702,0.00876131,-0.00222324,
 -0.00471350,0.00773798,-0.00105113,-0.00013543,0.00002911,0.00890544,-
 0.01744052,-0.09330595,-0.00013635,0.00036079,0.00008791,-0.00020793,0
 .00021104,0.00013182,-0.00007618,-0.00004360,-0.00000736,0.00331146,-0
 .00453770,0.06764544,-0.24196518,0.13881162,-0.01979991,-0.00665082,0.
 00978149,0.00187326,0.01822715,0.01597860,0.00435222,-0.00006520,-0.00
 089997,0.00048130,-0.00165793,-0.00522388,-0.00339344,0.00574143,-0.01
 524853,0.00177485,-0.00049264,0.00019530,0.00008431,0.00075941,-0.0007
 9045,0.00012576,0.00063331,-0.00040919,0.00024745,0.00629225,0.0153124
 4,0.00529157,0.22264275,0.14206115,-0.17749925,0.00155385,-0.01051169,
 0.01348588,0.00110351,0.02679509,-0.03788343,-0.00286857,-0.00006978,-
 0.00013737,0.00016462,-0.00220861,-0.00051807,-0.00286450,0.00117258,-
 0.00733693,0.00064685,-0.00008985,0.00026458,0.00008744,0.00042352,-0.
 00093760,0.00006711,0.00004480,-0.00030873,-0.00013960,0.00599544,0.00
 077556,0.00284695,-0.16375082,0.20994766,-0.01825979,0.00093600,-0.032
 05418,-0.00288594,0.00580298,-0.00289559,0.00819025,-0.00509695,0.0041
 0429,0.00008073,0.00008714,0.00032416,-0.00349777,-0.00433130,0.011300
 60,0.00180693,-0.00556836,-0.00712206,0.00003931,0.00006822,-0.0001182
 0,-0.00100708,0.00176375,-0.00040710,0.00177983,-0.00164440,-0.0006184
 6,0.00352655,0.00559285,-0.00369224,0.00967329,-0.00026047,0.03187060,
 -0.00365220,-0.00221619,-0.00369532,0.00159469,-0.00018771,-0.00356929
 ,-0.01338672,-0.01900634,0.02878278,-0.06364611,0.10551562,0.12676284,
 -0.00121021,0.00186145,-0.00076191,-0.07193641,-0.00929045,0.03424107,
 -0.00053752,0.00001385,-0.00031468,-0.00016971,-0.00054797,0.00026698,
 -0.00134942,-0.00143789,0.00042936,0.02000057,0.01037266,-0.01452043,-
 0.00198112,-0.00025180,0.00214554,0.13344136,-0.00394608,0.00231260,-0
 .00082722,0.00022510,0.00036731,-0.00218861,-0.02024908,-0.01302205,0.
 01393294,0.08725931,-0.21039974,-0.18125385,0.00013320,-0.00085314,-0.
 00090810,0.00954370,-0.06332418,-0.02004569,-0.00031272,0.00083299,-0.
 00065625,0.00035580,-0.00009191,-0.00002742,-0.00052169,0.00091207,-0.
 00028922,0.00270546,-0.06453273,0.03957815,0.00352554,0.00013023,0.002
 93002,-0.08016613,0.34066572,0.00396965,-0.00055734,0.00190856,0.00045
 274,0.00050531,0.00068467,0.01117272,0.01219407,-0.01044533,0.13016495
 ,-0.21992800,-0.26772606,0.00085533,0.00063595,0.00140268,0.02350788,-
 0.00087979,-0.08020591,0.00033194,-0.00027923,0.00019998,-0.00041451,0
 .00002644,0.00024844,0.00034493,-0.00042503,0.00000738,-0.01138817,0.0
 3711438,0.00296086,-0.00188570,-0.00058535,-0.00114630,-0.17663602,0.1
 5121311,0.38468186,-0.00458541,-0.00184059,0.00049604,-0.00026171,-0.0
 0173608,0.00181266,-0.00483360,-0.01536717,-0.02835631,-0.00003632,-0.
 00088905,0.00275682,0.00067861,0.00007678,0.00130555,-0.05648935,-0.01
 033266,-0.02950576,-0.00003981,-0.00003094,0.00041125,-0.00093746,0.00
 029412,-0.00024975,0.00005385,0.00007488,-0.00017098,0.00491280,0.0196
 2390,0.01731560,-0.00148339,0.00038998,-0.00159188,0.00283280,0.001447
 58,0.01952426,0.06018900,-0.00121459,0.00178245,0.00096128,0.00003458,
 0.00001226,0.00008196,-0.00485900,-0.00056793,-0.00838658,0.00027689,-
 0.00165825,0.00421262,-0.00023734,-0.00015630,-0.00002146,-0.01267017,
 -0.09582375,-0.09820011,-0.00035457,0.00017945,0.00018724,-0.00014759,
 0.00022105,0.00026749,-0.00004637,-0.00000441,0.00005842,0.01287013,-0
 .03619025,-0.02351901,0.00271786,0.00001747,-0.00027949,-0.00465909,0.
 00700283,0.02096546,0.00828926,0.12518537,-0.00223695,0.00120409,-0.00
 083779,0.00018233,-0.00019784,-0.00038479,-0.00502710,-0.00766965,-0.0
 0604489,-0.00118966,0.00302312,-0.00364458,-0.00002722,-0.00040520,-0.
 00017961,-0.02148765,-0.08701364,-0.19450107,-0.00023492,0.00018436,0.
 00007061,-0.00032736,0.00031204,0.00031738,-0.00004468,-0.00004707,0.0
 0007473,0.00609660,-0.01185268,0.00930578,0.00117504,0.00024813,0.0004
 5449,0.00686907,-0.00145785,-0.03257083,0.01625249,0.10367218,0.227940
 57||-0.00001492,-0.00001057,-0.00001038,0.00001004,0.00000360,-0.00000
 738,-0.00001158,-0.00001316,0.00000766,0.00000258,0.00001125,0.0000115
 8,-0.00001952,-0.00001071,-0.00001176,0.00003780,0.00003468,0.00004639
 ,-0.00000437,-0.00000932,-0.00000865,-0.00001029,-0.00000857,-0.000002
 98,-0.00000551,-0.00000742,0.00000248,-0.00000683,0.00001853,-0.000009
 77,0.00003912,0.00000579,0.00000116,0.00000041,0.00000319,0.00001111,-
 0.00001695,-0.00001729,-0.00002944|||@


 TO SEE A WORLD IN A GRAIN OF SAND
 AND A HEAVEN IN A WILD FLOWER
 HOLD INFINITY IN THE PALM OF YOUR HAND
 AND ETERNITY IN AN HOUR

                       -- WILLIAM BLAKE
 Job cpu time:  0 days  0 hours 18 minutes 15.0 seconds.
 File lengths (MBytes):  RWF=     59 Int=      0 D2E=      0 Chk=      6 Scr=      1
 Normal termination of Gaussian 09 at Tue Apr 19 20:09:57 2016.
