 Entering Link 1 = c:\G09w01\l1.exe PID=      7160.
  
 Copyright (c) 1988,1990,1992,1993,1995,1998,2003,2009,2010,
            Gaussian, Inc.  All Rights Reserved.
  
 This is part of the Gaussian(R) 09 program.  It is based on
 the Gaussian(R) 03 system (copyright 2003, Gaussian, Inc.),
 the Gaussian(R) 98 system (copyright 1998, Gaussian, Inc.),
 the Gaussian(R) 94 system (copyright 1995, Gaussian, Inc.),
 the Gaussian 92(TM) system (copyright 1992, Gaussian, Inc.),
 the Gaussian 90(TM) system (copyright 1990, Gaussian, Inc.),
 the Gaussian 88(TM) system (copyright 1988, Gaussian, Inc.),
 the Gaussian 86(TM) system (copyright 1986, Carnegie Mellon
 University), and the Gaussian 82(TM) system (copyright 1983,
 Carnegie Mellon University). Gaussian is a federally registered
 trademark of Gaussian, Inc.
  
 This software contains proprietary and confidential information,
 including trade secrets, belonging to Gaussian, Inc.
  
 This software is provided under written license and may be
 used, copied, transmitted, or stored only in accord with that
 written license.
  
 The following legend is applicable only to US Government
 contracts under FAR:
  
                    RESTRICTED RIGHTS LEGEND
  
 Use, reproduction and disclosure by the US Government is
 subject to restrictions as set forth in subparagraphs (a)
 and (c) of the Commercial Computer Software - Restricted
 Rights clause in FAR 52.227-19.
  
 Gaussian, Inc.
 340 Quinnipiac St., Bldg. 40, Wallingford CT 06492
  
  
 ---------------------------------------------------------------
 Warning -- This program may not be used in any manner that
 competes with the business of Gaussian, Inc. or will provide
 assistance to any competitor of Gaussian, Inc.  The licensee
 of this program is prohibited from giving any competitor of
 Gaussian, Inc. access to this program.  By using this program,
 the user acknowledges that Gaussian, Inc. is engaged in the
 business of creating and licensing software in the field of
 computational chemistry and represents and warrants to the
 licensee that it is not a competitor of Gaussian, Inc. and that
 it will not use this program in any manner prohibited above.
 ---------------------------------------------------------------
  

 Cite this work as:
 Gaussian 09, Revision B.01,
 M. J. Frisch, G. W. Trucks, H. B. Schlegel, G. E. Scuseria, 
 M. A. Robb, J. R. Cheeseman, G. Scalmani, V. Barone, B. Mennucci, 
 G. A. Petersson, H. Nakatsuji, M. Caricato, X. Li, H. P. Hratchian, 
 A. F. Izmaylov, J. Bloino, G. Zheng, J. L. Sonnenberg, M. Hada, 
 M. Ehara, K. Toyota, R. Fukuda, J. Hasegawa, M. Ishida, T. Nakajima, 
 Y. Honda, O. Kitao, H. Nakai, T. Vreven, J. A. Montgomery, Jr., 
 J. E. Peralta, F. Ogliaro, M. Bearpark, J. J. Heyd, E. Brothers, 
 K. N. Kudin, V. N. Staroverov, T. Keith, R. Kobayashi, J. Normand, 
 K. Raghavachari, A. Rendell, J. C. Burant, S. S. Iyengar, J. Tomasi, 
 M. Cossi, N. Rega, J. M. Millam, M. Klene, J. E. Knox, J. B. Cross, 
 V. Bakken, C. Adamo, J. Jaramillo, R. Gomperts, R. E. Stratmann, 
 O. Yazyev, A. J. Austin, R. Cammi, C. Pomelli, J. W. Ochterski, 
 R. L. Martin, K. Morokuma, V. G. Zakrzewski, G. A. Voth, 
 P. Salvador, J. J. Dannenberg, S. Dapprich, A. D. Daniels, 
 O. Farkas, J. B. Foresman, J. V. Ortiz, J. Cioslowski, 
 and D. J. Fox, Gaussian, Inc., Wallingford CT, 2010.
 
 ******************************************
 Gaussian 09:  IA32W-G09RevB.01 12-Aug-2010
                16-Apr-2016 
 ******************************************
 %chk=Ala-S-opt-freq-cpcm-w-pa3-6-311++gdp.chk
 --------------------------------------------------------------
 #p opt freq rhf/6-311++g(d,p) scrf=(cpcm,solvent=water) nosymm
 --------------------------------------------------------------
 1/14=-1,18=20,19=15,38=1/1,3;
 2/9=110,12=2,15=1,17=6,18=5,40=1/2;
 3/5=4,6=6,7=1111,11=1,16=1,25=1,30=1,70=2101,71=1,72=1,116=1/1,2,3;
 4//1;
 5/5=2,38=5,53=1/2;
 6/7=2,8=2,9=2,10=2,28=1/1;
 7/30=1/1,2,3,16;
 1/14=-1,18=20,19=15/3(2);
 2/9=110,15=1/2;
 99//99;
 2/9=110,15=1/2;
 3/5=4,6=6,7=1111,11=1,16=1,25=1,30=1,70=2105,71=1,72=1,116=1/1,2,3;
 4/5=5,16=3/1;
 5/5=2,38=5,53=1/2;
 7/30=1/1,2,3,16;
 1/14=-1,18=20,19=15/3(-5);
 2/9=110,15=1/2;
 6/7=2,8=2,9=2,10=2,19=2,28=1/1;
 99/9=1/99;
 Leave Link    1 at Sat Apr 16 14:39:47 2016, MaxMem=          0 cpu:       0.0
 (Enter c:\G09w01\l101.exe)
 ------------------------------------
 Ala-S-opt-freq-cpcm-w-pa3-6-311++gdp
 ------------------------------------
 Symbolic Z-matrix:
 Charge =  0 Multiplicity = 1
 N                     1.4145    1.11664   0.04733 
 H                     2.35632   1.16806   0.35306 
 C                     0.66986  -0.07055   0.38162 
 H                    -2.45772  -0.81127   0.01148 
 C                     1.23742  -1.2967   -0.34283 
 C                    -0.7761    0.16056   0.02984 
 H                     2.27796  -1.42111  -0.06826 
 H                     0.70035  -2.19621  -0.07856 
 H                     1.19068  -1.14782  -1.41352 
 O                    -1.25968   1.21077  -0.33242 
 H                     0.91931   1.97574  -0.00152 
 O                    -1.5331   -0.94346   0.20757 
 H                     0.66685  -0.28221   1.45305 
 
 NAtoms=     13 NQM=     13 NQMF=      0 NMic=      0 NMicF=      0 NTot=     13.
                    Isotopes and Nuclear Properties:
 (Nuclear quadrupole moments (NQMom) in fm**2, nuclear magnetic moments (NMagM)
  in nuclear magnetons)

  Atom         1           2           3           4           5           6           7           8           9          10
 IAtWgt=          14           1          12           1          12          12           1           1           1          16
 AtmWgt=  14.0030740   1.0078250  12.0000000   1.0078250  12.0000000  12.0000000   1.0078250   1.0078250   1.0078250  15.9949146
 NucSpn=           2           1           0           1           0           0           1           1           1           0
 AtZEff=   0.0000000   0.0000000   0.0000000   0.0000000   0.0000000   0.0000000   0.0000000   0.0000000   0.0000000   0.0000000
 NQMom=    2.0440000   0.0000000   0.0000000   0.0000000   0.0000000   0.0000000   0.0000000   0.0000000   0.0000000   0.0000000
 NMagM=    0.4037610   2.7928460   0.0000000   2.7928460   0.0000000   0.0000000   2.7928460   2.7928460   2.7928460   0.0000000

  Atom        11          12          13
 IAtWgt=           1          16           1
 AtmWgt=   1.0078250  15.9949146   1.0078250
 NucSpn=           1           0           1
 AtZEff=   0.0000000   0.0000000   0.0000000
 NQMom=    0.0000000   0.0000000   0.0000000
 NMagM=    2.7928460   0.0000000   2.7928460
 Leave Link  101 at Sat Apr 16 14:39:47 2016, MaxMem=   33554432 cpu:       0.0
 (Enter c:\G09w01\l103.exe)

 GradGradGradGradGradGradGradGradGradGradGradGradGradGradGradGradGradGrad
 Berny optimization.
 Initialization pass.
                           ----------------------------
                           !    Initial Parameters    !
                           ! (Angstroms and Degrees)  !
 --------------------------                            --------------------------
 ! Name  Definition              Value          Derivative Info.                !
 --------------------------------------------------------------------------------
 ! R1    R(1,2)                  0.9915         estimate D2E/DX2                !
 ! R2    R(1,3)                  1.4407         estimate D2E/DX2                !
 ! R3    R(1,11)                 0.9928         estimate D2E/DX2                !
 ! R4    R(3,5)                  1.5331         estimate D2E/DX2                !
 ! R5    R(3,6)                  1.506          estimate D2E/DX2                !
 ! R6    R(3,13)                 1.0921         estimate D2E/DX2                !
 ! R7    R(4,12)                 0.9544         estimate D2E/DX2                !
 ! R8    R(5,7)                  1.0833         estimate D2E/DX2                !
 ! R9    R(5,8)                  1.0805         estimate D2E/DX2                !
 ! R10   R(5,9)                  1.082          estimate D2E/DX2                !
 ! R11   R(6,10)                 1.2116         estimate D2E/DX2                !
 ! R12   R(6,12)                 1.3504         estimate D2E/DX2                !
 ! A1    A(2,1,3)              117.5248         estimate D2E/DX2                !
 ! A2    A(2,1,11)             116.364          estimate D2E/DX2                !
 ! A3    A(3,1,11)             117.8191         estimate D2E/DX2                !
 ! A4    A(1,3,5)              110.9816         estimate D2E/DX2                !
 ! A5    A(1,3,6)              108.397          estimate D2E/DX2                !
 ! A6    A(1,3,13)             112.8768         estimate D2E/DX2                !
 ! A7    A(5,3,6)              111.5803         estimate D2E/DX2                !
 ! A8    A(5,3,13)             108.0352         estimate D2E/DX2                !
 ! A9    A(6,3,13)             104.8476         estimate D2E/DX2                !
 ! A10   A(3,5,7)              109.1266         estimate D2E/DX2                !
 ! A11   A(3,5,8)              111.4843         estimate D2E/DX2                !
 ! A12   A(3,5,9)              109.9722         estimate D2E/DX2                !
 ! A13   A(7,5,8)              108.6534         estimate D2E/DX2                !
 ! A14   A(7,5,9)              107.9446         estimate D2E/DX2                !
 ! A15   A(8,5,9)              109.5794         estimate D2E/DX2                !
 ! A16   A(3,6,10)             125.8788         estimate D2E/DX2                !
 ! A17   A(3,6,12)             112.4598         estimate D2E/DX2                !
 ! A18   A(10,6,12)            121.6188         estimate D2E/DX2                !
 ! A19   A(4,12,6)             113.7548         estimate D2E/DX2                !
 ! D1    D(2,1,3,5)            -66.5175         estimate D2E/DX2                !
 ! D2    D(2,1,3,6)            170.6155         estimate D2E/DX2                !
 ! D3    D(2,1,3,13)            54.9294         estimate D2E/DX2                !
 ! D4    D(11,1,3,5)           146.2193         estimate D2E/DX2                !
 ! D5    D(11,1,3,6)            23.3523         estimate D2E/DX2                !
 ! D6    D(11,1,3,13)          -92.3338         estimate D2E/DX2                !
 ! D7    D(1,3,5,7)             58.5458         estimate D2E/DX2                !
 ! D8    D(1,3,5,8)            178.566          estimate D2E/DX2                !
 ! D9    D(1,3,5,9)            -59.6835         estimate D2E/DX2                !
 ! D10   D(6,3,5,7)            179.5549         estimate D2E/DX2                !
 ! D11   D(6,3,5,8)            -60.4248         estimate D2E/DX2                !
 ! D12   D(6,3,5,9)             61.3257         estimate D2E/DX2                !
 ! D13   D(13,3,5,7)           -65.6995         estimate D2E/DX2                !
 ! D14   D(13,3,5,8)            54.3207         estimate D2E/DX2                !
 ! D15   D(13,3,5,9)           176.0712         estimate D2E/DX2                !
 ! D16   D(1,3,6,10)            -7.4796         estimate D2E/DX2                !
 ! D17   D(1,3,6,12)           174.8753         estimate D2E/DX2                !
 ! D18   D(5,3,6,10)          -129.9832         estimate D2E/DX2                !
 ! D19   D(5,3,6,12)            52.3718         estimate D2E/DX2                !
 ! D20   D(13,3,6,10)          113.3183         estimate D2E/DX2                !
 ! D21   D(13,3,6,12)          -64.3268         estimate D2E/DX2                !
 ! D22   D(3,6,12,4)           178.5014         estimate D2E/DX2                !
 ! D23   D(10,6,12,4)            0.742          estimate D2E/DX2                !
 --------------------------------------------------------------------------------
 Trust Radius=3.00D-01 FncErr=1.00D-07 GrdErr=1.00D-07
 Number of steps in this run=     64 maximum allowed number of steps=    100.
 GradGradGradGradGradGradGradGradGradGradGradGradGradGradGradGradGradGrad

 Leave Link  103 at Sat Apr 16 14:39:47 2016, MaxMem=   33554432 cpu:       0.0
 (Enter c:\G09w01\l202.exe)
                          Input orientation:                          
 ---------------------------------------------------------------------
 Center     Atomic      Atomic             Coordinates (Angstroms)
 Number     Number       Type             X           Y           Z
 ---------------------------------------------------------------------
      1          7           0        1.414497    1.116640    0.047334
      2          1           0        2.356323    1.168061    0.353058
      3          6           0        0.669863   -0.070549    0.381617
      4          1           0       -2.457716   -0.811272    0.011476
      5          6           0        1.237415   -1.296701   -0.342834
      6          6           0       -0.776104    0.160564    0.029841
      7          1           0        2.277959   -1.421111   -0.068256
      8          1           0        0.700345   -2.196211   -0.078564
      9          1           0        1.190680   -1.147824   -1.413520
     10          8           0       -1.259681    1.210766   -0.332421
     11          1           0        0.919309    1.975737   -0.001524
     12          8           0       -1.533102   -0.943457    0.207570
     13          1           0        0.666850   -0.282207    1.453052
 ---------------------------------------------------------------------
                    Distance matrix (angstroms):
                    1          2          3          4          5
     1  N    0.000000
     2  H    0.991538   0.000000
     3  C    1.440709   2.092634   0.000000
     4  H    4.325756   5.216264   3.235340   0.000000
     5  C    2.451082   2.794865   1.533099   3.743684   0.000000
     6  C    2.390213   3.306300   1.505981   1.942324   2.513318
     7  H    2.683115   2.624397   2.147644   4.775445   1.083329
     8  H    3.391290   3.774505   2.175117   3.449567   1.080463
     9  H    2.704068   3.137331   2.157380   3.931243   1.081997
    10  O    2.702647   3.680651   2.423790   2.375330   3.538783
    11  H    0.992797   1.686143   2.096737   4.378571   3.305531
    12  O    3.599724   4.428013   2.375987   0.954378   2.846663
    13  H    2.119385   2.483462   1.092145   3.481517   2.140082
                    6          7          8          9         10
     6  C    0.000000
     7  H    3.440730   0.000000
     8  H    2.783171   1.757769   0.000000
     9  H    2.768286   1.751170   1.766820   0.000000
    10  O    1.211612   4.417177   3.938736   3.568752   0.000000
    11  H    2.484001   3.659093   4.178400   3.438606   2.332953
    12  O    1.350369   3.850769   2.576733   3.176269   2.237639
    13  H    2.074534   2.491416   2.451608   3.039889   3.021325
                   11         12         13
    11  H    0.000000
    12  O    3.818342   0.000000
    13  H    2.697747   2.613095   0.000000
 Symmetry turned off by external request.
 Stoichiometry    C3H7NO2
 Framework group  C1[X(C3H7NO2)]
 Deg. of freedom    33
 Full point group                 C1      NOp   1
 Rotational constants (GHZ):      5.0628523      3.3324087      2.1812285
 Leave Link  202 at Sat Apr 16 14:39:48 2016, MaxMem=   33554432 cpu:       0.0
 (Enter c:\G09w01\l301.exe)
 Standard basis: 6-311++G(d,p) (5D, 7F)
 Ernie: Thresh=  0.10000D-02 Tol=  0.10000D-05 Strict=F.
 Integral buffers will be    262144 words long.
 Raffenetti 1 integral format.
 Two-electron integral symmetry is turned off.
   181 basis functions,   279 primitive gaussians,   187 cartesian basis functions
    24 alpha electrons       24 beta electrons
       nuclear repulsion energy       250.4164901347 Hartrees.
 IExCor=    0 DFT=F Ex=HF Corr=None ExCW=0 ScaHFX=  1.000000
 ScaDFX=  1.000000  1.000000  1.000000  1.000000 ScalE2=  1.000000  1.000000
 IRadAn=      0 IRanWt=     -1 IRanGd=            0 ICorTp=0
 NAtoms=   13 NActive=   13 NUniq=   13 SFac= 1.00D+00 NAtFMM=   50 NAOKFM=F Big=F
 ------------------------------------------------------------------------------
 Polarizable Continuum Model (PCM)
 =================================
 Model                : C-PCM.
 Atomic radii         : UFF (Universal Force Field).
 Polarization charges : Total charges.
 Charge compensation  : None.
 Solution method      : Matrix inversion.
 Cavity type          : Scaled VdW (van der Waals Surface) (Alpha=1.100).
 Cavity algorithm     : GePol (No added spheres)
                        Default sphere list used, NSphG=   13.
                        Lebedev-Laikov grids with approx.  5.0 points / Ang**2.
                        Smoothing algorithm: Karplus/York (Gamma=1.0000).
                        Polarization charges: spherical gaussians, with
                                              point-specific exponents (IZeta= 3).
                        Self-potential: point-specific (ISelfS= 7).
                        Self-field    : sphere-specific E.n sum rule (ISelfD= 2).
 1st derivatives      : Analytical E(r).r(x)/FMM algorithm (CHGder, D1EAlg=3).
                        Cavity 1st derivative terms included.
 Solvent              : Water, Eps=  78.355300 Eps(inf)=   1.777849
 ------------------------------------------------------------------------------
 Spheres list:
 ISph  on   Nord    Re0     Alpha      Xe            Ye            Ze
    1   N      1    1.830   1.100      1.414497      1.116640      0.047334
    2   H      2    1.443   1.100      2.356323      1.168061      0.353058
    3   C      3    1.926   1.100      0.669863     -0.070549      0.381617
    4   H      4    1.443   1.100     -2.457716     -0.811272      0.011476
    5   C      5    1.926   1.100      1.237415     -1.296701     -0.342834
    6   C      6    1.926   1.100     -0.776104      0.160564      0.029841
    7   H      7    1.443   1.100      2.277959     -1.421111     -0.068256
    8   H      8    1.443   1.100      0.700345     -2.196211     -0.078564
    9   H      9    1.443   1.100      1.190680     -1.147824     -1.413520
   10   O     10    1.750   1.100     -1.259681      1.210766     -0.332421
   11   H     11    1.443   1.100      0.919309      1.975737     -0.001524
   12   O     12    1.750   1.100     -1.533102     -0.943457      0.207570
   13   H     13    1.443   1.100      0.666850     -0.282207      1.453052
 ------------------------------------------------------------------------------
 GePol: Number of generator spheres                  =      13
 GePol: Total number of spheres                      =      13
 GePol: Number of exposed spheres                    =      13 (100.00%)
 GePol: Number of points                             =    1110
 GePol: Average weight of points                     =       0.13
 GePol: Minimum weight of points                     =   0.13D-08
 GePol: Maximum weight of points                     =    0.20534
 GePol: Number of points with low weight             =      69
 GePol: Fraction of low-weight points (<1% of avg)   =       6.22%
 GePol: Cavity surface area                          =    148.688 Ang**2
 GePol: Cavity volume                                =    136.732 Ang**3
 Leave Link  301 at Sat Apr 16 14:39:48 2016, MaxMem=   33554432 cpu:       0.0
 (Enter c:\G09w01\l302.exe)
 NPDir=0 NMtPBC=     1 NCelOv=     1 NCel=       1 NClECP=     1 NCelD=      1
         NCelK=      1 NCelE2=     1 NClLst=     1 CellRange=     0.0.
 One-electron integrals computed using PRISM.
 NBasis=   181 RedAO= T  NBF=   181
 NBsUse=   181 1.00D-06 NBFU=   181
 Leave Link  302 at Sat Apr 16 14:39:48 2016, MaxMem=   33554432 cpu:       0.0
 (Enter c:\G09w01\l303.exe)
 DipDrv:  MaxL=1.
 Leave Link  303 at Sat Apr 16 14:39:48 2016, MaxMem=   33554432 cpu:       0.0
 (Enter c:\G09w01\l401.exe)
 Harris functional with IExCor=  205 diagonalized for initial guess.
 ExpMin= 3.60D-02 ExpMax= 8.59D+03 ExpMxC= 1.30D+03 IAcc=3 IRadAn=         0 AccDes= 0.00D+00
 HarFok:  IExCor=  205 AccDes= 0.00D+00 IRadAn=         0 IDoV= 1
 ScaDFX=  1.000000  1.000000  1.000000  1.000000
 FoFCou: FMM=F IPFlag=           0 FMFlag=      100000 FMFlg1=           0
         NFxFlg=           0 DoJE=T BraDBF=F KetDBF=T FulRan=T
         Omega=  0.000000  0.000000  1.000000  0.000000  0.000000 ICntrl=     500 IOpCl=  0
         NMat0=    1 NMatS0=    1 NMatT0=    0 NMatD0=    1 NMtDS0=    0 NMtDT0=    0
         I1Cent=           4 NGrid=           0.
 Symmetry not used in FoFCou.
 Harris En= -322.339227043558    
 Leave Link  401 at Sat Apr 16 14:39:53 2016, MaxMem=   33554432 cpu:       4.0
 (Enter c:\G09w01\l502.exe)
 Closed shell SCF:
 Requested convergence on RMS density matrix=1.00D-08 within 128 cycles.
 Requested convergence on MAX density matrix=1.00D-06.
 Requested convergence on             energy=1.00D-06.
 No special actions if energy rises.
 Using DIIS extrapolation, IDIIS=  1040.
 Two-electron integral symmetry not used.
 IEnd=      125206 IEndB=      125206 NGot=    33554432 MDV=    33481023
 LenX=    33481023 LenY=    33445613
 Fock matrices will be formed incrementally for  20 cycles.

 Cycle   1  Pass 1  IDiag  1:
 FoFCou: FMM=F IPFlag=           0 FMFlag=      100000 FMFlg1=           0
         NFxFlg=           0 DoJE=F BraDBF=F KetDBF=F FulRan=T
         Omega=  0.000000  0.000000  1.000000  0.000000  0.000000 ICntrl=       0 IOpCl=  0
         NMat0=    1 NMatS0=    1 NMatT0=    0 NMatD0=    1 NMtDS0=    0 NMtDT0=    0
         I1Cent=           0 NGrid=           0.
 Symmetry not used in FoFCou.
 E= -321.680670453525    
 DIIS: error= 3.96D-02 at cycle   1 NSaved=   1.
 NSaved= 1 IEnMin= 1 EnMin= -321.680670453525     IErMin= 1 ErrMin= 3.96D-02
 ErrMax= 3.96D-02 EMaxC= 1.00D-01 BMatC= 6.73D-01 BMatP= 6.73D-01
 IDIUse=3 WtCom= 6.04D-01 WtEn= 3.96D-01
 Coeff-Com:  0.100D+01
 Coeff-En:   0.100D+01
 Coeff:      0.100D+01
 Gap=     0.466 Goal=   None    Shift=    0.000
 GapD=    0.466 DampG=2.000 DampE=0.500 DampFc=1.0000 IDamp=-1.
 RMSDP=3.65D-03 MaxDP=1.03D-01              OVMax= 1.35D-01

 Cycle   2  Pass 1  IDiag  1:
 RMSU=  2.48D-03    CP:  9.37D-01
 E= -321.911142248040     Delta-E=       -0.230471794515 Rises=F Damp=F
 DIIS: error= 1.52D-02 at cycle   2 NSaved=   2.
 NSaved= 2 IEnMin= 2 EnMin= -321.911142248040     IErMin= 2 ErrMin= 1.52D-02
 ErrMax= 1.52D-02 EMaxC= 1.00D-01 BMatC= 8.23D-02 BMatP= 6.73D-01
 IDIUse=3 WtCom= 8.48D-01 WtEn= 1.52D-01
 Coeff-Com:  0.197D+00 0.803D+00
 Coeff-En:   0.000D+00 0.100D+01
 Coeff:      0.167D+00 0.833D+00
 Gap=     0.459 Goal=   None    Shift=    0.000
 RMSDP=1.77D-03 MaxDP=6.36D-02 DE=-2.30D-01 OVMax= 6.08D-02

 Cycle   3  Pass 1  IDiag  1:
 RMSU=  1.11D-03    CP:  9.19D-01  7.84D-01
 E= -321.966239562251     Delta-E=       -0.055097314211 Rises=F Damp=F
 DIIS: error= 5.89D-03 at cycle   3 NSaved=   3.
 NSaved= 3 IEnMin= 3 EnMin= -321.966239562251     IErMin= 3 ErrMin= 5.89D-03
 ErrMax= 5.89D-03 EMaxC= 1.00D-01 BMatC= 9.30D-03 BMatP= 8.23D-02
 IDIUse=3 WtCom= 9.41D-01 WtEn= 5.89D-02
 Coeff-Com: -0.197D-01 0.222D+00 0.798D+00
 Coeff-En:   0.000D+00 0.000D+00 0.100D+01
 Coeff:     -0.185D-01 0.209D+00 0.810D+00
 Gap=     0.428 Goal=   None    Shift=    0.000
 RMSDP=4.99D-04 MaxDP=3.25D-02 DE=-5.51D-02 OVMax= 2.01D-02

 Cycle   4  Pass 1  IDiag  1:
 RMSU=  2.72D-04    CP:  9.25D-01  8.59D-01  9.10D-01
 E= -321.972484087536     Delta-E=       -0.006244525284 Rises=F Damp=F
 DIIS: error= 1.54D-03 at cycle   4 NSaved=   4.
 NSaved= 4 IEnMin= 4 EnMin= -321.972484087536     IErMin= 4 ErrMin= 1.54D-03
 ErrMax= 1.54D-03 EMaxC= 1.00D-01 BMatC= 3.08D-04 BMatP= 9.30D-03
 IDIUse=3 WtCom= 9.85D-01 WtEn= 1.54D-02
 Coeff-Com: -0.896D-02 0.444D-01 0.235D+00 0.730D+00
 Coeff-En:   0.000D+00 0.000D+00 0.000D+00 0.100D+01
 Coeff:     -0.882D-02 0.437D-01 0.231D+00 0.734D+00
 Gap=     0.426 Goal=   None    Shift=    0.000
 RMSDP=1.52D-04 MaxDP=8.39D-03 DE=-6.24D-03 OVMax= 4.21D-03

 Cycle   5  Pass 1  IDiag  1:
 RMSU=  7.27D-05    CP:  9.22D-01  8.63D-01  9.69D-01  9.27D-01
 E= -321.972760360496     Delta-E=       -0.000276272960 Rises=F Damp=F
 DIIS: error= 4.24D-04 at cycle   5 NSaved=   5.
 NSaved= 5 IEnMin= 5 EnMin= -321.972760360496     IErMin= 5 ErrMin= 4.24D-04
 ErrMax= 4.24D-04 EMaxC= 1.00D-01 BMatC= 2.57D-05 BMatP= 3.08D-04
 IDIUse=3 WtCom= 9.96D-01 WtEn= 4.24D-03
 Coeff-Com:  0.174D-02-0.236D-01-0.875D-01 0.500D-01 0.106D+01
 Coeff-En:   0.000D+00 0.000D+00 0.000D+00 0.000D+00 0.100D+01
 Coeff:      0.174D-02-0.235D-01-0.871D-01 0.498D-01 0.106D+01
 Gap=     0.427 Goal=   None    Shift=    0.000
 RMSDP=7.79D-05 MaxDP=3.01D-03 DE=-2.76D-04 OVMax= 3.22D-03

 Cycle   6  Pass 1  IDiag  1:
 RMSU=  1.94D-05    CP:  9.22D-01  8.66D-01  9.91D-01  1.08D+00  1.24D+00
 E= -321.972806166845     Delta-E=       -0.000045806349 Rises=F Damp=F
 DIIS: error= 1.68D-04 at cycle   6 NSaved=   6.
 NSaved= 6 IEnMin= 6 EnMin= -321.972806166845     IErMin= 6 ErrMin= 1.68D-04
 ErrMax= 1.68D-04 EMaxC= 1.00D-01 BMatC= 3.24D-06 BMatP= 2.57D-05
 IDIUse=3 WtCom= 9.98D-01 WtEn= 1.68D-03
 Coeff-Com:  0.122D-02-0.101D-01-0.427D-01-0.621D-01 0.245D+00 0.868D+00
 Coeff-En:   0.000D+00 0.000D+00 0.000D+00 0.000D+00 0.000D+00 0.100D+01
 Coeff:      0.122D-02-0.101D-01-0.426D-01-0.620D-01 0.245D+00 0.869D+00
 Gap=     0.427 Goal=   None    Shift=    0.000
 RMSDP=2.38D-05 MaxDP=7.90D-04 DE=-4.58D-05 OVMax= 7.41D-04

 Cycle   7  Pass 1  IDiag  1:
 RMSU=  6.86D-06    CP:  9.22D-01  8.66D-01  9.99D-01  1.11D+00  1.37D+00
                    CP:  1.11D+00
 E= -321.972811390179     Delta-E=       -0.000005223334 Rises=F Damp=F
 DIIS: error= 5.60D-05 at cycle   7 NSaved=   7.
 NSaved= 7 IEnMin= 7 EnMin= -321.972811390179     IErMin= 7 ErrMin= 5.60D-05
 ErrMax= 5.60D-05 EMaxC= 1.00D-01 BMatC= 2.96D-07 BMatP= 3.24D-06
 IDIUse=1 WtCom= 1.00D+00 WtEn= 0.00D+00
 Coeff-Com: -0.173D-03 0.267D-02 0.110D-01-0.119D-01-0.114D+00-0.275D-01
 Coeff-Com:  0.114D+01
 Coeff:     -0.173D-03 0.267D-02 0.110D-01-0.119D-01-0.114D+00-0.275D-01
 Coeff:      0.114D+01
 Gap=     0.427 Goal=   None    Shift=    0.000
 RMSDP=9.76D-06 MaxDP=3.61D-04 DE=-5.22D-06 OVMax= 5.80D-04

 Cycle   8  Pass 1  IDiag  1:
 RMSU=  2.84D-06    CP:  9.22D-01  8.66D-01  1.00D+00  1.11D+00  1.43D+00
                    CP:  1.23D+00  1.40D+00
 E= -321.972812242088     Delta-E=       -0.000000851909 Rises=F Damp=F
 DIIS: error= 1.66D-05 at cycle   8 NSaved=   8.
 NSaved= 8 IEnMin= 8 EnMin= -321.972812242088     IErMin= 8 ErrMin= 1.66D-05
 ErrMax= 1.66D-05 EMaxC= 1.00D-01 BMatC= 4.31D-08 BMatP= 2.96D-07
 IDIUse=1 WtCom= 1.00D+00 WtEn= 0.00D+00
 Coeff-Com: -0.124D-03 0.990D-03 0.419D-02 0.427D-02-0.126D-01-0.993D-01
 Coeff-Com: -0.618D-01 0.116D+01
 Coeff:     -0.124D-03 0.990D-03 0.419D-02 0.427D-02-0.126D-01-0.993D-01
 Coeff:     -0.618D-01 0.116D+01
 Gap=     0.427 Goal=   None    Shift=    0.000
 RMSDP=3.90D-06 MaxDP=2.04D-04 DE=-8.52D-07 OVMax= 2.22D-04

 Cycle   9  Pass 1  IDiag  1:
 RMSU=  8.64D-07    CP:  9.22D-01  8.66D-01  1.00D+00  1.10D+00  1.45D+00
                    CP:  1.25D+00  1.60D+00  1.39D+00
 E= -321.972812361651     Delta-E=       -0.000000119563 Rises=F Damp=F
 DIIS: error= 5.77D-06 at cycle   9 NSaved=   9.
 NSaved= 9 IEnMin= 9 EnMin= -321.972812361651     IErMin= 9 ErrMin= 5.77D-06
 ErrMax= 5.77D-06 EMaxC= 1.00D-01 BMatC= 6.19D-09 BMatP= 4.31D-08
 IDIUse=1 WtCom= 1.00D+00 WtEn= 0.00D+00
 Coeff-Com:  0.931D-05-0.257D-03-0.103D-02 0.125D-02 0.170D-01-0.938D-02
 Coeff-Com: -0.160D+00 0.101D+00 0.105D+01
 Coeff:      0.931D-05-0.257D-03-0.103D-02 0.125D-02 0.170D-01-0.938D-02
 Coeff:     -0.160D+00 0.101D+00 0.105D+01
 Gap=     0.427 Goal=   None    Shift=    0.000
 RMSDP=1.40D-06 MaxDP=8.40D-05 DE=-1.20D-07 OVMax= 8.57D-05

 Cycle  10  Pass 1  IDiag  1:
 RMSU=  3.45D-07    CP:  9.22D-01  8.66D-01  1.00D+00  1.10D+00  1.46D+00
                    CP:  1.25D+00  1.64D+00  1.54D+00  1.46D+00
 E= -321.972812378275     Delta-E=       -0.000000016625 Rises=F Damp=F
 DIIS: error= 1.89D-06 at cycle  10 NSaved=  10.
 NSaved=10 IEnMin=10 EnMin= -321.972812378275     IErMin=10 ErrMin= 1.89D-06
 ErrMax= 1.89D-06 EMaxC= 1.00D-01 BMatC= 7.75D-10 BMatP= 6.19D-09
 IDIUse=1 WtCom= 1.00D+00 WtEn= 0.00D+00
 Coeff-Com:  0.161D-04-0.144D-03-0.554D-03-0.948D-03 0.239D-02 0.124D-01
 Coeff-Com:  0.114D-01-0.170D+00 0.208D-01 0.112D+01
 Coeff:      0.161D-04-0.144D-03-0.554D-03-0.948D-03 0.239D-02 0.124D-01
 Coeff:      0.114D-01-0.170D+00 0.208D-01 0.112D+01
 Gap=     0.427 Goal=   None    Shift=    0.000
 RMSDP=4.97D-07 MaxDP=1.76D-05 DE=-1.66D-08 OVMax= 2.83D-05

 Cycle  11  Pass 1  IDiag  1:
 RMSU=  1.17D-07    CP:  9.22D-01  8.66D-01  1.00D+00  1.10D+00  1.46D+00
                    CP:  1.25D+00  1.64D+00  1.57D+00  1.73D+00  1.44D+00
 E= -321.972812380284     Delta-E=       -0.000000002009 Rises=F Damp=F
 DIIS: error= 7.06D-07 at cycle  11 NSaved=  11.
 NSaved=11 IEnMin=11 EnMin= -321.972812380284     IErMin=11 ErrMin= 7.06D-07
 ErrMax= 7.06D-07 EMaxC= 1.00D-01 BMatC= 7.68D-11 BMatP= 7.75D-10
 IDIUse=1 WtCom= 1.00D+00 WtEn= 0.00D+00
 Coeff-Com:  0.170D-05 0.754D-07 0.271D-04-0.294D-03-0.106D-02 0.229D-02
 Coeff-Com:  0.166D-01-0.282D-01-0.105D+00 0.115D+00 0.100D+01
 Coeff:      0.170D-05 0.754D-07 0.271D-04-0.294D-03-0.106D-02 0.229D-02
 Coeff:      0.166D-01-0.282D-01-0.105D+00 0.115D+00 0.100D+01
 Gap=     0.427 Goal=   None    Shift=    0.000
 RMSDP=1.35D-07 MaxDP=3.77D-06 DE=-2.01D-09 OVMax= 6.22D-06

 Cycle  12  Pass 1  IDiag  1:
 RMSU=  3.27D-08    CP:  9.22D-01  8.66D-01  1.00D+00  1.10D+00  1.46D+00
                    CP:  1.25D+00  1.64D+00  1.57D+00  1.80D+00  1.59D+00
                    CP:  1.26D+00
 E= -321.972812380440     Delta-E=       -0.000000000156 Rises=F Damp=F
 DIIS: error= 2.05D-07 at cycle  12 NSaved=  12.
 NSaved=12 IEnMin=12 EnMin= -321.972812380440     IErMin=12 ErrMin= 2.05D-07
 ErrMax= 2.05D-07 EMaxC= 1.00D-01 BMatC= 6.18D-12 BMatP= 7.68D-11
 IDIUse=1 WtCom= 1.00D+00 WtEn= 0.00D+00
 Coeff-Com: -0.153D-05 0.145D-04 0.625D-04 0.592D-04-0.286D-03-0.123D-02
 Coeff-Com: -0.455D-03 0.183D-01-0.889D-02-0.116D+00 0.339D-01 0.107D+01
 Coeff:     -0.153D-05 0.145D-04 0.625D-04 0.592D-04-0.286D-03-0.123D-02
 Coeff:     -0.455D-03 0.183D-01-0.889D-02-0.116D+00 0.339D-01 0.107D+01
 Gap=     0.427 Goal=   None    Shift=    0.000
 RMSDP=4.36D-08 MaxDP=1.83D-06 DE=-1.56D-10 OVMax= 1.50D-06

 Cycle  13  Pass 1  IDiag  1:
 RMSU=  1.32D-08    CP:  9.22D-01  8.66D-01  1.00D+00  1.10D+00  1.46D+00
                    CP:  1.25D+00  1.64D+00  1.57D+00  1.80D+00  1.64D+00
                    CP:  1.40D+00  1.18D+00
 E= -321.972812380452     Delta-E=       -0.000000000012 Rises=F Damp=F
 DIIS: error= 5.52D-08 at cycle  13 NSaved=  13.
 NSaved=13 IEnMin=13 EnMin= -321.972812380452     IErMin=13 ErrMin= 5.52D-08
 ErrMax= 5.52D-08 EMaxC= 1.00D-01 BMatC= 3.95D-13 BMatP= 6.18D-12
 IDIUse=1 WtCom= 1.00D+00 WtEn= 0.00D+00
 Coeff-Com:  0.104D-06-0.234D-05-0.118D-04 0.849D-05 0.143D-03 0.216D-04
 Coeff-Com: -0.143D-02-0.151D-03 0.971D-02 0.645D-02-0.926D-01-0.113D+00
 Coeff-Com:  0.119D+01
 Coeff:      0.104D-06-0.234D-05-0.118D-04 0.849D-05 0.143D-03 0.216D-04
 Coeff:     -0.143D-02-0.151D-03 0.971D-02 0.645D-02-0.926D-01-0.113D+00
 Coeff:      0.119D+01
 Gap=     0.427 Goal=   None    Shift=    0.000
 RMSDP=1.25D-08 MaxDP=3.54D-07 DE=-1.22D-11 OVMax= 3.95D-07

 Cycle  14  Pass 1  IDiag  1:
 RMSU=  3.37D-09    CP:  9.22D-01  8.66D-01  1.00D+00  1.10D+00  1.46D+00
                    CP:  1.25D+00  1.64D+00  1.57D+00  1.80D+00  1.63D+00
                    CP:  1.42D+00  1.27D+00  1.40D+00
 E= -321.972812380458     Delta-E=       -0.000000000006 Rises=F Damp=F
 DIIS: error= 1.12D-08 at cycle  14 NSaved=  14.
 NSaved=14 IEnMin=14 EnMin= -321.972812380458     IErMin=14 ErrMin= 1.12D-08
 ErrMax= 1.12D-08 EMaxC= 1.00D-01 BMatC= 1.88D-14 BMatP= 3.95D-13
 IDIUse=1 WtCom= 1.00D+00 WtEn= 0.00D+00
 Coeff-Com:  0.635D-07-0.457D-06-0.146D-05-0.544D-05-0.603D-05 0.691D-04
 Coeff-Com:  0.248D-03-0.102D-02-0.918D-03 0.543D-02 0.114D-01-0.433D-01
 Coeff-Com: -0.185D+00 0.121D+01
 Coeff:      0.635D-07-0.457D-06-0.146D-05-0.544D-05-0.603D-05 0.691D-04
 Coeff:      0.248D-03-0.102D-02-0.918D-03 0.543D-02 0.114D-01-0.433D-01
 Coeff:     -0.185D+00 0.121D+01
 Gap=     0.427 Goal=   None    Shift=    0.000
 RMSDP=3.53D-09 MaxDP=7.77D-08 DE=-5.91D-12 OVMax= 9.40D-08

 Error on total polarization charges =  0.00911
 SCF Done:  E(RHF) =  -321.972812380     A.U. after   14 cycles
             Convg  =    0.3526D-08             -V/T =  2.0009
 KE= 3.216911684299D+02 PE=-1.257926136057D+03 EE= 3.638456651121D+02
 Leave Link  502 at Sat Apr 16 14:42:29 2016, MaxMem=   33554432 cpu:     156.0
 (Enter c:\G09w01\l601.exe)
 Copying SCF densities to generalized density rwf, IOpCl= 0 IROHF=0.

 **********************************************************************

            Population analysis using the SCF density.

 **********************************************************************

 Alpha  occ. eigenvalues --  -20.61429 -20.56266 -15.53753 -11.40092 -11.28388
 Alpha  occ. eigenvalues --  -11.22045  -1.47481  -1.37316  -1.19963  -1.02522
 Alpha  occ. eigenvalues --   -0.91639  -0.81319  -0.72577  -0.71634  -0.66696
 Alpha  occ. eigenvalues --   -0.64083  -0.62170  -0.59048  -0.54882  -0.54425
 Alpha  occ. eigenvalues --   -0.52651  -0.49339  -0.46131  -0.38331
 Alpha virt. eigenvalues --    0.04397   0.05838   0.06138   0.06732   0.08516
 Alpha virt. eigenvalues --    0.09129   0.09625   0.12436   0.13382   0.15068
 Alpha virt. eigenvalues --    0.15514   0.15763   0.17243   0.17546   0.18770
 Alpha virt. eigenvalues --    0.19848   0.20181   0.20795   0.20963   0.23743
 Alpha virt. eigenvalues --    0.25747   0.26919   0.28638   0.28956   0.30094
 Alpha virt. eigenvalues --    0.32414   0.33247   0.34252   0.34360   0.36959
 Alpha virt. eigenvalues --    0.37557   0.37979   0.38536   0.39380   0.40881
 Alpha virt. eigenvalues --    0.42274   0.44246   0.44876   0.45545   0.48713
 Alpha virt. eigenvalues --    0.49718   0.52849   0.55669   0.59258   0.62249
 Alpha virt. eigenvalues --    0.67519   0.68313   0.73556   0.74986   0.76866
 Alpha virt. eigenvalues --    0.79556   0.83083   0.84823   0.86360   0.88465
 Alpha virt. eigenvalues --    0.88822   0.90901   0.92046   0.95133   0.96351
 Alpha virt. eigenvalues --    1.04339   1.06042   1.07762   1.09505   1.14677
 Alpha virt. eigenvalues --    1.20853   1.24724   1.32131   1.32919   1.39182
 Alpha virt. eigenvalues --    1.40800   1.41494   1.43031   1.45512   1.47850
 Alpha virt. eigenvalues --    1.53445   1.55576   1.59011   1.70018   1.71913
 Alpha virt. eigenvalues --    1.73153   1.75417   1.80055   1.82518   1.83450
 Alpha virt. eigenvalues --    1.84966   1.87596   1.89109   1.92792   1.95254
 Alpha virt. eigenvalues --    1.97419   2.00899   2.02815   2.10259   2.11742
 Alpha virt. eigenvalues --    2.17914   2.21196   2.27808   2.27974   2.32280
 Alpha virt. eigenvalues --    2.40668   2.42816   2.43740   2.47793   2.59472
 Alpha virt. eigenvalues --    2.66152   2.67682   2.81566   2.83705   2.84112
 Alpha virt. eigenvalues --    2.85981   2.89517   2.92350   2.95529   2.99254
 Alpha virt. eigenvalues --    3.01783   3.03464   3.07277   3.12868   3.14848
 Alpha virt. eigenvalues --    3.20541   3.23246   3.26428   3.30801   3.37700
 Alpha virt. eigenvalues --    3.42725   3.45358   3.49068   3.51786   3.57628
 Alpha virt. eigenvalues --    3.69245   3.70604   3.76523   3.99819   4.01449
 Alpha virt. eigenvalues --    4.11135   4.22661   4.23901   4.30333   4.38331
 Alpha virt. eigenvalues --    4.48758   4.52960   4.72497   5.34117   5.42529
 Alpha virt. eigenvalues --    5.53209   5.61448   5.74013   5.92026   6.19561
 Alpha virt. eigenvalues --    6.42992  24.92957  24.98315  25.15592  37.08691
 Alpha virt. eigenvalues --   51.57145  51.70789
          Condensed to atoms (all electrons):
              1          2          3          4          5          6
     1  N    6.840936   0.397982   0.059718   0.000529  -0.110139  -0.024738
     2  H    0.397982   0.373316  -0.061159   0.000133  -0.003554   0.024445
     3  C    0.059718  -0.061159   6.886126  -0.033020  -0.171698  -0.509068
     4  H    0.000529   0.000133  -0.033020   0.370775   0.000360   0.007414
     5  C   -0.110139  -0.003554  -0.171698   0.000360   5.529322   0.090915
     6  C   -0.024738   0.024445  -0.509068   0.007414   0.090915   5.364765
     7  H   -0.017247  -0.003404   0.018521  -0.000852   0.384591  -0.021686
     8  H    0.020312  -0.001083  -0.060014  -0.001280   0.418508   0.001038
     9  H   -0.009186   0.002016   0.005976   0.001009   0.393658  -0.023034
    10  O    0.015307   0.005010  -0.130013  -0.007600   0.001208   0.510468
    11  H    0.405795  -0.021015  -0.050648   0.000135   0.005842   0.006201
    12  O    0.012688   0.001324  -0.214690   0.305347  -0.008145   0.310050
    13  H   -0.063842   0.002841   0.483701   0.002632  -0.100256  -0.064634
              7          8          9         10         11         12
     1  N   -0.017247   0.020312  -0.009186   0.015307   0.405795   0.012688
     2  H   -0.003404  -0.001083   0.002016   0.005010  -0.021015   0.001324
     3  C    0.018521  -0.060014   0.005976  -0.130013  -0.050648  -0.214690
     4  H   -0.000852  -0.001280   0.001009  -0.007600   0.000135   0.305347
     5  C    0.384591   0.418508   0.393658   0.001208   0.005842  -0.008145
     6  C   -0.021686   0.001038  -0.023034   0.510468   0.006201   0.310050
     7  H    0.556156  -0.027745  -0.037129  -0.000886   0.001560   0.000432
     8  H   -0.027745   0.537962  -0.032973   0.001923   0.000139   0.003907
     9  H   -0.037129  -0.032973   0.528869  -0.002633  -0.001164  -0.006025
    10  O   -0.000886   0.001923  -0.002633   8.195738  -0.001503  -0.119178
    11  H    0.001560   0.000139  -0.001164  -0.001503   0.372280  -0.001167
    12  O    0.000432   0.003907  -0.006025  -0.119178  -0.001167   8.023814
    13  H   -0.000389  -0.001986   0.002334  -0.007359  -0.001915  -0.005484
             13
     1  N   -0.063842
     2  H    0.002841
     3  C    0.483701
     4  H    0.002632
     5  C   -0.100256
     6  C   -0.064634
     7  H   -0.000389
     8  H   -0.001986
     9  H    0.002334
    10  O   -0.007359
    11  H   -0.001915
    12  O   -0.005484
    13  H    0.527091
 Mulliken atomic charges:
              1
     1  N   -0.528115
     2  H    0.283148
     3  C   -0.223731
     4  H    0.354419
     5  C   -0.430612
     6  C    0.327865
     7  H    0.148077
     8  H    0.141292
     9  H    0.178284
    10  O   -0.460479
    11  H    0.285460
    12  O   -0.302873
    13  H    0.227265
 Sum of Mulliken atomic charges =   0.00000
 Mulliken charges with hydrogens summed into heavy atoms:
              1
     1  N    0.040493
     3  C    0.003534
     5  C    0.037041
     6  C    0.327865
    10  O   -0.460479
    12  O    0.051547
 Sum of Mulliken charges with hydrogens summed into heavy atoms =   0.00000
 Electronic spatial extent (au):  <R**2>=            579.6678
 Charge=              0.0000 electrons
 Dipole moment (field-independent basis, Debye):
    X=              0.8827    Y=             -2.0878    Z=              1.7009  Tot=              2.8339
 Quadrupole moment (field-independent basis, Debye-Ang):
   XX=            -29.8985   YY=            -39.5826   ZZ=            -37.4255
   XY=              4.2392   XZ=              1.8268   YZ=              2.6344
 Traceless Quadrupole moment (field-independent basis, Debye-Ang):
   XX=              5.7370   YY=             -3.9471   ZZ=             -1.7900
   XY=              4.2392   XZ=              1.8268   YZ=              2.6344
 Octapole moment (field-independent basis, Debye-Ang**2):
  XXX=            -16.0686  YYY=              3.8157  ZZZ=              1.8392  XYY=              6.0262
  XXY=             -8.2954  XXZ=              5.6532  XZZ=             -3.2678  YZZ=             -1.5810
  YYZ=              1.9605  XYZ=             -0.9284
 Hexadecapole moment (field-independent basis, Debye-Ang**3):
 XXXX=           -289.4642 YYYY=           -259.7859 ZZZZ=            -66.1614 XXXY=             41.1265
 XXXZ=             13.1208 YYYX=             18.5495 YYYZ=              0.5591 ZZZX=              2.6571
 ZZZY=              0.4433 XXYY=           -109.7151 XXZZ=            -80.1714 YYZZ=            -60.9999
 XXYZ=              7.5395 YYXZ=              1.3882 ZZXY=             -0.6356
 N-N= 2.504164901347D+02 E-N=-1.257926135728D+03  KE= 3.216911684299D+02
 No NMR shielding tensors so no spin-rotation constants.
 Leave Link  601 at Sat Apr 16 14:42:30 2016, MaxMem=   33554432 cpu:       0.0
 (Enter c:\G09w01\l701.exe)
 Compute integral first derivatives.
 ... and contract with generalized density number  0.
 D1PCM: C-PCM CHGder 1st derivatives, ID1Alg=3 FixD1E=F DoIter=F DoCFld=F I1PDM=0.
 GePol: Maximum number of non-zero 1st derivatives   =     200
 Leave Link  701 at Sat Apr 16 14:42:35 2016, MaxMem=   33554432 cpu:       5.0
 (Enter c:\G09w01\l702.exe)
 L702 exits ... SP integral derivatives will be done elsewhere.
 Leave Link  702 at Sat Apr 16 14:42:36 2016, MaxMem=   33554432 cpu:       0.0
 (Enter c:\G09w01\l703.exe)
 Compute integral first derivatives, UseDBF=F ICtDFT=           0.
 Integral derivatives from FoFDir, PRISM(SPDF).
 Calling FoFJK, ICntrl=      2127 FMM=F ISym2X=0 I1Cent= 0 IOpClX= 0 NMat=1 NMatS=1 NMatT=0.
 FoFCou: FMM=F IPFlag=           0 FMFlag=      100000 FMFlg1=         800
         NFxFlg=           0 DoJE=F BraDBF=F KetDBF=F FulRan=T
         Omega=  0.000000  0.000000  1.000000  0.000000  0.000000 ICntrl=    2127 IOpCl=  0
         NMat0=    1 NMatS0=    1 NMatT0=    0 NMatD0=    1 NMtDS0=    0 NMtDT0=    0
         I1Cent=           0 NGrid=           0.
 Symmetry not used in FoFCou.
 Leave Link  703 at Sat Apr 16 14:43:12 2016, MaxMem=   33554432 cpu:      36.0
 (Enter c:\G09w01\l716.exe)
 Dipole        = 3.47278124D-01-8.21392370D-01 6.69202179D-01
 -------------------------------------------------------------------
 Center     Atomic                   Forces (Hartrees/Bohr)
 Number     Number              X              Y              Z
 -------------------------------------------------------------------
      1        7          -0.000317079   -0.004906953   -0.015430124
      2        1          -0.000718543    0.000949421    0.006132910
      3        6           0.004882673    0.003376704    0.000994553
      4        1           0.010195020    0.006739935    0.000128581
      5        6           0.000106860    0.002062332    0.001151107
      6        6          -0.045411069    0.014592052   -0.008514781
      7        1           0.000701238    0.000129570    0.000898579
      8        1          -0.000359578   -0.001282473    0.000507090
      9        1          -0.000608667   -0.000611992   -0.002320889
     10        8           0.018946105   -0.036683969    0.011683491
     11        1           0.000484051    0.000214753    0.007482679
     12        8           0.013185704    0.014769047   -0.002299790
     13        1          -0.001086714    0.000651571   -0.000413406
 -------------------------------------------------------------------
 Cartesian Forces:  Max     0.045411069 RMS     0.011486972
 Leave Link  716 at Sat Apr 16 14:43:12 2016, MaxMem=   33554432 cpu:       0.0
 (Enter c:\G09w01\l103.exe)

 GradGradGradGradGradGradGradGradGradGradGradGradGradGradGradGradGradGrad
 Berny optimization.
 Internal  Forces:  Max     0.042850840 RMS     0.007755947
 Search for a local minimum.
 Step number   1 out of a maximum of   64
 All quantities printed in internal units (Hartrees-Bohrs-Radians)
 RMS Force = .77559D-02 SwitMx=.10000D-02 MixMth= 1
 Mixed Optimization -- RFO/linear search
 Second derivative matrix not updated -- first step.
 ITU=  0
     Eigenvalues ---    0.00328   0.00687   0.01077   0.01153   0.02014
     Eigenvalues ---    0.02348   0.04666   0.05129   0.05492   0.05792
     Eigenvalues ---    0.06718   0.16000   0.16000   0.16000   0.16000
     Eigenvalues ---    0.16000   0.16000   0.17545   0.18169   0.24988
     Eigenvalues ---    0.25000   0.29139   0.31758   0.34566   0.35595
     Eigenvalues ---    0.35754   0.35938   0.39488   0.48977   0.49208
     Eigenvalues ---    0.54943   0.56700   0.99198
 RFO step:  Lambda=-8.58902742D-03 EMin= 3.28108070D-03
 Linear search not attempted -- first point.
 Iteration  1 RMS(Cart)=  0.04750555 RMS(Int)=  0.00444453
 Iteration  2 RMS(Cart)=  0.00347828 RMS(Int)=  0.00297967
 Iteration  3 RMS(Cart)=  0.00003062 RMS(Int)=  0.00297955
 Iteration  4 RMS(Cart)=  0.00000043 RMS(Int)=  0.00297955
 Variable       Old X    -DE/DX   Delta X   Delta X   Delta X     New X
                                 (Linear)    (Quad)   (Total)
    R1        1.87374   0.00126   0.00000   0.00251   0.00251   1.87625
    R2        2.72255  -0.00295   0.00000  -0.00730  -0.00730   2.71524
    R3        1.87611  -0.00043   0.00000  -0.00085  -0.00085   1.87526
    R4        2.89714  -0.00041   0.00000  -0.00136  -0.00136   2.89578
    R5        2.84589   0.00264   0.00000   0.00809   0.00809   2.85398
    R6        2.06386  -0.00053   0.00000  -0.00149  -0.00149   2.06236
    R7        1.80351  -0.00897   0.00000  -0.01558  -0.01558   1.78793
    R8        2.04720   0.00088   0.00000   0.00243   0.00243   2.04962
    R9        2.04178   0.00137   0.00000   0.00373   0.00373   2.04551
   R10        2.04468   0.00224   0.00000   0.00611   0.00611   2.05079
   R11        2.28962  -0.04285   0.00000  -0.04283  -0.04283   2.24679
   R12        2.55183  -0.03098   0.00000  -0.05552  -0.05552   2.49631
    A1        2.05119  -0.00292   0.00000  -0.05295  -0.06301   1.98819
    A2        2.03093   0.00053   0.00000  -0.03900  -0.05366   1.97728
    A3        2.05633  -0.00190   0.00000  -0.04689  -0.05689   1.99945
    A4        1.93699  -0.00010   0.00000   0.00478   0.00467   1.94167
    A5        1.89188   0.00148   0.00000   0.01381   0.01375   1.90564
    A6        1.97007  -0.00076   0.00000  -0.01039  -0.01034   1.95973
    A7        1.94744  -0.00022   0.00000   0.00393   0.00381   1.95126
    A8        1.88557   0.00039   0.00000  -0.00154  -0.00152   1.88405
    A9        1.82994  -0.00084   0.00000  -0.01152  -0.01147   1.81846
   A10        1.90462  -0.00101   0.00000  -0.00637  -0.00638   1.89824
   A11        1.94577   0.00004   0.00000  -0.00118  -0.00119   1.94458
   A12        1.91938   0.00115   0.00000   0.00860   0.00860   1.92798
   A13        1.89636   0.00004   0.00000  -0.00319  -0.00322   1.89314
   A14        1.88399   0.00034   0.00000   0.00501   0.00502   1.88901
   A15        1.91252  -0.00058   0.00000  -0.00283  -0.00283   1.90969
   A16        2.19700  -0.00144   0.00000  -0.00524  -0.00539   2.19161
   A17        1.96279  -0.00119   0.00000  -0.00424  -0.00439   1.95841
   A18        2.12265   0.00265   0.00000   0.01061   0.01047   2.13312
   A19        1.98540  -0.01497   0.00000  -0.08881  -0.08881   1.89659
    D1       -1.16095  -0.00306   0.00000  -0.10162  -0.09834  -1.25929
    D2        2.97780  -0.00372   0.00000  -0.11888  -0.11567   2.86213
    D3        0.95870  -0.00318   0.00000  -0.10748  -0.10422   0.85448
    D4        2.55201   0.00442   0.00000   0.15902   0.15581   2.70782
    D5        0.40757   0.00377   0.00000   0.14177   0.13848   0.54605
    D6       -1.61153   0.00431   0.00000   0.15317   0.14992  -1.46160
    D7        1.02182  -0.00062   0.00000  -0.02003  -0.02004   1.00177
    D8        3.11657  -0.00120   0.00000  -0.02891  -0.02891   3.08765
    D9       -1.04167  -0.00111   0.00000  -0.02737  -0.02737  -1.06905
   D10        3.13382   0.00105   0.00000   0.00358   0.00357   3.13740
   D11       -1.05461   0.00047   0.00000  -0.00530  -0.00530  -1.05991
   D12        1.07033   0.00056   0.00000  -0.00376  -0.00376   1.06658
   D13       -1.14667   0.00014   0.00000  -0.00906  -0.00907  -1.15575
   D14        0.94808  -0.00044   0.00000  -0.01795  -0.01794   0.93014
   D15        3.07302  -0.00035   0.00000  -0.01641  -0.01640   3.05662
   D16       -0.13054   0.00109   0.00000   0.04657   0.04657  -0.08397
   D17        3.05215   0.00046   0.00000   0.01507   0.01515   3.06730
   D18       -2.26863   0.00035   0.00000   0.02863   0.02857  -2.24007
   D19        0.91406  -0.00028   0.00000  -0.00287  -0.00286   0.91120
   D20        1.97778   0.00049   0.00000   0.03514   0.03509   2.01287
   D21       -1.12271  -0.00015   0.00000   0.00364   0.00366  -1.11905
   D22        3.11544   0.00005   0.00000   0.00845   0.00857   3.12400
   D23        0.01295  -0.00045   0.00000  -0.02112  -0.02124  -0.00829
         Item               Value     Threshold  Converged?
 Maximum Force            0.042851     0.000450     NO 
 RMS     Force            0.007756     0.000300     NO 
 Maximum Displacement     0.170248     0.001800     NO 
 RMS     Displacement     0.048323     0.001200     NO 
 Predicted change in Energy=-4.578262D-03
 GradGradGradGradGradGradGradGradGradGradGradGradGradGradGradGradGradGrad

 Leave Link  103 at Sat Apr 16 14:43:12 2016, MaxMem=   33554432 cpu:       0.0
 (Enter c:\G09w01\l202.exe)
                          Input orientation:                          
 ---------------------------------------------------------------------
 Center     Atomic      Atomic             Coordinates (Angstroms)
 Number     Number       Type             X           Y           Z
 ---------------------------------------------------------------------
      1          7           0        1.412099    1.116859    0.001330
      2          1           0        2.316627    1.158798    0.408588
      3          6           0        0.670922   -0.063923    0.349085
      4          1           0       -2.414615   -0.739495    0.026124
      5          6           0        1.237039   -1.302178   -0.354071
      6          6           0       -0.787308    0.150476    0.019709
      7          1           0        2.283253   -1.406754   -0.087825
      8          1           0        0.714962   -2.201187   -0.052589
      9          1           0        1.170399   -1.190395   -1.431472
     10          8           0       -1.264953    1.164506   -0.376774
     11          1           0        0.902868    1.964102    0.088568
     12          8           0       -1.511868   -0.933361    0.232593
     13          1           0        0.677212   -0.255013    1.423562
 ---------------------------------------------------------------------
                    Distance matrix (angstroms):
                    1          2          3          4          5
     1  N    0.000000
     2  H    0.992868   0.000000
     3  C    1.436845   2.051080   0.000000
     4  H    4.253282   5.112185   3.175097   0.000000
     5  C    2.451265   2.793486   1.532381   3.714261   0.000000
     6  C    2.402421   3.286693   1.510262   1.854782   2.519503
     7  H    2.671232   2.613350   2.143291   4.746386   1.084614
     8  H    3.390920   3.750668   2.175127   3.454995   1.082438
     9  H    2.726676   3.196618   2.165363   3.896180   1.085232
    10  O    2.704042   3.666680   2.404896   2.260369   3.513547
    11  H    0.992345   1.658205   2.057803   4.280073   3.313033
    12  O    3.578613   4.366403   2.352460   0.946132   2.834906
    13  H    2.108277   2.390965   1.091355   3.427382   2.137742
                    6          7          8          9         10
     6  C    0.000000
     7  H    3.444543   0.000000
     8  H    2.791480   1.758380   0.000000
     9  H    2.781453   1.758022   1.769305   0.000000
    10  O    1.188950   4.391428   3.918297   3.548082   0.000000
    11  H    2.480056   3.646814   4.171914   3.511829   2.356978
    12  O    1.320988   3.837931   2.578271   3.166976   2.198487
    13  H    2.068826   2.488005   2.442957   3.044567   3.004704
                   11         12         13
    11  H    0.000000
    12  O    3.774518   0.000000
    13  H    2.599539   2.582757   0.000000
 Symmetry turned off by external request.
 Stoichiometry    C3H7NO2
 Framework group  C1[X(C3H7NO2)]
 Deg. of freedom    33
 Full point group                 C1      NOp   1
 Rotational constants (GHZ):      5.1442898      3.3486902      2.2103036
 Leave Link  202 at Sat Apr 16 14:43:12 2016, MaxMem=   33554432 cpu:       0.0
 (Enter c:\G09w01\l301.exe)
 Standard basis: 6-311++G(d,p) (5D, 7F)
 Ernie: Thresh=  0.10000D-02 Tol=  0.10000D-05 Strict=F.
 Integral buffers will be    262144 words long.
 Raffenetti 1 integral format.
 Two-electron integral symmetry is turned off.
   181 basis functions,   279 primitive gaussians,   187 cartesian basis functions
    24 alpha electrons       24 beta electrons
       nuclear repulsion energy       252.1492520898 Hartrees.
 IExCor=    0 DFT=F Ex=HF Corr=None ExCW=0 ScaHFX=  1.000000
 ScaDFX=  1.000000  1.000000  1.000000  1.000000 ScalE2=  1.000000  1.000000
 IRadAn=      0 IRanWt=     -1 IRanGd=            0 ICorTp=0
 NAtoms=   13 NActive=   13 NUniq=   13 SFac= 1.00D+00 NAtFMM=   50 NAOKFM=F Big=F
 ------------------------------------------------------------------------------
 Polarizable Continuum Model (PCM)
 =================================
 Model                : C-PCM.
 Atomic radii         : UFF (Universal Force Field).
 Polarization charges : Total charges.
 Charge compensation  : None.
 Solution method      : Matrix inversion.
 Cavity type          : Scaled VdW (van der Waals Surface) (Alpha=1.100).
 Cavity algorithm     : GePol (No added spheres)
                        Default sphere list used, NSphG=   13.
                        Lebedev-Laikov grids with approx.  5.0 points / Ang**2.
                        Smoothing algorithm: Karplus/York (Gamma=1.0000).
                        Polarization charges: spherical gaussians, with
                                              point-specific exponents (IZeta= 3).
                        Self-potential: point-specific (ISelfS= 7).
                        Self-field    : sphere-specific E.n sum rule (ISelfD= 2).
 1st derivatives      : Analytical E(r).r(x)/FMM algorithm (CHGder, D1EAlg=3).
                        Cavity 1st derivative terms included.
 Solvent              : Water, Eps=  78.355300 Eps(inf)=   1.777849
 ------------------------------------------------------------------------------
 Spheres list:
 ISph  on   Nord    Re0     Alpha      Xe            Ye            Ze
    1   N      1    1.830   1.100      1.412099      1.116859      0.001330
    2   H      2    1.443   1.100      2.316627      1.158798      0.408588
    3   C      3    1.926   1.100      0.670922     -0.063923      0.349085
    4   H      4    1.443   1.100     -2.414615     -0.739495      0.026124
    5   C      5    1.926   1.100      1.237039     -1.302178     -0.354071
    6   C      6    1.926   1.100     -0.787308      0.150476      0.019709
    7   H      7    1.443   1.100      2.283253     -1.406754     -0.087825
    8   H      8    1.443   1.100      0.714962     -2.201187     -0.052589
    9   H      9    1.443   1.100      1.170399     -1.190395     -1.431472
   10   O     10    1.750   1.100     -1.264953      1.164506     -0.376774
   11   H     11    1.443   1.100      0.902868      1.964102      0.088568
   12   O     12    1.750   1.100     -1.511868     -0.933361      0.232593
   13   H     13    1.443   1.100      0.677212     -0.255013      1.423562
 ------------------------------------------------------------------------------
 GePol: Number of generator spheres                  =      13
 GePol: Total number of spheres                      =      13
 GePol: Number of exposed spheres                    =      13 (100.00%)
 GePol: Number of points                             =    1106
 GePol: Average weight of points                     =       0.13
 GePol: Minimum weight of points                     =   0.14D-10
 GePol: Maximum weight of points                     =    0.20577
 GePol: Number of points with low weight             =      62
 GePol: Fraction of low-weight points (<1% of avg)   =       5.61%
 GePol: Cavity surface area                          =    148.068 Ang**2
 GePol: Cavity volume                                =    136.136 Ang**3
 Leave Link  301 at Sat Apr 16 14:43:13 2016, MaxMem=   33554432 cpu:       1.0
 (Enter c:\G09w01\l302.exe)
 NPDir=0 NMtPBC=     1 NCelOv=     1 NCel=       1 NClECP=     1 NCelD=      1
         NCelK=      1 NCelE2=     1 NClLst=     1 CellRange=     0.0.
 One-electron integrals computed using PRISM.
 NBasis=   181 RedAO= T  NBF=   181
 NBsUse=   181 1.00D-06 NBFU=   181
 Leave Link  302 at Sat Apr 16 14:43:13 2016, MaxMem=   33554432 cpu:       0.0
 (Enter c:\G09w01\l303.exe)
 DipDrv:  MaxL=1.
 Leave Link  303 at Sat Apr 16 14:43:13 2016, MaxMem=   33554432 cpu:       0.0
 (Enter c:\G09w01\l401.exe)
 Initial guess read from the read-write file.
 B after Tr=     0.000000    0.000000    0.000000
         Rot=    1.000000    0.000000    0.000000    0.000000 Ang=   0.00 deg.
 Guess basis will be translated and rotated to current coordinates.
 Generating alternative initial guess.
 Harris functional with IExCor=  205 diagonalized for initial guess.
 ExpMin= 3.60D-02 ExpMax= 8.59D+03 ExpMxC= 1.30D+03 IAcc=3 IRadAn=         0 AccDes= 0.00D+00
 HarFok:  IExCor=  205 AccDes= 0.00D+00 IRadAn=         0 IDoV= 1
 ScaDFX=  1.000000  1.000000  1.000000  1.000000
 FoFCou: FMM=F IPFlag=           0 FMFlag=      100000 FMFlg1=           0
         NFxFlg=           0 DoJE=T BraDBF=F KetDBF=T FulRan=T
         Omega=  0.000000  0.000000  1.000000  0.000000  0.000000 ICntrl=     500 IOpCl=  0
         NMat0=    1 NMatS0=    1 NMatT0=    0 NMatD0=    1 NMtDS0=    0 NMtDT0=    0
         I1Cent=           4 NGrid=           0.
 Symmetry not used in FoFCou.
 Harris En= -322.342569138792    
 Leave Link  401 at Sat Apr 16 14:43:18 2016, MaxMem=   33554432 cpu:       4.0
 (Enter c:\G09w01\l502.exe)
 Closed shell SCF:
 Requested convergence on RMS density matrix=1.00D-08 within 128 cycles.
 Requested convergence on MAX density matrix=1.00D-06.
 Requested convergence on             energy=1.00D-06.
 No special actions if energy rises.
 Using DIIS extrapolation, IDIIS=  1040.
 Two-electron integral symmetry not used.
 IEnd=      125206 IEndB=      125206 NGot=    33554432 MDV=    33481023
 LenX=    33481023 LenY=    33445613
 Fock matrices will be formed incrementally for  20 cycles.

 Cycle   1  Pass 1  IDiag  1:
 FoFCou: FMM=F IPFlag=           0 FMFlag=      100000 FMFlg1=           0
         NFxFlg=           0 DoJE=F BraDBF=F KetDBF=F FulRan=T
         Omega=  0.000000  0.000000  1.000000  0.000000  0.000000 ICntrl=       0 IOpCl=  0
         NMat0=    1 NMatS0=    1 NMatT0=    0 NMatD0=    1 NMtDS0=    0 NMtDT0=    0
         I1Cent=           0 NGrid=           0.
 Symmetry not used in FoFCou.
 E= -321.971573507090    
 DIIS: error= 3.64D-03 at cycle   1 NSaved=   1.
 NSaved= 1 IEnMin= 1 EnMin= -321.971573507090     IErMin= 1 ErrMin= 3.64D-03
 ErrMax= 3.64D-03 EMaxC= 1.00D-01 BMatC= 6.05D-03 BMatP= 6.05D-03
 IDIUse=3 WtCom= 9.64D-01 WtEn= 3.64D-02
 Coeff-Com:  0.100D+01
 Coeff-En:   0.100D+01
 Coeff:      0.100D+01
 Gap=     0.436 Goal=   None    Shift=    0.000
 GapD=    0.436 DampG=2.000 DampE=1.000 DampFc=2.0000 IDamp=-1.
 RMSDP=1.19D-03 MaxDP=4.91D-02              OVMax= 2.16D-02

 Cycle   2  Pass 1  IDiag  1:
 RMSU=  8.32D-04    CP:  9.87D-01
 E= -321.977745214392     Delta-E=       -0.006171707302 Rises=F Damp=F
 DIIS: error= 1.21D-03 at cycle   2 NSaved=   2.
 NSaved= 2 IEnMin= 2 EnMin= -321.977745214392     IErMin= 2 ErrMin= 1.21D-03
 ErrMax= 1.21D-03 EMaxC= 1.00D-01 BMatC= 3.14D-04 BMatP= 6.05D-03
 IDIUse=3 WtCom= 9.88D-01 WtEn= 1.21D-02
 Coeff-Com: -0.164D+00 0.116D+01
 Coeff-En:   0.000D+00 0.100D+01
 Coeff:     -0.162D+00 0.116D+01
 Gap=     0.435 Goal=   None    Shift=    0.000
 RMSDP=2.77D-04 MaxDP=8.84D-03 DE=-6.17D-03 OVMax= 8.72D-03

 Cycle   3  Pass 1  IDiag  1:
 RMSU=  1.07D-04    CP:  9.85D-01  1.20D+00
 E= -321.978280883893     Delta-E=       -0.000535669500 Rises=F Damp=F
 DIIS: error= 3.31D-04 at cycle   3 NSaved=   3.
 NSaved= 3 IEnMin= 3 EnMin= -321.978280883893     IErMin= 3 ErrMin= 3.31D-04
 ErrMax= 3.31D-04 EMaxC= 1.00D-01 BMatC= 2.98D-05 BMatP= 3.14D-04
 IDIUse=3 WtCom= 9.97D-01 WtEn= 3.31D-03
 Coeff-Com: -0.525D-01 0.133D+00 0.920D+00
 Coeff-En:   0.000D+00 0.000D+00 0.100D+01
 Coeff:     -0.524D-01 0.133D+00 0.920D+00
 Gap=     0.435 Goal=   None    Shift=    0.000
 RMSDP=6.34D-05 MaxDP=2.61D-03 DE=-5.36D-04 OVMax= 2.39D-03

 Cycle   4  Pass 1  IDiag  1:
 RMSU=  3.68D-05    CP:  9.86D-01  1.19D+00  1.22D+00
 E= -321.978327969617     Delta-E=       -0.000047085725 Rises=F Damp=F
 DIIS: error= 1.22D-04 at cycle   4 NSaved=   4.
 NSaved= 4 IEnMin= 4 EnMin= -321.978327969617     IErMin= 4 ErrMin= 1.22D-04
 ErrMax= 1.22D-04 EMaxC= 1.00D-01 BMatC= 3.57D-06 BMatP= 2.98D-05
 IDIUse=3 WtCom= 9.99D-01 WtEn= 1.22D-03
 Coeff-Com:  0.166D-01-0.124D+00 0.851D-02 0.110D+01
 Coeff-En:   0.000D+00 0.000D+00 0.000D+00 0.100D+01
 Coeff:      0.166D-01-0.123D+00 0.850D-02 0.110D+01
 Gap=     0.435 Goal=   None    Shift=    0.000
 RMSDP=3.72D-05 MaxDP=1.11D-03 DE=-4.71D-05 OVMax= 1.30D-03

 Cycle   5  Pass 1  IDiag  1:
 RMSU=  1.56D-05    CP:  9.86D-01  1.18D+00  1.35D+00  1.41D+00
 E= -321.978336155106     Delta-E=       -0.000008185489 Rises=F Damp=F
 DIIS: error= 4.55D-05 at cycle   5 NSaved=   5.
 NSaved= 5 IEnMin= 5 EnMin= -321.978336155106     IErMin= 5 ErrMin= 4.55D-05
 ErrMax= 4.55D-05 EMaxC= 1.00D-01 BMatC= 4.81D-07 BMatP= 3.57D-06
 IDIUse=1 WtCom= 1.00D+00 WtEn= 0.00D+00
 Coeff-Com:  0.736D-02-0.360D-01-0.679D-01 0.237D+00 0.860D+00
 Coeff:      0.736D-02-0.360D-01-0.679D-01 0.237D+00 0.860D+00
 Gap=     0.435 Goal=   None    Shift=    0.000
 RMSDP=9.66D-06 MaxDP=2.81D-04 DE=-8.19D-06 OVMax= 3.24D-04

 Cycle   6  Pass 1  IDiag  1:
 RMSU=  3.48D-06    CP:  9.86D-01  1.18D+00  1.37D+00  1.52D+00  1.21D+00
 E= -321.978337006424     Delta-E=       -0.000000851318 Rises=F Damp=F
 DIIS: error= 1.77D-05 at cycle   6 NSaved=   6.
 NSaved= 6 IEnMin= 6 EnMin= -321.978337006424     IErMin= 6 ErrMin= 1.77D-05
 ErrMax= 1.77D-05 EMaxC= 1.00D-01 BMatC= 7.88D-08 BMatP= 4.81D-07
 IDIUse=1 WtCom= 1.00D+00 WtEn= 0.00D+00
 Coeff-Com: -0.259D-02 0.206D-01-0.786D-02-0.185D+00 0.677D-01 0.111D+01
 Coeff:     -0.259D-02 0.206D-01-0.786D-02-0.185D+00 0.677D-01 0.111D+01
 Gap=     0.435 Goal=   None    Shift=    0.000
 RMSDP=4.85D-06 MaxDP=1.26D-04 DE=-8.51D-07 OVMax= 1.84D-04

 Cycle   7  Pass 1  IDiag  1:
 RMSU=  1.85D-06    CP:  9.86D-01  1.18D+00  1.38D+00  1.55D+00  1.32D+00
                    CP:  1.51D+00
 E= -321.978337221264     Delta-E=       -0.000000214840 Rises=F Damp=F
 DIIS: error= 6.73D-06 at cycle   7 NSaved=   7.
 NSaved= 7 IEnMin= 7 EnMin= -321.978337221264     IErMin= 7 ErrMin= 6.73D-06
 ErrMax= 6.73D-06 EMaxC= 1.00D-01 BMatC= 8.67D-09 BMatP= 7.88D-08
 IDIUse=1 WtCom= 1.00D+00 WtEn= 0.00D+00
 Coeff-Com: -0.862D-03 0.420D-02 0.842D-02-0.283D-01-0.107D+00 0.361D-02
 Coeff-Com:  0.112D+01
 Coeff:     -0.862D-03 0.420D-02 0.842D-02-0.283D-01-0.107D+00 0.361D-02
 Coeff:      0.112D+01
 Gap=     0.435 Goal=   None    Shift=    0.000
 RMSDP=2.14D-06 MaxDP=8.12D-05 DE=-2.15D-07 OVMax= 8.75D-05

 Cycle   8  Pass 1  IDiag  1:
 RMSU=  5.36D-07    CP:  9.86D-01  1.18D+00  1.38D+00  1.55D+00  1.30D+00
                    CP:  1.75D+00  1.43D+00
 E= -321.978337248710     Delta-E=       -0.000000027447 Rises=F Damp=F
 DIIS: error= 2.75D-06 at cycle   8 NSaved=   8.
 NSaved= 8 IEnMin= 8 EnMin= -321.978337248710     IErMin= 8 ErrMin= 2.75D-06
 ErrMax= 2.75D-06 EMaxC= 1.00D-01 BMatC= 1.44D-09 BMatP= 8.67D-09
 IDIUse=1 WtCom= 1.00D+00 WtEn= 0.00D+00
 Coeff-Com:  0.234D-03-0.223D-02 0.244D-02 0.219D-01-0.267D-01-0.153D+00
 Coeff-Com:  0.181D+00 0.975D+00
 Coeff:      0.234D-03-0.223D-02 0.244D-02 0.219D-01-0.267D-01-0.153D+00
 Coeff:      0.181D+00 0.975D+00
 Gap=     0.435 Goal=   None    Shift=    0.000
 RMSDP=9.67D-07 MaxDP=4.07D-05 DE=-2.74D-08 OVMax= 3.60D-05

 Cycle   9  Pass 1  IDiag  1:
 RMSU=  3.11D-07    CP:  9.86D-01  1.18D+00  1.38D+00  1.54D+00  1.30D+00
                    CP:  1.78D+00  1.56D+00  1.48D+00
 E= -321.978337252649     Delta-E=       -0.000000003938 Rises=F Damp=F
 DIIS: error= 1.16D-06 at cycle   9 NSaved=   9.
 NSaved= 9 IEnMin= 9 EnMin= -321.978337252649     IErMin= 9 ErrMin= 1.16D-06
 ErrMax= 1.16D-06 EMaxC= 1.00D-01 BMatC= 2.10D-10 BMatP= 1.44D-09
 IDIUse=1 WtCom= 1.00D+00 WtEn= 0.00D+00
 Coeff-Com:  0.147D-03-0.767D-03-0.122D-02 0.549D-02 0.167D-01-0.347D-02
 Coeff-Com: -0.185D+00 0.242D-01 0.114D+01
 Coeff:      0.147D-03-0.767D-03-0.122D-02 0.549D-02 0.167D-01-0.347D-02
 Coeff:     -0.185D+00 0.242D-01 0.114D+01
 Gap=     0.435 Goal=   None    Shift=    0.000
 RMSDP=3.99D-07 MaxDP=2.38D-05 DE=-3.94D-09 OVMax= 1.94D-05

 Cycle  10  Pass 1  IDiag  1:
 RMSU=  7.81D-08    CP:  9.86D-01  1.18D+00  1.38D+00  1.54D+00  1.30D+00
                    CP:  1.77D+00  1.57D+00  1.78D+00  1.52D+00
 E= -321.978337253406     Delta-E=       -0.000000000757 Rises=F Damp=F
 DIIS: error= 4.37D-07 at cycle  10 NSaved=  10.
 NSaved=10 IEnMin=10 EnMin= -321.978337253406     IErMin=10 ErrMin= 4.37D-07
 ErrMax= 4.37D-07 EMaxC= 1.00D-01 BMatC= 2.48D-11 BMatP= 2.10D-10
 IDIUse=1 WtCom= 1.00D+00 WtEn= 0.00D+00
 Coeff-Com: -0.479D-04 0.377D-03-0.163D-03-0.348D-02 0.107D-02 0.195D-01
 Coeff-Com:  0.203D-02-0.125D+00-0.153D+00 0.126D+01
 Coeff:     -0.479D-04 0.377D-03-0.163D-03-0.348D-02 0.107D-02 0.195D-01
 Coeff:      0.203D-02-0.125D+00-0.153D+00 0.126D+01
 Gap=     0.435 Goal=   None    Shift=    0.000
 RMSDP=2.13D-07 MaxDP=1.64D-05 DE=-7.57D-10 OVMax= 8.41D-06

 Cycle  11  Pass 1  IDiag  1:
 RMSU=  2.95D-08    CP:  9.86D-01  1.18D+00  1.38D+00  1.54D+00  1.30D+00
                    CP:  1.76D+00  1.55D+00  1.85D+00  1.76D+00  1.57D+00
 E= -321.978337253515     Delta-E=       -0.000000000109 Rises=F Damp=F
 DIIS: error= 1.42D-07 at cycle  11 NSaved=  11.
 NSaved=11 IEnMin=11 EnMin= -321.978337253515     IErMin=11 ErrMin= 1.42D-07
 ErrMax= 1.42D-07 EMaxC= 1.00D-01 BMatC= 3.29D-12 BMatP= 2.48D-11
 IDIUse=1 WtCom= 1.00D+00 WtEn= 0.00D+00
 Coeff-Com: -0.221D-04 0.123D-03 0.147D-03-0.921D-03-0.211D-02 0.143D-02
 Coeff-Com:  0.253D-01-0.110D-01-0.161D+00 0.373D-01 0.111D+01
 Coeff:     -0.221D-04 0.123D-03 0.147D-03-0.921D-03-0.211D-02 0.143D-02
 Coeff:      0.253D-01-0.110D-01-0.161D+00 0.373D-01 0.111D+01
 Gap=     0.435 Goal=   None    Shift=    0.000
 RMSDP=5.93D-08 MaxDP=3.70D-06 DE=-1.09D-10 OVMax= 2.86D-06

 Cycle  12  Pass 1  IDiag  1:
 RMSU=  9.93D-09    CP:  9.86D-01  1.18D+00  1.38D+00  1.54D+00  1.30D+00
                    CP:  1.76D+00  1.55D+00  1.84D+00  1.81D+00  1.77D+00
                    CP:  1.53D+00
 E= -321.978337253533     Delta-E=       -0.000000000018 Rises=F Damp=F
 DIIS: error= 5.25D-08 at cycle  12 NSaved=  12.
 NSaved=12 IEnMin=12 EnMin= -321.978337253533     IErMin=12 ErrMin= 5.25D-08
 ErrMax= 5.25D-08 EMaxC= 1.00D-01 BMatC= 3.08D-13 BMatP= 3.29D-12
 IDIUse=1 WtCom= 1.00D+00 WtEn= 0.00D+00
 Coeff-Com:  0.749D-05-0.559D-04 0.145D-04 0.507D-03-0.804D-04-0.277D-02
 Coeff-Com: -0.790D-03 0.177D-01 0.242D-01-0.172D+00-0.196D-01 0.115D+01
 Coeff:      0.749D-05-0.559D-04 0.145D-04 0.507D-03-0.804D-04-0.277D-02
 Coeff:     -0.790D-03 0.177D-01 0.242D-01-0.172D+00-0.196D-01 0.115D+01
 Gap=     0.435 Goal=   None    Shift=    0.000
 RMSDP=1.80D-08 MaxDP=5.75D-07 DE=-1.82D-11 OVMax= 8.53D-07

 Cycle  13  Pass 1  IDiag  1:
 RMSU=  3.27D-09    CP:  9.86D-01  1.18D+00  1.38D+00  1.54D+00  1.30D+00
                    CP:  1.76D+00  1.55D+00  1.83D+00  1.80D+00  1.80D+00
                    CP:  1.76D+00  1.41D+00
 E= -321.978337253526     Delta-E=        0.000000000007 Rises=F Damp=F
 DIIS: error= 1.28D-08 at cycle  13 NSaved=  13.
 NSaved=13 IEnMin=12 EnMin= -321.978337253533     IErMin=13 ErrMin= 1.28D-08
 ErrMax= 1.28D-08 EMaxC= 1.00D-01 BMatC= 1.79D-14 BMatP= 3.08D-13
 IDIUse=1 WtCom= 1.00D+00 WtEn= 0.00D+00
 Coeff-Com:  0.557D-06-0.164D-05-0.105D-04 0.398D-05 0.150D-03 0.199D-03
 Coeff-Com: -0.151D-02-0.125D-02 0.751D-02 0.143D-01-0.654D-01-0.116D+00
 Coeff-Com:  0.116D+01
 Coeff:      0.557D-06-0.164D-05-0.105D-04 0.398D-05 0.150D-03 0.199D-03
 Coeff:     -0.151D-02-0.125D-02 0.751D-02 0.143D-01-0.654D-01-0.116D+00
 Coeff:      0.116D+01
 Gap=     0.435 Goal=   None    Shift=    0.000
 RMSDP=5.85D-09 MaxDP=2.60D-07 DE= 6.93D-12 OVMax= 1.41D-07

 Error on total polarization charges =  0.00898
 SCF Done:  E(RHF) =  -321.978337254     A.U. after   13 cycles
             Convg  =    0.5850D-08             -V/T =  2.0002
 KE= 3.219207468640D+02 PE=-1.261501514158D+03 EE= 3.654531779504D+02
 Leave Link  502 at Sat Apr 16 14:45:42 2016, MaxMem=   33554432 cpu:     144.0
 (Enter c:\G09w01\l701.exe)
 Compute integral first derivatives.
 ... and contract with generalized density number  0.
 D1PCM: C-PCM CHGder 1st derivatives, ID1Alg=3 FixD1E=F DoIter=F DoCFld=F I1PDM=0.
 GePol: Maximum number of non-zero 1st derivatives   =     203
 Leave Link  701 at Sat Apr 16 14:45:47 2016, MaxMem=   33554432 cpu:       5.0
 (Enter c:\G09w01\l702.exe)
 L702 exits ... SP integral derivatives will be done elsewhere.
 Leave Link  702 at Sat Apr 16 14:45:47 2016, MaxMem=   33554432 cpu:       0.0
 (Enter c:\G09w01\l703.exe)
 Compute integral first derivatives, UseDBF=F ICtDFT=           0.
 Integral derivatives from FoFDir, PRISM(SPDF).
 Calling FoFJK, ICntrl=      2127 FMM=F ISym2X=0 I1Cent= 0 IOpClX= 0 NMat=1 NMatS=1 NMatT=0.
 FoFCou: FMM=F IPFlag=           0 FMFlag=      100000 FMFlg1=         800
         NFxFlg=           0 DoJE=F BraDBF=F KetDBF=F FulRan=T
         Omega=  0.000000  0.000000  1.000000  0.000000  0.000000 ICntrl=    2127 IOpCl=  0
         NMat0=    1 NMatS0=    1 NMatT0=    0 NMatD0=    1 NMtDS0=    0 NMtDT0=    0
         I1Cent=           0 NGrid=           0.
 Symmetry not used in FoFCou.
 Leave Link  703 at Sat Apr 16 14:46:23 2016, MaxMem=   33554432 cpu:      36.0
 (Enter c:\G09w01\l716.exe)
 Dipole        = 2.71618219D-01-7.66591225D-01 8.62470102D-01
 -------------------------------------------------------------------
 Center     Atomic                   Forces (Hartrees/Bohr)
 Number     Number              X              Y              Z
 -------------------------------------------------------------------
      1        7           0.002473903   -0.002648542   -0.016294060
      2        1           0.000811829    0.002066478    0.005241261
      3        6          -0.000795758   -0.001327916    0.005880007
      4        1          -0.002644442   -0.001540614    0.000197387
      5        6           0.000413246    0.001720190    0.000441637
      6        6          -0.000695485   -0.003594950   -0.003511101
      7        1           0.000130672   -0.000190665   -0.000185623
      8        1           0.000126987   -0.000058704    0.000008618
      9        1          -0.000214595   -0.000375673   -0.000047375
     10        8           0.000528377    0.001471620    0.000815445
     11        1           0.000050150    0.003139702    0.006448352
     12        8           0.000078922    0.001973578    0.000584253
     13        1          -0.000263805   -0.000634503    0.000421199
 -------------------------------------------------------------------
 Cartesian Forces:  Max     0.016294060 RMS     0.003382491
 Leave Link  716 at Sat Apr 16 14:46:24 2016, MaxMem=   33554432 cpu:       0.0
 (Enter c:\G09w01\l103.exe)

 GradGradGradGradGradGradGradGradGradGradGradGradGradGradGradGradGradGrad
 Berny optimization.
 Using GEDIIS/GDIIS optimizer.
 Internal  Forces:  Max     0.004941041 RMS     0.001657509
 Search for a local minimum.
 Step number   2 out of a maximum of   64
 All quantities printed in internal units (Hartrees-Bohrs-Radians)
 RMS Force = .16575D-02 SwitMx=.10000D-02 MixMth= 1
 Mixed Optimization -- RFO/linear search
 Update second derivatives using D2CorX and points    1    2
 DE= -5.52D-03 DEPred=-4.58D-03 R= 1.21D+00
 SS=  1.41D+00  RLast= 3.63D-01 DXNew= 5.0454D-01 1.0885D+00
 Trust test= 1.21D+00 RLast= 3.63D-01 DXMaxT set to 5.05D-01
 ITU=  1  0
 Use linear search instead of GDIIS.
     Eigenvalues ---    0.00328   0.00687   0.01079   0.01147   0.01869
     Eigenvalues ---    0.02349   0.04569   0.05163   0.05481   0.05797
     Eigenvalues ---    0.06762   0.15880   0.16000   0.16000   0.16000
     Eigenvalues ---    0.16000   0.17607   0.18100   0.18493   0.24905
     Eigenvalues ---    0.25135   0.29134   0.31624   0.34573   0.35595
     Eigenvalues ---    0.35763   0.35943   0.39837   0.48821   0.49122
     Eigenvalues ---    0.56227   0.60824   1.07299
 RFO step:  Lambda=-2.50029636D-03 EMin= 3.28113822D-03
 Quartic linear search produced a step of  0.23324.
 Iteration  1 RMS(Cart)=  0.04716994 RMS(Int)=  0.00508496
 Iteration  2 RMS(Cart)=  0.00371959 RMS(Int)=  0.00381374
 Iteration  3 RMS(Cart)=  0.00003754 RMS(Int)=  0.00381363
 Iteration  4 RMS(Cart)=  0.00000086 RMS(Int)=  0.00381363
 Variable       Old X    -DE/DX   Delta X   Delta X   Delta X     New X
                                 (Linear)    (Quad)   (Total)
    R1        1.87625   0.00297   0.00059   0.00730   0.00789   1.88414
    R2        2.71524   0.00494  -0.00170   0.01386   0.01215   2.72740
    R3        1.87526   0.00322  -0.00020   0.00759   0.00739   1.88265
    R4        2.89578  -0.00082  -0.00032  -0.00338  -0.00370   2.89208
    R5        2.85398   0.00281   0.00189   0.01107   0.01295   2.86693
    R6        2.06236   0.00052  -0.00035   0.00162   0.00127   2.06363
    R7        1.78793   0.00216  -0.00363   0.00285  -0.00078   1.78715
    R8        2.04962   0.00010   0.00057   0.00056   0.00113   2.05075
    R9        2.04551  -0.00001   0.00087   0.00032   0.00119   2.04670
   R10        2.05079   0.00002   0.00143   0.00067   0.00209   2.05288
   R11        2.24679   0.00077  -0.00999  -0.00365  -0.01364   2.23315
   R12        2.49631   0.00119  -0.01295  -0.00315  -0.01610   2.48020
    A1        1.98819  -0.00175  -0.01470  -0.05086  -0.07560   1.91259
    A2        1.97728  -0.00150  -0.01252  -0.06175  -0.09419   1.88308
    A3        1.99945  -0.00163  -0.01327  -0.04934  -0.07250   1.92695
    A4        1.94167  -0.00114   0.00109  -0.00991  -0.00885   1.93282
    A5        1.90564   0.00087   0.00321   0.00599   0.00917   1.91481
    A6        1.95973   0.00037  -0.00241   0.00507   0.00262   1.96235
    A7        1.95126  -0.00008   0.00089  -0.00244  -0.00155   1.94970
    A8        1.88405   0.00007  -0.00036  -0.00258  -0.00293   1.88112
    A9        1.81846  -0.00002  -0.00268   0.00479   0.00210   1.82056
   A10        1.89824   0.00036  -0.00149   0.00266   0.00117   1.89941
   A11        1.94458  -0.00002  -0.00028  -0.00078  -0.00106   1.94351
   A12        1.92798   0.00029   0.00201   0.00269   0.00469   1.93267
   A13        1.89314  -0.00019  -0.00075  -0.00151  -0.00227   1.89087
   A14        1.88901  -0.00019   0.00117   0.00010   0.00126   1.89027
   A15        1.90969  -0.00025  -0.00066  -0.00317  -0.00382   1.90587
   A16        2.19161  -0.00212  -0.00126  -0.01070  -0.01404   2.17757
   A17        1.95841   0.00169  -0.00102   0.00709   0.00394   1.96235
   A18        2.13312   0.00042   0.00244   0.00252   0.00279   2.13591
   A19        1.89659   0.00389  -0.02071   0.02099   0.00028   1.89687
    D1       -1.25929  -0.00237  -0.02294  -0.06658  -0.08411  -1.34340
    D2        2.86213  -0.00210  -0.02698  -0.06095  -0.08251   2.77962
    D3        0.85448  -0.00283  -0.02431  -0.07342  -0.09233   0.76215
    D4        2.70782   0.00337   0.03634   0.12926   0.16020   2.86801
    D5        0.54605   0.00364   0.03230   0.13490   0.16180   0.70785
    D6       -1.46160   0.00290   0.03497   0.12243   0.15198  -1.30963
    D7        1.00177  -0.00021  -0.00467  -0.01079  -0.01546   0.98631
    D8        3.08765  -0.00023  -0.00674  -0.01143  -0.01817   3.06949
    D9       -1.06905  -0.00037  -0.00638  -0.01413  -0.02052  -1.08956
   D10        3.13740   0.00004   0.00083  -0.01193  -0.01109   3.12631
   D11       -1.05991   0.00001  -0.00124  -0.01257  -0.01379  -1.07370
   D12        1.06658  -0.00012  -0.00088  -0.01527  -0.01614   1.05044
   D13       -1.15575   0.00002  -0.00212  -0.00897  -0.01109  -1.16684
   D14        0.93014  -0.00001  -0.00418  -0.00961  -0.01380   0.91634
   D15        3.05662  -0.00014  -0.00383  -0.01231  -0.01614   3.04048
   D16       -0.08397  -0.00109   0.01086  -0.06054  -0.04946  -0.13342
   D17        3.06730   0.00023   0.00353   0.06540   0.06871   3.13601
   D18       -2.24007  -0.00020   0.00666  -0.05049  -0.04361  -2.28368
   D19        0.91120   0.00112  -0.00067   0.07545   0.07456   0.98576
   D20        2.01287  -0.00023   0.00818  -0.04901  -0.04061   1.97226
   D21       -1.11905   0.00109   0.00085   0.07692   0.07756  -1.04149
   D22        3.12400  -0.00077   0.00200  -0.06589  -0.06431   3.05969
   D23       -0.00829   0.00051  -0.00495   0.05527   0.05073   0.04243
         Item               Value     Threshold  Converged?
 Maximum Force            0.004941     0.000450     NO 
 RMS     Force            0.001658     0.000300     NO 
 Maximum Displacement     0.163176     0.001800     NO 
 RMS     Displacement     0.047738     0.001200     NO 
 Predicted change in Energy=-1.654495D-03
 GradGradGradGradGradGradGradGradGradGradGradGradGradGradGradGradGradGrad

 Leave Link  103 at Sat Apr 16 14:46:24 2016, MaxMem=   33554432 cpu:       0.0
 (Enter c:\G09w01\l202.exe)
                          Input orientation:                          
 ---------------------------------------------------------------------
 Center     Atomic      Atomic             Coordinates (Angstroms)
 Number     Number       Type             X           Y           Z
 ---------------------------------------------------------------------
      1          7           0        1.420359    1.118531   -0.050400
      2          1           0        2.274908    1.141959    0.462717
      3          6           0        0.670343   -0.059953    0.312501
      4          1           0       -2.431864   -0.704924    0.091575
      5          6           0        1.253213   -1.302973   -0.363782
      6          6           0       -0.792450    0.136187   -0.038792
      7          1           0        2.300859   -1.389547   -0.094292
      8          1           0        0.743152   -2.202682   -0.042222
      9          1           0        1.184694   -1.220466   -1.444814
     10          8           0       -1.264892    1.152162   -0.414406
     11          1           0        0.905392    1.941069    0.174916
     12          8           0       -1.524857   -0.910058    0.263731
     13          1           0        0.667781   -0.236868    1.390098
 ---------------------------------------------------------------------
                    Distance matrix (angstroms):
                    1          2          3          4          5
     1  N    0.000000
     2  H    0.997042   0.000000
     3  C    1.443276   2.010420   0.000000
     4  H    4.264361   5.069757   3.176238   0.000000
     5  C    2.447413   2.775726   1.530423   3.760958   0.000000
     6  C    2.421086   3.266768   1.517116   1.847199   2.522209
     7  H    2.658508   2.592191   2.142868   4.785596   1.085211
     8  H    3.389562   3.713201   2.173112   3.513106   1.083069
     9  H    2.733283   3.226189   2.167834   3.963050   1.086340
    10  O    2.710019   3.646866   2.396403   2.250913   3.517257
    11  H    0.996257   1.611515   2.019472   4.259754   3.306809
    12  O    3.590007   4.323030   2.354562   0.945717   2.875035
    13  H    2.116251   2.311722   1.092026   3.393088   2.134339
                    6          7          8          9         10
     6  C    0.000000
     7  H    3.449566   0.000000
     8  H    2.797927   1.757939   0.000000
     9  H    2.779659   1.760206   1.768325   0.000000
    10  O    1.181732   4.390596   3.927561   3.562523   0.000000
    11  H    2.487154   3.621161   4.152607   3.563263   2.383234
[...]
                           !   Optimized Parameters   !
                           ! (Angstroms and Degrees)  !
 --------------------------                            --------------------------
 ! Name  Definition              Value          Derivative Info.                !
 --------------------------------------------------------------------------------
 ! R1    R(1,2)                  1.0005         -DE/DX =    0.0                 !
 ! R2    R(1,3)                  1.4504         -DE/DX =    0.0                 !
 ! R3    R(1,11)                 1.0004         -DE/DX =    0.0                 !
 ! R4    R(3,5)                  1.5302         -DE/DX =    0.0                 !
 ! R5    R(3,6)                  1.5155         -DE/DX =    0.0                 !
 ! R6    R(3,13)                 1.0905         -DE/DX =    0.0                 !
 ! R7    R(4,12)                 0.9477         -DE/DX =    0.0                 !
 ! R8    R(5,7)                  1.0847         -DE/DX =    0.0                 !
 ! R9    R(5,8)                  1.0824         -DE/DX =    0.0                 !
 ! R10   R(5,9)                  1.0853         -DE/DX =    0.0                 !
 ! R11   R(6,10)                 1.1885         -DE/DX =    0.0                 !
 ! R12   R(6,12)                 1.3219         -DE/DX =    0.0                 !
 ! A1    A(2,1,3)              109.5829         -DE/DX =    0.0                 !
 ! A2    A(2,1,11)             107.2233         -DE/DX =    0.0                 !
 ! A3    A(3,1,11)             111.1082         -DE/DX =    0.0                 !
 ! A4    A(1,3,5)              110.1964         -DE/DX =    0.0                 !
 ! A5    A(1,3,6)              109.6036         -DE/DX =    0.0                 !
 ! A6    A(1,3,13)             112.5801         -DE/DX =    0.0                 !
 ! A7    A(5,3,6)              111.3883         -DE/DX =    0.0                 !
 ! A8    A(5,3,13)             108.243          -DE/DX =    0.0                 !
 ! A9    A(6,3,13)             104.731          -DE/DX =    0.0                 !
 ! A10   A(3,5,7)              109.1579         -DE/DX =    0.0                 !
 ! A11   A(3,5,8)              111.2635         -DE/DX =    0.0                 !
 ! A12   A(3,5,9)              110.6844         -DE/DX =    0.0                 !
 ! A13   A(7,5,8)              108.3077         -DE/DX =    0.0                 !
 ! A14   A(7,5,9)              108.264          -DE/DX =    0.0                 !
 ! A15   A(8,5,9)              109.0833         -DE/DX =    0.0                 !
 ! A16   A(3,6,10)             125.569          -DE/DX =    0.0                 !
 ! A17   A(3,6,12)             111.9891         -DE/DX =    0.0                 !
 ! A18   A(10,6,12)            122.4205         -DE/DX =    0.0                 !
 ! A19   A(4,12,6)             109.8486         -DE/DX =    0.0                 !
 ! D1    D(2,1,3,5)            -64.053          -DE/DX =    0.0                 !
 ! D2    D(2,1,3,6)            173.0247         -DE/DX =    0.0                 !
 ! D3    D(2,1,3,13)            56.8925         -DE/DX =    0.0                 !
 ! D4    D(11,1,3,5)           177.6391         -DE/DX =    0.0                 !
 ! D5    D(11,1,3,6)            54.7169         -DE/DX =    0.0                 !
 ! D6    D(11,1,3,13)          -61.4154         -DE/DX =    0.0                 !
 ! D7    D(1,3,5,7)             57.1146         -DE/DX =    0.0                 !
 ! D8    D(1,3,5,8)            176.5883         -DE/DX =    0.0                 !
 ! D9    D(1,3,5,9)            -61.9502         -DE/DX =    0.0                 !
 ! D10   D(6,3,5,7)            178.9854         -DE/DX =    0.0                 !
 ! D11   D(6,3,5,8)            -61.5409         -DE/DX =    0.0                 !
 ! D12   D(6,3,5,9)             59.9206         -DE/DX =    0.0                 !
 ! D13   D(13,3,5,7)           -66.392          -DE/DX =    0.0                 !
 ! D14   D(13,3,5,8)            53.0817         -DE/DX =    0.0                 !
 ! D15   D(13,3,5,9)           174.5432         -DE/DX =    0.0                 !
 ! D16   D(1,3,6,10)            -2.6394         -DE/DX =    0.0                 !
 ! D17   D(1,3,6,12)           179.0152         -DE/DX =    0.0                 !
 ! D18   D(5,3,6,10)          -124.8531         -DE/DX =    0.0                 !
 ! D19   D(5,3,6,12)            56.8015         -DE/DX =    0.0                 !
 ! D20   D(13,3,6,10)          118.3644         -DE/DX =    0.0                 !
 ! D21   D(13,3,6,12)          -59.9809         -DE/DX =    0.0                 !
 ! D22   D(3,6,12,4)           178.4588         -DE/DX =    0.0                 !
 ! D23   D(10,6,12,4)            0.0532         -DE/DX =    0.0                 !
 --------------------------------------------------------------------------------
 GradGradGradGradGradGradGradGradGradGradGradGradGradGradGradGradGradGrad

 Leave Link  103 at Sat Apr 16 15:33:15 2016, MaxMem=   33554432 cpu:       0.0
 (Enter c:\G09w01\l9999.exe)
 1|1|UNPC-WIN-20150318OUM|Freq|RHF|6-311++G(d,p)|C3H7N1O2|ADMINISTRATOR
 |16-Apr-2016|0||#P Geom=AllCheck Guess=TCheck SCRF=Check GenChk RHF/6-
 311++G(d,p) Freq||Ala-S-opt-freq-cpcm-w-pa3-6-311++gdp||0,1|N,1.397011
 0031,1.1417263872,-0.0493396952|H,2.3354883813,1.0697610145,0.28994215
 48|C,0.6508097104,-0.0427456709,0.3299182984|H,-2.4414345134,-0.769573
 1496,0.059949744|C,1.2434014255,-1.2800355127,-0.3480012583|C,-0.80979
 68264,0.1391421016,-0.031232222|H,2.2910477869,-1.3653606672,-0.080030
 439|H,0.7366732702,-2.1821856546,-0.030438365|H,1.1743031047,-1.195612
 6021,-1.4278040398|O,-1.2878574286,1.1183227512,-0.5059029832|H,0.9976
 311845,1.9643905271,0.3563323925|O,-1.5318362188,-0.9246781762,0.27604
 30433|H,0.6511971205,-0.2107153483,1.4073923695||Version=IA32W-G09RevB
 .01|HF=-321.9804758|RMSD=1.343e-009|RMSF=1.351e-005|ZeroPoint=0.115230
 1|Thermal=0.1218109|Dipole=0.3743635,-0.8751676,1.0818828|DipoleDeriv=
 -0.5448339,-0.1796076,0.0828631,-0.1773374,-0.7612368,0.1059187,0.0631
 969,0.0874326,-0.6787835,0.1331949,0.0024969,-0.077155,0.0187856,0.185
 5866,0.0277487,-0.1630654,0.0061653,0.2874107,0.2390901,0.27783,-0.099
 013,0.3136957,0.5500969,-0.0647351,-0.056633,0.0343065,0.3828559,0.436
 4481,0.0560854,-0.0284215,0.0654426,0.3564789,0.0428151,-0.0249547,0.0
 459761,0.4205432,0.1166017,0.0207683,-0.0087718,-0.0680593,0.1001404,-
 0.0437234,0.0015337,-0.0258783,0.1776694,1.8045012,0.0886566,0.1041718
 ,0.1178181,2.3144284,-0.7374034,0.1874698,-0.7592761,0.7990521,-0.1967
 369,0.0567712,-0.0568941,0.0205841,0.0490988,-0.021194,-0.0729637,-0.0
 244589,0.0555782,0.0384719,-0.098796,0.0490656,-0.0701046,-0.123326,0.
 0304536,0.0480941,0.0569053,0.0486731,0.0700644,0.0298179,-0.0334668,0
 .0327682,0.0408821,0.0392933,0.0029036,-0.0210929,-0.1970189,-1.136747
 6,0.4890601,-0.2550129,0.2253757,-1.5363169,0.4072045,-0.2024869,0.487
 1877,-0.7471907,0.195475,0.0047479,0.0595015,-0.0050766,0.1481023,-0.0
 685481,0.0810077,-0.1535823,0.255127,-1.1296011,-0.71941,0.2215879,-0.
 418212,-1.289893,0.2420191,0.0774964,0.1913988,-0.6018401,-0.0259279,-
 0.0284207,0.0415452,-0.0556801,-0.0340416,0.040151,0.0584017,0.0749161
 ,-0.2020764|Polar=59.683472,-1.2235667,62.5255075,1.001966,-4.5418877,
 51.186078|PolarDeriv=-3.888862,1.355205,4.485168,-4.080338,0.9592999,-
 0.4041977,1.3911373,4.2324362,-0.495655,0.9292749,-3.7938999,-1.597900
 4,-5.1928522,-0.3679954,-5.6404373,0.1949409,-0.6019407,0.6207174,9.93
 06695,0.9883252,1.295595,2.6549085,0.2044352,1.9462843,-0.4288759,1.09
 71007,-0.3244277,0.0631824,0.3396128,0.0022319,3.1542651,0.3814241,0.6
 633682,1.4517997,0.4151594,-0.2515537,5.9911518,0.4206887,-6.6123041,1
 .4526497,-0.5663233,-0.0586308,0.3566483,-6.5019702,2.3879481,-0.78257
 9,2.3670136,2.8044167,2.3550811,-0.6480838,3.6157759,-0.1062828,4.4606
 122,-13.1696077,-9.8125818,-1.5080431,-1.5185527,-0.6197386,0.1481341,
 -0.8815268,0.978469,-0.888342,-0.1715424,0.1575395,-0.1005688,0.048987
 2,-1.8191818,-0.2669119,-0.2567292,-1.0305605,-0.1090501,-0.3636767,-8
 .7637998,1.6349717,6.5207193,-3.4191928,0.1373799,1.2891876,0.0361887,
 6.5393669,0.3912423,0.350652,-4.3123563,-1.3994793,-3.9360228,0.983484
 7,-5.4623693,0.4149764,-0.5914638,10.3452059,-4.684638,-2.3276852,3.05
 83634,0.2509925,-0.5483567,-1.5232487,-0.8955254,2.9066614,-5.2068101,
 -0.697769,0.4170139,-1.4551977,-0.1439204,-1.1976495,0.3192389,0.72736
 59,-2.39226,3.6595739,12.6394932,-2.4200653,1.7260295,1.8341443,-0.308
 3312,1.7059824,-0.8259026,1.4170065,-0.7333045,-0.2100407,1.0741854,0.
 130201,2.3707731,-0.4548238,1.3232233,1.9887121,-0.2095808,0.3388727,-
 1.7703583,-2.4148328,-3.8025252,1.0027557,0.3388402,-1.1624858,-1.9375
 418,-2.995173,-9.8979143,0.3036732,1.8951112,-1.2998677,1.2450734,0.31
 03061,2.628058,-0.9678052,-1.8391893,0.6873985,0.4702768,-0.1570152,-0
 .9625082,-1.3537907,-0.09485,-0.7394172,0.2692342,-0.7332567,0.2993282
 ,-0.1514477,-1.37917,0.7833986,-1.4566167,0.0918068,-1.7478286,0.28117
 81,-0.8644256,-12.4377474,-3.6556839,4.5222944,-2.5174544,-1.8367978,0
 .5346069,-0.0380442,3.3911123,-3.323253,12.1854008,0.5479475,-2.469178
 1,2.6032412,-1.4585927,0.9901059,-2.435936,-1.9439776,4.1544359,-4.782
 3401,-1.7743359,1.3607761,-2.8565311,0.7393982,-1.0470923,-0.9962889,1
 .1735893,-1.6168163,8.8737276,-0.6595186,2.9893692,2.3715778,0.8192022
 ,-0.5608964,3.4983309,-0.3196743,1.8836062,0.1163174,6.3453751,-0.9796
 373,-0.1335586,1.4747679,0.0145924,0.6437948,-3.2448105,-1.1111733,-5.
 6042396,-0.0486826,0.9726427,-1.220731,2.1673622,0.3754331,1.1148796,-
 0.5832782,-1.6329812,1.355156,-1.0267065,-0.4749821,1.3175592,1.900241
 2,0.227665,0.2185908,-0.2637228,0.9774129,-1.7037536,0.1977681,2.00022
 43,-1.7708783,1.8954294,0.3638001,2.3804257,-0.1073945,-2.6729224,13.8
 816837|HyperPolar=31.3777326,-9.062434,-1.4926799,-37.1105601,-6.09008
 29,-7.3735571,16.505869,21.348508,-7.8300203,-42.2099396|PG=C01 [X(C3H
 7N1O2)]|NImag=0||0.75288078,-0.07628612,0.68229556,0.03722392,0.095393
 64,0.27013142,-0.42483516,0.03019932,-0.12845451,0.45685991,0.03596039
 ,-0.07696952,0.00701858,-0.03196582,0.07854282,-0.18294766,0.00868805,
 -0.07863393,0.14439542,-0.01117964,0.07313851,-0.15499928,-0.05363167,
 0.01619541,-0.01974724,-0.03801535,0.01751743,0.59506062,-0.05339700,-
 0.21265260,0.02256261,0.00332637,0.00349523,0.00400767,0.01507733,0.58
 508561,0.04233150,0.06379038,-0.09622706,-0.00956719,-0.01408958,0.000
 46883,-0.00605161,-0.02952529,0.61488642,-0.00021170,0.00055375,-0.000
 43734,0.00004013,-0.00024301,0.00014918,0.00140329,-0.00387273,0.00140
 837,0.56230992,-0.00166789,0.00044122,-0.00027989,-0.00021472,-0.00041
 446,0.00010702,-0.00175340,-0.00484460,0.00346453,-0.07325807,0.063979
 15,0.00054950,0.00021831,0.00050759,0.00002765,0.00018512,0.00006365,-
 0.00021217,0.00236900,0.00328651,0.12252828,-0.03351568,0.04634159,0.0
 1069535,-0.02292898,-0.00910209,0.00104100,-0.00095735,-0.00052907,-0.
 11666320,0.04575592,0.02944260,0.00060616,0.00013884,-0.00040098,0.625
 00641,0.01371272,-0.03976615,-0.01411101,0.00062286,0.00152913,-0.0004
 9776,0.02892492,-0.16210150,-0.04459109,0.00014089,-0.00034929,0.00029
 308,0.04320242,0.57932795,-0.00539196,0.01105111,0.00755855,-0.0001983
 7,-0.00057233,-0.00001388,0.02245358,-0.04978700,-0.11890794,0.0002286
 3,0.00014171,-0.00013521,0.01603587,-0.04371138,0.61653067,-0.02416617
 ,-0.00303821,-0.00530742,0.00055382,-0.00043716,0.00088721,-0.21731656
 ,0.00132871,-0.02822191,-0.03744215,-0.05401052,0.01479501,-0.01226144
 ,0.01772336,0.00279709,0.78469332,-0.03747826,-0.00072481,-0.00547756,
 -0.00271310,-0.00806140,0.00283806,0.01676694,-0.09087839,-0.00713374,
 -0.00564897,0.00979700,-0.00407179,0.03304596,-0.00473522,0.00955690,-
 0.14238145,0.90432033,0.01139706,-0.00251838,0.00231082,0.00166047,0.0
 0290203,-0.00094879,-0.02487886,-0.00765745,-0.11786268,-0.00476508,-0
 .01214070,0.00674365,0.02277801,0.00311558,0.00869138,0.14594209,-0.26
 975140,0.42325951,0.00144589,-0.00110902,-0.00029065,0.00057807,0.0008
 1561,0.00010424,-0.01521533,-0.00022482,-0.00403476,0.00023159,0.00013
 513,0.00003725,-0.31963993,0.02033797,-0.06857807,0.00328772,0.0007083
 9,0.00304572,0.34563791,-0.00018715,0.00267397,0.00053674,-0.00016146,
 -0.00101008,-0.00014258,0.03337782,-0.00482326,0.00696563,-0.00003902,
 0.00021243,0.00014605,0.01694625,-0.05707470,0.00544346,-0.00295860,-0
 .00575667,-0.00505252,-0.02277427,0.05945693,-0.00030190,0.00131652,0.
 00024317,-0.00018840,0.00010285,0.00019052,0.01915474,-0.00164730,0.00
 401517,-0.00011170,-0.00010947,-0.00003671,-0.07119818,0.00547180,-0.0
 7501511,-0.00054954,-0.00326626,-0.00226806,0.07545291,-0.00266555,0.0
 7470043,-0.00118862,0.00302795,0.00143414,0.00016694,0.00039529,0.0002
 5429,0.00783503,0.01248612,-0.00644366,-0.00009190,0.00005491,0.000071
 06,-0.12137488,-0.11619971,0.04161805,0.00005284,-0.00009854,-0.000968
 52,-0.01435971,-0.02929405,0.01118508,0.12735317,0.00413872,-0.0065458
 9,-0.00348071,0.00008863,0.00032349,0.00006477,-0.01577092,-0.01906072
 ,0.01224525,0.00020946,0.00053987,0.00010920,-0.11007412,-0.25556311,0
 .06888235,-0.00242533,-0.00166806,0.00054669,0.00134021,0.00464180,-0.
 00217831,0.12400903,0.27609557,0.00220135,-0.00356548,-0.00079165,0.00
 036730,0.00035804,-0.00009369,-0.01092331,-0.01313799,0.00505875,0.000
 00468,-0.00002885,-0.00003168,0.04160953,0.07270606,-0.08412513,0.0002
 0816,0.00069989,0.00036388,-0.00395191,-0.00932937,0.00283698,-0.04667
 033,-0.07662564,0.08339266,0.00030602,-0.00094351,-0.00134038,0.000001
 04,0.00010467,-0.00008677,-0.00017249,-0.00157863,0.01752889,-0.000044
 90,0.00001094,-0.00002996,-0.05886077,0.00180822,-0.02095600,0.0006642
 2,-0.00069270,0.00153382,-0.00004193,0.00322616,-0.03587901,0.00178325
 ,0.00017815,0.01780974,0.05675737,-0.00027747,0.00254233,0.00050164,0.
 00001642,-0.00007407,-0.00009401,-0.00195164,0.00236289,-0.03159729,0.
 00001104,0.00007876,-0.00007621,0.00134646,-0.05967603,0.02735202,-0.0
 0165127,0.00162081,-0.00067067,-0.00007723,-0.00074348,0.00199218,0.00
 435748,-0.00049599,0.02996346,-0.00512950,0.05919619,-0.00079982,0.000
 32062,0.00190717,0.00010474,0.00008686,-0.00006619,0.00034304,0.002948
 05,-0.01562100,-0.00000136,-0.00006182,-0.00008753,-0.01988465,0.02329
 325,-0.33366529,-0.00214075,0.00038070,-0.00058959,-0.00092657,0.00075
 995,-0.00714644,-0.00076626,0.00088153,-0.00780521,0.02014696,-0.02491
 492,0.36230511,-0.00240286,0.00158557,-0.00097598,0.00032075,0.0008943
 0,-0.00110052,-0.00473705,0.04036752,-0.02087174,0.00521008,0.00664985
 ,-0.00087639,-0.00574069,-0.00358331,-0.00497399,-0.27341484,0.2323128
 7,-0.12400508,-0.00162288,0.00281880,0.00167157,0.00024901,0.00069738,
 -0.00002204,0.00031295,0.00012757,0.00107590,0.24580359,-0.00406808,0.
 00124305,-0.00288357,-0.00020297,0.00185839,-0.00064533,0.00527637,-0.
 01251017,0.01863776,0.01005038,0.00230838,-0.00115370,0.00030237,0.003
 04003,0.00192085,0.26411951,-0.56980599,0.23528532,0.00120950,-0.00087
 464,-0.00071780,-0.00006723,0.00026419,-0.00005949,-0.00007846,-0.0003
 7121,-0.00078474,-0.26313354,0.69537491,0.00216437,-0.00052909,0.00024
 352,-0.00003553,-0.00038464,0.00049747,-0.01021948,0.02523703,0.020504
 83,-0.00219146,-0.00184799,-0.00478329,-0.00653691,-0.00306877,-0.0045
 6466,-0.13630567,0.23123920,-0.21146853,-0.00125965,0.00227285,0.00130
 847,0.00030328,0.00000842,0.00000175,-0.00009638,0.00020065,0.00049132
 ,0.14098781,-0.31135658,0.18595305,-0.14106488,0.13418987,0.06808240,-
 0.01504087,0.03622208,0.02069625,0.01233738,-0.02110926,-0.01207539,-0
 .00008509,0.00000961,-0.00000098,-0.00330168,-0.00362269,0.00142177,-0
 .00006449,-0.00366464,-0.00030239,0.00032332,0.00005133,0.00016338,0.0
 0075564,-0.00142010,-0.00046081,-0.00008006,0.00015863,-0.00003155,0.0
 0017692,0.00154812,0.00022665,0.14532173,0.12987182,-0.33770700,-0.136
 31910,-0.00026919,-0.00040156,-0.00163145,0.01546444,-0.02613645,-0.01
 706305,-0.00011723,0.00005222,0.00004428,-0.00476551,-0.00416496,0.003
 16829,-0.00027796,-0.00163482,0.00001413,0.00001111,0.00043433,0.00018
 781,0.00082565,-0.00121725,-0.00108185,-0.00009959,0.00029164,-0.00006
 490,0.00104867,0.00182709,0.00018220,-0.14340557,0.36646791,0.08995696
 ,-0.18416914,-0.10402233,-0.00818957,0.01581224,0.00386262,-0.00549535
 ,0.01575116,0.00082049,-0.00008600,-0.00005409,-0.00002389,0.00045166,
 0.00054296,0.00040546,0.00048874,-0.00296434,0.00216605,0.00016065,0.0
 0004010,-0.00009702,0.00009204,-0.00005797,0.00066796,-0.00004904,0.00
 035081,0.00035252,0.00147053,0.00183567,-0.00037636,-0.07773465,0.1522
 5572,0.09572630,-0.01413342,0.00140582,-0.00251250,-0.00127267,-0.0034
 0847,0.00044502,-0.02219407,-0.03961238,0.01086906,-0.53227369,0.12352
 773,-0.13727635,-0.00197216,-0.00187839,-0.00162471,-0.22993346,-0.092
 10650,0.01045929,-0.00122367,0.00029089,0.00072909,-0.00181751,-0.0007
 1112,0.00057072,-0.00002637,0.00018920,0.00094143,0.04385426,-0.020632
 96,0.01012542,0.00053541,0.00077292,-0.00008980,0.76238435,-0.00202304
 ,0.00093078,-0.00044064,-0.00014286,0.00001278,-0.00019009,-0.00442689
 ,0.00210399,0.00482905,0.07192727,-0.07164846,0.03580312,-0.00053282,-
 0.00306044,-0.00079978,-0.07865529,-0.23183840,0.04795632,-0.00007311,
 0.00145101,0.00025792,0.00114042,0.00153170,-0.00052231,-0.00002233,0.
 00006453,0.00025839,-0.02090048,-0.12224611,0.05901787,0.00083798,0.00
 073541,0.00061365,0.03334349,0.42221605,-0.00179903,0.00077239,0.00048
 720,-0.00031304,-0.00046612,0.00045597,-0.00668808,-0.00253578,0.01437
 302,-0.11632060,0.04433095,-0.05234278,-0.00143263,-0.00015242,-0.0000
 0237,0.00657015,0.04573184,-0.09626589,-0.00019920,0.00045843,0.000277
 09,0.00023686,0.00000108,-0.00010847,-0.00023740,-0.00000692,0.0000967
 7,0.01039805,0.05956180,0.01186748,-0.00020360,-0.00010126,-0.00037239
 ,0.10728333,-0.14684962,0.11973326,-0.00232595,-0.01302477,0.02548498,
 0.00133428,0.00063481,0.00021498,-0.06559112,0.00145286,-0.01431417,0.
 00034826,0.00037760,0.00078808,0.00246583,-0.00118926,0.01716811,0.005
 34720,0.00194999,-0.04189653,0.00059895,-0.00129669,-0.00012805,0.0006
 3674,-0.00026000,-0.00074308,-0.00059834,0.00288032,0.00193889,-0.0080
 0925,0.00567699,0.00283754,0.00018666,0.00094045,-0.00097617,-0.001927
 02,-0.00047232,0.00270518,0.06753376,-0.00829865,-0.01576094,0.0369792
 7,0.00141654,0.00116924,-0.00132472,0.00066206,-0.06004004,0.03406744,
 0.00028623,-0.00015222,-0.00035077,-0.00147944,0.00259429,-0.03264620,
 0.00266420,-0.00063439,0.00797105,-0.00029947,0.00141237,0.00125560,-0
 .00063732,0.00115442,0.00062352,0.00321658,-0.00479638,-0.00310298,0.0
 0111481,-0.00010791,-0.00097114,0.00020465,0.00145343,0.00004322,-0.00
 118022,-0.00025285,-0.00074437,0.00233002,0.07396098,0.00541569,0.0092
 3106,-0.00371446,0.00039103,0.00022657,0.00107890,-0.01119535,0.031415
 30,-0.31479533,-0.00040559,-0.00000570,0.00049809,-0.00123317,0.000709
 71,-0.01675647,0.00083684,0.00221850,-0.01413174,0.00044004,0.00056681
 ,0.00099151,-0.00034603,-0.00039666,0.00063385,0.00165554,-0.00300076,
 -0.00017163,-0.00277813,0.00035979,0.00032494,0.00021890,0.00040917,0.
 00089060,0.00007998,0.00006614,0.00180113,0.00692024,-0.04179993,0.343
 35061||-0.00002256,-0.00002324,0.00000185,0.00000231,0.00001092,0.0000
 0132,0.00002416,0.00002877,-0.00000745,-0.00000086,-0.00001068,0.00000
 731,-0.00000035,-0.00000005,-0.00000427,-0.00002107,-0.00004740,0.0000
 1941,0.00000538,0.00000420,-0.00000944,0.00000745,0.00000217,-0.000006
 85,0.00000046,0.00000467,-0.00000535,-0.00000365,0.00001815,-0.0000019
 7,-0.00000352,0.00000645,0.00000867,0.00001321,0.00001340,-0.00000568,
 -0.00000097,-0.00000735,0.00000244|||@


 A true friend is someone who is there for
 you when he'd rather be anywhere else.
                               -- Len Wein
 Job cpu time:  0 days  0 hours 15 minutes 23.0 seconds.
 File lengths (MBytes):  RWF=     58 Int=      0 D2E=      0 Chk=      6 Scr=      1
 Normal termination of Gaussian 09 at Sat Apr 16 15:33:15 2016.
