 Entering Gaussian System, Link 0=g09
 Input=Ala-S-opt-freq-tsb1-6-31g.com
 Output=Ala-S-opt-freq-tsb1-6-31g.log
 Initial command:
 /usr/local/gau/g09/l1.exe "/tmp/Gau-2355.inp" -scrdir="/tmp/"
 Entering Link 1 = /usr/local/gau/g09/l1.exe PID=      2357.
  
 Copyright (c) 1988,1990,1992,1993,1995,1998,2003,2009,2013,
            Gaussian, Inc.  All Rights Reserved.
  
 This is part of the Gaussian(R) 09 program.  It is based on
 the Gaussian(R) 03 system (copyright 2003, Gaussian, Inc.),
 the Gaussian(R) 98 system (copyright 1998, Gaussian, Inc.),
 the Gaussian(R) 94 system (copyright 1995, Gaussian, Inc.),
 the Gaussian 92(TM) system (copyright 1992, Gaussian, Inc.),
 the Gaussian 90(TM) system (copyright 1990, Gaussian, Inc.),
 the Gaussian 88(TM) system (copyright 1988, Gaussian, Inc.),
 the Gaussian 86(TM) system (copyright 1986, Carnegie Mellon
 University), and the Gaussian 82(TM) system (copyright 1983,
 Carnegie Mellon University). Gaussian is a federally registered
 trademark of Gaussian, Inc.
  
 This software contains proprietary and confidential information,
 including trade secrets, belonging to Gaussian, Inc.
  
 This software is provided under written license and may be
 used, copied, transmitted, or stored only in accord with that
 written license.
  
 The following legend is applicable only to US Government
 contracts under FAR:
  
                    RESTRICTED RIGHTS LEGEND
  
 Use, reproduction and disclosure by the US Government is
 subject to restrictions as set forth in subparagraphs (a)
 and (c) of the Commercial Computer Software - Restricted
 Rights clause in FAR 52.227-19.
  
 Gaussian, Inc.
 340 Quinnipiac St., Bldg. 40, Wallingford CT 06492
  
  
 ---------------------------------------------------------------
 Warning -- This program may not be used in any manner that
 competes with the business of Gaussian, Inc. or will provide
 assistance to any competitor of Gaussian, Inc.  The licensee
 of this program is prohibited from giving any competitor of
 Gaussian, Inc. access to this program.  By using this program,
 the user acknowledges that Gaussian, Inc. is engaged in the
 business of creating and licensing software in the field of
 computational chemistry and represents and warrants to the
 licensee that it is not a competitor of Gaussian, Inc. and that
 it will not use this program in any manner prohibited above.
 ---------------------------------------------------------------
  

 Cite this work as:
 Gaussian 09, Revision D.01,
 M. J. Frisch, G. W. Trucks, H. B. Schlegel, G. E. Scuseria, 
 M. A. Robb, J. R. Cheeseman, G. Scalmani, V. Barone, B. Mennucci, 
 G. A. Petersson, H. Nakatsuji, M. Caricato, X. Li, H. P. Hratchian, 
 A. F. Izmaylov, J. Bloino, G. Zheng, J. L. Sonnenberg, M. Hada, 
 M. Ehara, K. Toyota, R. Fukuda, J. Hasegawa, M. Ishida, T. Nakajima, 
 Y. Honda, O. Kitao, H. Nakai, T. Vreven, J. A. Montgomery, Jr., 
 J. E. Peralta, F. Ogliaro, M. Bearpark, J. J. Heyd, E. Brothers, 
 K. N. Kudin, V. N. Staroverov, T. Keith, R. Kobayashi, J. Normand, 
 K. Raghavachari, A. Rendell, J. C. Burant, S. S. Iyengar, J. Tomasi, 
 M. Cossi, N. Rega, J. M. Millam, M. Klene, J. E. Knox, J. B. Cross, 
 V. Bakken, C. Adamo, J. Jaramillo, R. Gomperts, R. E. Stratmann, 
 O. Yazyev, A. J. Austin, R. Cammi, C. Pomelli, J. W. Ochterski, 
 R. L. Martin, K. Morokuma, V. G. Zakrzewski, G. A. Voth, 
 P. Salvador, J. J. Dannenberg, S. Dapprich, A. D. Daniels, 
 O. Farkas, J. B. Foresman, J. V. Ortiz, J. Cioslowski, 
 and D. J. Fox, Gaussian, Inc., Wallingford CT, 2013.
 
 ******************************************
 Gaussian 09:  ES64L-G09RevD.01 24-Apr-2013
                11-Apr-2016 
 ******************************************
 %chk=Ala-S-opt-freq-tsb1-6-31g.chk
 -----------------------------------------------
 # opt=(calcfc,ts) freq rb3lyp/6-31g iop(1/11=1)
 -----------------------------------------------
 1/5=1,10=4,11=1,14=-1,18=20,26=3,38=1/1,3;
 2/9=110,12=2,17=6,18=5,40=1/2;
 3/5=1,6=6,11=2,16=1,25=1,30=1,71=2,74=-5,116=1,140=1/1,2,3;
 4//1;
 5/5=2,38=5/2;
 8/6=4,10=90,11=11/1;
 11/6=1,8=1,9=11,15=111,16=1/1,2,10;
 10/6=1,13=1/2;
 6/7=2,8=2,9=2,10=2,28=1/1;
 7/10=1,18=20,25=1/1,2,3,16;
 1/5=1,10=4,11=1,14=-1,18=20,26=3/3(2);
 2/9=110/2;
 99//99;
 2/9=110/2;
 3/5=1,6=6,11=2,16=1,25=1,30=1,71=1,74=-5,116=1/1,2,3;
 4/5=5,16=3,69=1/1;
 5/5=2,38=5/2;
 7//1,2,3,16;
 1/5=1,11=1,14=-1,18=20,26=3/3(-5);
 2/9=110/2;
 6/7=2,8=2,9=2,10=2,19=2,28=1/1;
 99/9=1/99;
 -------------------------
 Ala-S-opt-freq-tsb1-6-31g
 -------------------------
 Symbolic Z-matrix:
 Charge =  0 Multiplicity = 1
 N                    -1.48464  -0.95566  -0.22514 
 H                    -1.2619   -1.52801   0.58363 
 C                    -0.72353   0.28842  -0.19275 
 H                    -0.00012  -1.38319  -0.24643 
 C                    -1.26744   1.37052   0.76828 
 C                     0.7056   -0.03821   0.20667 
 H                    -1.27732   1.00092   1.79734 
 H                    -0.66678   2.28271   0.72515 
 H                    -2.29202   1.62601   0.48531 
 O                     1.03812  -0.96792   0.89796 
 H                    -2.48163  -0.77259  -0.22839 
 O                     1.58435   0.87728  -0.26351 
 H                     2.4605    0.6346    0.07283 
 
 Add virtual bond connecting atoms H4         and N1         Dist= 2.92D+00.
 Add virtual bond connecting atoms H4         and H2         Dist= 2.87D+00.
 Add virtual bond connecting atoms H4         and C6         Dist= 3.00D+00.
 Add virtual bond connecting atoms H4         and O10        Dist= 3.02D+00.

 GradGradGradGradGradGradGradGradGradGradGradGradGradGradGradGradGradGrad
 Berny optimization.
 Initialization pass.
                           ----------------------------
                           !    Initial Parameters    !
                           ! (Angstroms and Degrees)  !
 --------------------------                            --------------------------
 ! Name  Definition              Value          Derivative Info.                !
 --------------------------------------------------------------------------------
 ! R1    R(1,2)                  1.0155         calculate D2E/DX2 analytically  !
 ! R2    R(1,3)                  1.4588         calculate D2E/DX2 analytically  !
 ! R3    R(1,4)                  1.545          calculate D2E/DX2 analytically  !
 ! R4    R(1,11)                 1.0137         calculate D2E/DX2 analytically  !
 ! R5    R(2,4)                  1.5173         calculate D2E/DX2 analytically  !
 ! R6    R(3,5)                  1.5461         calculate D2E/DX2 analytically  !
 ! R7    R(3,6)                  1.5194         calculate D2E/DX2 analytically  !
 ! R8    R(4,6)                  1.585          calculate D2E/DX2 analytically  !
 ! R9    R(4,10)                 1.6            calculate D2E/DX2 analytically  !
 ! R10   R(5,7)                  1.0935         calculate D2E/DX2 analytically  !
 ! R11   R(5,8)                  1.093          calculate D2E/DX2 analytically  !
 ! R12   R(5,9)                  1.0932         calculate D2E/DX2 analytically  !
 ! R13   R(6,10)                 1.2053         calculate D2E/DX2 analytically  !
 ! R14   R(6,12)                 1.3533         calculate D2E/DX2 analytically  !
 ! R15   R(12,13)                0.9694         calculate D2E/DX2 analytically  !
 ! A1    A(2,1,3)              110.397          calculate D2E/DX2 analytically  !
 ! A2    A(2,1,11)             108.6676         calculate D2E/DX2 analytically  !
 ! A3    A(3,1,4)               74.6315         calculate D2E/DX2 analytically  !
 ! A4    A(3,1,11)             111.0515         calculate D2E/DX2 analytically  !
 ! A5    A(1,3,5)              115.2856         calculate D2E/DX2 analytically  !
 ! A6    A(1,3,6)              108.2548         calculate D2E/DX2 analytically  !
 ! A7    A(5,3,6)              108.5388         calculate D2E/DX2 analytically  !
 ! A8    A(1,4,6)              100.898          calculate D2E/DX2 analytically  !
 ! A9    A(1,4,10)             122.8075         calculate D2E/DX2 analytically  !
 ! A10   A(2,4,6)              107.15           calculate D2E/DX2 analytically  !
 ! A11   A(2,4,10)              99.9692         calculate D2E/DX2 analytically  !
 ! A12   A(3,5,7)              110.5846         calculate D2E/DX2 analytically  !
 ! A13   A(3,5,8)              111.4838         calculate D2E/DX2 analytically  !
 ! A14   A(3,5,9)              109.4138         calculate D2E/DX2 analytically  !
 ! A15   A(7,5,8)              108.9163         calculate D2E/DX2 analytically  !
 ! A16   A(7,5,9)              108.308          calculate D2E/DX2 analytically  !
 ! A17   A(8,5,9)              108.0458         calculate D2E/DX2 analytically  !
 ! A18   A(3,6,4)               71.8496         calculate D2E/DX2 analytically  !
 ! A19   A(3,6,10)             125.1745         calculate D2E/DX2 analytically  !
 ! A20   A(3,6,12)             111.962          calculate D2E/DX2 analytically  !
 ! A21   A(4,6,12)             139.8033         calculate D2E/DX2 analytically  !
 ! A22   A(10,6,12)            122.815          calculate D2E/DX2 analytically  !
 ! A23   A(6,12,13)            107.2766         calculate D2E/DX2 analytically  !
 ! A24   L(4,1,11,3,-1)        185.6829         calculate D2E/DX2 analytically  !
 ! A25   L(4,1,11,3,-2)        179.1239         calculate D2E/DX2 analytically  !
 ! D1    D(2,1,3,5)            -78.2711         calculate D2E/DX2 analytically  !
 ! D2    D(2,1,3,6)             43.4703         calculate D2E/DX2 analytically  !
 ! D3    D(4,1,3,5)           -138.5481         calculate D2E/DX2 analytically  !
 ! D4    D(4,1,3,6)            -16.8066         calculate D2E/DX2 analytically  !
 ! D5    D(11,1,3,5)            42.328          calculate D2E/DX2 analytically  !
 ! D6    D(11,1,3,6)           164.0694         calculate D2E/DX2 analytically  !
 ! D7    D(3,1,4,6)             15.5488         calculate D2E/DX2 analytically  !
 ! D8    D(3,1,4,10)            57.7734         calculate D2E/DX2 analytically  !
 ! D9    D(1,3,5,7)             60.0762         calculate D2E/DX2 analytically  !
 ! D10   D(1,3,5,8)           -178.5935         calculate D2E/DX2 analytically  !
 ! D11   D(1,3,5,9)            -59.1421         calculate D2E/DX2 analytically  !
 ! D12   D(6,3,5,7)            -61.5121         calculate D2E/DX2 analytically  !
 ! D13   D(6,3,5,8)             59.8182         calculate D2E/DX2 analytically  !
 ! D14   D(6,3,5,9)            179.2696         calculate D2E/DX2 analytically  !
 ! D15   D(1,3,6,4)             16.6184         calculate D2E/DX2 analytically  !
 ! D16   D(1,3,6,10)           -28.5941         calculate D2E/DX2 analytically  !
 ! D17   D(1,3,6,12)           153.8859         calculate D2E/DX2 analytically  !
 ! D18   D(5,3,6,4)            142.421          calculate D2E/DX2 analytically  !
 ! D19   D(5,3,6,10)            97.2085         calculate D2E/DX2 analytically  !
 ! D20   D(5,3,6,12)           -80.3115         calculate D2E/DX2 analytically  !
 ! D21   D(1,4,6,3)            -15.1387         calculate D2E/DX2 analytically  !
 ! D22   D(1,4,6,12)          -117.9552         calculate D2E/DX2 analytically  !
 ! D23   D(2,4,6,3)            -54.5977         calculate D2E/DX2 analytically  !
 ! D24   D(2,4,6,12)          -157.4143         calculate D2E/DX2 analytically  !
 ! D25   D(3,6,12,13)          176.6707         calculate D2E/DX2 analytically  !
 ! D26   D(4,6,12,13)          -95.804          calculate D2E/DX2 analytically  !
 ! D27   D(10,6,12,13)          -0.9173         calculate D2E/DX2 analytically  !
 --------------------------------------------------------------------------------
 Trust Radius=3.00D-01 FncErr=1.00D-07 GrdErr=1.00D-06
 Number of steps in this run=     77 maximum allowed number of steps=    100.
 Search for a saddle point of order  1.
 GradGradGradGradGradGradGradGradGradGradGradGradGradGradGradGradGradGrad

                          Input orientation:                          
 ---------------------------------------------------------------------
 Center     Atomic      Atomic             Coordinates (Angstroms)
 Number     Number       Type             X           Y           Z
 ---------------------------------------------------------------------
      1          7           0       -1.484643   -0.955662   -0.225137
      2          1           0       -1.261898   -1.528007    0.583627
      3          6           0       -0.723525    0.288418   -0.192753
      4          1           0       -0.000117   -1.383190   -0.246425
      5          6           0       -1.267438    1.370516    0.768284
      6          6           0        0.705596   -0.038213    0.206674
      7          1           0       -1.277317    1.000919    1.797336
      8          1           0       -0.666780    2.282705    0.725148
      9          1           0       -2.292021    1.626007    0.485311
     10          8           0        1.038117   -0.967918    0.897961
     11          1           0       -2.481626   -0.772586   -0.228390
     12          8           0        1.584350    0.877284   -0.263513
     13          1           0        2.460500    0.634596    0.072831
 ---------------------------------------------------------------------
                    Distance matrix (angstroms):
                    1          2          3          4          5
     1  N    0.000000
     2  H    1.015526   0.000000
     3  C    1.458796   2.047440   0.000000
     4  H    1.545009   1.517251   1.822217   0.000000
     5  C    2.538733   2.904404   1.546082   3.196660   0.000000
     6  C    2.413570   2.496520   1.519413   1.585022   2.488531
     7  H    2.821629   2.805137   2.185131   3.390011   1.093457
     8  H    3.472602   3.859497   2.196120   3.850608   1.093041
     9  H    2.796714   3.319431   2.170045   3.852730   1.093215
    10  O    2.761488   2.388006   2.423101   1.600000   3.286438
    11  H    1.013658   1.648566   2.053757   2.555592   2.657160
    12  O    3.574896   3.821544   2.382867   2.760538   3.072552
    13  H    4.264019   4.335206   3.213781   3.198128   3.862998
                    6          7          8          9         10
     6  C    0.000000
     7  H    2.746260   0.000000
     8  H    2.745704   1.779134   0.000000
     9  H    3.439909   1.772504   1.769232   0.000000
    10  O    1.205321   3.169610   3.674655   4.241291   0.000000
    11  H    3.299541   2.949448   3.679362   2.509695   3.700731
    12  O    1.353299   3.528671   2.832004   4.018405   2.247702
    13  H    1.884217   4.132721   3.594671   4.872319   2.296098
                   11         12         13
    11  H    0.000000
    12  O    4.388105   0.000000
    13  H    5.147378   0.969362   0.000000
 Stoichiometry    C3H7NO2
 Framework group  C1[X(C3H7NO2)]
 Deg. of freedom    33
 Full point group                 C1      NOp   1
 Largest Abelian subgroup         C1      NOp   1
 Largest concise Abelian subgroup C1      NOp   1
                         Standard orientation:                         
 ---------------------------------------------------------------------
 Center     Atomic      Atomic             Coordinates (Angstroms)
 Number     Number       Type             X           Y           Z
 ---------------------------------------------------------------------
      1          7           0       -1.430939   -1.053876   -0.431235
      2          1           0       -1.223447   -1.587973    0.407205
      3          6           0       -0.661032    0.185089   -0.448336
      4          1           0        0.050496   -1.492060   -0.411281
      5          6           0       -1.209776    1.316057    0.451753
      6          6           0        0.760068   -0.131606   -0.013832
      7          1           0       -1.236343    0.996702    1.497197
      8          1           0       -0.601775    2.220973    0.373009
      9          1           0       -2.228496    1.564563    0.142600
     10          8           0        1.076235   -1.029064    0.726037
     11          1           0       -2.426388   -0.864369   -0.457145
     12          8           0        1.651934    0.754076   -0.515391
     13          1           0        2.521612    0.521951   -0.155611
 ---------------------------------------------------------------------
 Rotational constants (GHZ):      5.0393891      3.0808370      2.3132578
 Standard basis: 6-31G (6D, 7F)
 There are    68 symmetry adapted cartesian basis functions of A   symmetry.
 There are    68 symmetry adapted basis functions of A   symmetry.
    68 basis functions,   160 primitive gaussians,    68 cartesian basis functions
    24 alpha electrons       24 beta electrons
       nuclear repulsion energy       249.8276636492 Hartrees.
 NAtoms=   13 NActive=   13 NUniq=   13 SFac= 1.00D+00 NAtFMM=   60 NAOKFM=F Big=F
 Integral buffers will be    131072 words long.
 Raffenetti 2 integral format.
 Two-electron integral symmetry is turned on.
 One-electron integrals computed using PRISM.
 NBasis=    68 RedAO= T EigKep=  4.35D-03  NBF=    68
 NBsUse=    68 1.00D-06 EigRej= -1.00D+00 NBFU=    68
 ExpMin= 1.61D-01 ExpMax= 5.48D+03 ExpMxC= 8.25D+02 IAcc=1 IRadAn=         1 AccDes= 0.00D+00
 Harris functional with IExCor=  402 and IRadAn=       1 diagonalized for initial guess.
 HarFok:  IExCor=  402 AccDes= 0.00D+00 IRadAn=         1 IDoV= 1 UseB2=F ITyADJ=14
 ICtDFT=  3500011 ScaDFX=  1.000000  1.000000  1.000000  1.000000
 FoFCou: FMM=F IPFlag=           0 FMFlag=      100000 FMFlg1=           0
         NFxFlg=           0 DoJE=T BraDBF=F KetDBF=T FulRan=T
         wScrn=  0.000000 ICntrl=     500 IOpCl=  0 I1Cent=   200000004 NGrid=           0
         NMat0=    1 NMatS0=      1 NMatT0=    0 NMatD0=    1 NMtDS0=    0 NMtDT0=    0
 Petite list used in FoFCou.
 Keep R1 ints in memory in canonical form, NReq=3676491.
 Requested convergence on RMS density matrix=1.00D-08 within 128 cycles.
 Requested convergence on MAX density matrix=1.00D-06.
 Requested convergence on             energy=1.00D-06.
 No special actions if energy rises.
 Integral accuracy reduced to 1.0D-05 until final iterations.
 EnCoef did     2 forward-backward iterations
 Initial convergence to 1.0D-05 achieved.  Increase integral accuracy.
 SCF Done:  E(RB3LYP) =  -323.379808678     A.U. after   21 cycles
            NFock= 21  Conv=0.80D-08     -V/T= 2.0043
 DoSCS=F DFT=T ScalE2(SS,OS)=  1.000000  1.000000
 Range of M.O.s used for correlation:     1    68
 NBasis=    68 NAE=    24 NBE=    24 NFC=     0 NFV=     0
 NROrb=     68 NOA=    24 NOB=    24 NVA=    44 NVB=    44

 **** Warning!!: The smallest alpha delta epsilon is  0.58829725D-01

 Symmetrizing basis deriv contribution to polar:
 IMax=3 JMax=2 DiffMx= 0.00D+00
 G2DrvN: will do    14 centers at a time, making    1 passes.
 Calling FoFCou, ICntrl=  3107 FMM=F I1Cent=   0 AccDes= 0.00D+00.
 End of G2Drv F.D. properties file   721 does not exist.
 End of G2Drv F.D. properties file   722 does not exist.
 End of G2Drv F.D. properties file   788 does not exist.
          IDoAtm=1111111111111
          Differentiating once with respect to nuclear coordinates.
 Keep R1 ints in memory in canonical form, NReq=3645290.
          There are    42 degrees of freedom in the 1st order CPHF.  IDoFFX=6 NUNeed=     0.
     36 vectors produced by pass  0 Test12= 2.51D-15 2.38D-09 XBig12= 2.30D-01 1.79D-01.
 AX will form    36 AO Fock derivatives at one time.
     36 vectors produced by pass  1 Test12= 2.51D-15 2.38D-09 XBig12= 2.60D-02 5.18D-02.
     36 vectors produced by pass  2 Test12= 2.51D-15 2.38D-09 XBig12= 2.19D-04 3.60D-03.
     36 vectors produced by pass  3 Test12= 2.51D-15 2.38D-09 XBig12= 3.62D-07 1.65D-04.
     36 vectors produced by pass  4 Test12= 2.51D-15 2.38D-09 XBig12= 3.07D-10 2.51D-06.
     19 vectors produced by pass  5 Test12= 2.51D-15 2.38D-09 XBig12= 1.90D-13 7.22D-08.
 InvSVY:  IOpt=1 It=  1 EMax= 1.44D-15
 Solved reduced A of dimension   199 with    36 vectors.
 End of Minotr F.D. properties file   721 does not exist.
 End of Minotr F.D. properties file   722 does not exist.
 End of Minotr F.D. properties file   788 does not exist.

 **********************************************************************

            Population analysis using the SCF density.

 **********************************************************************

 Orbital symmetries:
       Occupied  (A) (A) (A) (A) (A) (A) (A) (A) (A) (A) (A) (A)
                 (A) (A) (A) (A) (A) (A) (A) (A) (A) (A) (A) (A)
       Virtual   (A) (A) (A) (A) (A) (A) (A) (A) (A) (A) (A) (A)
                 (A) (A) (A) (A) (A) (A) (A) (A) (A) (A) (A) (A)
                 (A) (A) (A) (A) (A) (A) (A) (A) (A) (A) (A) (A)
                 (A) (A) (A) (A) (A) (A) (A) (A)
 The electronic state is 1-A.
 Alpha  occ. eigenvalues --  -19.20037 -19.19420 -14.38514 -10.32789 -10.17410
 Alpha  occ. eigenvalues --  -10.16793  -1.16421  -1.06767  -0.94179  -0.73989
 Alpha  occ. eigenvalues --   -0.67112  -0.61033  -0.55542  -0.51002  -0.50163
 Alpha  occ. eigenvalues --   -0.47963  -0.41411  -0.40544  -0.39745  -0.37368
 Alpha  occ. eigenvalues --   -0.34869  -0.32429  -0.30244  -0.14280
 Alpha virt. eigenvalues --   -0.08397   0.00632   0.06914   0.08807   0.12091
 Alpha virt. eigenvalues --    0.14709   0.17758   0.18494   0.22510   0.25052
 Alpha virt. eigenvalues --    0.27700   0.31404   0.38512   0.52280   0.54635
 Alpha virt. eigenvalues --    0.57986   0.59407   0.63375   0.64869   0.68535
 Alpha virt. eigenvalues --    0.70414   0.72233   0.77229   0.77974   0.81260
 Alpha virt. eigenvalues --    0.84121   0.85174   0.91257   0.91747   0.94298
 Alpha virt. eigenvalues --    0.95362   0.96591   1.00309   1.01414   1.01846
 Alpha virt. eigenvalues --    1.03972   1.10786   1.15527   1.21859   1.30181
 Alpha virt. eigenvalues --    1.48608   1.66158   1.79447   1.97156
          Condensed to atoms (all electrons):
               1          2          3          4          5          6
     1  N    7.000739   0.265210   0.168421   0.160713  -0.092697  -0.073975
     2  H    0.265210   0.649646  -0.074194  -0.129312   0.003503  -0.008487
     3  C    0.168421  -0.074194   5.506242  -0.093441   0.396216   0.402503
     4  H    0.160713  -0.129312  -0.093441   0.727733   0.011313  -0.043921
     5  C   -0.092697   0.003503   0.396216   0.011313   5.114035  -0.057427
     6  C   -0.073975  -0.008487   0.402503  -0.043921  -0.057427   5.185418
     7  H   -0.000839   0.012952  -0.084880  -0.005073   0.356998  -0.012918
     8  H    0.005115  -0.000269  -0.024269  -0.000202   0.361387  -0.002585
     9  H   -0.001873  -0.002452  -0.039256   0.000650   0.363161   0.004090
    10  O   -0.017698   0.039748  -0.154522   0.027075   0.001782   0.244296
    11  H    0.329529  -0.057388  -0.035721   0.010947  -0.001670   0.006127
    12  O    0.003038  -0.000061  -0.105253   0.011416  -0.002657   0.151947
    13  H   -0.000328   0.000080   0.009710  -0.001901  -0.000550  -0.019627
               7          8          9         10         11         12
     1  N   -0.000839   0.005115  -0.001873  -0.017698   0.329529   0.003038
     2  H    0.012952  -0.000269  -0.002452   0.039748  -0.057388  -0.000061
     3  C   -0.084880  -0.024269  -0.039256  -0.154522  -0.035721  -0.105253
     4  H   -0.005073  -0.000202   0.000650   0.027075   0.010947   0.011416
     5  C    0.356998   0.361387   0.363161   0.001782  -0.001670  -0.002657
     6  C   -0.012918  -0.002585   0.004090   0.244296   0.006127   0.151947
     7  H    0.720184  -0.036602  -0.056760   0.006379  -0.003901  -0.000061
     8  H   -0.036602   0.550984  -0.020520  -0.000246  -0.000065   0.003963
     9  H   -0.056760  -0.020520   0.617256  -0.000262   0.008816   0.000044
    10  O    0.006379  -0.000246  -0.000262   8.351780  -0.000643  -0.117587
    11  H   -0.003901  -0.000065   0.008816  -0.000643   0.399216  -0.000014
    12  O   -0.000061   0.003963   0.000044  -0.117587  -0.000014   8.336154
    13  H    0.000122  -0.000234   0.000008   0.003326   0.000003   0.219924
              13
     1  N   -0.000328
     2  H    0.000080
     3  C    0.009710
     4  H   -0.001901
     5  C   -0.000550
     6  C   -0.019627
     7  H    0.000122
     8  H   -0.000234
     9  H    0.000008
    10  O    0.003326
    11  H    0.000003
    12  O    0.219924
    13  H    0.424264
 Mulliken charges:
               1
     1  N   -0.745356
     2  H    0.301025
     3  C    0.128442
     4  H    0.324002
     5  C   -0.453394
     6  C    0.224558
     7  H    0.104398
     8  H    0.163543
     9  H    0.127097
    10  O   -0.383428
    11  H    0.344762
    12  O   -0.500852
    13  H    0.365202
 Sum of Mulliken charges =   0.00000
 Mulliken charges with hydrogens summed into heavy atoms:
               1
     1  N    0.224433
     3  C    0.128442
     5  C   -0.058355
     6  C    0.224558
    10  O   -0.383428
    12  O   -0.135649
 APT charges:
               1
     1  N   -1.040376
     2  H    0.347945
     3  C    0.156462
     4  H    0.229302
     5  C   -1.208553
     6  C   -0.075075
     7  H    0.247916
     8  H    0.382156
     9  H    0.457096
    10  O   -0.179218
    11  H    0.662077
    12  O   -0.632372
    13  H    0.652641
 Sum of APT charges =   0.00000
 APT charges with hydrogens summed into heavy atoms:
               1
     1  N    0.198948
     3  C    0.156462
     5  C   -0.121385
     6  C   -0.075075
    10  O   -0.179218
    12  O    0.020269
 Electronic spatial extent (au):  <R**2>=            578.0565
 Charge=              0.0000 electrons
 Dipole moment (field-independent basis, Debye):
    X=             -0.5582    Y=             -1.1672    Z=              1.5731  Tot=              2.0368
 Quadrupole moment (field-independent basis, Debye-Ang):
   XX=            -26.6670   YY=            -38.0211   ZZ=            -42.3622
   XY=              2.9062   XZ=             -1.2508   YZ=              2.3204
 Traceless Quadrupole moment (field-independent basis, Debye-Ang):
   XX=              9.0165   YY=             -2.3377   ZZ=             -6.6788
   XY=              2.9062   XZ=             -1.2508   YZ=              2.3204
 Octapole moment (field-independent basis, Debye-Ang**2):
  XXX=             11.5953  YYY=             -3.0722  ZZZ=              4.8838  XYY=             -1.1695
  XXY=             -1.4697  XXZ=             -0.8937  XZZ=              3.5191  YZZ=             -0.9063
  YYZ=              1.7546  XYZ=              5.8121
 Hexadecapole moment (field-independent basis, Debye-Ang**3):
 XXXX=           -271.3668 YYYY=           -240.3419 ZZZZ=           -102.0258 XXXY=             30.3445
 XXXZ=              6.1328 YYYX=              8.0458 YYYZ=             -5.4052 ZZZX=             -1.4475
 ZZZY=             -3.6000 XXYY=           -106.6253 XXZZ=            -85.1727 YYZZ=            -62.4191
 XXYZ=              1.6255 YYXZ=             -4.1585 ZZXY=              2.2241
 N-N= 2.498276636492D+02 E-N=-1.256652887746D+03  KE= 3.219936998973D+02
  Exact polarizability:   0.000   0.000   0.000   0.000   0.000   0.000
 Approx polarizability: 103.506  -6.674  87.020  17.614 -10.777  55.748
 Calling FoFJK, ICntrl=    100147 FMM=F ISym2X=0 I1Cent= 0 IOpClX= 0 NMat=1 NMatS=1 NMatT=0.
 ***** Axes restored to original set *****
 -------------------------------------------------------------------
 Center     Atomic                   Forces (Hartrees/Bohr)
 Number     Number              X              Y              Z
 -------------------------------------------------------------------
      1        7           0.061385486   -0.013094351    0.041180881
      2        1          -0.031961304   -0.008446638    0.027000066
      3        6           0.039568175    0.040553061    0.011779661
      4        1          -0.025715798   -0.039953296   -0.009502627
      5        6           0.002206974   -0.008368775   -0.015375502
      6        6          -0.090878021    0.147763279   -0.082114089
      7        1          -0.003552664    0.002117048    0.010576624
      8        1           0.000246211   -0.000414453   -0.000541019
      9        1          -0.004229388    0.002759942   -0.000526006
     10        8           0.028403019   -0.123563369    0.035095829
     11        1          -0.005672834   -0.011809512   -0.026356574
     12        8           0.011791015    0.006839502    0.003785619
     13        1           0.018409130    0.005617562    0.004997137
 -------------------------------------------------------------------
 Cartesian Forces:  Max     0.147763279 RMS     0.042130610
 FormGI is forming the generalized inverse of G from B-inverse, IUseBI=4.

 GradGradGradGradGradGradGradGradGradGradGradGradGradGradGradGradGradGrad
 Berny optimization.
 Internal  Forces:  Max     0.117165544 RMS     0.020773421
 Search for a saddle point.
 Step number   1 out of a maximum of   77
 All quantities printed in internal units (Hartrees-Bohrs-Radians)
 Swapping is turned off.
 Second derivative matrix not updated -- analytic derivatives used.
 ITU=  0
     Eigenvalues ---   -0.14456  -0.04316  -0.00757   0.00106   0.00419
     Eigenvalues ---    0.00505   0.01198   0.02018   0.02404   0.03956
     Eigenvalues ---    0.05371   0.06299   0.06467   0.07616   0.09186
     Eigenvalues ---    0.10739   0.12375   0.13721   0.14427   0.14892
     Eigenvalues ---    0.17207   0.19468   0.20122   0.27576   0.28305
     Eigenvalues ---    0.33298   0.34076   0.34553   0.35130   0.44991
     Eigenvalues ---    0.45646   0.51688   0.76328
 Eigenvectors required to have negative eigenvalues:
                          R9        D19       R3        D16       R7
   1                   -0.57280   0.31185  -0.30369   0.29584  -0.26454
                          D2        A21       D20       D27       D17
   1                    0.16319   0.16028   0.15631  -0.15037   0.14030
 RFO step:  Lambda0=4.100609625D-02 Lambda=-7.95083848D-02.
 Linear search not attempted -- option 19 set.
 Maximum step size (   0.300) exceeded in Quadratic search.
    -- Step size scaled by   0.309
 Iteration  1 RMS(Cart)=  0.03144570 RMS(Int)=  0.00211750
 Iteration  2 RMS(Cart)=  0.00162641 RMS(Int)=  0.00052502
 Iteration  3 RMS(Cart)=  0.00000251 RMS(Int)=  0.00052501
 Iteration  4 RMS(Cart)=  0.00000000 RMS(Int)=  0.00052501
 Variable       Old X    -DE/DX   Delta X   Delta X   Delta X     New X
                                 (Linear)    (Quad)   (Total)
    R1        1.91907   0.01202   0.00000  -0.00098   0.00033   1.91940
    R2        2.75672   0.02954   0.00000   0.00543   0.00560   2.76233
    R3        2.91964  -0.03198   0.00000  -0.09971  -0.09923   2.82042
    R4        1.91554   0.00353   0.00000   0.00843   0.00843   1.92397
    R5        2.86719   0.01272   0.00000   0.03922   0.03780   2.90499
    R6        2.92167  -0.00451   0.00000  -0.00898  -0.00898   2.91269
    R7        2.87127  -0.03688   0.00000   0.01197   0.01194   2.88321
    R8        2.99526   0.03939   0.00000   0.11121   0.11121   3.10647
    R9        3.02356  -0.00455   0.00000   0.21694   0.21738   3.24094
   R10        2.06633   0.00927   0.00000   0.00640   0.00640   2.07273
   R11        2.06555  -0.00019   0.00000   0.00046   0.00046   2.06601
   R12        2.06588   0.00475   0.00000   0.00492   0.00492   2.07079
   R13        2.27773   0.11717   0.00000   0.01139   0.01071   2.28844
   R14        2.55737   0.02500   0.00000   0.00942   0.00942   2.56678
   R15        1.83183   0.01696   0.00000   0.00799   0.00799   1.83982
    A1        1.92679   0.02120   0.00000   0.05378   0.05306   1.97985
    A2        1.89661  -0.01128   0.00000  -0.00922  -0.00990   1.88670
    A3        1.30256   0.01785   0.00000   0.03760   0.03775   1.34032
    A4        1.93821   0.00080   0.00000  -0.00548  -0.00576   1.93246
    A5        2.01211  -0.00924   0.00000  -0.01003  -0.01016   2.00195
    A6        1.88940  -0.01157   0.00000  -0.01205  -0.01160   1.87780
    A7        1.89436   0.02483   0.00000   0.02103   0.02088   1.91524
    A8        1.76100  -0.01688   0.00000  -0.00849  -0.00933   1.75167
    A9        2.14340   0.01254   0.00000  -0.03103  -0.03143   2.11197
   A10        1.87012  -0.00304   0.00000  -0.00433  -0.00370   1.86642
   A11        1.74479  -0.00098   0.00000  -0.00884  -0.00750   1.73729
   A12        1.93007   0.00990   0.00000   0.02641   0.02642   1.95648
   A13        1.94576  -0.00332   0.00000  -0.00606  -0.00610   1.93966
   A14        1.90963   0.00075   0.00000  -0.01003  -0.01004   1.89960
   A15        1.90095  -0.00262   0.00000  -0.00444  -0.00447   1.89648
   A16        1.89033  -0.00405   0.00000  -0.00741  -0.00737   1.88297
   A17        1.88575  -0.00097   0.00000   0.00088   0.00081   1.88657
   A18        1.25401   0.01417   0.00000  -0.02112  -0.02106   1.23295
   A19        2.18471  -0.00539   0.00000   0.02374   0.02355   2.20826
   A20        1.95411  -0.00349   0.00000  -0.00618  -0.00660   1.94751
   A21        2.44003   0.01802   0.00000  -0.01390  -0.01414   2.42588
   A22        2.14353   0.00945   0.00000  -0.01878  -0.01862   2.12491
   A23        1.87233   0.01724   0.00000   0.01079   0.01079   1.88312
   A24        3.24078   0.01865   0.00000   0.03211   0.03199   3.27277
   A25        3.12630  -0.02186   0.00000  -0.09071  -0.09127   3.03503
    D1       -1.36609   0.00778   0.00000   0.04378   0.04451  -1.32158
    D2        0.75870   0.02495   0.00000   0.05511   0.05592   0.81462
    D3       -2.41812  -0.01361   0.00000  -0.02627  -0.02689  -2.44501
    D4       -0.29333   0.00356   0.00000  -0.01494  -0.01548  -0.30881
    D5        0.73876   0.00825   0.00000   0.06444   0.06438   0.80315
    D6        2.86355   0.02542   0.00000   0.07577   0.07579   2.93934
    D7        0.27138  -0.01035   0.00000   0.00524   0.00550   0.27688
    D8        1.00834   0.01908   0.00000  -0.03961  -0.03754   0.97080
    D9        1.04853  -0.00174   0.00000  -0.00342  -0.00334   1.04519
   D10       -3.11704  -0.00049   0.00000   0.00503   0.00512  -3.11192
   D11       -1.03222  -0.00329   0.00000  -0.00421  -0.00405  -1.03628
   D12       -1.07359   0.00075   0.00000   0.00311   0.00297  -1.07062
   D13        1.04402   0.00199   0.00000   0.01156   0.01143   1.05545
   D14        3.12885  -0.00081   0.00000   0.00232   0.00225   3.13110
   D15        0.29005  -0.01063   0.00000  -0.00137  -0.00131   0.28874
   D16       -0.49906   0.02732   0.00000  -0.05300  -0.05306  -0.55213
   D17        2.68582   0.01238   0.00000  -0.02113  -0.02079   2.66503
   D18        2.48572  -0.01351   0.00000  -0.00799  -0.00806   2.47765
   D19        1.69661   0.02444   0.00000  -0.05962  -0.05982   1.63679
   D20       -1.40170   0.00950   0.00000  -0.02775  -0.02754  -1.42924
   D21       -0.26422   0.00362   0.00000  -0.00917  -0.00943  -0.27365
   D22       -2.05871  -0.00591   0.00000   0.02354   0.02291  -2.03580
   D23       -0.95291   0.00016   0.00000  -0.01597  -0.01498  -0.96789
   D24       -2.74740  -0.00937   0.00000   0.01674   0.01735  -2.73004
   D25        3.08349  -0.00611   0.00000  -0.00103  -0.00103   3.08246
   D26       -1.67209   0.01869   0.00000  -0.04670  -0.04622  -1.71831
   D27       -0.01601  -0.02023   0.00000   0.02875   0.02827   0.01226
         Item               Value     Threshold  Converged?
 Maximum Force            0.117166     0.000450     NO 
 RMS     Force            0.020773     0.000300     NO 
 Maximum Displacement     0.095897     0.001800     NO 
 RMS     Displacement     0.032083     0.001200     NO 
 Predicted change in Energy=-1.346309D-02
 GradGradGradGradGradGradGradGradGradGradGradGradGradGradGradGradGradGrad

                          Input orientation:                          
 ---------------------------------------------------------------------
 Center     Atomic      Atomic             Coordinates (Angstroms)
 Number     Number       Type             X           Y           Z
 ---------------------------------------------------------------------
      1          7           0       -1.467998   -0.950300   -0.212510
      2          1           0       -1.309395   -1.540100    0.599051
      3          6           0       -0.712321    0.300525   -0.178814
      4          1           0       -0.048541   -1.407847   -0.270376
      5          6           0       -1.274180    1.366865    0.781877
      6          6           0        0.723391   -0.038504    0.210600
      7          1           0       -1.299592    1.014417    1.820239
      8          1           0       -0.684156    2.286262    0.738881
      9          1           0       -2.300673    1.606960    0.482744
     10          8           0        1.079748   -0.941760    0.934224
     11          1           0       -2.467062   -0.765914   -0.279137
     12          8           0        1.603275    0.869978   -0.284779
     13          1           0        2.490701    0.634285    0.038950
 ---------------------------------------------------------------------
                    Distance matrix (angstroms):
                    1          2          3          4          5
     1  N    0.000000
     2  H    1.015702   0.000000
     3  C    1.461761   2.085538   0.000000
     4  H    1.492500   1.537253   1.835080   0.000000
     5  C    2.528957   2.912920   1.541328   3.210677   0.000000
     6  C    2.410929   2.556933   1.525731   1.643873   2.508328
     7  H    2.832057   2.831422   2.202440   3.435573   1.096841
     8  H    3.463363   3.879629   2.187718   3.881887   1.093284
     9  H    2.777824   3.301536   2.160392   3.837753   1.095817
    10  O    2.793936   2.485630   2.448190   1.715031   3.300595
    11  H    1.018119   1.646441   2.055838   2.502278   2.664106
    12  O    3.570903   3.882432   2.386942   2.813750   3.108761
    13  H    4.271468   4.413887   3.227719   3.273184   3.906782
                    6          7          8          9         10
     6  C    0.000000
     7  H    2.791424   0.000000
     8  H    2.768539   1.779238   0.000000
     9  H    3.453488   1.772615   1.772057   0.000000
    10  O    1.210988   3.205138   3.683699   4.257588   0.000000
    11  H    3.308770   2.989974   3.678436   2.497735   3.752735
    12  O    1.358284   3.588677   2.878555   4.046362   2.245538
    13  H    1.898813   4.205213   3.646731   4.909208   2.297003
                   11         12         13
    11  H    0.000000
    12  O    4.386777   0.000000
    13  H    5.161507   0.973590   0.000000
 Stoichiometry    C3H7NO2
 Framework group  C1[X(C3H7NO2)]
 Deg. of freedom    33
 Full point group                 C1      NOp   1
 Largest Abelian subgroup         C1      NOp   1
 Largest concise Abelian subgroup C1      NOp   1
                         Standard orientation:                         
 ---------------------------------------------------------------------
 Center     Atomic      Atomic             Coordinates (Angstroms)
 Number     Number       Type             X           Y           Z
 ---------------------------------------------------------------------
      1          7           0       -1.418711   -1.060733   -0.434913
      2          1           0       -1.274391   -1.614302    0.404362
      3          6           0       -0.662990    0.190491   -0.443211
      4          1           0        0.001261   -1.520142   -0.448277
      5          6           0       -1.240612    1.297892    0.459956
      6          6           0        0.765636   -0.130871   -0.014717
      7          1           0       -1.284029    0.991374    1.512203
      8          1           0       -0.649398    2.214613    0.386762
      9          1           0       -2.261685    1.524449    0.133006
     10          8           0        1.109005   -1.001422    0.753873
     11          1           0       -2.416377   -0.879618   -0.526699
     12          8           0        1.654415    0.755130   -0.534340
     13          1           0        2.536023    0.534028   -0.185400
 ---------------------------------------------------------------------
 Rotational constants (GHZ):      5.0364429      3.0167399      2.3012665
 Standard basis: 6-31G (6D, 7F)
 There are    68 symmetry adapted cartesian basis functions of A   symmetry.
 There are    68 symmetry adapted basis functions of A   symmetry.
    68 basis functions,   160 primitive gaussians,    68 cartesian basis functions
    24 alpha electrons       24 beta electrons
       nuclear repulsion energy       248.6659330127 Hartrees.
 NAtoms=   13 NActive=   13 NUniq=   13 SFac= 1.00D+00 NAtFMM=   60 NAOKFM=F Big=F
 Integral buffers will be    131072 words long.
 Raffenetti 2 integral format.
 Two-electron integral symmetry is turned on.
 One-electron integrals computed using PRISM.
 NBasis=    68 RedAO= T EigKep=  4.47D-03  NBF=    68
 NBsUse=    68 1.00D-06 EigRej= -1.00D+00 NBFU=    68
 Initial guess from the checkpoint file:  "Ala-S-opt-freq-tsb1-6-31g.chk"
 B after Tr=     0.000000    0.000000    0.000000
         Rot=    0.999986    0.001816    0.000362   -0.005040 Ang=   0.62 deg.
 ExpMin= 1.61D-01 ExpMax= 5.48D+03 ExpMxC= 8.25D+02 IAcc=1 IRadAn=         1 AccDes= 0.00D+00
 Harris functional with IExCor=  402 and IRadAn=       1 diagonalized for initial guess.
 HarFok:  IExCor=  402 AccDes= 0.00D+00 IRadAn=         1 IDoV= 1 UseB2=F ITyADJ=14
 ICtDFT=  3500011 ScaDFX=  1.000000  1.000000  1.000000  1.000000
 FoFCou: FMM=F IPFlag=           0 FMFlag=      100000 FMFlg1=           0
         NFxFlg=           0 DoJE=T BraDBF=F KetDBF=T FulRan=T
         wScrn=  0.000000 ICntrl=     500 IOpCl=  0 I1Cent=   200000004 NGrid=           0
         NMat0=    1 NMatS0=      1 NMatT0=    0 NMatD0=    1 NMtDS0=    0 NMtDT0=    0
 Petite list used in FoFCou.
 Keep R1 ints in memory in canonical form, NReq=3676491.
 Requested convergence on RMS density matrix=1.00D-08 within 128 cycles.
 Requested convergence on MAX density matrix=1.00D-06.
 Requested convergence on             energy=1.00D-06.
 No special actions if energy rises.
 Integral accuracy reduced to 1.0D-05 until final iterations.
 Initial convergence to 1.0D-05 achieved.  Increase integral accuracy.
 SCF Done:  E(RB3LYP) =  -323.392780382     A.U. after   17 cycles
            NFock= 17  Conv=0.84D-08     -V/T= 2.0046
 Calling FoFJK, ICntrl=      2127 FMM=F ISym2X=0 I1Cent= 0 IOpClX= 0 NMat=1 NMatS=1 NMatT=0.
 ***** Axes restored to original set *****
 -------------------------------------------------------------------
 Center     Atomic                   Forces (Hartrees/Bohr)
 Number     Number              X              Y              Z
 -------------------------------------------------------------------
      1        7           0.063600486   -0.012540090    0.039292578
      2        1          -0.028764317   -0.004717796    0.024822357
      3        6           0.030975055    0.033310849    0.014026639
      4        1          -0.037209636   -0.034803866   -0.019096250
      5        6           0.001830239   -0.007561031   -0.012423385
      6        6          -0.069404722    0.116920110   -0.063975317
      7        1          -0.002593693    0.001592928    0.007817065
      8        1          -0.000022854   -0.000141104   -0.000525635
      9        1          -0.003177213    0.002521408   -0.000169721
     10        8           0.024761946   -0.092482475    0.032597910
     11        1          -0.002969154   -0.011953839   -0.027638408
     12        8           0.009616669    0.005078770    0.001468102
     13        1           0.013357196    0.004776134    0.003804066
 -------------------------------------------------------------------
 Cartesian Forces:  Max     0.116920110 RMS     0.034641387

 GradGradGradGradGradGradGradGradGradGradGradGradGradGradGradGradGradGrad
 Berny optimization.
 FormGI is forming the generalized inverse of G from B-inverse, IUseBI=4.
 Internal  Forces:  Max     0.090377036 RMS     0.017054004
 Search for a saddle point.
 Step number   2 out of a maximum of   77
 All quantities printed in internal units (Hartrees-Bohrs-Radians)
 Swapping is turned off.
 Update second derivatives using D2CorX and points    1    2
 ITU=  0  0
     Eigenvalues ---   -0.13132  -0.04188  -0.00554   0.00207   0.00426
     Eigenvalues ---    0.00521   0.01191   0.02006   0.02483   0.03952
     Eigenvalues ---    0.05396   0.06300   0.06466   0.07621   0.09182
     Eigenvalues ---    0.10723   0.12379   0.13709   0.14473   0.14881
     Eigenvalues ---    0.17204   0.19454   0.20125   0.27547   0.28294
     Eigenvalues ---    0.33297   0.34038   0.34551   0.35129   0.44990
     Eigenvalues ---    0.45645   0.51688   0.76367
 Eigenvectors required to have negative eigenvalues:
                          R9        R3        D19       D16       R7
   1                   -0.51670  -0.37185   0.31037   0.29498  -0.26191
                          D2        A21       D20       D27       D17
   1                    0.19291   0.16650   0.15527  -0.14001   0.13988
 RFO step:  Lambda0=3.615079785D-02 Lambda=-6.81069961D-02.
 Linear search not attempted -- option 19 set.
 Maximum step size (   0.300) exceeded in Quadratic search.
    -- Step size scaled by   0.309
 Iteration  1 RMS(Cart)=  0.03146021 RMS(Int)=  0.00355255
 Iteration  2 RMS(Cart)=  0.00274269 RMS(Int)=  0.00048343
 Iteration  3 RMS(Cart)=  0.00000804 RMS(Int)=  0.00048334
 Iteration  4 RMS(Cart)=  0.00000000 RMS(Int)=  0.00048334
 Variable       Old X    -DE/DX   Delta X   Delta X   Delta X     New X
                                 (Linear)    (Quad)   (Total)
    R1        1.91940   0.01095   0.00000   0.00034   0.00139   1.92078
    R2        2.76233   0.02418   0.00000  -0.00010  -0.00016   2.76217
    R3        2.82042  -0.03413   0.00000  -0.08425  -0.08375   2.73667
    R4        1.92397   0.00256   0.00000   0.00834   0.00834   1.93231
    R5        2.90499   0.00947   0.00000   0.03669   0.03544   2.94043
    R6        2.91269  -0.00434   0.00000  -0.00860  -0.00860   2.90409
    R7        2.88321  -0.03172   0.00000   0.01850   0.01853   2.90174
    R8        3.10647   0.03410   0.00000   0.09957   0.09971   3.20618
    R9        3.24094   0.00113   0.00000   0.23211   0.23238   3.47332
   R10        2.07273   0.00695   0.00000   0.00500   0.00500   2.07773
   R11        2.06601  -0.00011   0.00000   0.00046   0.00046   2.06647
   R12        2.07079   0.00357   0.00000   0.00405   0.00405   2.07484
   R13        2.28844   0.09038   0.00000   0.00449   0.00405   2.29249
   R14        2.56678   0.01956   0.00000   0.00802   0.00802   2.57480
   R15        1.83982   0.01228   0.00000   0.00624   0.00624   1.84606
    A1        1.97985   0.01639   0.00000   0.04691   0.04613   2.02598
    A2        1.88670  -0.00970   0.00000  -0.00776  -0.00834   1.87836
    A3        1.34032   0.01628   0.00000   0.03352   0.03357   1.37389
    A4        1.93246   0.00092   0.00000  -0.00397  -0.00417   1.92829
    A5        2.00195  -0.00732   0.00000  -0.00521  -0.00538   1.99657
    A6        1.87780  -0.01032   0.00000  -0.00881  -0.00837   1.86943
    A7        1.91524   0.02181   0.00000   0.01628   0.01609   1.93133
    A8        1.75167  -0.01349   0.00000  -0.00854  -0.00924   1.74243
    A9        2.11197   0.00750   0.00000  -0.03872  -0.03843   2.07353
   A10        1.86642  -0.00343   0.00000  -0.00386  -0.00352   1.86290
   A11        1.73729  -0.00298   0.00000  -0.01239  -0.01079   1.72650
   A12        1.95648   0.00704   0.00000   0.02261   0.02261   1.97909
   A13        1.93966  -0.00248   0.00000  -0.00510  -0.00513   1.93452
   A14        1.89960   0.00135   0.00000  -0.00881  -0.00882   1.89078
   A15        1.89648  -0.00190   0.00000  -0.00359  -0.00361   1.89287
   A16        1.88297  -0.00309   0.00000  -0.00626  -0.00622   1.87674
   A17        1.88657  -0.00121   0.00000   0.00043   0.00038   1.88695
   A18        1.23295   0.01011   0.00000  -0.02117  -0.02121   1.21174
   A19        2.20826  -0.00493   0.00000   0.02346   0.02326   2.23152
   A20        1.94751  -0.00219   0.00000  -0.00851  -0.00950   1.93801
   A21        2.42588   0.01438   0.00000  -0.02982  -0.03017   2.39572
   A22        2.12491   0.00794   0.00000  -0.01729  -0.01669   2.10822
   A23        1.88312   0.01294   0.00000   0.00711   0.00711   1.89024
   A24        3.27277   0.01720   0.00000   0.02955   0.02940   3.30218
   A25        3.03503  -0.02295   0.00000  -0.08622  -0.08678   2.94825
    D1       -1.32158   0.00954   0.00000   0.03881   0.03951  -1.28207
    D2        0.81462   0.02503   0.00000   0.04973   0.05039   0.86500
    D3       -2.44501  -0.01367   0.00000  -0.02702  -0.02762  -2.47263
    D4       -0.30881   0.00182   0.00000  -0.01610  -0.01674  -0.32556
    D5        0.80315   0.00927   0.00000   0.05920   0.05916   0.86230
    D6        2.93934   0.02477   0.00000   0.07012   0.07004   3.00938
    D7        0.27688  -0.00764   0.00000   0.00741   0.00773   0.28461
    D8        0.97080   0.01285   0.00000  -0.03306  -0.03163   0.93916
    D9        1.04519  -0.00121   0.00000  -0.00125  -0.00115   1.04404
   D10       -3.11192  -0.00046   0.00000   0.00644   0.00655  -3.10537
   D11       -1.03628  -0.00260   0.00000  -0.00166  -0.00150  -1.03778
   D12       -1.07062   0.00087   0.00000   0.00156   0.00141  -1.06921
   D13        1.05545   0.00162   0.00000   0.00925   0.00911   1.06457
   D14        3.13110  -0.00052   0.00000   0.00115   0.00106   3.13216
   D15        0.28874  -0.00847   0.00000   0.00114   0.00127   0.29001
   D16       -0.55213   0.02213   0.00000  -0.07084  -0.07113  -0.62325
   D17        2.66503   0.00934   0.00000  -0.03458  -0.03415   2.63088
   D18        2.47765  -0.01038   0.00000  -0.00070  -0.00068   2.47697
   D19        1.63679   0.02021   0.00000  -0.07268  -0.07308   1.56371
   D20       -1.42924   0.00742   0.00000  -0.03643  -0.03611  -1.46535
   D21       -0.27365   0.00192   0.00000  -0.00980  -0.01011  -0.28376
   D22       -2.03580  -0.00394   0.00000   0.02255   0.02173  -2.01407
   D23       -0.96789  -0.00170   0.00000  -0.01240  -0.01178  -0.97968
   D24       -2.73004  -0.00756   0.00000   0.01995   0.02005  -2.70999
   D25        3.08246  -0.00430   0.00000   0.00066   0.00052   3.08298
   D26       -1.71831   0.01319   0.00000  -0.05053  -0.05001  -1.76832
   D27        0.01226  -0.01577   0.00000   0.03290   0.03252   0.04479
         Item               Value     Threshold  Converged?
 Maximum Force            0.090377     0.000450     NO 
 RMS     Force            0.017054     0.000300     NO 
 Maximum Displacement     0.098575     0.001800     NO 
 RMS     Displacement     0.032724     0.001200     NO 
 Predicted change in Energy=-1.108646D-02
 GradGradGradGradGradGradGradGradGradGradGradGradGradGradGradGradGradGrad

                          Input orientation:                          
 ---------------------------------------------------------------------
 Center     Atomic      Atomic             Coordinates (Angstroms)
 Number     Number       Type             X           Y           Z
 ---------------------------------------------------------------------
      1          7           0       -1.454004   -0.944546   -0.203565
      2          1           0       -1.353814   -1.551301    0.605725
      3          6           0       -0.704449    0.309660   -0.163105
      4          1           0       -0.091210   -1.425866   -0.294975
      5          6           0       -1.280384    1.362626    0.796714
      6          6           0        0.740779   -0.039908    0.220278
      7          1           0       -1.320715    1.024696    1.842203
      8          1           0       -0.698524    2.287518    0.754096
      9          1           0       -2.307554    1.590763    0.483050
     10          8           0        1.120518   -0.902497    0.984105
     11          1           0       -2.451805   -0.761103   -0.331300
     12          8           0        1.618434    0.856184   -0.311906
     13          1           0        2.515924    0.628642   -0.000370
 ---------------------------------------------------------------------
                    Distance matrix (angstroms):
                    1          2          3          4          5
     1  N    0.000000
     2  H    1.016435   0.000000
     3  C    1.461678   2.115645   0.000000
     4  H    1.448182   1.556008   1.845400   0.000000
     5  C    2.520664   2.921103   1.536780   3.222050   0.000000
     6  C    2.411449   2.611551   1.535535   1.696635   2.526753
     7  H    2.842683   2.857575   2.216376   3.476271   1.099486
     8  H    3.454577   3.897173   2.180187   3.906226   1.093528
     9  H    2.761843   3.285915   2.151438   3.823291   1.097958
    10  O    2.835577   2.585815   2.473040   1.838001   3.306090
    11  H    1.022533   1.645604   2.056228   2.452679   2.674859
    12  O    3.562898   3.933483   2.390945   2.851477   3.144625
    13  H    4.275107   4.482676   3.240222   3.332408   3.947915
                    6          7          8          9         10
     6  C    0.000000
     7  H    2.830862   0.000000
     8  H    2.788094   1.779275   0.000000
     9  H    3.467056   1.772450   1.774236   0.000000
    10  O    1.213134   3.226457   3.679404   4.268382   0.000000
    11  H    3.319180   3.031923   3.680512   2.493040   3.809432
    12  O    1.362527   3.647900   2.924614   4.072462   2.240653
    13  H    1.909656   4.274545   3.695100   4.942198   2.293630
                   11         12         13
    11  H    0.000000
    12  O    4.379821   0.000000
    13  H    5.169065   0.976893   0.000000
 Stoichiometry    C3H7NO2
 Framework group  C1[X(C3H7NO2)]
 Deg. of freedom    33
 Full point group                 C1      NOp   1
 Largest Abelian subgroup         C1      NOp   1
 Largest concise Abelian subgroup C1      NOp   1
                         Standard orientation:                         
 ---------------------------------------------------------------------
 Center     Atomic      Atomic             Coordinates (Angstroms)
 Number     Number       Type             X           Y           Z
 ---------------------------------------------------------------------
      1          7           0       -1.410600   -1.065661   -0.439707
      2          1           0       -1.322968   -1.638250    0.395519
      3          6           0       -0.667479    0.193015   -0.436800
      4          1           0       -0.044218   -1.543256   -0.485921
      5          6           0       -1.265998    1.281395    0.468129
      6          6           0        0.771814   -0.133076   -0.012575
      7          1           0       -1.324489    0.986344    1.525670
      8          1           0       -0.687526    2.206768    0.398432
      9          1           0       -2.288087    1.491177    0.126312
     10          8           0        1.140926   -0.961693    0.792932
     11          1           0       -2.406622   -0.892772   -0.593403
     12          8           0        1.655357    0.745012   -0.564654
     13          1           0        2.547827    0.535065   -0.227401
 ---------------------------------------------------------------------
 Rotational constants (GHZ):      5.0388765      2.9472475      2.2965573
 Standard basis: 6-31G (6D, 7F)
 There are    68 symmetry adapted cartesian basis functions of A   symmetry.
 There are    68 symmetry adapted basis functions of A   symmetry.
    68 basis functions,   160 primitive gaussians,    68 cartesian basis functions
    24 alpha electrons       24 beta electrons
       nuclear repulsion energy       247.6708109749 Hartrees.
 NAtoms=   13 NActive=   13 NUniq=   13 SFac= 1.00D+00 NAtFMM=   60 NAOKFM=F Big=F
 Integral buffers will be    131072 words long.
 Raffenetti 2 integral format.
 Two-electron integral symmetry is turned on.
 One-electron integrals computed using PRISM.
 NBasis=    68 RedAO= T EigKep=  4.63D-03  NBF=    68
 NBsUse=    68 1.00D-06 EigRej= -1.00D+00 NBFU=    68
 Initial guess from the checkpoint file:  "Ala-S-opt-freq-tsb1-6-31g.chk"
 B after Tr=     0.000000    0.000000    0.000000
         Rot=    0.999983    0.004187   -0.000239   -0.004152 Ang=   0.68 deg.
 ExpMin= 1.61D-01 ExpMax= 5.48D+03 ExpMxC= 8.25D+02 IAcc=1 IRadAn=         1 AccDes= 0.00D+00
 Harris functional with IExCor=  402 and IRadAn=       1 diagonalized for initial guess.
 HarFok:  IExCor=  402 AccDes= 0.00D+00 IRadAn=         1 IDoV= 1 UseB2=F ITyADJ=14
 ICtDFT=  3500011 ScaDFX=  1.000000  1.000000  1.000000  1.000000
 FoFCou: FMM=F IPFlag=           0 FMFlag=      100000 FMFlg1=           0
         NFxFlg=           0 DoJE=T BraDBF=F KetDBF=T FulRan=T
         wScrn=  0.000000 ICntrl=     500 IOpCl=  0 I1Cent=   200000004 NGrid=           0
         NMat0=    1 NMatS0=      1 NMatT0=    0 NMatD0=    1 NMtDS0=    0 NMtDT0=    0
 Petite list used in FoFCou.
 Keep R1 ints in memory in canonical form, NReq=3676491.
 Requested convergence on RMS density matrix=1.00D-08 within 128 cycles.
 Requested convergence on MAX density matrix=1.00D-06.
 Requested convergence on             energy=1.00D-06.
 No special actions if energy rises.
 Integral accuracy reduced to 1.0D-05 until final iterations.
 Initial convergence to 1.0D-05 achieved.  Increase integral accuracy.
 SCF Done:  E(RB3LYP) =  -323.402885531     A.U. after   17 cycles
            NFock= 17  Conv=0.44D-08     -V/T= 2.0048
 Calling FoFJK, ICntrl=      2127 FMM=F ISym2X=0 I1Cent= 0 IOpClX= 0 NMat=1 NMatS=1 NMatT=0.
 ***** Axes restored to original set *****
 -------------------------------------------------------------------
 Center     Atomic                   Forces (Hartrees/Bohr)
 Number     Number              X              Y              Z
 -------------------------------------------------------------------
      1        7           0.062816830   -0.013256961    0.035110685
      2        1          -0.025495382   -0.002344083    0.023155276
      3        6           0.025826562    0.028129066    0.015937798
      4        1          -0.044149230   -0.027905569   -0.024150860
      5        6           0.001192350   -0.006741041   -0.010187552
      6        6          -0.054571294    0.095055117   -0.052757022
      7        1          -0.001755607    0.001005115    0.005722546
      8        1          -0.000246047    0.000037358   -0.000487798
      9        1          -0.002354949    0.002439541    0.000135935
     10        8           0.021370791   -0.072554010    0.033129520
     11        1          -0.000343407   -0.012142092   -0.027087853
     12        8           0.008045066    0.004136007   -0.001505687
     13        1           0.009664316    0.004141552    0.002985011
 -------------------------------------------------------------------
 Cartesian Forces:  Max     0.095055117 RMS     0.029729065

 GradGradGradGradGradGradGradGradGradGradGradGradGradGradGradGradGradGrad
 Berny optimization.
 FormGI is forming the generalized inverse of G from B-inverse, IUseBI=4.
 Internal  Forces:  Max     0.073449334 RMS     0.014628341
 Search for a saddle point.
 Step number   3 out of a maximum of   77
 All quantities printed in internal units (Hartrees-Bohrs-Radians)
 Swapping is turned off.
 Update second derivatives using D2CorX and points    2    3
 ITU=  0  0  0
     Eigenvalues ---   -0.11409  -0.03644  -0.00436   0.00369   0.00451
     Eigenvalues ---    0.00524   0.01183   0.01998   0.02638   0.03944
     Eigenvalues ---    0.05404   0.06301   0.06464   0.07607   0.09180
     Eigenvalues ---    0.10682   0.12380   0.13666   0.14532   0.14875
     Eigenvalues ---    0.17181   0.19437   0.20140   0.27530   0.28284
     Eigenvalues ---    0.33296   0.33935   0.34549   0.35129   0.44988
     Eigenvalues ---    0.45645   0.51686   0.76617
 Eigenvectors required to have negative eigenvalues:
                          R3        R9        D19       D16       R7
   1                    0.47558   0.40160  -0.29007  -0.27373   0.24995
                          D2        A21       A25       D20       D6
   1                   -0.23743  -0.16609   0.15816  -0.14966  -0.14792
 RFO step:  Lambda0=3.721485355D-02 Lambda=-5.12607133D-02.
 Linear search not attempted -- option 19 set.
 Maximum step size (   0.300) exceeded in Quadratic search.
    -- Step size scaled by   0.309
 Iteration  1 RMS(Cart)=  0.03560571 RMS(Int)=  0.00554580
 Iteration  2 RMS(Cart)=  0.00428910 RMS(Int)=  0.00058693
 Iteration  3 RMS(Cart)=  0.00002087 RMS(Int)=  0.00058649
 Iteration  4 RMS(Cart)=  0.00000002 RMS(Int)=  0.00058649
 Variable       Old X    -DE/DX   Delta X   Delta X   Delta X     New X
                                 (Linear)    (Quad)   (Total)
    R1        1.92078   0.01059   0.00000  -0.00002   0.00052   1.92130
    R2        2.76217   0.02095   0.00000  -0.00318  -0.00367   2.75850
    R3        2.73667  -0.03515   0.00000  -0.04876  -0.04841   2.68826
    R4        1.93231   0.00154   0.00000   0.00801   0.00801   1.94031
    R5        2.94043   0.00662   0.00000   0.03852   0.03770   2.97813
    R6        2.90409  -0.00405   0.00000  -0.00633  -0.00633   2.89776
    R7        2.90174  -0.02842   0.00000   0.03027   0.03040   2.93214
    R8        3.20618   0.02886   0.00000   0.07718   0.07746   3.28363
    R9        3.47332   0.00470   0.00000   0.25209   0.25225   3.72557
   R10        2.07773   0.00520   0.00000   0.00383   0.00383   2.08156
   R11        2.06647  -0.00008   0.00000   0.00053   0.00053   2.06699
   R12        2.07484   0.00267   0.00000   0.00339   0.00339   2.07823
   R13        2.29249   0.07345   0.00000   0.00288   0.00287   2.29536
   R14        2.57480   0.01627   0.00000   0.00681   0.00681   2.58161
   R15        1.84606   0.00887   0.00000   0.00542   0.00542   1.85148
    A1        2.02598   0.01219   0.00000   0.04160   0.04083   2.06681
    A2        1.87836  -0.00847   0.00000  -0.00643  -0.00691   1.87146
    A3        1.37389   0.01453   0.00000   0.02232   0.02218   1.39607
    A4        1.92829   0.00129   0.00000  -0.00292  -0.00301   1.92527
    A5        1.99657  -0.00567   0.00000  -0.00235  -0.00256   1.99401
    A6        1.86943  -0.00934   0.00000  -0.00312  -0.00277   1.86666
    A7        1.93133   0.01930   0.00000   0.00593   0.00572   1.93705
    A8        1.74243  -0.01064   0.00000  -0.00536  -0.00580   1.73663
    A9        2.07353   0.00400   0.00000  -0.04643  -0.04499   2.02855
   A10        1.86290  -0.00326   0.00000   0.00224   0.00187   1.86477
   A11        1.72650  -0.00517   0.00000  -0.01389  -0.01169   1.71481
   A12        1.97909   0.00460   0.00000   0.02057   0.02057   1.99966
   A13        1.93452  -0.00177   0.00000  -0.00410  -0.00413   1.93039
   A14        1.89078   0.00196   0.00000  -0.00941  -0.00941   1.88136
   A15        1.89287  -0.00129   0.00000  -0.00258  -0.00261   1.89025
   A16        1.87674  -0.00232   0.00000  -0.00527  -0.00523   1.87151
   A17        1.88695  -0.00144   0.00000  -0.00002  -0.00007   1.88689
   A18        1.21174   0.00741   0.00000  -0.01966  -0.01978   1.19195
   A19        2.23152  -0.00542   0.00000   0.02109   0.02061   2.25212
   A20        1.93801  -0.00144   0.00000  -0.01247  -0.01438   1.92363
   A21        2.39572   0.01109   0.00000  -0.05879  -0.05926   2.33646
   A22        2.10822   0.00793   0.00000  -0.01257  -0.01102   2.09721
   A23        1.89024   0.00972   0.00000   0.00504   0.00504   1.89528
   A24        3.30218   0.01582   0.00000   0.01940   0.01917   3.32135
   A25        2.94825  -0.02274   0.00000  -0.06919  -0.06972   2.87853
    D1       -1.28207   0.01054   0.00000   0.02921   0.02976  -1.25231
    D2        0.86500   0.02461   0.00000   0.03295   0.03335   0.89836
    D3       -2.47263  -0.01328   0.00000  -0.01940  -0.01995  -2.49258
    D4       -0.32556   0.00079   0.00000  -0.01566  -0.01636  -0.34192
    D5        0.86230   0.00946   0.00000   0.04979   0.04977   0.91208
    D6        3.00938   0.02353   0.00000   0.05353   0.05336   3.06274
    D7        0.28461  -0.00588   0.00000   0.00959   0.01001   0.29462
    D8        0.93916   0.01047   0.00000  -0.02365  -0.02380   0.91536
    D9        1.04404  -0.00076   0.00000  -0.00109  -0.00105   1.04299
   D10       -3.10537  -0.00045   0.00000   0.00732   0.00738  -3.09799
   D11       -1.03778  -0.00204   0.00000  -0.00086  -0.00076  -1.03853
   D12       -1.06921   0.00091   0.00000   0.00018   0.00009  -1.06912
   D13        1.06457   0.00123   0.00000   0.00860   0.00852   1.07309
   D14        3.13216  -0.00037   0.00000   0.00042   0.00038   3.13254
   D15        0.29001  -0.00718   0.00000   0.00487   0.00521   0.29522
   D16       -0.62325   0.01788   0.00000  -0.10222  -0.10271  -0.72596
   D17        2.63088   0.00630   0.00000  -0.06023  -0.05954   2.57134
   D18        2.47697  -0.00818   0.00000   0.00364   0.00381   2.48078
   D19        1.56371   0.01688   0.00000  -0.10346  -0.10411   1.45959
   D20       -1.46535   0.00531   0.00000  -0.06147  -0.06094  -1.52628
   D21       -0.28376   0.00076   0.00000  -0.00963  -0.01000  -0.29376
   D22       -2.01407  -0.00249   0.00000   0.01718   0.01588  -1.99819
   D23       -0.97968  -0.00315   0.00000  -0.00614  -0.00601  -0.98568
   D24       -2.70999  -0.00640   0.00000   0.02067   0.01988  -2.69012
   D25        3.08298  -0.00295   0.00000   0.00009  -0.00041   3.08256
   D26       -1.76832   0.00924   0.00000  -0.05614  -0.05543  -1.82375
   D27        0.04479  -0.01264   0.00000   0.03617   0.03596   0.08075
         Item               Value     Threshold  Converged?
 Maximum Force            0.073449     0.000450     NO 
 RMS     Force            0.014628     0.000300     NO 
 Maximum Displacement     0.148119     0.001800     NO 
 RMS     Displacement     0.037685     0.001200     NO 
 Predicted change in Energy=-5.922690D-03
 GradGradGradGradGradGradGradGradGradGradGradGradGradGradGradGradGradGrad

                          Input orientation:                          
 ---------------------------------------------------------------------
 Center     Atomic      Atomic             Coordinates (Angstroms)
 Number     Number       Type             X           Y           Z
 ---------------------------------------------------------------------
      1          7           0       -1.446177   -0.937549   -0.202584
      2          1           0       -1.395417   -1.565102    0.595726
      3          6           0       -0.700882    0.316439   -0.148995
      4          1           0       -0.118085   -1.434084   -0.318002
      5          6           0       -1.286110    1.356202    0.814232
      6          6           0        0.758428   -0.040830    0.238687
      7          1           0       -1.341611    1.027820    1.864193
      8          1           0       -0.709582    2.284895    0.774783
      9          1           0       -2.312667    1.576953    0.487269
     10          8           0        1.157520   -0.839243    1.062486
     11          1           0       -2.440280   -0.753903   -0.382278
     12          8           0        1.630459    0.828028   -0.353735
     13          1           0        2.537601    0.615243   -0.050833
 ---------------------------------------------------------------------
                    Distance matrix (angstroms):
                    1          2          3          4          5
     1  N    0.000000
     2  H    1.016709   0.000000
     3  C    1.459734   2.139436   0.000000
     4  H    1.422567   1.575958   1.852713   0.000000
     5  C    2.514126   2.931504   1.533429   3.229850   0.000000
     6  C    2.420559   2.662693   1.551620   1.737623   2.542260
     7  H    2.853975   2.887066   2.229243   3.509980   1.101514
     8  H    3.447022   3.914704   2.174456   3.921078   1.093805
     9  H    2.747622   3.275000   2.142797   3.811954   1.099752
    10  O    2.896430   2.694852   2.501390   1.971485   3.294380
    11  H    1.026770   1.645076   2.055616   2.420613   2.686315
    12  O    3.550464   3.972968   2.395578   2.859341   3.185826
    13  H    4.278396   4.543190   3.253720   3.365083   3.989752
                    6          7          8          9         10
     6  C    0.000000
     7  H    2.862595   0.000000
     8  H    2.802044   1.779469   0.000000
     9  H    3.480035   1.772122   1.775874   0.000000
    10  O    1.214654   3.220918   3.650901   4.267444   0.000000
    11  H    3.335537   3.070544   3.683531   2.491042   3.877988
    12  O    1.366132   3.713801   2.978558   4.100783   2.238112
    13  H    1.918256   4.345783   3.743471   4.973885   2.293389
                   11         12         13
    11  H    0.000000
    12  O    4.367406   0.000000
    13  H    5.173366   0.979762   0.000000
 Stoichiometry    C3H7NO2
 Framework group  C1[X(C3H7NO2)]
 Deg. of freedom    33
 Full point group                 C1      NOp   1
 Largest Abelian subgroup         C1      NOp   1
 Largest concise Abelian subgroup C1      NOp   1
                         Standard orientation:                         
 ---------------------------------------------------------------------
 Center     Atomic      Atomic             Coordinates (Angstroms)
 Number     Number       Type             X           Y           Z
 ---------------------------------------------------------------------
      1          7           0       -1.410701   -1.067844   -0.447859
      2          1           0       -1.369993   -1.661908    0.376234
      3          6           0       -0.674634    0.192631   -0.432684
      4          1           0       -0.077577   -1.559081   -0.519718
      5          6           0       -1.283552    1.266593    0.476838
      6          6           0        0.779881   -0.137978   -0.005357
      7          1           0       -1.355481    0.980948    1.538236
      8          1           0       -0.712463    2.197037    0.409447
      9          1           0       -2.305577    1.466402    0.123292
     10          8           0        1.169519   -0.899201    0.857258
     11          1           0       -2.402642   -0.898864   -0.652198
     12          8           0        1.656590    0.712245   -0.617581
     13          1           0        2.559596    0.518551   -0.290477
 ---------------------------------------------------------------------
 Rotational constants (GHZ):      5.0374297      2.8593987      2.3035485
 Standard basis: 6-31G (6D, 7F)
 There are    68 symmetry adapted cartesian basis functions of A   symmetry.
 There are    68 symmetry adapted basis functions of A   symmetry.
    68 basis functions,   160 primitive gaussians,    68 cartesian basis functions
    24 alpha electrons       24 beta electrons
       nuclear repulsion energy       246.6214392331 Hartrees.
 NAtoms=   13 NActive=   13 NUniq=   13 SFac= 1.00D+00 NAtFMM=   60 NAOKFM=F Big=F
 Integral buffers will be    131072 words long.
 Raffenetti 2 integral format.
 Two-electron integral symmetry is turned on.
 One-electron integrals computed using PRISM.
 NBasis=    68 RedAO= T EigKep=  4.83D-03  NBF=    68
 NBsUse=    68 1.00D-06 EigRej= -1.00D+00 NBFU=    68
 Initial guess from the checkpoint file:  "Ala-S-opt-freq-tsb1-6-31g.chk"
 B after Tr=     0.000000    0.000000    0.000000
         Rot=    0.999956    0.008919   -0.000853   -0.002609 Ang=   1.07 deg.
 ExpMin= 1.61D-01 ExpMax= 5.48D+03 ExpMxC= 8.25D+02 IAcc=1 IRadAn=         1 AccDes= 0.00D+00
 Harris functional with IExCor=  402 and IRadAn=       1 diagonalized for initial guess.
 HarFok:  IExCor=  402 AccDes= 0.00D+00 IRadAn=         1 IDoV= 1 UseB2=F ITyADJ=14
 ICtDFT=  3500011 ScaDFX=  1.000000  1.000000  1.000000  1.000000
 FoFCou: FMM=F IPFlag=           0 FMFlag=      100000 FMFlg1=           0
         NFxFlg=           0 DoJE=T BraDBF=F KetDBF=T FulRan=T
         wScrn=  0.000000 ICntrl=     500 IOpCl=  0 I1Cent=   200000004 NGrid=           0
         NMat0=    1 NMatS0=      1 NMatT0=    0 NMatD0=    1 NMtDS0=    0 NMtDT0=    0
 Petite list used in FoFCou.
 Keep R1 ints in memory in canonical form, NReq=3676491.
 Requested convergence on RMS density matrix=1.00D-08 within 128 cycles.
 Requested convergence on MAX density matrix=1.00D-06.
 Requested convergence on             energy=1.00D-06.
 No special actions if energy rises.
 Integral accuracy reduced to 1.0D-05 until final iterations.
 Initial convergence to 1.0D-05 achieved.  Increase integral accuracy.
 SCF Done:  E(RB3LYP) =  -323.408040693     A.U. after   16 cycles
            NFock= 16  Conv=0.85D-08     -V/T= 2.0050
 Calling FoFJK, ICntrl=      2127 FMM=F ISym2X=0 I1Cent= 0 IOpClX= 0 NMat=1 NMatS=1 NMatT=0.
 ***** Axes restored to original set *****
 -------------------------------------------------------------------
 Center     Atomic                   Forces (Hartrees/Bohr)
 Number     Number              X              Y              Z
 -------------------------------------------------------------------
      1        7           0.056774186   -0.012070065    0.028488441
      2        1          -0.021901408   -0.001020094    0.020702547
      3        6           0.020498740    0.024258064    0.019234567
      4        1          -0.043377494   -0.021738517   -0.026461653
      5        6          -0.000005276   -0.006152577   -0.007898369
      6        6          -0.042183191    0.073016147   -0.046698756
      7        1          -0.001095873    0.000484060    0.003919982
      8        1          -0.000356956    0.000082124   -0.000473654
      9        1          -0.001712512    0.002338293    0.000418168
     10        8           0.017808204   -0.053649953    0.035832063
     11        1           0.001695064   -0.011544284   -0.024767945
     12        8           0.006917928    0.002457255   -0.004397100
     13        1           0.006938588    0.003539548    0.002101711
 -------------------------------------------------------------------
 Cartesian Forces:  Max     0.073016147 RMS     0.024965479

 GradGradGradGradGradGradGradGradGradGradGradGradGradGradGradGradGradGrad
 Berny optimization.
 FormGI is forming the generalized inverse of G from B-inverse, IUseBI=4.
 Internal  Forces:  Max     0.058926249 RMS     0.012205622
 Search for a saddle point.
 Step number   4 out of a maximum of   77
 All quantities printed in internal units (Hartrees-Bohrs-Radians)
 Swapping is turned off.
 Update second derivatives using D2CorX and points    3    4
 ITU=  0  0  0  0
     Eigenvalues ---   -0.10640  -0.02972  -0.00477   0.00375   0.00464
     Eigenvalues ---    0.00598   0.01184   0.01974   0.02880   0.03945
     Eigenvalues ---    0.05525   0.06304   0.06462   0.07563   0.09188
     Eigenvalues ---    0.10642   0.12377   0.13605   0.14571   0.14888
     Eigenvalues ---    0.17149   0.19428   0.20135   0.27496   0.28274
     Eigenvalues ---    0.33295   0.33814   0.34548   0.35129   0.44988
     Eigenvalues ---    0.45647   0.51684   0.76678
 Eigenvectors required to have negative eigenvalues:
                          R3        R9        D19       D16       D2
   1                    0.52925   0.32550  -0.27470  -0.26169  -0.25590
                          R7        A25       A21       D6        D1
   1                    0.23660   0.18465  -0.16311  -0.16271  -0.15037
 RFO step:  Lambda0=3.056801871D-02 Lambda=-4.16715912D-02.
 Linear search not attempted -- option 19 set.
 Maximum step size (   0.300) exceeded in Quadratic search.
    -- Step size scaled by   0.344
 Iteration  1 RMS(Cart)=  0.04517442 RMS(Int)=  0.00623605
 Iteration  2 RMS(Cart)=  0.00494721 RMS(Int)=  0.00085374
 Iteration  3 RMS(Cart)=  0.00002920 RMS(Int)=  0.00085316
 Iteration  4 RMS(Cart)=  0.00000003 RMS(Int)=  0.00085316
 Variable       Old X    -DE/DX   Delta X   Delta X   Delta X     New X
                                 (Linear)    (Quad)   (Total)
    R1        1.92130   0.00987   0.00000   0.00225   0.00246   1.92376
    R2        2.75850   0.01740   0.00000  -0.00288  -0.00363   2.75487
    R3        2.68826  -0.03213   0.00000  -0.03583  -0.03564   2.65262
    R4        1.94031   0.00063   0.00000   0.00652   0.00652   1.94683
    R5        2.97813   0.00464   0.00000   0.04349   0.04304   3.02117
    R6        2.89776  -0.00352   0.00000  -0.00684  -0.00684   2.89092
    R7        2.93214  -0.02406   0.00000   0.03601   0.03620   2.96834
    R8        3.28363   0.02248   0.00000   0.03821   0.03835   3.32199
    R9        3.72557   0.00772   0.00000   0.25870   0.25868   3.98425
   R10        2.08156   0.00365   0.00000   0.00301   0.00301   2.08457
   R11        2.06699  -0.00010   0.00000   0.00061   0.00061   2.06760
   R12        2.07823   0.00194   0.00000   0.00267   0.00267   2.08091
   R13        2.29536   0.05893   0.00000   0.00837   0.00902   2.30438
   R14        2.58161   0.01365   0.00000   0.00662   0.00662   2.58824
   R15        1.85148   0.00631   0.00000   0.00520   0.00520   1.85668
    A1        2.06681   0.00871   0.00000   0.03279   0.03180   2.09861
    A2        1.87146  -0.00700   0.00000  -0.00637  -0.00669   1.86477
    A3        1.39607   0.01239   0.00000   0.01041   0.01027   1.40634
    A4        1.92527   0.00162   0.00000   0.00262   0.00258   1.92786
    A5        1.99401  -0.00419   0.00000   0.00139   0.00113   1.99515
    A6        1.86666  -0.00828   0.00000  -0.00420  -0.00409   1.86257
    A7        1.93705   0.01688   0.00000   0.00553   0.00538   1.94243
    A8        1.73663  -0.00817   0.00000   0.00746   0.00711   1.74374
    A9        2.02855   0.00084   0.00000  -0.04366  -0.04154   1.98701
   A10        1.86477  -0.00272   0.00000   0.01148   0.01048   1.87525
   A11        1.71481  -0.00684   0.00000  -0.01520  -0.01195   1.70286
   A12        1.99966   0.00261   0.00000   0.01669   0.01668   2.01635
   A13        1.93039  -0.00130   0.00000  -0.00350  -0.00353   1.92686
   A14        1.88136   0.00245   0.00000  -0.00716  -0.00717   1.87420
   A15        1.89025  -0.00072   0.00000  -0.00149  -0.00151   1.88874
   A16        1.87151  -0.00173   0.00000  -0.00421  -0.00419   1.86732
   A17        1.88689  -0.00154   0.00000  -0.00119  -0.00123   1.88566
   A18        1.19195   0.00573   0.00000  -0.01739  -0.01751   1.17444
   A19        2.25212  -0.00605   0.00000   0.01242   0.01111   2.26323
   A20        1.92363  -0.00069   0.00000  -0.01550  -0.01786   1.90576
   A21        2.33646   0.00730   0.00000  -0.08492  -0.08545   2.25101
   A22        2.09721   0.00792   0.00000  -0.00421  -0.00209   2.09511
   A23        1.89528   0.00734   0.00000   0.00519   0.00519   1.90046
   A24        3.32135   0.01400   0.00000   0.01303   0.01286   3.33420
   A25        2.87853  -0.02089   0.00000  -0.06388  -0.06442   2.81411
    D1       -1.25231   0.00999   0.00000   0.03062   0.03110  -1.22121
    D2        0.89836   0.02272   0.00000   0.03551   0.03571   0.93406
    D3       -2.49258  -0.01216   0.00000  -0.01317  -0.01373  -2.50631
    D4       -0.34192   0.00058   0.00000  -0.00828  -0.00913  -0.35104
    D5        0.91208   0.00873   0.00000   0.05071   0.05069   0.96277
    D6        3.06274   0.02147   0.00000   0.05560   0.05529   3.11803
    D7        0.29462  -0.00471   0.00000   0.00802   0.00875   0.30337
    D8        0.91536   0.00888   0.00000  -0.01499  -0.01748   0.89788
    D9        1.04299  -0.00031   0.00000  -0.00092  -0.00100   1.04199
   D10       -3.09799  -0.00035   0.00000   0.00672   0.00665  -3.09134
   D11       -1.03853  -0.00148   0.00000  -0.00096  -0.00101  -1.03955
   D12       -1.06912   0.00079   0.00000  -0.00058  -0.00053  -1.06965
   D13        1.07309   0.00075   0.00000   0.00706   0.00712   1.08021
   D14        3.13254  -0.00038   0.00000  -0.00063  -0.00054   3.13200
   D15        0.29522  -0.00624   0.00000   0.00215   0.00282   0.29804
   D16       -0.72596   0.01234   0.00000  -0.14528  -0.14562  -0.87159
   D17        2.57134   0.00266   0.00000  -0.08934  -0.08836   2.48299
[...]
   D25       -3.06705   0.00000   0.00000   0.00006   0.00006  -3.06700
   D26       -2.72201   0.00000   0.00000  -0.00008  -0.00008  -2.72209
   D27        0.02120   0.00000   0.00000   0.00002   0.00002   0.02123
         Item               Value     Threshold  Converged?
 Maximum Force            0.000013     0.000450     YES
 RMS     Force            0.000004     0.000300     YES
 Maximum Displacement     0.001022     0.001800     YES
 RMS     Displacement     0.000279     0.001200     YES
 Predicted change in Energy=-9.447709D-09
 Optimization completed.
    -- Stationary point found.
                           ----------------------------
                           !   Optimized Parameters   !
                           ! (Angstroms and Degrees)  !
 --------------------------                            --------------------------
 ! Name  Definition              Value          Derivative Info.                !
 --------------------------------------------------------------------------------
 ! R1    R(1,2)                  1.015          -DE/DX =    0.0                 !
 ! R2    R(1,3)                  1.6057         -DE/DX =    0.0                 !
 ! R3    R(1,4)                  1.184          -DE/DX =    0.0                 !
 ! R4    R(1,11)                 1.0174         -DE/DX =    0.0                 !
 ! R5    R(2,4)                  1.9335         -DE/DX =    0.0                 !
 ! R6    R(3,5)                  1.4977         -DE/DX =    0.0                 !
 ! R7    R(3,6)                  1.4221         -DE/DX =    0.0                 !
 ! R8    R(4,6)                  2.3811         -DE/DX =    0.0                 !
 ! R9    R(4,10)                 3.4737         -DE/DX =    0.0                 !
 ! R10   R(5,7)                  1.0968         -DE/DX =    0.0                 !
 ! R11   R(5,8)                  1.0941         -DE/DX =    0.0                 !
 ! R12   R(5,9)                  1.104          -DE/DX =    0.0                 !
 ! R13   R(6,10)                 1.2481         -DE/DX =    0.0                 !
 ! R14   R(6,12)                 1.4207         -DE/DX =    0.0                 !
 ! R15   R(12,13)                0.9788         -DE/DX =    0.0                 !
 ! A1    A(2,1,3)              114.8351         -DE/DX =    0.0                 !
 ! A2    A(2,1,11)             116.8895         -DE/DX =    0.0                 !
 ! A3    A(3,1,4)               56.6587         -DE/DX =    0.0                 !
 ! A4    A(3,1,11)             111.698          -DE/DX =    0.0                 !
 ! A5    A(1,3,5)              114.4334         -DE/DX =    0.0                 !
 ! A6    A(1,3,6)              113.0206         -DE/DX =    0.0                 !
 ! A7    A(5,3,6)              122.0428         -DE/DX =    0.0                 !
 ! A8    A(1,4,6)               83.022          -DE/DX =    0.0                 !
 ! A9    A(1,4,10)              93.4612         -DE/DX =    0.0                 !
 ! A10   A(2,4,6)              100.6468         -DE/DX =    0.0                 !
 ! A11   A(2,4,10)             108.2956         -DE/DX =    0.0                 !
 ! A12   A(3,5,7)              112.9086         -DE/DX =    0.0                 !
 ! A13   A(3,5,8)              107.8951         -DE/DX =    0.0                 !
 ! A14   A(3,5,9)              112.7708         -DE/DX =    0.0                 !
 ! A15   A(7,5,8)              107.5579         -DE/DX =    0.0                 !
 ! A16   A(7,5,9)              108.0065         -DE/DX =    0.0                 !
 ! A17   A(8,5,9)              107.4425         -DE/DX =    0.0                 !
 ! A18   A(3,6,4)               31.0536         -DE/DX =    0.0                 !
 ! A19   A(3,6,10)             127.4589         -DE/DX =    0.0                 !
 ! A20   A(3,6,12)             112.3423         -DE/DX =    0.0                 !
 ! A21   A(4,6,12)              88.0095         -DE/DX =    0.0                 !
 ! A22   A(10,6,12)            120.1165         -DE/DX =    0.0                 !
 ! A23   A(6,12,13)            108.4158         -DE/DX =    0.0                 !
 ! A24   L(4,1,11,3,-1)        168.3566         -DE/DX =    0.0                 !
 ! A25   L(4,1,11,3,-2)        109.5497         -DE/DX =    0.0                 !
 ! D1    D(2,1,3,5)              5.6313         -DE/DX =    0.0                 !
 ! D2    D(2,1,3,6)           -140.0796         -DE/DX =    0.0                 !
 ! D3    D(4,1,3,5)           -108.7218         -DE/DX =    0.0                 !
 ! D4    D(4,1,3,6)            105.5674         -DE/DX =    0.0                 !
 ! D5    D(11,1,3,5)           141.7285         -DE/DX =    0.0                 !
 ! D6    D(11,1,3,6)            -3.9823         -DE/DX =    0.0                 !
 ! D7    D(3,1,4,6)            -32.2404         -DE/DX =    0.0                 !
 ! D8    D(3,1,4,10)           -26.2304         -DE/DX =    0.0                 !
 ! D9    D(1,3,5,7)             60.6889         -DE/DX =    0.0                 !
 ! D10   D(1,3,5,8)            179.4138         -DE/DX =    0.0                 !
 ! D11   D(1,3,5,9)            -62.0866         -DE/DX =    0.0                 !
 ! D12   D(6,3,5,7)           -157.0233         -DE/DX =    0.0                 !
 ! D13   D(6,3,5,8)            -38.2985         -DE/DX =    0.0                 !
 ! D14   D(6,3,5,9)             80.2012         -DE/DX =    0.0                 !
 ! D15   D(1,3,6,4)            -50.8749         -DE/DX =    0.0                 !
 ! D16   D(1,3,6,10)           173.3984         -DE/DX =    0.0                 !
 ! D17   D(1,3,6,12)            -9.932          -DE/DX =    0.0                 !
 ! D18   D(5,3,6,4)            166.3613         -DE/DX =    0.0                 !
 ! D19   D(5,3,6,10)            30.6346         -DE/DX =    0.0                 !
 ! D20   D(5,3,6,12)          -152.6958         -DE/DX =    0.0                 !
 ! D21   D(1,4,6,3)             77.2881         -DE/DX =    0.0                 !
 ! D22   D(1,4,6,12)           -65.3766         -DE/DX =    0.0                 !
 ! D23   D(2,4,6,3)             57.8887         -DE/DX =    0.0                 !
 ! D24   D(2,4,6,12)           -84.776          -DE/DX =    0.0                 !
 ! D25   D(3,6,12,13)         -175.7293         -DE/DX =    0.0                 !
 ! D26   D(4,6,12,13)         -155.9598         -DE/DX =    0.0                 !
 ! D27   D(10,6,12,13)           1.2148         -DE/DX =    0.0                 !
 --------------------------------------------------------------------------------
 GradGradGradGradGradGradGradGradGradGradGradGradGradGradGradGradGradGrad


 Test job not archived.
 1\1\GINC-KALI\Freq\RB3LYP\6-31G\C3H7N1O2\ROOT\11-Apr-2016\0\\#N Geom=A
 llCheck Guess=TCheck SCRF=Check Test GenChk RB3LYP/6-31G Freq\\Ala-S-o
 pt-freq-tsb1-6-31g\\0,1\N,-1.1911103976,-0.9693765287,-0.288694222\H,-
 2.1882492613,-0.8234798427,-0.4094752515\C,-0.4656075092,0.0929690853,
 0.672152116\H,-0.7044085759,-1.2586804061,0.7511596258\C,-1.3951939622
 ,1.0545214967,1.3461382213\C,0.8149101248,0.4888946735,0.1968722361\H,
 -2.1288010961,0.5573148606,1.9924006988\H,-0.7946252918,1.7165115161,1
 .9770369102\H,-1.945868131,1.6894209435,0.6303074413\O,1.5570679819,1.
 3766710696,0.6646686327\H,-0.647156954,-1.1488804064,-1.1295277631\O,1
 .2564457967,-0.3079633869,-0.8932450321\H,2.1657948157,-0.0330541745,-
 1.1288446237\\Version=ES64L-G09RevD.01\State=1-A\HF=-323.5337598\RMSD=
 2.687e-09\RMSF=9.302e-06\ZeroPoint=0.1021775\Thermal=0.1090816\Dipole=
 -1.3067911,-0.954981,-0.7823106\DipoleDeriv=-0.5840059,-0.4966067,-0.1
 464896,-0.1024841,-0.6881568,-0.0397326,-0.5916632,-0.7828849,-0.62360
 36,0.0709992,-0.0179624,-0.036676,0.0944223,0.3356658,-0.0065351,-0.12
 02697,-0.1314193,0.1830095,-0.4996757,-0.1099045,0.1214662,-0.5835957,
 -0.5754051,0.2003025,0.6652844,0.7056412,-0.0684192,0.4830191,0.445266
 9,0.1949599,0.4009722,0.6646803,0.0994978,0.5514095,0.566826,0.416087,
 0.1679746,-0.1400262,-0.0537165,-0.1070867,0.1164857,-0.167813,-0.1359
 879,-0.1264797,0.1559642,1.6612709,0.5483371,-0.3427854,0.3671673,0.96
 7718,0.4186242,-0.5321861,0.2576359,0.9618976,-0.0736843,0.0059553,0.1
 372278,-0.0651288,0.0017469,0.0927411,0.0872201,0.0318546,-0.0094577,0
 .0656884,-0.0554636,-0.0639528,-0.0235517,0.0447929,-0.065911,-0.04276
 85,-0.0473606,0.0540279,-0.0990157,0.1462357,-0.0113073,0.1436911,-0.0
 438314,0.0355568,-0.1059472,0.105512,-0.0649123,-1.0284001,-0.4233795,
 -0.0661952,-0.3854919,-0.8694108,-0.2024419,-0.0759871,-0.203783,-0.55
 90381,0.2296076,-0.0322456,-0.0167438,0.0438514,0.3388707,-0.0214244,-
 0.0619659,-0.0972308,0.1813662,-0.5955368,0.2066647,0.2518069,0.355844
 6,-0.6090679,-0.3250963,0.4094313,-0.2160789,-0.9922995,0.2017587,-0.0
 768711,0.032406,-0.1386101,0.3159118,-0.0177683,-0.0465697,-0.0622326,
 0.3653781\Polar=57.8166675,10.0690264,45.494791,-4.7788954,9.521091,40
 .0466765\PG=C01 [X(C3H7N1O2)]\NImag=1\\0.72643734,-0.07915309,0.183041
 23,-0.12228410,0.09135742,0.47759053,-0.42697106,0.05574199,-0.0256689
 5,0.44222064,0.07290470,-0.04288777,-0.00401324,-0.05761282,0.03864635
 ,-0.04983009,0.00039312,-0.06577855,0.03944830,0.00744431,0.05318187,-
 0.09400440,0.00221436,-0.05043839,-0.00980350,-0.02502705,-0.01756674,
 0.57628113,-0.07188997,-0.03012183,-0.15750863,0.00238854,0.01052187,-
 0.00683317,-0.02072133,0.28601994,0.00949090,-0.01170337,-0.03257335,-
 0.00321468,0.00412707,-0.00616243,-0.14789912,0.11571412,0.24908794,-0
 .02824950,0.00694214,0.02467332,-0.00045699,0.00862462,-0.00969362,0.0
 1338942,0.06231005,0.00718125,0.02899639,0.06231281,-0.03584612,0.1177
 2355,-0.00357732,-0.00445128,0.00120743,0.01318202,-0.03153121,0.00250
 102,-0.05833236,0.08057640,0.00350336,0.01407435,-0.04934541,0.0008867
 0,-0.00926676,0.01006540,0.05465837,0.12298079,-0.01287040,-0.03344938
 ,-0.11892078,0.05771568,0.01059003,-0.02007601,-0.01580909,0.00304880,
 -0.00002190,0.00062867,-0.14644563,0.06165856,0.05616615,-0.00487259,0
 .00265184,-0.00153690,0.55209676,0.00727060,-0.01616199,-0.00322634,-0
 .00022495,0.00468689,-0.00063484,0.06098951,-0.12540574,-0.05659329,0.
 00396902,-0.00754289,-0.01164395,0.04536132,0.51544289,0.01725856,-0.0
 1823733,-0.01326734,0.00320446,-0.00090051,0.00392907,0.03374162,-0.03
 388033,-0.08611540,-0.01096503,0.00045475,-0.00234071,0.00870792,-0.00
 826538,0.53957995,0.00041398,-0.00621016,0.03969241,0.00042278,-0.0030
 9032,0.00544925,-0.27431112,-0.01558748,0.03671738,-0.02007503,-0.0248
 9595,-0.03363651,-0.01857882,-0.00446526,0.02069164,0.73191939,-0.0115
 7638,-0.01930298,0.00111489,0.00311046,-0.00379126,0.00368962,-0.04752
 848,-0.07633389,0.00101119,-0.01720805,-0.00678296,-0.00075912,0.02152
 893,0.00570416,-0.00085119,0.26628237,0.51942467,-0.04090810,-0.010890
 17,-0.01104253,-0.00284776,-0.00476700,-0.00791526,0.09392398,0.007539
 15,-0.08361803,0.01496799,0.00844976,0.00596856,0.01117432,0.00819417,
 -0.01002433,-0.03467222,0.18224029,0.39432929,0.00093245,0.00094177,0.
 00197321,0.00047947,-0.00010882,0.00024662,-0.01626133,-0.00593424,0.0
 0834534,-0.00105745,-0.00139355,-0.00182104,-0.15921405,-0.07895531,0.
 09687892,0.00025596,0.00133990,0.00281574,0.17770576,-0.00141444,0.001
 38610,0.00016914,0.00010632,-0.00037221,-0.00028843,0.02066738,0.00886
 321,-0.01565781,0.00111946,0.00107432,0.00084100,-0.08073115,-0.106192
 31,0.07156277,0.00038545,-0.00243735,-0.00330480,0.08409674,0.11624156
 ,-0.00156452,0.00100403,-0.00203471,-0.00020505,-0.00018696,-0.0014367
 3,0.01193855,0.00092576,-0.00599227,0.00187119,0.00106972,0.00298225,0
 .09804511,0.07288845,-0.13681307,-0.00066320,-0.00169042,-0.00157708,-
 0.11167817,-0.07772246,0.14725193,-0.00282920,0.00413004,0.00314031,-0
 .00040617,0.00007179,-0.00002456,0.01101477,0.01165603,0.01109878,0.00
 110353,0.00022167,0.00146234,-0.12983615,-0.09113451,-0.08783712,0.000
 83384,0.00141847,0.00191587,-0.01214866,-0.01306962,-0.01360294,0.1409
 2689,0.00360066,-0.00214081,-0.00108344,0.00069356,0.00015512,0.000584
 63,-0.01150587,-0.01390861,-0.01312686,-0.00141990,-0.00020825,-0.0018
 2303,-0.08903649,-0.14526461,-0.09418478,-0.00198214,-0.00075447,-0.00
 142020,-0.00837978,-0.00968247,-0.00947312,0.09689743,0.15980803,0.002
 61683,-0.00209953,0.00003735,0.00052500,0.00057840,0.00009933,-0.00790
 126,-0.00878174,-0.01069775,-0.00070096,-0.00060816,-0.00118331,-0.085
 18304,-0.09380340,-0.13668680,-0.00220133,-0.00293685,-0.00142240,0.01
 210597,0.01391908,0.01213312,0.09387455,0.10553943,0.14859984,0.003690
 00,-0.00127584,0.00370873,0.00035993,0.00064229,0.00069586,-0.01747150
 ,0.01722461,-0.00970256,-0.00293776,-0.00199642,-0.00211067,-0.1045743
 5,0.06200415,-0.07726049,0.00485333,0.00437343,-0.00252208,0.01067980,
 -0.01278419,0.01539890,-0.00850929,0.01160287,-0.01291095,0.11583021,-
 0.00303098,0.00301763,-0.00058327,-0.00113769,-0.00077722,-0.00092441,
 0.01957328,-0.01788027,0.00682617,0.00413107,0.00105821,0.00199577,0.0
 6206551,-0.12381019,0.09292355,-0.00477809,-0.00235059,0.00151844,0.00
 811491,-0.00927214,0.01262442,-0.00976893,0.01185205,-0.01400662,-0.07
 735710,0.13691590,0.00023393,0.00319782,0.00244043,-0.00145575,0.00121
 129,-0.00008131,0.00993090,-0.01331543,0.01138412,0.00185382,-0.001370
 45,0.00031703,-0.07456343,0.08790763,-0.15651139,-0.00030803,-0.001907
 30,0.00105603,-0.01042650,0.01048476,-0.01436942,-0.00840253,0.0126775
 1,-0.01326140,0.08358959,-0.10018294,0.16902287,-0.00969443,-0.0059979
 8,-0.00987216,0.00041025,-0.00039659,-0.00157019,-0.02759547,-0.050915
 15,0.00051027,0.00498678,0.00868109,0.00805159,0.00322533,0.00036038,-
 0.00448063,-0.28664566,-0.22225954,-0.10169485,0.00000894,-0.00014064,
 -0.00024097,-0.00113925,0.00007695,0.00010504,-0.00162641,0.00164426,-
 0.00050116,0.29080968,-0.00916365,0.00246080,-0.00677863,-0.00078822,-
 0.00010745,-0.00276234,-0.03153862,-0.02342855,0.00250324,0.00627430,0
 .00732379,0.00464660,0.00178644,0.00031216,-0.00468896,-0.21795367,-0.
 32898399,-0.14027972,0.00037976,0.00057023,0.00036573,-0.00097364,0.00
 098226,0.00248902,-0.00257288,0.00153946,0.00050458,0.27093859,0.37624
 937,0.00313255,-0.00143976,-0.00174188,0.00059668,0.00159850,0.0008811
 7,-0.00149433,-0.00844407,0.02018698,0.00117171,0.00292947,0.00345085,
 0.00217707,0.00013019,-0.00412065,-0.10206233,-0.13725989,-0.15357795,
 0.00036555,0.00041751,0.00041616,-0.00099711,0.00180004,0.00155471,-0.
 00043464,0.00108631,0.00030881,0.12143205,0.19069729,0.15635511,-0.171
 60668,0.04310672,0.15165703,-0.00846010,0.00375071,0.02997377,0.001639
 98,-0.00896262,-0.00588161,0.00979348,0.00133670,0.00038990,-0.0028249
 9,0.00000867,-0.00234831,0.00985778,-0.00535068,-0.00909716,0.00010086
 ,0.00009211,-0.00018001,0.00071603,-0.00063114,-0.00036964,0.00007668,
 0.00032767,0.00048049,-0.00273945,0.00044527,0.00158500,0.16629972,0.0
 3085694,-0.04374848,-0.04838788,0.00134622,-0.00155200,-0.00458006,0.0
 1920169,-0.00294299,-0.01898941,-0.01256286,0.00242284,0.00688539,-0.0
 0367763,-0.00314190,-0.00362707,-0.00169156,0.00118306,-0.00550732,-0.
 00034988,0.00006870,0.00022908,0.00114293,-0.00101682,-0.00077304,0.00
 001762,0.00009737,0.00019113,0.00165319,0.00052596,0.00134241,-0.03830
 964,0.04912943,0.17316280,-0.06535260,-0.31657589,-0.01204005,0.004507
 34,0.01153483,-0.00291430,-0.00584842,-0.01118840,0.00953664,-0.006104
 92,-0.00509842,-0.00147862,0.00247279,-0.00148955,0.00264610,-0.003799
 40,0.00058756,0.00048015,0.00005700,-0.00042230,0.00036782,0.00017018,
 0.00013696,0.00008317,0.00011937,0.00010986,-0.00004358,0.00037511,-0.
 00040860,-0.17152283,0.07074953,0.32386345,-0.00981955,-0.00133362,-0.
 00251349,-0.00085279,0.00023600,0.00190279,-0.01860696,0.01630861,0.03
 821199,0.00021111,0.00283432,0.00477650,-0.00264366,-0.00430427,0.0014
 5273,-0.12608719,0.01281005,0.05859982,-0.00140945,0.00135928,0.000790
 39,0.00031193,-0.00002355,-0.00004173,-0.00049723,0.00039108,-0.000372
 59,0.02789313,-0.01615373,-0.02093525,-0.00389554,0.00210782,0.0012397
 9,0.53468119,0.00054971,0.00127906,0.01122128,-0.00015366,-0.00018386,
 0.00228517,0.00155113,0.01772203,-0.01242772,-0.00403840,-0.00627247,-
 0.00824465,-0.00187001,0.00046876,0.00058899,-0.01820511,-0.09547689,-
 0.03140464,0.00004185,0.00004948,0.00009458,-0.00061169,0.00016016,0.0
 0053505,0.00017921,-0.00045628,0.00050396,0.00042335,-0.03480046,-0.05
 677124,0.00307696,-0.00164309,0.00159420,0.12446379,0.18338070,0.00765
 602,0.00008893,0.01220291,0.00127683,-0.00039318,0.00151408,0.02366681
 ,-0.00444684,-0.02963941,-0.00644605,-0.00760277,-0.01024506,0.0004355
 6,0.00180915,0.00385271,0.02195163,-0.05162130,-0.11939198,0.00055159,
 -0.00024162,0.00000101,-0.00093324,0.00031899,0.00069239,0.00154861,-0
 .00147559,-0.00028861,-0.00408913,-0.04941191,-0.02552074,0.00341905,0
 .00138968,-0.00130098,-0.16161553,0.08754389,0.22169543,0.00111103,0.0
 0096968,0.00174116,0.00000873,0.00002738,0.00033994,0.00217461,0.00246
 440,-0.00102406,-0.00083139,-0.00102483,-0.00117426,0.00002933,-0.0008
 7936,0.00095574,-0.02285924,-0.00694049,0.00834444,-0.00007231,0.00031
 331,0.00009070,-0.00003829,0.00010742,0.00008153,0.00012660,-0.0001750
 0,-0.00005874,0.00210656,-0.00067995,-0.00453695,0.00104223,0.00026515
 ,0.00048292,-0.39928498,-0.10540713,0.11257783,0.41648711,-0.00126691,
 -0.00097484,-0.00000484,0.00010757,0.00011281,0.00041896,-0.00105802,-
 0.00157397,-0.00418435,0.00019091,0.00017961,-0.00076562,0.00036060,0.
 00090476,-0.00089451,0.03219192,0.00990248,-0.01036798,0.00020664,-0.0
 0029712,-0.00012879,0.00002004,0.00001842,-0.00005165,-0.00005775,0.00
 006607,0.00009744,-0.00406790,-0.00264358,0.00391323,0.00110928,0.0006
 1791,0.00105982,-0.13869579,-0.06422714,0.02404258,0.11095942,0.057914
 59,-0.00246815,-0.00039292,0.00008844,-0.00050573,0.00006073,0.0001685
 2,0.00035390,-0.00810118,-0.00180159,-0.00000087,0.00027136,0.00058354
 ,0.00123629,0.00076482,0.00000750,0.04639521,0.01276948,-0.01337188,0.
 00016261,-0.00023616,-0.00013891,-0.00006217,0.00002064,-0.00000203,-0
 .00008347,0.00007881,-0.00012702,-0.00760628,0.00234001,0.00221604,0.0
 0189432,0.00107756,0.00025147,0.07850458,0.00448115,-0.05357175,-0.117
 82025,-0.01313430,0.06569768\\0.00001032,-0.00002175,0.00000718,-0.000
 01614,0.00000049,0.00000631,0.00002128,0.00002189,-0.00001286,-0.00000
 873,-0.00000766,0.00000928,-0.00000295,0.00000553,0.00000180,-0.000003
 25,-0.00001340,-0.00000862,0.00000298,0.00000402,0.00000151,0.00000643
 ,0.00000256,-0.00000358,0.00000269,0.00000424,-0.00000020,0.00001097,0
 .00001352,0.00000619,-0.00000593,0.00000085,0.00000280,-0.00001396,-0.
 00000588,-0.00000298,-0.00000373,-0.00000442,-0.00000684\\\@


 A ROPE OVER THE TOP OF A FENCE HAS THE SAME LENGTH ON EACH SIDE.
 WEIGHS 1/3 POUND PER FOOT.  ON ONE END HANGS A MONKEY HOLDING A
 BANANA, AND ON THE OTHER END A WEIGHT EQUAL TO THE WEIGHT
 OF THE MONKEY.  THE BANANA WEIGHS TWO OUNCES PER INCH.
 THE ROPE IS AS LONG AS THE AGE OF THE MONKEY, 
 AND THE WEIGHT OF THE MONKEY (IN OUNCES) IS AS MUCH
 AS THE AGE OF THE MONKEY'S MOTHER.  THE COMBINED AGES OF MONKEY
 AND MOTHER ARE THIRTY YEARS.  HALF THE WEIGHT OF THE MONKEY,
  PLUS THE WEIGHT OF THE BANANA, IS ONE FOURTH AS MUCH AS THE WEIGHT
 OF THE WEIGHT AND THE ROPE.
 THE MONKEY'S MOTHER IS HALF AS OLD AS THE MONKEY WILL BE
 WHEN IT IS 3 TIMES AS OLD AS ITS MOTHER WAS WHEN
 SHE WAS HALF AS OLD AS THE MONKEY WILL BE WHEN IT IS
 AS OLD AS ITS MOTHER WILL BE WHEN SHE IS 4 TIMES AS
 OLD AS THE MONKEY WAS WHEN IT WAS TWICE AS OLD AS 
 ITS MOTHER WAS WHEN SHE WAS ONE THIRD AS OLD AS THE
 MONKEY WAS WHEN IT WAS AS OLD AS ITS MOTHER WAS WHEN 
 SHE WAS 3 TIMES AS OLD AS THE MONKEY WAS WHEN IT WAS AS OLD AS ITS
 MOTHER WAS WHEN SHE WAS 3 TIMES AS OLD AS THE MONKEY 
 WAS WHEN IT WAS ONE FOURTH WAS OLD AS IT IS NOW.

 HOW LONG IS THE BANANA?
 Job cpu time:       0 days  0 hours  1 minutes 30.2 seconds.
 File lengths (MBytes):  RWF=     12 Int=      0 D2E=      0 Chk=      2 Scr=      1
 Normal termination of Gaussian 09 at Mon Apr 11 22:58:42 2016.
