 Entering Link 1 = c:\GAUSSION09\l1.exe PID=      1272.
  
 Copyright (c) 1988,1990,1992,1993,1995,1998,2003,2009,2010,
            Gaussian, Inc.  All Rights Reserved.
  
 This is part of the Gaussian(R) 09 program.  It is based on
 the Gaussian(R) 03 system (copyright 2003, Gaussian, Inc.),
 the Gaussian(R) 98 system (copyright 1998, Gaussian, Inc.),
 the Gaussian(R) 94 system (copyright 1995, Gaussian, Inc.),
 the Gaussian 92(TM) system (copyright 1992, Gaussian, Inc.),
 the Gaussian 90(TM) system (copyright 1990, Gaussian, Inc.),
 the Gaussian 88(TM) system (copyright 1988, Gaussian, Inc.),
 the Gaussian 86(TM) system (copyright 1986, Carnegie Mellon
 University), and the Gaussian 82(TM) system (copyright 1983,
 Carnegie Mellon University). Gaussian is a federally registered
 trademark of Gaussian, Inc.
  
 This software contains proprietary and confidential information,
 including trade secrets, belonging to Gaussian, Inc.
  
 This software is provided under written license and may be
 used, copied, transmitted, or stored only in accord with that
 written license.
  
 The following legend is applicable only to US Government
 contracts under FAR:
  
                    RESTRICTED RIGHTS LEGEND
  
 Use, reproduction and disclosure by the US Government is
 subject to restrictions as set forth in subparagraphs (a)
 and (c) of the Commercial Computer Software - Restricted
 Rights clause in FAR 52.227-19.
  
 Gaussian, Inc.
 340 Quinnipiac St., Bldg. 40, Wallingford CT 06492
  
  
 ---------------------------------------------------------------
 Warning -- This program may not be used in any manner that
 competes with the business of Gaussian, Inc. or will provide
 assistance to any competitor of Gaussian, Inc.  The licensee
 of this program is prohibited from giving any competitor of
 Gaussian, Inc. access to this program.  By using this program,
 the user acknowledges that Gaussian, Inc. is engaged in the
 business of creating and licensing software in the field of
 computational chemistry and represents and warrants to the
 licensee that it is not a competitor of Gaussian, Inc. and that
 it will not use this program in any manner prohibited above.
 ---------------------------------------------------------------
  

 Cite this work as:
 Gaussian 09, Revision B.01,
 M. J. Frisch, G. W. Trucks, H. B. Schlegel, G. E. Scuseria, 
 M. A. Robb, J. R. Cheeseman, G. Scalmani, V. Barone, B. Mennucci, 
 G. A. Petersson, H. Nakatsuji, M. Caricato, X. Li, H. P. Hratchian, 
 A. F. Izmaylov, J. Bloino, G. Zheng, J. L. Sonnenberg, M. Hada, 
 M. Ehara, K. Toyota, R. Fukuda, J. Hasegawa, M. Ishida, T. Nakajima, 
 Y. Honda, O. Kitao, H. Nakai, T. Vreven, J. A. Montgomery, Jr., 
 J. E. Peralta, F. Ogliaro, M. Bearpark, J. J. Heyd, E. Brothers, 
 K. N. Kudin, V. N. Staroverov, T. Keith, R. Kobayashi, J. Normand, 
 K. Raghavachari, A. Rendell, J. C. Burant, S. S. Iyengar, J. Tomasi, 
 M. Cossi, N. Rega, J. M. Millam, M. Klene, J. E. Knox, J. B. Cross, 
 V. Bakken, C. Adamo, J. Jaramillo, R. Gomperts, R. E. Stratmann, 
 O. Yazyev, A. J. Austin, R. Cammi, C. Pomelli, J. W. Ochterski, 
 R. L. Martin, K. Morokuma, V. G. Zakrzewski, G. A. Voth, 
 P. Salvador, J. J. Dannenberg, S. Dapprich, A. D. Daniels, 
 O. Farkas, J. B. Foresman, J. V. Ortiz, J. Cioslowski, 
 and D. J. Fox, Gaussian, Inc., Wallingford CT, 2010.
 
 ******************************************
 Gaussian 09:  IA32W-G09RevB.01 12-Aug-2010
                29-Mar-2016 
 ******************************************
 %chk=E:\YangJ\Amiano\Ala\opt-rs\s\Ala-S-opt-freq-6-311++gdp.chk
 ------------------------------
 # opt freq b3lyp/6-311++g(d,p)
 ------------------------------
 1/14=-1,18=20,19=15,26=3,38=1/1,3;
 2/9=110,12=2,17=6,18=5,40=1/2;
 3/5=4,6=6,7=1111,11=2,16=1,25=1,30=1,71=1,74=-5/1,2,3;
 4//1;
 5/5=2,38=5/2;
 6/7=2,8=2,9=2,10=2,28=1/1;
 7//1,2,3,16;
 1/14=-1,18=20,19=15/3(2);
 2/9=110/2;
 99//99;
 2/9=110/2;
 3/5=4,6=6,7=1111,11=2,16=1,25=1,30=1,71=1,74=-5/1,2,3;
 4/5=5,16=3/1;
 5/5=2,38=5/2;
 7//1,2,3,16;
 1/14=-1,18=20,19=15/3(-5);
 2/9=110/2;
 6/7=2,8=2,9=2,10=2,19=2,28=1/1;
 99/9=1/99;
 ----------------------------
 Ala-S-opt-freq-6-311++g(d,p)
 ----------------------------
 Symbolic Z-matrix:
 Charge =  0 Multiplicity = 1
 N                    -1.43351  -1.08542  -0.34418 
 H                    -1.08926  -1.78445   0.29929 
 C                    -0.6654    0.14427  -0.40629 
 H                    -0.64363   0.52874  -1.43542 
 C                    -1.19082   1.28259   0.51336 
 C                     0.76501  -0.17964  -0.02938 
 H                    -1.17441   0.96294   1.56131 
 H                    -0.5907    2.19149   0.40525 
 H                    -2.22614   1.51638   0.24142 
 O                     1.14398  -1.19008   0.56971 
 H                    -2.43639  -0.99843  -0.40291 
 O                     1.63068   0.82607  -0.39655 
 H                     2.54509   0.61007  -0.11115 
 

 GradGradGradGradGradGradGradGradGradGradGradGradGradGradGradGradGradGrad
 Berny optimization.
 Initialization pass.
                           ----------------------------
                           !    Initial Parameters    !
                           ! (Angstroms and Degrees)  !
 --------------------------                            --------------------------
 ! Name  Definition              Value          Derivative Info.                !
 --------------------------------------------------------------------------------
 ! R1    R(1,2)                  1.0105         estimate D2E/DX2                !
 ! R2    R(1,3)                  1.4512         estimate D2E/DX2                !
 ! R3    R(1,11)                 1.0084         estimate D2E/DX2                !
 ! R4    R(3,4)                  1.0988         estimate D2E/DX2                !
 ! R5    R(3,5)                  1.5549         estimate D2E/DX2                !
 ! R6    R(3,6)                  1.5143         estimate D2E/DX2                !
 ! R7    R(5,7)                  1.0957         estimate D2E/DX2                !
 ! R8    R(5,8)                  1.0945         estimate D2E/DX2                !
 ! R9    R(5,9)                  1.0957         estimate D2E/DX2                !
 ! R10   R(6,10)                 1.2343         estimate D2E/DX2                !
 ! R11   R(6,12)                 1.3768         estimate D2E/DX2                !
 ! R12   R(12,13)                0.982          estimate D2E/DX2                !
 ! A1    A(2,1,3)              115.6642         estimate D2E/DX2                !
 ! A2    A(2,1,11)             115.8213         estimate D2E/DX2                !
 ! A3    A(3,1,11)             116.7961         estimate D2E/DX2                !
 ! A4    A(1,3,4)              110.3077         estimate D2E/DX2                !
 ! A5    A(1,3,5)              114.5942         estimate D2E/DX2                !
 ! A6    A(1,3,6)              107.9428         estimate D2E/DX2                !
 ! A7    A(4,3,5)              107.7278         estimate D2E/DX2                !
 ! A8    A(4,3,6)              106.8125         estimate D2E/DX2                !
 ! A9    A(5,3,6)              109.1825         estimate D2E/DX2                !
 ! A10   A(3,5,7)              110.3069         estimate D2E/DX2                !
 ! A11   A(3,5,8)              111.3619         estimate D2E/DX2                !
 ! A12   A(3,5,9)              109.191          estimate D2E/DX2                !
 ! A13   A(7,5,8)              109.178          estimate D2E/DX2                !
 ! A14   A(7,5,9)              108.2862         estimate D2E/DX2                !
 ! A15   A(8,5,9)              108.4448         estimate D2E/DX2                !
 ! A16   A(3,6,10)             125.8693         estimate D2E/DX2                !
 ! A17   A(3,6,12)             111.7956         estimate D2E/DX2                !
 ! A18   A(10,6,12)            122.301          estimate D2E/DX2                !
 ! A19   A(6,12,13)            110.3224         estimate D2E/DX2                !
 ! D1    D(2,1,3,4)            143.7087         estimate D2E/DX2                !
 ! D2    D(2,1,3,5)            -94.5251         estimate D2E/DX2                !
 ! D3    D(2,1,3,6)             27.3487         estimate D2E/DX2                !
 ! D4    D(11,1,3,4)           -74.6585         estimate D2E/DX2                !
 ! D5    D(11,1,3,5)            47.1077         estimate D2E/DX2                !
 ! D6    D(11,1,3,6)           168.9815         estimate D2E/DX2                !
 ! D7    D(1,3,5,7)             60.1355         estimate D2E/DX2                !
 ! D8    D(1,3,5,8)           -178.4752         estimate D2E/DX2                !
 ! D9    D(1,3,5,9)            -58.7489         estimate D2E/DX2                !
 ! D10   D(4,3,5,7)           -176.7005         estimate D2E/DX2                !
 ! D11   D(4,3,5,8)            -55.3112         estimate D2E/DX2                !
 ! D12   D(4,3,5,9)             64.4152         estimate D2E/DX2                !
 ! D13   D(6,3,5,7)            -61.0599         estimate D2E/DX2                !
 ! D14   D(6,3,5,8)             60.3294         estimate D2E/DX2                !
 ! D15   D(6,3,5,9)           -179.9442         estimate D2E/DX2                !
 ! D16   D(1,3,6,10)           -18.1817         estimate D2E/DX2                !
 ! D17   D(1,3,6,12)           163.9151         estimate D2E/DX2                !
 ! D18   D(4,3,6,10)          -136.7976         estimate D2E/DX2                !
 ! D19   D(4,3,6,12)            45.2992         estimate D2E/DX2                !
 ! D20   D(5,3,6,10)           106.9765         estimate D2E/DX2                !
 ! D21   D(5,3,6,12)           -70.9267         estimate D2E/DX2                !
 ! D22   D(3,6,12,13)          177.788          estimate D2E/DX2                !
 ! D23   D(10,6,12,13)          -0.2018         estimate D2E/DX2                !
 --------------------------------------------------------------------------------
 Trust Radius=3.00D-01 FncErr=1.00D-07 GrdErr=1.00D-06
 Number of steps in this run=     64 maximum allowed number of steps=    100.
 GradGradGradGradGradGradGradGradGradGradGradGradGradGradGradGradGradGrad

                          Input orientation:                          
 ---------------------------------------------------------------------
 Center     Atomic      Atomic             Coordinates (Angstroms)
 Number     Number       Type             X           Y           Z
 ---------------------------------------------------------------------
      1          7           0       -1.433508   -1.085424   -0.344181
      2          1           0       -1.089262   -1.784449    0.299289
      3          6           0       -0.665404    0.144270   -0.406289
      4          1           0       -0.643625    0.528742   -1.435423
      5          6           0       -1.190815    1.282585    0.513359
      6          6           0        0.765007   -0.179637   -0.029375
      7          1           0       -1.174411    0.962940    1.561309
      8          1           0       -0.590696    2.191487    0.405254
      9          1           0       -2.226138    1.516380    0.241416
     10          8           0        1.143976   -1.190083    0.569713
     11          1           0       -2.436385   -0.998432   -0.402908
     12          8           0        1.630681    0.826074   -0.396549
     13          1           0        2.545091    0.610071   -0.111147
 ---------------------------------------------------------------------
                    Distance matrix (angstroms):
                    1          2          3          4          5
     1  N    0.000000
     2  H    1.010542   0.000000
     3  C    1.451202   2.097010   0.000000
     4  H    2.102441   2.925521   1.098822   0.000000
     5  C    2.530166   3.076172   1.554854   2.159965   0.000000
     6  C    2.398546   2.474218   1.514284   2.112585   2.501578
     7  H    2.809594   3.024581   2.191062   3.074193   1.095738
     8  H    3.465564   4.008474   2.203470   2.481051   1.094501
     9  H    2.782188   3.491605   2.176717   2.508299   1.095676
    10  O    2.736710   2.326747   2.450905   3.189114   3.401252
    11  H    1.008354   1.710451   2.107642   2.571446   2.755726
    12  O    3.611900   3.833681   2.395195   2.517962   2.999529
    13  H    4.331080   4.371579   3.257508   3.453727   3.846983
                    6          7          8          9         10
     6  C    0.000000
     7  H    2.756284   0.000000
     8  H    2.765694   1.785081   0.000000
     9  H    3.449167   1.776103   1.776874   0.000000
    10  O    1.234312   3.315673   3.804096   4.334788   0.000000
    11  H    3.325487   3.049214   3.772967   2.604542   3.715065
    12  O    1.376831   3.423519   2.727958   3.969707   2.288107
    13  H    1.949109   4.093449   3.549747   4.869325   2.380598
                   11         12         13
    11  H    0.000000
    12  O    4.457565   0.000000
    13  H    5.242853   0.981966   0.000000
 Stoichiometry    C3H7NO2
 Framework group  C1[X(C3H7NO2)]
 Deg. of freedom    33
 Full point group                 C1      NOp   1
 Largest Abelian subgroup         C1      NOp   1
 Largest concise Abelian subgroup C1      NOp   1
                         Standard orientation:                         
 ---------------------------------------------------------------------
 Center     Atomic      Atomic             Coordinates (Angstroms)
 Number     Number       Type             X           Y           Z
 ---------------------------------------------------------------------
      1          7           0       -1.433508   -1.085424   -0.344181
      2          1           0       -1.089262   -1.784449    0.299289
      3          6           0       -0.665404    0.144270   -0.406289
      4          1           0       -0.643625    0.528742   -1.435423
      5          6           0       -1.190815    1.282585    0.513359
      6          6           0        0.765007   -0.179637   -0.029375
      7          1           0       -1.174411    0.962940    1.561309
      8          1           0       -0.590696    2.191487    0.405254
      9          1           0       -2.226138    1.516380    0.241416
     10          8           0        1.143976   -1.190083    0.569713
     11          1           0       -2.436385   -0.998432   -0.402908
     12          8           0        1.630681    0.826074   -0.396549
     13          1           0        2.545091    0.610071   -0.111147
 ---------------------------------------------------------------------
 Rotational constants (GHZ):      4.9148311      3.1273902      2.2413798
 Standard basis: 6-311++G(d,p) (5D, 7F)
 There are   181 symmetry adapted basis functions of A   symmetry.
 Integral buffers will be    262144 words long.
 Raffenetti 2 integral format.
 Two-electron integral symmetry is turned on.
   181 basis functions,   279 primitive gaussians,   187 cartesian basis functions
    24 alpha electrons       24 beta electrons
       nuclear repulsion energy       247.5092969371 Hartrees.
 NAtoms=   13 NActive=   13 NUniq=   13 SFac= 1.00D+00 NAtFMM=   50 NAOKFM=F Big=F
 One-electron integrals computed using PRISM.
 NBasis=   181 RedAO= T  NBF=   181
 NBsUse=   181 1.00D-06 NBFU=   181
 Harris functional with IExCor=  402 diagonalized for initial guess.
 ExpMin= 3.60D-02 ExpMax= 8.59D+03 ExpMxC= 1.30D+03 IAcc=3 IRadAn=         0 AccDes= 0.00D+00
 HarFok:  IExCor=  402 AccDes= 0.00D+00 IRadAn=         0 IDoV= 1
 ScaDFX=  1.000000  1.000000  1.000000  1.000000
 FoFCou: FMM=F IPFlag=           0 FMFlag=      100000 FMFlg1=           0
         NFxFlg=           0 DoJE=T BraDBF=F KetDBF=T FulRan=T
         Omega=  0.000000  0.000000  1.000000  0.000000  0.000000 ICntrl=     500 IOpCl=  0
         NMat0=    1 NMatS0=    1 NMatT0=    0 NMatD0=    1 NMtDS0=    0 NMtDT0=    0
         I1Cent=           4 NGrid=           0.
 Petite list used in FoFCou.
 Initial guess orbital symmetries:
       Occupied  (A) (A) (A) (A) (A) (A) (A) (A) (A) (A) (A) (A)
                 (A) (A) (A) (A) (A) (A) (A) (A) (A) (A) (A) (A)
       Virtual   (A) (A) (A) (A) (A) (A) (A) (A) (A) (A) (A) (A)
                 (A) (A) (A) (A) (A) (A) (A) (A) (A) (A) (A) (A)
                 (A) (A) (A) (A) (A) (A) (A) (A) (A) (A) (A) (A)
                 (A) (A) (A) (A) (A) (A) (A) (A) (A) (A) (A) (A)
                 (A) (A) (A) (A) (A) (A) (A) (A) (A) (A) (A) (A)
                 (A) (A) (A) (A) (A) (A) (A) (A) (A) (A) (A) (A)
                 (A) (A) (A) (A) (A) (A) (A) (A) (A) (A) (A) (A)
                 (A) (A) (A) (A) (A) (A) (A) (A) (A) (A) (A) (A)
                 (A) (A) (A) (A) (A) (A) (A) (A) (A) (A) (A) (A)
                 (A) (A) (A) (A) (A) (A) (A) (A) (A) (A) (A) (A)
                 (A) (A) (A) (A) (A) (A) (A) (A) (A) (A) (A) (A)
                 (A) (A) (A) (A) (A) (A) (A) (A) (A) (A) (A) (A)
                 (A) (A) (A) (A) (A) (A) (A) (A) (A) (A) (A) (A)
                 (A)
 The electronic state of the initial guess is 1-A.
 Requested convergence on RMS density matrix=1.00D-08 within 128 cycles.
 Requested convergence on MAX density matrix=1.00D-06.
 Requested convergence on             energy=1.00D-06.
 No special actions if energy rises.
 SCF Done:  E(RB3LYP) =  -323.849648534     A.U. after   13 cycles
             Convg  =    0.3416D-08             -V/T =  2.0045

 **********************************************************************

            Population analysis using the SCF density.

 **********************************************************************

 Orbital symmetries:
       Occupied  (A) (A) (A) (A) (A) (A) (A) (A) (A) (A) (A) (A)
                 (A) (A) (A) (A) (A) (A) (A) (A) (A) (A) (A) (A)
       Virtual   (A) (A) (A) (A) (A) (A) (A) (A) (A) (A) (A) (A)
                 (A) (A) (A) (A) (A) (A) (A) (A) (A) (A) (A) (A)
                 (A) (A) (A) (A) (A) (A) (A) (A) (A) (A) (A) (A)
                 (A) (A) (A) (A) (A) (A) (A) (A) (A) (A) (A) (A)
                 (A) (A) (A) (A) (A) (A) (A) (A) (A) (A) (A) (A)
                 (A) (A) (A) (A) (A) (A) (A) (A) (A) (A) (A) (A)
                 (A) (A) (A) (A) (A) (A) (A) (A) (A) (A) (A) (A)
                 (A) (A) (A) (A) (A) (A) (A) (A) (A) (A) (A) (A)
                 (A) (A) (A) (A) (A) (A) (A) (A) (A) (A) (A) (A)
                 (A) (A) (A) (A) (A) (A) (A) (A) (A) (A) (A) (A)
                 (A) (A) (A) (A) (A) (A) (A) (A) (A) (A) (A) (A)
                 (A) (A) (A) (A) (A) (A) (A) (A) (A) (A) (A) (A)
                 (A) (A) (A) (A) (A) (A) (A) (A) (A) (A) (A) (A)
                 (A)
 The electronic state is 1-A.
 Alpha  occ. eigenvalues --  -19.18541 -19.13151 -14.29709 -10.32381 -10.23232
 Alpha  occ. eigenvalues --  -10.17858  -1.11160  -1.02658  -0.89733  -0.76243
 Alpha  occ. eigenvalues --   -0.68291  -0.60269  -0.54035  -0.50130  -0.47508
 Alpha  occ. eigenvalues --   -0.46348  -0.44749  -0.42059  -0.41216  -0.38831
 Alpha  occ. eigenvalues --   -0.37642  -0.33763  -0.29686  -0.24031
 Alpha virt. eigenvalues --   -0.02592  -0.01427  -0.00336   0.01568   0.01883
 Alpha virt. eigenvalues --    0.03529   0.04691   0.05668   0.06623   0.07568
 Alpha virt. eigenvalues --    0.08635   0.09105   0.10137   0.10733   0.11453
 Alpha virt. eigenvalues --    0.12756   0.12945   0.13162   0.13764   0.15158
 Alpha virt. eigenvalues --    0.15952   0.17248   0.17877   0.18970   0.19602
 Alpha virt. eigenvalues --    0.20543   0.21892   0.22684   0.22848   0.23294
 Alpha virt. eigenvalues --    0.24699   0.25283   0.26713   0.28159   0.29663
 Alpha virt. eigenvalues --    0.30076   0.30186   0.32258   0.33425   0.33948
 Alpha virt. eigenvalues --    0.35102   0.37162   0.39467   0.44544   0.45523
 Alpha virt. eigenvalues --    0.47567   0.51746   0.53376   0.56862   0.57438
 Alpha virt. eigenvalues --    0.59271   0.61639   0.62736   0.63179   0.65818
 Alpha virt. eigenvalues --    0.66710   0.67683   0.70759   0.72604   0.73152
 Alpha virt. eigenvalues --    0.82254   0.82887   0.85132   0.88504   0.94672
 Alpha virt. eigenvalues --    0.97314   1.02233   1.04824   1.09934   1.14269
 Alpha virt. eigenvalues --    1.16114   1.16788   1.19102   1.19658   1.22734
 Alpha virt. eigenvalues --    1.25281   1.29719   1.33217   1.42611   1.43983
 Alpha virt. eigenvalues --    1.46039   1.50822   1.51578   1.53966   1.55720
 Alpha virt. eigenvalues --    1.58378   1.59307   1.62525   1.63736   1.65507
 Alpha virt. eigenvalues --    1.69179   1.70208   1.72974   1.78012   1.82638
 Alpha virt. eigenvalues --    1.86917   1.89497   1.94506   1.96796   1.97726
 Alpha virt. eigenvalues --    2.05415   2.10019   2.10693   2.18010   2.20265
 Alpha virt. eigenvalues --    2.27900   2.31564   2.45090   2.46524   2.51221
 Alpha virt. eigenvalues --    2.51607   2.54121   2.57449   2.59991   2.62095
 Alpha virt. eigenvalues --    2.64293   2.67517   2.68662   2.74623   2.79445
 Alpha virt. eigenvalues --    2.83224   2.87075   2.88715   2.90398   2.95466
 Alpha virt. eigenvalues --    3.02512   3.04994   3.05200   3.11124   3.14053
 Alpha virt. eigenvalues --    3.23669   3.28747   3.33337   3.54445   3.55848
 Alpha virt. eigenvalues --    3.63081   3.76797   3.78796   3.82425   3.99692
 Alpha virt. eigenvalues --    4.04476   4.07269   4.18899   4.79126   4.87734
 Alpha virt. eigenvalues --    4.95298   5.04740   5.16248   5.33710   5.55698
 Alpha virt. eigenvalues --    5.81295  23.73469  23.78513  23.94025  35.61268
 Alpha virt. eigenvalues --   49.85230  49.96326
          Condensed to atoms (all electrons):
              1          2          3          4          5          6
     1  N    6.745870   0.382801  -0.057204  -0.048777  -0.025690  -0.005202
     2  H    0.382801   0.414471  -0.019780   0.003758  -0.000778  -0.003804
     3  C   -0.057204  -0.019780   7.022246   0.422410  -0.172009  -0.478014
     4  H   -0.048777   0.003758   0.422410   0.565423  -0.082042  -0.065784
     5  C   -0.025690  -0.000778  -0.172009  -0.082042   5.447632   0.083050
     6  C   -0.005202  -0.003804  -0.478014  -0.065784   0.083050   5.629041
     7  H   -0.006587   0.000349  -0.018052   0.007193   0.402770  -0.014938
     8  H    0.025408  -0.001394  -0.097166  -0.008391   0.430524   0.011114
     9  H   -0.017844   0.001761   0.011200  -0.006160   0.379249  -0.015847
    10  O   -0.019690   0.015901  -0.034645  -0.003328  -0.031777   0.465125
    11  H    0.395161  -0.042636  -0.095335  -0.004135   0.010922   0.032212
    12  O   -0.000169   0.002629  -0.171407   0.002038  -0.041559   0.231642
    13  H   -0.000250   0.000431  -0.025606   0.002809   0.003755   0.027433
              7          8          9         10         11         12
     1  N   -0.006587   0.025408  -0.017844  -0.019690   0.395161  -0.000169
     2  H    0.000349  -0.001394   0.001761   0.015901  -0.042636   0.002629
     3  C   -0.018052  -0.097166   0.011200  -0.034645  -0.095335  -0.171407
     4  H    0.007193  -0.008391  -0.006160  -0.003328  -0.004135   0.002038
     5  C    0.402770   0.430524   0.379249  -0.031777   0.010922  -0.041559
     6  C   -0.014938   0.011114  -0.015847   0.465125   0.032212   0.231642
     7  H    0.542358  -0.033716  -0.040397  -0.002721   0.000505  -0.001007
     8  H   -0.033716   0.541081  -0.025664   0.002376   0.000636   0.010538
     9  H   -0.040397  -0.025664   0.572691  -0.000857   0.000816  -0.002886
    10  O   -0.002721   0.002376  -0.000857   8.033984   0.003163  -0.128302
    11  H    0.000505   0.000636   0.000816   0.003163   0.473683  -0.000298
    12  O   -0.001007   0.010538  -0.002886  -0.128302  -0.000298   8.044931
    13  H    0.000512  -0.001377  -0.000554  -0.003333   0.000068   0.241669
             13
     1  N   -0.000250
     2  H    0.000431
     3  C   -0.025606
     4  H    0.002809
     5  C    0.003755
     6  C    0.027433
     7  H    0.000512
     8  H   -0.001377
     9  H   -0.000554
    10  O   -0.003333
    11  H    0.000068
    12  O    0.241669
    13  H    0.456960
 Mulliken atomic charges:
              1
     1  N   -0.367825
     2  H    0.246292
     3  C   -0.286638
     4  H    0.214986
     5  C   -0.404047
     6  C    0.103974
     7  H    0.163731
     8  H    0.146030
     9  H    0.144492
    10  O   -0.295898
    11  H    0.225239
    12  O   -0.187819
    13  H    0.297482
 Sum of Mulliken atomic charges =   0.00000
 Mulliken charges with hydrogens summed into heavy atoms:
              1
     1  N    0.103706
     3  C   -0.071652
     5  C    0.050206
     6  C    0.103974
    10  O   -0.295898
    12  O    0.109663
 Sum of Mulliken charges with hydrogens summed into heavy atoms =   0.00000
 Electronic spatial extent (au):  <R**2>=            587.5497
 Charge=              0.0000 electrons
 Dipole moment (field-independent basis, Debye):
    X=             -0.7031    Y=              1.8947    Z=              0.0707  Tot=              2.0222
 Quadrupole moment (field-independent basis, Debye-Ang):
   XX=            -29.5386   YY=            -40.6887   ZZ=            -38.7881
   XY=              2.2095   XZ=             -0.8443   YZ=              0.1249
 Traceless Quadrupole moment (field-independent basis, Debye-Ang):
   XX=              6.7999   YY=             -4.3502   ZZ=             -2.4496
   XY=              2.2095   XZ=             -0.8443   YZ=              0.1249
 Octapole moment (field-independent basis, Debye-Ang**2):
  XXX=             16.6360  YYY=             -1.0729  ZZZ=              0.7295  XYY=             -3.0098
  XXY=              3.6444  XXZ=             -2.0395  XZZ=              2.3708  YZZ=              2.0348
  YYZ=              2.7091  XYZ=              5.7856
 Hexadecapole moment (field-independent basis, Debye-Ang**3):
 XXXX=           -295.8396 YYYY=           -260.4945 ZZZZ=            -94.8777 XXXY=             29.1019
 XXXZ=              5.4116 YYYX=             10.4466 YYYZ=             -8.9880 ZZZX=             -1.0913
 ZZZY=             -5.9609 XXYY=           -112.1568 XXZZ=            -88.0100 YYZZ=            -65.4959
 XXYZ=              1.0627 YYXZ=             -5.2189 ZZXY=             -1.4691
 N-N= 2.475092969371D+02 E-N=-1.253464651813D+03  KE= 3.224059100695D+02
 Calling FoFJK, ICntrl=      2127 FMM=F ISym2X=0 I1Cent= 0 IOpClX= 0 NMat=1 NMatS=1 NMatT=0.
 ***** Axes restored to original set *****
 -------------------------------------------------------------------
 Center     Atomic                   Forces (Hartrees/Bohr)
 Number     Number              X              Y              Z
 -------------------------------------------------------------------
      1        7           0.003920692   -0.000866265   -0.010446269
      2        1          -0.002326082    0.003539150    0.002055229
      3        6          -0.004597211   -0.001735180    0.004913892
      4        1          -0.000112635   -0.001086962    0.001251217
      5        6           0.000976844   -0.001101795   -0.000333460
      6        6           0.030531793   -0.022066474    0.018368090
      7        1          -0.000117538    0.000526221   -0.001741531
      8        1          -0.000927080   -0.001043147    0.000000132
      9        1           0.001856323   -0.000523270    0.000259122
     10        8          -0.014124226    0.036521101   -0.021933565
     11        1           0.001669042    0.001188828    0.004258941
     12        8          -0.002339049   -0.011171731    0.004751473
     13        1          -0.014410873   -0.002180475   -0.001403273
 -------------------------------------------------------------------
 Cartesian Forces:  Max     0.036521101 RMS     0.010585740

 GradGradGradGradGradGradGradGradGradGradGradGradGradGradGradGradGradGrad
 Berny optimization.
 Internal  Forces:  Max     0.044881391 RMS     0.007288842
 Search for a local minimum.
 Step number   1 out of a maximum of   64
 All quantities printed in internal units (Hartrees-Bohrs-Radians)
 Mixed Optimization -- RFO/linear search
 Second derivative matrix not updated -- first step.
 ITU=  0
     Eigenvalues ---    0.00230   0.00577   0.00915   0.01014   0.01998
     Eigenvalues ---    0.02275   0.04394   0.05086   0.05435   0.05688
     Eigenvalues ---    0.06774   0.16000   0.16000   0.16000   0.16000
     Eigenvalues ---    0.16000   0.16000   0.17461   0.18423   0.24990
     Eigenvalues ---    0.25000   0.27243   0.30924   0.33813   0.34158
     Eigenvalues ---    0.34165   0.34298   0.38088   0.45882   0.46249
     Eigenvalues ---    0.49686   0.51005   0.89313
 RFO step:  Lambda=-5.82187605D-03 EMin= 2.30000000D-03
 Linear search not attempted -- first point.
 Iteration  1 RMS(Cart)=  0.03232061 RMS(Int)=  0.00183569
 Iteration  2 RMS(Cart)=  0.00137501 RMS(Int)=  0.00133908
 Iteration  3 RMS(Cart)=  0.00000550 RMS(Int)=  0.00133908
 Iteration  4 RMS(Cart)=  0.00000004 RMS(Int)=  0.00133908
 Variable       Old X    -DE/DX   Delta X   Delta X   Delta X     New X
                                 (Linear)    (Quad)   (Total)
    R1        1.90965  -0.00193   0.00000  -0.00416  -0.00416   1.90549
    R2        2.74238  -0.00518   0.00000  -0.01338  -0.01338   2.72899
    R3        1.90551  -0.00181   0.00000  -0.00386  -0.00386   1.90165
    R4        2.07647  -0.00155   0.00000  -0.00452  -0.00452   2.07195
    R5        2.93825  -0.00325   0.00000  -0.01167  -0.01167   2.92658
    R6        2.86158  -0.00062   0.00000  -0.00195  -0.00195   2.85963
    R7        2.07064  -0.00182   0.00000  -0.00524  -0.00524   2.06541
    R8        2.06831  -0.00138   0.00000  -0.00395  -0.00395   2.06436
    R9        2.07053  -0.00193   0.00000  -0.00555  -0.00555   2.06498
   R10        2.33251  -0.04488   0.00000  -0.04993  -0.04993   2.28258
   R11        2.60183  -0.02117   0.00000  -0.04212  -0.04212   2.55972
   R12        1.85565  -0.01335   0.00000  -0.02588  -0.02588   1.82977
    A1        2.01872  -0.00171   0.00000  -0.03780  -0.04228   1.97644
    A2        2.02146   0.00010   0.00000  -0.03428  -0.04090   1.98056
    A3        2.03848  -0.00183   0.00000  -0.03834  -0.04277   1.99571
    A4        1.92523  -0.00086   0.00000  -0.00892  -0.00891   1.91632
    A5        2.00005   0.00053   0.00000   0.00510   0.00509   2.00513
    A6        1.88396   0.00097   0.00000   0.00790   0.00789   1.89185
    A7        1.88021   0.00038   0.00000   0.00082   0.00082   1.88103
    A8        1.86423  -0.00007   0.00000  -0.00322  -0.00321   1.86102
    A9        1.90559  -0.00100   0.00000  -0.00230  -0.00233   1.90326
   A10        1.92522   0.00013   0.00000   0.00136   0.00135   1.92657
   A11        1.94363   0.00014   0.00000   0.00106   0.00106   1.94469
   A12        1.90574  -0.00043   0.00000  -0.00336  -0.00336   1.90238
   A13        1.90552   0.00003   0.00000   0.00165   0.00164   1.90716
   A14        1.88995   0.00011   0.00000   0.00028   0.00028   1.89023
   A15        1.89272   0.00002   0.00000  -0.00104  -0.00104   1.89168
   A16        2.19683  -0.00033   0.00000  -0.00107  -0.00114   2.19569
   A17        1.95120  -0.00025   0.00000  -0.00076  -0.00082   1.95038
   A18        2.13455   0.00059   0.00000   0.00253   0.00246   2.13702
   A19        1.92549  -0.01116   0.00000  -0.06730  -0.06730   1.85819
    D1        2.50819   0.00235   0.00000   0.08387   0.08238   2.59056
    D2       -1.64977   0.00256   0.00000   0.08177   0.08025  -1.56952
    D3        0.47732   0.00234   0.00000   0.08806   0.08659   0.56391
    D4       -1.30304  -0.00250   0.00000  -0.08576  -0.08427  -1.38731
    D5        0.82218  -0.00228   0.00000  -0.08787  -0.08639   0.73579
    D6        2.94928  -0.00250   0.00000  -0.08158  -0.08006   2.86922
    D7        1.04956   0.00037   0.00000   0.00680   0.00679   1.05636
    D8       -3.11498   0.00059   0.00000   0.01053   0.01052  -3.10446
    D9       -1.02536   0.00042   0.00000   0.00771   0.00771  -1.01765
   D10       -3.08401  -0.00010   0.00000  -0.00065  -0.00065  -3.08466
   D11       -0.96536   0.00012   0.00000   0.00308   0.00308  -0.96229
   D12        1.12426  -0.00005   0.00000   0.00026   0.00026   1.12452
   D13       -1.06570  -0.00050   0.00000  -0.00521  -0.00521  -1.07090
   D14        1.05295  -0.00028   0.00000  -0.00148  -0.00148   1.05147
   D15       -3.14062  -0.00045   0.00000  -0.00430  -0.00429   3.13827
   D16       -0.31733  -0.00036   0.00000  -0.00673  -0.00673  -0.32406
   D17        2.86086  -0.00069   0.00000  -0.02827  -0.02827   2.83259
   D18       -2.38757   0.00018   0.00000   0.00135   0.00134  -2.38623
   D19        0.79062  -0.00015   0.00000  -0.02020  -0.02019   0.77043
   D20        1.86709   0.00028   0.00000   0.00328   0.00327   1.87036
   D21       -1.23790  -0.00005   0.00000  -0.01827  -0.01826  -1.25617
   D22        3.10299   0.00003   0.00000   0.00568   0.00570   3.10869
   D23       -0.00352  -0.00026   0.00000  -0.01489  -0.01491  -0.01843
         Item               Value     Threshold  Converged?
 Maximum Force            0.044881     0.000450     NO 
 RMS     Force            0.007289     0.000300     NO 
 Maximum Displacement     0.093203     0.001800     NO 
 RMS     Displacement     0.032940     0.001200     NO 
 Predicted change in Energy=-2.988125D-03
 GradGradGradGradGradGradGradGradGradGradGradGradGradGradGradGradGradGrad

                          Input orientation:                          
 ---------------------------------------------------------------------
 Center     Atomic      Atomic             Coordinates (Angstroms)
 Number     Number       Type             X           Y           Z
 ---------------------------------------------------------------------
      1          7           0       -1.415048   -1.087139   -0.374426
      2          1           0       -1.089023   -1.735128    0.325983
      3          6           0       -0.657336    0.141697   -0.410671
      4          1           0       -0.631868    0.532196   -1.434888
      5          6           0       -1.193419    1.265292    0.510500
      6          6           0        0.773972   -0.168434   -0.029746
      7          1           0       -1.182181    0.939982    1.553872
      8          1           0       -0.602393    2.178633    0.411208
      9          1           0       -2.225838    1.490928    0.232511
     10          8           0        1.152236   -1.158078    0.550361
     11          1           0       -2.413156   -0.959044   -0.368489
     12          8           0        1.618707    0.822350   -0.403318
     13          1           0        2.499859    0.561270   -0.098428
 ---------------------------------------------------------------------
                    Distance matrix (angstroms):
                    1          2          3          4          5
     1  N    0.000000
     2  H    1.008343   0.000000
     3  C    1.444120   2.061913   0.000000
     4  H    2.088109   2.906960   1.096431   0.000000
     5  C    2.523123   3.007900   1.548679   2.153441   0.000000
     6  C    2.398882   2.460045   1.513250   2.107532   2.493605
     7  H    2.807451   2.944928   2.184525   3.066239   1.092967
     8  H    3.455850   3.944819   2.197183   2.473802   1.092411
     9  H    2.769871   3.421772   2.166635   2.498025   1.092739
    10  O    2.729691   2.325204   2.426427   3.159314   3.372893
    11  H    1.006312   1.684615   2.072755   2.556168   2.684781
    12  O    3.584781   3.795309   2.375650   2.492671   2.989869
    13  H    4.256751   4.281780   3.200222   3.405097   3.808773
                    6          7          8          9         10
     6  C    0.000000
     7  H    2.750085   0.000000
     8  H    2.756365   1.782159   0.000000
     9  H    3.438186   1.771653   1.772129   0.000000
    10  O    1.207892   3.295207   3.772496   4.304607   0.000000
    11  H    3.301151   2.969355   3.705645   2.529556   3.687265
    12  O    1.354543   3.418977   2.726947   3.953707   2.247041
    13  H    1.875066   4.053510   3.535472   4.827629   2.278854
                   11         12         13
    11  H    0.000000
    12  O    4.408004   0.000000
    13  H    5.149953   0.968272   0.000000
 Stoichiometry    C3H7NO2
 Framework group  C1[X(C3H7NO2)]
 Deg. of freedom    33
 Full point group                 C1      NOp   1
 Largest Abelian subgroup         C1      NOp   1
 Largest concise Abelian subgroup C1      NOp   1
                         Standard orientation:                         
 ---------------------------------------------------------------------
 Center     Atomic      Atomic             Coordinates (Angstroms)
 Number     Number       Type             X           Y           Z
 ---------------------------------------------------------------------
      1          7           0       -1.414003   -1.099011   -0.356093
      2          1           0       -1.085717   -1.739071    0.350523
      3          6           0       -0.661003    0.132329   -0.403774
      4          1           0       -0.636704    0.513193   -1.431642
      5          6           0       -1.201693    1.262540    0.506547
      6          6           0        0.771363   -0.168674   -0.019516
      7          1           0       -1.189542    0.947184    1.552959
      8          1           0       -0.614147    2.177163    0.398766
      9          1           0       -2.234881    1.481561    0.226134
     10          8           0        1.153237   -1.151311    0.570059
     11          1           0       -2.412597   -0.974701   -0.351657
     12          8           0        1.612407    0.821762   -0.402227
     13          1           0        2.494458    0.566973   -0.094623
 ---------------------------------------------------------------------
 Rotational constants (GHZ):      5.0274551      3.1524834      2.2781863
 Standard basis: 6-311++G(d,p) (5D, 7F)
 There are   181 symmetry adapted basis functions of A   symmetry.
 Integral buffers will be    262144 words long.
 Raffenetti 2 integral format.
 Two-electron integral symmetry is turned on.
   181 basis functions,   279 primitive gaussians,   187 cartesian basis functions
    24 alpha electrons       24 beta electrons
       nuclear repulsion energy       249.6829362950 Hartrees.
 NAtoms=   13 NActive=   13 NUniq=   13 SFac= 1.00D+00 NAtFMM=   50 NAOKFM=F Big=F
 One-electron integrals computed using PRISM.
 NBasis=   181 RedAO= T  NBF=   181
 NBsUse=   181 1.00D-06 NBFU=   181
 Initial guess read from the read-write file.
 B after Tr=     0.000000    0.000000    0.000000
         Rot=    1.000000    0.000000    0.000000    0.000000 Ang=   0.00 deg.
 Initial guess orbital symmetries:
       Occupied  (A) (A) (A) (A) (A) (A) (A) (A) (A) (A) (A) (A)
                 (A) (A) (A) (A) (A) (A) (A) (A) (A) (A) (A) (A)
       Virtual   (A) (A) (A) (A) (A) (A) (A) (A) (A) (A) (A) (A)
                 (A) (A) (A) (A) (A) (A) (A) (A) (A) (A) (A) (A)
                 (A) (A) (A) (A) (A) (A) (A) (A) (A) (A) (A) (A)
                 (A) (A) (A) (A) (A) (A) (A) (A) (A) (A) (A) (A)
                 (A) (A) (A) (A) (A) (A) (A) (A) (A) (A) (A) (A)
                 (A) (A) (A) (A) (A) (A) (A) (A) (A) (A) (A) (A)
                 (A) (A) (A) (A) (A) (A) (A) (A) (A) (A) (A) (A)
                 (A) (A) (A) (A) (A) (A) (A) (A) (A) (A) (A) (A)
                 (A) (A) (A) (A) (A) (A) (A) (A) (A) (A) (A) (A)
                 (A) (A) (A) (A) (A) (A) (A) (A) (A) (A) (A) (A)
                 (A) (A) (A) (A) (A) (A) (A) (A) (A) (A) (A) (A)
                 (A) (A) (A) (A) (A) (A) (A) (A) (A) (A) (A) (A)
                 (A) (A) (A) (A) (A) (A) (A) (A) (A) (A) (A) (A)
                 (A)
 Harris functional with IExCor=  402 diagonalized for initial guess.
 ExpMin= 3.60D-02 ExpMax= 8.59D+03 ExpMxC= 1.30D+03 IAcc=3 IRadAn=         0 AccDes= 0.00D+00
 HarFok:  IExCor=  402 AccDes= 0.00D+00 IRadAn=         0 IDoV= 1
 ScaDFX=  1.000000  1.000000  1.000000  1.000000
 FoFCou: FMM=F IPFlag=           0 FMFlag=      100000 FMFlg1=           0
         NFxFlg=           0 DoJE=T BraDBF=F KetDBF=T FulRan=T
         Omega=  0.000000  0.000000  1.000000  0.000000  0.000000 ICntrl=     500 IOpCl=  0
         NMat0=    1 NMatS0=    1 NMatT0=    0 NMatD0=    1 NMtDS0=    0 NMtDT0=    0
         I1Cent=           4 NGrid=           0.
 Petite list used in FoFCou.
 Requested convergence on RMS density matrix=1.00D-08 within 128 cycles.
 Requested convergence on MAX density matrix=1.00D-06.
 Requested convergence on             energy=1.00D-06.
 No special actions if energy rises.
 SCF Done:  E(RB3LYP) =  -323.853076650     A.U. after   11 cycles
             Convg  =    0.3260D-08             -V/T =  2.0037
 Calling FoFJK, ICntrl=      2127 FMM=F ISym2X=0 I1Cent= 0 IOpClX= 0 NMat=1 NMatS=1 NMatT=0.
 ***** Axes restored to original set *****
 -------------------------------------------------------------------
 Center     Atomic                   Forces (Hartrees/Bohr)
 Number     Number              X              Y              Z
 -------------------------------------------------------------------
      1        7           0.002459058   -0.003479313   -0.009215319
      2        1          -0.001520212   -0.000548059    0.003833530
      3        6          -0.001753051    0.003372402    0.002521965
      4        1          -0.000035413   -0.000080565   -0.000000739
      5        6           0.000456567   -0.000610614   -0.000762909
      6        6           0.004339109   -0.002655942   -0.000557630
      7        1          -0.000054519    0.000243562    0.000319085
      8        1          -0.000217136    0.000107235    0.000178846
      9        1          -0.000152425    0.000411318    0.000193162
     10        8          -0.002001000    0.003100502   -0.000629872
     11        1          -0.002388532    0.000385662    0.003357905
     12        8          -0.000545379   -0.000978801    0.000837903
     13        1           0.001412934    0.000732615   -0.000075929
 -------------------------------------------------------------------
 Cartesian Forces:  Max     0.009215319 RMS     0.002290878

 GradGradGradGradGradGradGradGradGradGradGradGradGradGradGradGradGradGrad
 Berny optimization.
 Using GEDIIS/GDIIS optimizer.
 Internal  Forces:  Max     0.003809513 RMS     0.001201868
 Search for a local minimum.
 Step number   2 out of a maximum of   64
 All quantities printed in internal units (Hartrees-Bohrs-Radians)
 Mixed Optimization -- RFO/linear search
 Update second derivatives using D2CorX and points    1    2
 DE= -3.43D-03 DEPred=-2.99D-03 R= 1.15D+00
 SS=  1.41D+00  RLast= 2.43D-01 DXNew= 5.0454D-01 7.3015D-01
 Trust test= 1.15D+00 RLast= 2.43D-01 DXMaxT set to 5.05D-01
 ITU=  1  0
 Use linear search instead of GDIIS.
     Eigenvalues ---    0.00230   0.00575   0.00923   0.01014   0.01998
     Eigenvalues ---    0.02288   0.04326   0.05093   0.05423   0.05706
     Eigenvalues ---    0.06785   0.15952   0.16000   0.16000   0.16000
     Eigenvalues ---    0.16000   0.17222   0.17508   0.18505   0.24974
     Eigenvalues ---    0.25018   0.27272   0.30973   0.33816   0.34161
     Eigenvalues ---    0.34199   0.34300   0.38682   0.45816   0.46190
     Eigenvalues ---    0.50364   0.53927   0.89536
 RFO step:  Lambda=-9.45757789D-04 EMin= 2.30017179D-03
 Quartic linear search produced a step of  0.14254.
 Iteration  1 RMS(Cart)=  0.02393976 RMS(Int)=  0.00143042
 Iteration  2 RMS(Cart)=  0.00108041 RMS(Int)=  0.00103298
 Iteration  3 RMS(Cart)=  0.00000286 RMS(Int)=  0.00103298
 Iteration  4 RMS(Cart)=  0.00000002 RMS(Int)=  0.00103298
 Variable       Old X    -DE/DX   Delta X   Delta X   Delta X     New X
                                 (Linear)    (Quad)   (Total)
    R1        1.90549   0.00252  -0.00059   0.00605   0.00546   1.91095
    R2        2.72899   0.00381  -0.00191   0.01083   0.00892   2.73791
    R3        1.90165   0.00243  -0.00055   0.00579   0.00524   1.90690
    R4        2.07195  -0.00003  -0.00064  -0.00023  -0.00087   2.07108
    R5        2.92658   0.00006  -0.00166  -0.00009  -0.00175   2.92483
    R6        2.85963   0.00288  -0.00028   0.01040   0.01012   2.86975
    R7        2.06541   0.00023  -0.00075   0.00062  -0.00013   2.06528
    R8        2.06436  -0.00005  -0.00056  -0.00027  -0.00084   2.06352
    R9        2.06498   0.00018  -0.00079   0.00043  -0.00036   2.06462
   R10        2.28258  -0.00347  -0.00712  -0.00608  -0.01320   2.26939
   R11        2.55972   0.00016  -0.00600  -0.00098  -0.00699   2.55273
   R12        1.82977   0.00106  -0.00369   0.00151  -0.00218   1.82759
    A1        1.97644  -0.00020  -0.00603  -0.02271  -0.03168   1.94477
    A2        1.98056  -0.00141  -0.00583  -0.04022  -0.05110   1.92946
    A3        1.99571  -0.00093  -0.00610  -0.02763  -0.03663   1.95908
    A4        1.91632  -0.00038  -0.00127  -0.00530  -0.00656   1.90977
    A5        2.00513   0.00031   0.00073   0.00370   0.00441   2.00954
    A6        1.89185   0.00039   0.00113   0.00476   0.00587   1.89772
    A7        1.88103   0.00007   0.00012  -0.00103  -0.00091   1.88012
    A8        1.86102  -0.00005  -0.00046  -0.00242  -0.00287   1.85815
    A9        1.90326  -0.00037  -0.00033  -0.00019  -0.00056   1.90270
   A10        1.92657   0.00032   0.00019   0.00240   0.00259   1.92916
   A11        1.94469   0.00023   0.00015   0.00127   0.00142   1.94611
   A12        1.90238   0.00050  -0.00048   0.00370   0.00321   1.90559
   A13        1.90716  -0.00034   0.00023  -0.00277  -0.00254   1.90462
   A14        1.89023  -0.00033   0.00004  -0.00155  -0.00152   1.88871
   A15        1.89168  -0.00041  -0.00015  -0.00321  -0.00336   1.88832
   A16        2.19569  -0.00142  -0.00016  -0.00680  -0.00825   2.18744
   A17        1.95038   0.00100  -0.00012   0.00402   0.00260   1.95298
   A18        2.13702   0.00041   0.00035   0.00148   0.00051   2.13753
   A19        1.85819   0.00218  -0.00959   0.01383   0.00424   1.86243
    D1        2.59056   0.00157   0.01174   0.05371   0.06418   2.65474
    D2       -1.56952   0.00159   0.01144   0.05092   0.06107  -1.50846
    D3        0.56391   0.00162   0.01234   0.05682   0.06790   0.63181
    D4       -1.38731  -0.00163  -0.01201  -0.05559  -0.06633  -1.45364
    D5        0.73579  -0.00161  -0.01232  -0.05839  -0.06944   0.66635
    D6        2.86922  -0.00159  -0.01141  -0.05248  -0.06260   2.80662
    D7        1.05636   0.00027   0.00097   0.00386   0.00482   1.06118
    D8       -3.10446   0.00022   0.00150   0.00285   0.00435  -3.10010
    D9       -1.01765   0.00018   0.00110   0.00205   0.00315  -1.01451
   D10       -3.08466   0.00004  -0.00009  -0.00128  -0.00137  -3.08603
   D11       -0.96229  -0.00001   0.00044  -0.00228  -0.00184  -0.96412
   D12        1.12452  -0.00005   0.00004  -0.00308  -0.00305   1.12147
   D13       -1.07090  -0.00017  -0.00074  -0.00478  -0.00552  -1.07642
   D14        1.05147  -0.00022  -0.00021  -0.00578  -0.00599   1.04548
   D15        3.13827  -0.00026  -0.00061  -0.00658  -0.00720   3.13108
   D16       -0.32406  -0.00082  -0.00096  -0.07995  -0.08081  -0.40487
   D17        2.83259  -0.00001  -0.00403   0.01633   0.01220   2.84479
   D18       -2.38623  -0.00055   0.00019  -0.07489  -0.07459  -2.46082
   D19        0.77043   0.00027  -0.00288   0.02139   0.01842   0.78885
   D20        1.87036  -0.00042   0.00047  -0.07229  -0.07173   1.79863
   D21       -1.25617   0.00039  -0.00260   0.02398   0.02128  -1.23489
   D22        3.10869  -0.00044   0.00081  -0.04822  -0.04759   3.06110
   D23       -0.01843   0.00036  -0.00213   0.04438   0.04243   0.02400
         Item               Value     Threshold  Converged?
 Maximum Force            0.003810     0.000450     NO 
 RMS     Force            0.001202     0.000300     NO 
 Maximum Displacement     0.066913     0.001800     NO 
 RMS     Displacement     0.024171     0.001200     NO 
 Predicted change in Energy=-5.669104D-04
 GradGradGradGradGradGradGradGradGradGradGradGradGradGradGradGradGradGrad

                          Input orientation:                          
 ---------------------------------------------------------------------
 Center     Atomic      Atomic             Coordinates (Angstroms)
 Number     Number       Type             X           Y           Z
 ---------------------------------------------------------------------
      1          7           0       -1.419891   -1.099052   -0.404730
      2          1           0       -1.108516   -1.713577    0.335534
      3          6           0       -0.657610    0.132865   -0.425718
      4          1           0       -0.637894    0.531876   -1.446282
      5          6           0       -1.186626    1.249362    0.506543
      6          6           0        0.782402   -0.178358   -0.057376
      7          1           0       -1.172152    0.918072    1.547919
      8          1           0       -0.595011    2.162430    0.413296
      9          1           0       -2.219258    1.482960    0.236797
     10          8           0        1.147375   -1.134184    0.571411
     11          1           0       -2.412617   -0.932870   -0.333081
     12          8           0        1.619284    0.823107   -0.405916
     13          1           0        2.495024    0.581894   -0.073929
 ---------------------------------------------------------------------
                    Distance matrix (angstroms):
                    1          2          3          4          5
     1  N    0.000000
     2  H    1.011230   0.000000
     3  C    1.448839   2.047479   0.000000
     4  H    2.087170   2.904895   1.095969   0.000000
     5  C    2.529798   2.968897   1.547752   2.151608   0.000000
     6  C    2.412142   2.467154   1.518607   2.109676   2.496689
     7  H    2.818333   2.898189   2.185531   3.065912   1.092897
     8  H    3.462204   3.910648   2.197043   2.473575   1.091969
     9  H    2.778008   3.385461   2.168047   2.497604   1.092548
    10  O    2.746806   2.341021   2.420258   3.167653   3.336624
    11  H    1.009086   1.660491   2.055341   2.556236   2.640106
    12  O    3.596009   3.798079   2.379300   2.502404   2.981174
    13  H    4.273356   4.292126   3.203823   3.420677   3.786424
                    6          7          8          9         10
     6  C    0.000000
     7  H    2.756703   0.000000
     8  H    2.756462   1.780137   0.000000
     9  H    3.443323   1.770471   1.769466   0.000000
    10  O    1.200909   3.247388   3.732101   4.277339   0.000000
    11  H    3.294457   2.915973   3.666286   2.489655   3.678611
    12  O    1.350845   3.408607   2.714405   3.947516   2.238047
    13  H    1.873855   4.023877   3.504825   4.809670   2.275422
                   11         12         13
    11  H    0.000000
    12  O    4.398293   0.000000
    13  H    5.142627   0.967120   0.000000
 Stoichiometry    C3H7NO2
 Framework group  C1[X(C3H7NO2)]
 Deg. of freedom    33
 Full point group                 C1      NOp   1
 Largest Abelian subgroup         C1      NOp   1
 Largest concise Abelian subgroup C1      NOp   1
                         Standard orientation:                         
 ---------------------------------------------------------------------
 Center     Atomic      Atomic             Coordinates (Angstroms)
 Number     Number       Type             X           Y           Z
 ---------------------------------------------------------------------
      1          7           0       -1.442424   -1.082750   -0.370139
      2          1           0       -1.136063   -1.693949    0.374955
      3          6           0       -0.661562    0.137037   -0.408950
      4          1           0       -0.641837    0.524658   -1.433894
      5          6           0       -1.167908    1.271512    0.514151
      6          6           0        0.775699   -0.192231   -0.045588
      7          1           0       -1.152291    0.951301    1.558969
      8          1           0       -0.562988    2.174344    0.407545
      9          1           0       -2.198442    1.517988    0.247862
     10          8           0        1.129776   -1.146697    0.591442
     11          1           0       -2.432053   -0.900605   -0.294555
     12          8           0        1.625681    0.792465   -0.409849
     13          1           0        2.499600    0.541453   -0.080333
 ---------------------------------------------------------------------
 Rotational constants (GHZ):      5.0491574      3.1357420      2.2907292
 Standard basis: 6-311++G(d,p) (5D, 7F)
 There are   181 symmetry adapted basis functions of A   symmetry.
 Integral buffers will be    262144 words long.
 Raffenetti 2 integral format.
 Two-electron integral symmetry is turned on.
   181 basis functions,   279 primitive gaussians,   187 cartesian basis functions
    24 alpha electrons       24 beta electrons
       nuclear repulsion energy       249.8545502995 Hartrees.
 NAtoms=   13 NActive=   13 NUniq=   13 SFac= 1.00D+00 NAtFMM=   50 NAOKFM=F Big=F
 One-electron integrals computed using PRISM.
 NBasis=   181 RedAO= T  NBF=   181
 NBsUse=   181 1.00D-06 NBFU=   181
 Initial guess read from the read-write file.
 B after Tr=     0.000000    0.000000    0.000000
         Rot=    1.000000    0.000000    0.000000    0.000000 Ang=   0.00 deg.
 Initial guess orbital symmetries:
       Occupied  (A) (A) (A) (A) (A) (A) (A) (A) (A) (A) (A) (A)
                 (A) (A) (A) (A) (A) (A) (A) (A) (A) (A) (A) (A)
       Virtual   (A) (A) (A) (A) (A) (A) (A) (A) (A) (A) (A) (A)
                 (A) (A) (A) (A) (A) (A) (A) (A) (A) (A) (A) (A)
                 (A) (A) (A) (A) (A) (A) (A) (A) (A) (A) (A) (A)
                 (A) (A) (A) (A) (A) (A) (A) (A) (A) (A) (A) (A)
                 (A) (A) (A) (A) (A) (A) (A) (A) (A) (A) (A) (A)
                 (A) (A) (A) (A) (A) (A) (A) (A) (A) (A) (A) (A)
                 (A) (A) (A) (A) (A) (A) (A) (A) (A) (A) (A) (A)
                 (A) (A) (A) (A) (A) (A) (A) (A) (A) (A) (A) (A)
                 (A) (A) (A) (A) (A) (A) (A) (A) (A) (A) (A) (A)
                 (A) (A) (A) (A) (A) (A) (A) (A) (A) (A) (A) (A)
                 (A) (A) (A) (A) (A) (A) (A) (A) (A) (A) (A) (A)
                 (A) (A) (A) (A) (A) (A) (A) (A) (A) (A) (A) (A)
                 (A) (A) (A) (A) (A) (A) (A) (A) (A) (A) (A) (A)
                 (A)
 Harris functional with IExCor=  402 diagonalized for initial guess.
 ExpMin= 3.60D-02 ExpMax= 8.59D+03 ExpMxC= 1.30D+03 IAcc=3 IRadAn=         0 AccDes= 0.00D+00
 HarFok:  IExCor=  402 AccDes= 0.00D+00 IRadAn=         0 IDoV= 1
 ScaDFX=  1.000000  1.000000  1.000000  1.000000
 FoFCou: FMM=F IPFlag=           0 FMFlag=      100000 FMFlg1=           0
         NFxFlg=           0 DoJE=T BraDBF=F KetDBF=T FulRan=T
         Omega=  0.000000  0.000000  1.000000  0.000000  0.000000 ICntrl=     500 IOpCl=  0
         NMat0=    1 NMatS0=    1 NMatT0=    0 NMatD0=    1 NMtDS0=    0 NMtDT0=    0
         I1Cent=           4 NGrid=           0.
 Petite list used in FoFCou.
 Requested convergence on RMS density matrix=1.00D-08 within 128 cycles.
 Requested convergence on MAX density matrix=1.00D-06.
 Requested convergence on             energy=1.00D-06.
 No special actions if energy rises.
 SCF Done:  E(RB3LYP) =  -323.853429552     A.U. after   11 cycles
             Convg  =    0.3517D-08             -V/T =  2.0036
 Calling FoFJK, ICntrl=      2127 FMM=F ISym2X=0 I1Cent= 0 IOpClX= 0 NMat=1 NMatS=1 NMatT=0.
 ***** Axes restored to original set *****
 -------------------------------------------------------------------
 Center     Atomic                   Forces (Hartrees/Bohr)
 Number     Number              X              Y              Z
 -------------------------------------------------------------------
      1        7           0.001212309   -0.002596843   -0.004520384
      2        1          -0.000429348   -0.000989522    0.002591415
      3        6           0.001603045    0.003237280   -0.002913834
      4        1          -0.000841824    0.000073146   -0.000272010
      5        6           0.000819040   -0.001013846   -0.000112133
      6        6          -0.005212582    0.008877637    0.006002386
      7        1           0.000084886    0.000036121    0.000481798
      8        1           0.000099125    0.000103816    0.000042660
      9        1          -0.000366161    0.000103166   -0.000179489
     10        8           0.002470334   -0.008920210    0.001405218
     11        1          -0.002193568    0.000105212    0.001380913
     12        8           0.000483089    0.000740706   -0.004246491
     13        1           0.002271654    0.000243338    0.000339951
 -------------------------------------------------------------------
 Cartesian Forces:  Max     0.008920210 RMS     0.002871364

 GradGradGradGradGradGradGradGradGradGradGradGradGradGradGradGradGradGrad
 Berny optimization.
 Using GEDIIS/GDIIS optimizer.
 Internal  Forces:  Max     0.008583319 RMS     0.001693157
 Search for a local minimum.
 Step number   3 out of a maximum of   64
 All quantities printed in internal units (Hartrees-Bohrs-Radians)
 Mixed Optimization -- RFO/linear search
 Update second derivatives using D2CorX and points    1    2    3
 DE= -3.53D-04 DEPred=-5.67D-04 R= 6.22D-01
 SS=  1.41D+00  RLast= 2.32D-01 DXNew= 8.4853D-01 6.9517D-01
 Trust test= 6.22D-01 RLast= 2.32D-01 DXMaxT set to 6.95D-01
 ITU=  1  1  0
 Use linear search instead of GDIIS.
     Eigenvalues ---    0.00230   0.00497   0.01013   0.01027   0.01999
     Eigenvalues ---    0.03289   0.04412   0.05250   0.05403   0.05675
     Eigenvalues ---    0.06796   0.15892   0.15994   0.16000   0.16000
     Eigenvalues ---    0.16016   0.17165   0.17620   0.18537   0.24740
     Eigenvalues ---    0.25111   0.27241   0.30827   0.33819   0.34161
     Eigenvalues ---    0.34206   0.34300   0.37943   0.45223   0.46108
     Eigenvalues ---    0.50545   0.55113   1.06319
 RFO step:  Lambda=-1.37257296D-03 EMin= 2.30016043D-03
 Quartic linear search produced a step of -0.26989.
 Iteration  1 RMS(Cart)=  0.04790183 RMS(Int)=  0.00235972
 Iteration  2 RMS(Cart)=  0.00263991 RMS(Int)=  0.00131467
 Iteration  3 RMS(Cart)=  0.00000367 RMS(Int)=  0.00131467
 Iteration  4 RMS(Cart)=  0.00000002 RMS(Int)=  0.00131467
 Variable       Old X    -DE/DX   Delta X   Delta X   Delta X     New X
                                 (Linear)    (Quad)   (Total)
    R1        1.91095   0.00237  -0.00147   0.00991   0.00843   1.91938
    R2        2.73791   0.00370  -0.00241   0.01570   0.01330   2.75120
    R3        1.90690   0.00227  -0.00141   0.00951   0.00810   1.91499
    R4        2.07108   0.00026   0.00024  -0.00155  -0.00132   2.06976
    R5        2.92483  -0.00063   0.00047  -0.00625  -0.00577   2.91905
    R6        2.86975   0.00066  -0.00273   0.01456   0.01182   2.88158
    R7        2.06528   0.00045   0.00004  -0.00035  -0.00031   2.06496
    R8        2.06352   0.00013   0.00023  -0.00165  -0.00142   2.06210
    R9        2.06462   0.00041   0.00010  -0.00079  -0.00070   2.06392
   R10        2.26939   0.00858   0.00356  -0.02123  -0.01767   2.25172
   R11        2.55273   0.00345   0.00189  -0.01316  -0.01128   2.54145
   R12        1.82759   0.00211   0.00059  -0.00535  -0.00476   1.82283
    A1        1.94477  -0.00001   0.00855  -0.05395  -0.04807   1.89670
    A2        1.92946  -0.00086   0.01379  -0.08715  -0.07919   1.85027
    A3        1.95908  -0.00003   0.00989  -0.06066  -0.05341   1.90567
    A4        1.90977  -0.00039   0.00177  -0.01228  -0.01051   1.89926
    A5        2.00954   0.00057  -0.00119   0.00704   0.00586   2.01540
    A6        1.89772  -0.00027  -0.00158   0.00647   0.00489   1.90261
    A7        1.88012   0.00008   0.00025   0.00102   0.00128   1.88139
    A8        1.85815   0.00073   0.00077   0.00202   0.00280   1.86095
    A9        1.90270  -0.00069   0.00015  -0.00466  -0.00452   1.89818
   A10        1.92916   0.00021  -0.00070   0.00471   0.00401   1.93317
   A11        1.94611  -0.00002  -0.00038   0.00179   0.00140   1.94751
   A12        1.90559  -0.00008  -0.00087   0.00336   0.00249   1.90808
   A13        1.90462  -0.00014   0.00068  -0.00383  -0.00315   1.90148
   A14        1.88871   0.00001   0.00041  -0.00148  -0.00108   1.88763
   A15        1.88832   0.00002   0.00091  -0.00484  -0.00394   1.88438
   A16        2.18744  -0.00043   0.00223  -0.00674  -0.00755   2.17988
   A17        1.95298  -0.00029  -0.00070   0.00854   0.00478   1.95776
   A18        2.13753   0.00108  -0.00014   0.01041   0.00719   2.14472
   A19        1.86243   0.00172  -0.00114  -0.00091  -0.00205   1.86037
    D1        2.65474   0.00076  -0.01732   0.10549   0.08653   2.74127
    D2       -1.50846   0.00097  -0.01648   0.10235   0.08422  -1.42423
    D3        0.63181   0.00026  -0.01833   0.10621   0.08626   0.71807
    D4       -1.45364  -0.00041   0.01790  -0.09705  -0.07751  -1.53115
    D5        0.66635  -0.00020   0.01874  -0.10019  -0.07982   0.58653
    D6        2.80662  -0.00091   0.01690  -0.09633  -0.07778   2.72884
    D7        1.06118  -0.00010  -0.00130   0.00783   0.00653   1.06771
    D8       -3.10010  -0.00014  -0.00118   0.00744   0.00626  -3.09384
    D9       -1.01451  -0.00019  -0.00085   0.00472   0.00386  -1.01064
   D10       -3.08603  -0.00015   0.00037  -0.00253  -0.00216  -3.08819
   D11       -0.96412  -0.00019   0.00050  -0.00293  -0.00243  -0.96655
   D12        1.12147  -0.00024   0.00082  -0.00565  -0.00483   1.11665
   D13       -1.07642   0.00040   0.00149  -0.00202  -0.00052  -1.07695
   D14        1.04548   0.00035   0.00162  -0.00241  -0.00079   1.04469
   D15        3.13108   0.00030   0.00194  -0.00513  -0.00319   3.12789
   D16       -0.40487   0.00159   0.02181  -0.00508   0.01650  -0.38837
   D17        2.84479  -0.00226  -0.00329  -0.13135  -0.13441   2.71038
   D18       -2.46082   0.00179   0.02013   0.00493   0.02482  -2.43599
   D19        0.78885  -0.00205  -0.00497  -0.12134  -0.12609   0.66276
   D20        1.79863   0.00165   0.01936   0.00498   0.02411   1.82274
   D21       -1.23489  -0.00219  -0.00574  -0.12129  -0.12680  -1.36169
   D22        3.06110   0.00185   0.01284   0.05729   0.07072   3.13183
   D23        0.02400  -0.00177  -0.01145  -0.06357  -0.07561  -0.05161
         Item               Value     Threshold  Converged?
 Maximum Force            0.008583     0.000450     NO 
 RMS     Force            0.001693     0.000300     NO 
 Maximum Displacement     0.137238     0.001800     NO 
 RMS     Displacement     0.047807     0.001200     NO 
 Predicted change in Energy=-7.903261D-04
 GradGradGradGradGradGradGradGradGradGradGradGradGradGradGradGradGradGrad

                          Input orientation:                          
 ---------------------------------------------------------------------
 Center     Atomic      Atomic             Coordinates (Angstroms)
 Number     Number       Type             X           Y           Z
 ---------------------------------------------------------------------
      1          7           0       -1.395794   -1.106278   -0.444077
      2          1           0       -1.123577   -1.666161    0.358457
      3          6           0       -0.647638    0.142354   -0.416677
      4          1           0       -0.608556    0.553166   -1.431234
      5          6           0       -1.215169    1.236629    0.514214
      6          6           0        0.792220   -0.150153   -0.008679
      7          1           0       -1.224863    0.895367    1.552246
      8          1           0       -0.635325    2.158793    0.449825
      9          1           0       -2.242504    1.463463    0.220983
     10          8           0        1.147338   -1.114342    0.594684
     11          1           0       -2.381952   -0.906354   -0.323889
     12          8           0        1.646653    0.787709   -0.454833
     13          1           0        2.523678    0.530330   -0.146552
 ---------------------------------------------------------------------
                    Distance matrix (angstroms):
                    1          2          3          4          5
     1  N    0.000000
     2  H    1.015693   0.000000
     3  C    1.455874   2.024370   0.000000
     4  H    2.085180   2.897180   1.095271   0.000000
     5  C    2.537747   2.908408   1.544697   2.149388   0.000000
     6  C    2.427169   2.470495   1.524865   2.116717   2.495234
     7  H    2.832156   2.827864   2.185606   3.065630   1.092732
     8  H    3.469591   3.857073   2.194768   2.473285   1.091216
     9  H    2.786178   3.326476   2.166919   2.495646   1.092180
    10  O    2.747110   2.348906   2.413312   3.157228   3.333914
    11  H    1.013371   1.620620   2.028852   2.549774   2.579956
    12  O    3.583823   3.789075   2.383634   2.468671   3.054604
    13  H    4.257848   4.287432   3.206359   3.385531   3.861923
                    6          7          8          9         10
     6  C    0.000000
     7  H    2.756487   0.000000
     8  H    2.753061   1.777394   0.000000
     9  H    3.444713   1.769347   1.766035   0.000000
    10  O    1.191561   3.253182   3.729918   4.275016   0.000000
    11  H    3.278195   2.846917   3.611712   2.435644   3.652796
    12  O    1.344877   3.505076   2.811708   4.004861   2.229036
    13  H    1.865480   4.131674   3.603729   4.870556   2.269072
                   11         12         13
    11  H    0.000000
    12  O    4.372259   0.000000
    13  H    5.114755   0.964601   0.000000
 Stoichiometry    C3H7NO2
 Framework group  C1[X(C3H7NO2)]
 Deg. of freedom    33
 Full point group                 C1      NOp   1
 Largest Abelian subgroup         C1      NOp   1
 Largest concise Abelian subgroup C1      NOp   1
                         Standard orientation:                         
 ---------------------------------------------------------------------
 Center     Atomic      Atomic             Coordinates (Angstroms)
 Number     Number       Type             X           Y           Z
 ---------------------------------------------------------------------
      1          7           0       -1.403072   -1.112307   -0.422524
      2          1           0       -1.132200   -1.665413    0.385149
      3          6           0       -0.656481    0.137413   -0.403257
      4          1           0       -0.615344    0.540134   -1.420972
      5          6           0       -1.227657    1.238417    0.517415
      6          6           0        0.782696   -0.150065    0.010670
      7          1           0       -1.239548    0.905469    1.558119
      8          1           0       -0.648757    2.160741    0.447090
      9          1           0       -2.254523    1.461645    0.219807
     10          8           0        1.137453   -1.108958    0.622625
     11          1           0       -2.389766   -0.912627   -0.306407
     12          8           0        1.637124    0.785233   -0.440845
     13          1           0        2.513680    0.531398   -0.128320
 ---------------------------------------------------------------------
 Rotational constants (GHZ):      5.0805544      3.0778637      2.2982912
 Standard basis: 6-311++G(d,p) (5D, 7F)
 There are   181 symmetry adapted basis functions of A   symmetry.
 Integral buffers will be    262144 words long.
 Raffenetti 2 integral format.
 Two-electron integral symmetry is turned on.
   181 basis functions,   279 primitive gaussians,   187 cartesian basis functions
    24 alpha electrons       24 beta electrons
       nuclear repulsion energy       249.8442116955 Hartrees.
 NAtoms=   13 NActive=   13 NUniq=   13 SFac= 1.00D+00 NAtFMM=   50 NAOKFM=F Big=F
 One-electron integrals computed using PRISM.
 NBasis=   181 RedAO= T  NBF=   181
 NBsUse=   181 1.00D-06 NBFU=   181
 Initial guess read from the read-write file.
 B after Tr=     0.000000    0.000000    0.000000
         Rot=    1.000000    0.000000    0.000000    0.000000 Ang=   0.00 deg.
 Initial guess orbital symmetries:
       Occupied  (A) (A) (A) (A) (A) (A) (A) (A) (A) (A) (A) (A)
                 (A) (A) (A) (A) (A) (A) (A) (A) (A) (A) (A) (A)
       Virtual   (A) (A) (A) (A) (A) (A) (A) (A) (A) (A) (A) (A)
                 (A) (A) (A) (A) (A) (A) (A) (A) (A) (A) (A) (A)
                 (A) (A) (A) (A) (A) (A) (A) (A) (A) (A) (A) (A)
                 (A) (A) (A) (A) (A) (A) (A) (A) (A) (A) (A) (A)
                 (A) (A) (A) (A) (A) (A) (A) (A) (A) (A) (A) (A)
                 (A) (A) (A) (A) (A) (A) (A) (A) (A) (A) (A) (A)
                 (A) (A) (A) (A) (A) (A) (A) (A) (A) (A) (A) (A)
                 (A) (A) (A) (A) (A) (A) (A) (A) (A) (A) (A) (A)
                 (A) (A) (A) (A) (A) (A) (A) (A) (A) (A) (A) (A)
                 (A) (A) (A) (A) (A) (A) (A) (A) (A) (A) (A) (A)
                 (A) (A) (A) (A) (A) (A) (A) (A) (A) (A) (A) (A)
                 (A) (A) (A) (A) (A) (A) (A) (A) (A) (A) (A) (A)
                 (A) (A) (A) (A) (A) (A) (A) (A) (A) (A) (A) (A)
                 (A)
 Harris functional with IExCor=  402 diagonalized for initial guess.
 ExpMin= 3.60D-02 ExpMax= 8.59D+03 ExpMxC= 1.30D+03 IAcc=3 IRadAn=         0 AccDes= 0.00D+00
 HarFok:  IExCor=  402 AccDes= 0.00D+00 IRadAn=         0 IDoV= 1
 ScaDFX=  1.000000  1.000000  1.000000  1.000000
 FoFCou: FMM=F IPFlag=           0 FMFlag=      100000 FMFlg1=           0
         NFxFlg=           0 DoJE=T BraDBF=F KetDBF=T FulRan=T
         Omega=  0.000000  0.000000  1.000000  0.000000  0.000000 ICntrl=     500 IOpCl=  0
         NMat0=    1 NMatS0=    1 NMatT0=    0 NMatD0=    1 NMtDS0=    0 NMtDT0=    0
         I1Cent=           4 NGrid=           0.
 Petite list used in FoFCou.
 Requested convergence on RMS density matrix=1.00D-08 within 128 cycles.
 Requested convergence on MAX density matrix=1.00D-06.
 Requested convergence on             energy=1.00D-06.
 No special actions if energy rises.
 SCF Done:  E(RB3LYP) =  -323.852830543     A.U. after   11 cycles
             Convg  =    0.8103D-08             -V/T =  2.0034
 Calling FoFJK, ICntrl=      2127 FMM=F ISym2X=0 I1Cent= 0 IOpClX= 0 NMat=1 NMatS=1 NMatT=0.
 ***** Axes restored to original set *****
 -------------------------------------------------------------------
 Center     Atomic                   Forces (Hartrees/Bohr)
 Number     Number              X              Y              Z
 -------------------------------------------------------------------
      1        7          -0.001494025    0.000020350    0.005704894
      2        1           0.001775261   -0.003184881   -0.000299466
      3        6           0.004539049    0.007319197   -0.000658649
      4        1           0.000241941    0.000003517    0.000172791
      5        6          -0.001150988   -0.001292602   -0.000108710
      6        6          -0.013352722    0.006762749   -0.019046674
      7        1           0.000092845   -0.000153209    0.000790711
      8        1           0.000751957    0.000594522   -0.000090836
      9        1          -0.000820327    0.000483047   -0.000069211
     10        8           0.006873504   -0.017684093    0.016364153
     11        1          -0.002644263   -0.000494019   -0.002732630
     12        8           0.000117635    0.007634955   -0.000945354
     13        1           0.005070135   -0.000009533    0.000918982
 -------------------------------------------------------------------
 Cartesian Forces:  Max     0.019046674 RMS     0.006083563

 GradGradGradGradGradGradGradGradGradGradGradGradGradGradGradGradGradGrad
 Berny optimization.
 Using GEDIIS/GDIIS optimizer.
 Internal  Forces:  Max     0.024640055 RMS     0.003891939
 Search for a local minimum.
 Step number   4 out of a maximum of   64
 All quantities printed in internal units (Hartrees-Bohrs-Radians)
 Mixed Optimization -- RFO/linear search
 Update second derivatives using D2CorX and points    1    2    4    3
 DE=  5.99D-04 DEPred=-7.90D-04 R=-7.58D-01
 Trust test=-7.58D-01 RLast= 3.40D-01 DXMaxT set to 3.48D-01
 ITU= -1  1  1  0
 Use linear search instead of GDIIS.
 Quartic linear search produced a step of -0.63478.
 Iteration  1 RMS(Cart)=  0.03026936 RMS(Int)=  0.00085362
 Iteration  2 RMS(Cart)=  0.00105068 RMS(Int)=  0.00035282
 Iteration  3 RMS(Cart)=  0.00000044 RMS(Int)=  0.00035282
 Variable       Old X    -DE/DX   Delta X   Delta X   Delta X     New X
                                 (Linear)    (Quad)   (Total)
    R1        1.91938   0.00199  -0.00535   0.00000  -0.00535   1.91403
    R2        2.75120   0.00430  -0.00844   0.00000  -0.00844   2.74276
    R3        1.91499   0.00215  -0.00514   0.00000  -0.00514   1.90985
    R4        2.06976  -0.00015   0.00084   0.00000   0.00084   2.07060
    R5        2.91905   0.00047   0.00366   0.00000   0.00366   2.92272
    R6        2.88158  -0.00132  -0.00751   0.00000  -0.00751   2.87407
    R7        2.06496   0.00080   0.00020   0.00000   0.00020   2.06516
    R8        2.06210   0.00090   0.00090   0.00000   0.00090   2.06300
    R9        2.06392   0.00089   0.00044   0.00000   0.00044   2.06436
   R10        2.25172   0.02464   0.01121   0.00000   0.01121   2.26294
   R11        2.54145   0.00864   0.00716   0.00000   0.00716   2.54861
   R12        1.82283   0.00490   0.00302   0.00000   0.00302   1.82585
    A1        1.89670   0.00259   0.03051   0.00000   0.03134   1.92805
    A2        1.85027   0.00042   0.05027   0.00000   0.05182   1.90210
    A3        1.90567   0.00249   0.03390   0.00000   0.03473   1.94040
    A4        1.89926   0.00060   0.00667   0.00000   0.00667   1.90593
    A5        2.01540  -0.00056  -0.00372   0.00000  -0.00372   2.01168
    A6        1.90261  -0.00112  -0.00310   0.00000  -0.00310   1.89951
    A7        1.88139   0.00001  -0.00081   0.00000  -0.00081   1.88058
    A8        1.86095  -0.00013  -0.00178   0.00000  -0.00178   1.85917
    A9        1.89818   0.00123   0.00287   0.00000   0.00287   1.90106
   A10        1.93317   0.00005  -0.00254   0.00000  -0.00254   1.93063
   A11        1.94751  -0.00051  -0.00089   0.00000  -0.00089   1.94662
   A12        1.90808   0.00059  -0.00158   0.00000  -0.00158   1.90650
   A13        1.90148   0.00004   0.00200   0.00000   0.00200   1.90347
   A14        1.88763  -0.00014   0.00069   0.00000   0.00069   1.88832
   A15        1.88438  -0.00002   0.00250   0.00000   0.00250   1.88688
   A16        2.17988   0.00112   0.00480   0.00000   0.00559   2.18547
   A17        1.95776  -0.00173  -0.00303   0.00000  -0.00224   1.95551
   A18        2.14472   0.00077  -0.00456   0.00000  -0.00378   2.14094
   A19        1.86037   0.00289   0.00130   0.00000   0.00130   1.86168
    D1        2.74127  -0.00176  -0.05493   0.00000  -0.05452   2.68675
    D2       -1.42423  -0.00167  -0.05346   0.00000  -0.05305  -1.47728
    D3        0.71807  -0.00133  -0.05476   0.00000  -0.05435   0.66372
    D4       -1.53115   0.00148   0.04920   0.00000   0.04880  -1.48236
    D5        0.58653   0.00157   0.05067   0.00000   0.05026   0.63679
    D6        2.72884   0.00192   0.04937   0.00000   0.04896   2.77780
    D7        1.06771  -0.00031  -0.00414   0.00000  -0.00414   1.06357
    D8       -3.09384  -0.00057  -0.00398   0.00000  -0.00397  -3.09781
    D9       -1.01064  -0.00054  -0.00245   0.00000  -0.00245  -1.01309
   D10       -3.08819   0.00010   0.00137   0.00000   0.00137  -3.08682
   D11       -0.96655  -0.00016   0.00154   0.00000   0.00154  -0.96501
   D12        1.11665  -0.00012   0.00306   0.00000   0.00306   1.11971
   D13       -1.07695   0.00059   0.00033   0.00000   0.00033  -1.07661
   D14        1.04469   0.00033   0.00050   0.00000   0.00050   1.04519
   D15        3.12789   0.00037   0.00202   0.00000   0.00202   3.12991
   D16       -0.38837  -0.00191  -0.01047   0.00000  -0.01044  -0.39881
   D17        2.71038   0.00215   0.08532   0.00000   0.08529   2.79567
   D18       -2.43599  -0.00197  -0.01576   0.00000  -0.01572  -2.45172
   D19        0.66276   0.00209   0.08004   0.00000   0.08001   0.74276
   D20        1.82274  -0.00253  -0.01530   0.00000  -0.01527   1.80747
   D21       -1.36169   0.00153   0.08049   0.00000   0.08046  -1.28123
   D22        3.13183  -0.00204  -0.04489   0.00000  -0.04503   3.08679
   D23       -0.05161   0.00194   0.04799   0.00000   0.04813  -0.00347
         Item               Value     Threshold  Converged?
 Maximum Force            0.024640     0.000450     NO 
 RMS     Force            0.003892     0.000300     NO 
 Maximum Displacement     0.086341     0.001800     NO 
 RMS     Displacement     0.030361     0.001200     NO 
 Predicted change in Energy=-3.135382D-04
 GradGradGradGradGradGradGradGradGradGradGradGradGradGradGradGradGradGrad

                          Input orientation:                          
 ---------------------------------------------------------------------
 Center     Atomic      Atomic             Coordinates (Angstroms)
 Number     Number       Type             X           Y           Z
 ---------------------------------------------------------------------
      1          7           0       -1.411643   -1.101743   -0.419237
      2          1           0       -1.114262   -1.697036    0.344357
      3          6           0       -0.654048    0.136250   -0.422391
      4          1           0       -0.626967    0.539582   -1.440811
      5          6           0       -1.197134    1.244760    0.509459
      6          6           0        0.785958   -0.168375   -0.039377
      7          1           0       -1.191756    0.909833    1.549694
      8          1           0       -0.609521    2.161108    0.426913
      9          1           0       -2.227813    1.476051    0.230943
     10          8           0        1.147725   -1.127164    0.580173
     11          1           0       -2.402419   -0.923239   -0.330271
     12          8           0        1.629980    0.810654   -0.424121
     13          1           0        2.506410    0.563842   -0.100862
 ---------------------------------------------------------------------
                    Distance matrix (angstroms):
                    1          2          3          4          5
     1  N    0.000000
     2  H    1.012860   0.000000
     3  C    1.451408   2.039764   0.000000
     4  H    2.086450   2.902885   1.095714   0.000000
     5  C    2.532700   2.947591   1.546636   2.150796   0.000000
     6  C    2.417627   2.468784   1.520893   2.112245   2.496162
     7  H    2.823380   2.873083   2.185561   3.065810   1.092837
     8  H    3.464905   3.891896   2.196213   2.473468   1.091694
     9  H    2.780987   3.364719   2.167637   2.496888   1.092413
    10  O    2.747696   2.344558   2.418209   3.164167   3.336074
    11  H    1.010651   1.647189   2.046412   2.554481   2.618794
[...]
   A15        1.88575   0.00000   0.00000   0.00001   0.00001   1.88577
   A16        2.18471   0.00001   0.00000   0.00013   0.00013   2.18484
   A17        1.95411  -0.00002   0.00000  -0.00012  -0.00012   1.95399
   A18        2.14353   0.00000   0.00000  -0.00001  -0.00001   2.14351
   A19        1.87233   0.00000   0.00000  -0.00001  -0.00001   1.87232
    D1        2.78989   0.00000   0.00000   0.00027   0.00027   2.79015
    D2       -1.36609   0.00000   0.00000   0.00033   0.00033  -1.36576
    D3        0.75870   0.00000   0.00000   0.00039   0.00039   0.75909
    D4       -1.38845   0.00000   0.00000   0.00018   0.00018  -1.38826
    D5        0.73876   0.00000   0.00000   0.00025   0.00025   0.73901
    D6        2.86355   0.00000   0.00000   0.00030   0.00030   2.86386
    D7        1.04853   0.00000   0.00000  -0.00006  -0.00006   1.04847
    D8       -3.11704   0.00000   0.00000  -0.00008  -0.00008  -3.11712
    D9       -1.03222   0.00000   0.00000  -0.00005  -0.00005  -1.03228
   D10       -3.10167   0.00000   0.00000  -0.00005  -0.00005  -3.10173
   D11       -0.98406   0.00000   0.00000  -0.00007  -0.00007  -0.98413
   D12        1.10076   0.00000   0.00000  -0.00004  -0.00004   1.10072
   D13       -1.07359   0.00000   0.00000  -0.00006  -0.00006  -1.07365
   D14        1.04402   0.00000   0.00000  -0.00008  -0.00008   1.04395
   D15        3.12884   0.00000   0.00000  -0.00005  -0.00005   3.12879
   D16       -0.49906   0.00000   0.00000   0.00066   0.00066  -0.49841
   D17        2.68582   0.00000   0.00000   0.00067   0.00067   2.68649
   D18       -2.54785   0.00000   0.00000   0.00078   0.00078  -2.54707
   D19        0.63703   0.00000   0.00000   0.00079   0.00079   0.63782
   D20        1.69661   0.00000   0.00000   0.00072   0.00072   1.69733
   D21       -1.40170   0.00000   0.00000   0.00074   0.00074  -1.40096
   D22        3.08349   0.00000   0.00000   0.00002   0.00002   3.08351
   D23       -0.01601   0.00000   0.00000   0.00003   0.00003  -0.01598
         Item               Value     Threshold  Converged?
 Maximum Force            0.000040     0.000450     YES
 RMS     Force            0.000009     0.000300     YES
 Maximum Displacement     0.001211     0.001800     YES
 RMS     Displacement     0.000333     0.001200     YES
 Predicted change in Energy=-1.441281D-08
 Optimization completed.
    -- Stationary point found.
                           ----------------------------
                           !   Optimized Parameters   !
                           ! (Angstroms and Degrees)  !
 --------------------------                            --------------------------
 ! Name  Definition              Value          Derivative Info.                !
 --------------------------------------------------------------------------------
 ! R1    R(1,2)                  1.0155         -DE/DX =    0.0                 !
 ! R2    R(1,3)                  1.4588         -DE/DX =    0.0                 !
 ! R3    R(1,11)                 1.0137         -DE/DX =    0.0                 !
 ! R4    R(3,4)                  1.0942         -DE/DX =    0.0                 !
 ! R5    R(3,5)                  1.5461         -DE/DX =    0.0                 !
 ! R6    R(3,6)                  1.5194         -DE/DX =    0.0                 !
 ! R7    R(5,7)                  1.0935         -DE/DX =    0.0                 !
 ! R8    R(5,8)                  1.093          -DE/DX =    0.0                 !
 ! R9    R(5,9)                  1.0932         -DE/DX =    0.0                 !
 ! R10   R(6,10)                 1.2053         -DE/DX =    0.0                 !
 ! R11   R(6,12)                 1.3533         -DE/DX =    0.0                 !
 ! R12   R(12,13)                0.9694         -DE/DX =    0.0                 !
 ! A1    A(2,1,3)              110.3969         -DE/DX =    0.0                 !
 ! A2    A(2,1,11)             108.6676         -DE/DX =    0.0                 !
 ! A3    A(3,1,11)             111.0515         -DE/DX =    0.0                 !
 ! A4    A(1,3,4)              108.8891         -DE/DX =    0.0                 !
 ! A5    A(1,3,5)              115.2856         -DE/DX =    0.0                 !
 ! A6    A(1,3,6)              108.2549         -DE/DX =    0.0                 !
 ! A7    A(4,3,5)              108.2732         -DE/DX =    0.0                 !
 ! A8    A(4,3,6)              107.3259         -DE/DX =    0.0                 !
 ! A9    A(5,3,6)              108.5388         -DE/DX =    0.0                 !
 ! A10   A(3,5,7)              110.5847         -DE/DX =    0.0                 !
 ! A11   A(3,5,8)              111.4838         -DE/DX =    0.0                 !
 ! A12   A(3,5,9)              109.4138         -DE/DX =    0.0                 !
 ! A13   A(7,5,8)              108.9163         -DE/DX =    0.0                 !
 ! A14   A(7,5,9)              108.3081         -DE/DX =    0.0                 !
 ! A15   A(8,5,9)              108.0457         -DE/DX =    0.0                 !
 ! A16   A(3,6,10)             125.1745         -DE/DX =    0.0                 !
 ! A17   A(3,6,12)             111.9621         -DE/DX =    0.0                 !
 ! A18   A(10,6,12)            122.815          -DE/DX =    0.0                 !
 ! A19   A(6,12,13)            107.2766         -DE/DX =    0.0                 !
 ! D1    D(2,1,3,4)            159.8487         -DE/DX =    0.0                 !
 ! D2    D(2,1,3,5)            -78.2711         -DE/DX =    0.0                 !
 ! D3    D(2,1,3,6)             43.4703         -DE/DX =    0.0                 !
 ! D4    D(11,1,3,4)           -79.5522         -DE/DX =    0.0                 !
 ! D5    D(11,1,3,5)            42.328          -DE/DX =    0.0                 !
 ! D6    D(11,1,3,6)           164.0694         -DE/DX =    0.0                 !
 ! D7    D(1,3,5,7)             60.0763         -DE/DX =    0.0                 !
 ! D8    D(1,3,5,8)           -178.5935         -DE/DX =    0.0                 !
 ! D9    D(1,3,5,9)            -59.1421         -DE/DX =    0.0                 !
 ! D10   D(4,3,5,7)           -177.7128         -DE/DX =    0.0                 !
 ! D11   D(4,3,5,8)            -56.3825         -DE/DX =    0.0                 !
 ! D12   D(4,3,5,9)             63.0688         -DE/DX =    0.0                 !
 ! D13   D(6,3,5,7)            -61.5121         -DE/DX =    0.0                 !
 ! D14   D(6,3,5,8)             59.8182         -DE/DX =    0.0                 !
 ! D15   D(6,3,5,9)            179.2696         -DE/DX =    0.0                 !
 ! D16   D(1,3,6,10)           -28.5941         -DE/DX =    0.0                 !
 ! D17   D(1,3,6,12)           153.8859         -DE/DX =    0.0                 !
 ! D18   D(4,3,6,10)          -145.9809         -DE/DX =    0.0                 !
 ! D19   D(4,3,6,12)            36.4991         -DE/DX =    0.0                 !
 ! D20   D(5,3,6,10)            97.2085         -DE/DX =    0.0                 !
 ! D21   D(5,3,6,12)           -80.3115         -DE/DX =    0.0                 !
 ! D22   D(3,6,12,13)          176.6707         -DE/DX =    0.0                 !
 ! D23   D(10,6,12,13)          -0.9172         -DE/DX =    0.0                 !
 --------------------------------------------------------------------------------
 GradGradGradGradGradGradGradGradGradGradGradGradGradGradGradGradGradGrad

 1|1|UNPC-WIN-20150318OUM|Freq|RB3LYP|6-311++G(d,p)|C3H7N1O2|ADMINISTRA
 TOR|29-Mar-2016|0||#N Geom=AllCheck Guess=TCheck SCRF=Check GenChk RB3
 LYP/6-311++G(d,p) Freq||Ala-S-opt-freq-6-311++g(d,p)||0,1|N,-1.3903997
 571,-1.1079651818,-0.4314442224|H,-1.1558248922,-1.6660779949,0.383894
 7624|C,-0.6480406418,0.1477519744,-0.4187165837|H,-0.6263997653,0.5567
 662078,-1.4333739743|C,-1.2044205415,1.234233347,0.5301615611|C,0.7874
 253886,-0.1519837185,-0.0209603504|H,-1.204629971,0.87825773,1.5640505
 374|H,-0.6177876934,2.1547059863,0.4724415263|H,-2.2338613805,1.470484
 2371,0.2481029484|O,1.1366952177,-1.0672960627,0.6811896845|H,-2.39004
 01974,-0.939976734,-0.4329651701|O,1.6503751461,0.770299069,-0.5068929
 118|H,2.5314200878,0.5453251402,-0.1710198076||Version=IA32W-G09RevB.0
 1|State=1-A|HF=-323.8539962|RMSD=4.249e-009|RMSF=1.582e-005|ZeroPoint=
 0.1075091|Thermal=0.1144199|Dipole=-0.294348,0.8153162,0.1267872|Dipol
 eDeriv=-0.359656,-0.1591301,0.0110487,-0.0800611,-0.6752034,-0.1775228
 ,-0.0080852,-0.1946122,-0.442997,0.2087075,-0.0231479,-0.037013,-0.045
 9892,0.2296971,0.0253233,-0.0016503,0.1047553,0.0877655,0.05721,0.2511
 638,-0.0209269,0.257988,0.4799215,0.154248,-0.0677186,0.0298627,0.2429
 776,0.0238188,-0.0027485,0.021622,-0.0353168,-0.0253033,0.0317278,0.01
 3436,0.0644559,-0.0825393,0.0144689,0.0306845,0.0099878,-0.0617513,-0.
 0332078,-0.0956936,-0.0477096,-0.0588248,0.0420809,1.4168104,0.1401123
 ,-0.08615,0.2324766,1.2537346,-0.6578236,-0.0039946,-0.7118084,0.66095
 9,0.0641127,0.0220717,-0.0068121,0.0044647,0.0232882,0.0909398,0.02193
 92,0.0224172,-0.0969631,0.0251513,-0.1073095,0.0082828,-0.0730385,-0.1
 059835,-0.0336744,0.0160446,0.0003099,0.0589881,-0.1352535,0.0626311,-
 0.0393787,0.041394,0.0475558,-0.00895,-0.0461986,-0.0127562,0.0401669,
 -0.735899,0.2168584,-0.1592719,0.006006,-0.8857249,0.3363123,-0.073580
 2,0.429227,-0.5989453,0.028046,0.022966,0.0204686,0.0746676,0.1691313,
 0.0491251,0.0716985,0.081191,0.2646747,-0.904849,-0.4887302,0.3185924,
 -0.384574,-0.754455,0.2305318,0.1956564,0.1895363,-0.4672863,0.2973319
 ,0.0345786,-0.0404495,0.0637339,0.2765494,0.0554563,-0.0698375,0.05624
 62,0.2911183|Polar=58.2903226,0.2833467,55.6173807,0.064817,-2.5527095
 ,46.5117526|PG=C01 [X(C3H7N1O2)]|NImag=0||0.64366216,-0.01413085,0.438
 08278,0.09305878,-0.21525445,0.36731874,-0.07542341,0.03324357,-0.0711
 2236,0.08031023,0.03311598,-0.14045993,0.15944749,-0.03940732,0.169493
 67,-0.08979167,0.20108613,-0.28123095,0.08308068,-0.19024011,0.2843001
 1,-0.12036530,-0.04103224,-0.00311692,0.00523575,0.00513115,0.00392539
 ,0.48521180,-0.06404498,-0.17940803,0.03680764,-0.00996281,-0.02263893
 ,-0.00544823,0.02586256,0.47455742,-0.02877824,0.00106210,-0.07463605,
 0.01974304,0.02844740,-0.00331499,0.01095310,-0.09366653,0.55385443,0.
 00143868,-0.01454993,0.01593682,-0.00304891,-0.00206070,0.00082498,-0.
 05169860,-0.00058582,-0.00142465,0.05618840,-0.00203556,-0.02245003,0.
 02491669,-0.00491138,-0.00296327,0.00167878,-0.00033111,-0.07458377,0.
 08387967,0.00334784,0.09819719,0.00200044,0.00215067,0.00611265,0.0002
 9184,-0.00147131,0.00118535,-0.00322831,0.08682588,-0.27053790,-0.0015
 4499,-0.09260543,0.29176411,0.00548612,-0.02012718,-0.01124006,-0.0005
 7215,-0.00013373,-0.00094859,-0.09268751,0.02980208,0.02938985,0.00112
 547,0.00096641,0.00029222,0.55198022,0.00244327,-0.03640320,-0.0206376
 5,0.00016563,-0.00007088,-0.00154034,0.01519773,-0.10234842,-0.0309365
 7,-0.00251833,0.00678599,0.00379292,0.03647053,0.50277622,-0.00295529,
 -0.00372002,0.00291281,-0.00049531,0.00111656,0.00147546,0.01943923,-0
 .02991194,-0.11142020,0.01507406,-0.02355154,-0.02129564,0.02669334,-0
 .06092775,0.51654426,-0.02877342,-0.00711396,-0.00293379,-0.00023002,-
 0.00034463,-0.00147945,-0.16458789,0.00871796,-0.02623383,0.00382840,0
 .00170911,0.00174003,-0.01383998,0.01856459,0.00736721,0.62043137,-0.0
 3222984,-0.00062124,-0.00766034,-0.00754034,0.00005299,0.00151053,0.01
 516195,-0.07183358,-0.00072617,0.01115514,-0.00453606,0.00511957,0.026
 34458,-0.00900801,0.00320300,-0.07998433,0.68274577,-0.00389341,-0.000
 18527,-0.00122867,0.00513420,0.00190446,0.00020054,-0.02402304,-0.0045
 2856,-0.09164549,-0.03260016,0.00827297,-0.01022299,0.02293834,-0.0025
 5313,0.00854959,0.12404630,-0.32510719,0.47976433,-0.00013454,-0.00039
 577,-0.00105785,0.00040675,0.00015636,-0.00020163,-0.00184960,-0.00444
 213,0.01309920,-0.00035106,0.00210628,0.00159672,-0.04753523,0.0005053
 1,-0.00267197,0.00092897,-0.00145299,0.00249069,0.04766777,0.00000354,
 0.00286486,0.00145360,0.00014779,-0.00043534,0.00015537,0.00088248,0.0
 0642586,-0.02372971,0.00208214,-0.00295371,-0.00325248,-0.00047204,-0.
 07738333,0.08444458,-0.00105734,0.00153273,-0.00096261,-0.00248874,0.0
 8097301,-0.00079496,0.00040657,0.00308612,-0.00013337,-0.00089708,-0.0
 0012944,0.00235665,0.00701185,-0.02052350,0.00192700,-0.00335166,-0.00
 090442,-0.00246107,0.08291970,-0.27787340,-0.00209818,0.00184880,-0.00
 158104,0.00017291,-0.08901142,0.30357214,0.00036738,0.00263070,0.00158
 015,0.00006691,-0.00002829,-0.00001601,0.00634571,0.01011904,-0.002330
 10,0.00046187,-0.00054187,-0.00031488,-0.12486872,-0.12013867,0.008782
 51,0.00045789,0.00080016,-0.00054732,0.00017137,0.00201674,0.00007009,
 0.13269357,0.00129280,-0.00497971,-0.00459547,-0.00020734,0.00036242,-
 0.00039278,-0.01194183,-0.01603200,0.00484773,0.00000623,0.00073584,-0
 .00027134,-0.11822445,-0.23052645,0.01271999,-0.00247662,-0.00241218,0
 .00074317,-0.00476816,-0.00778772,0.00006884,0.13048416,0.25089438,0.0
 0112991,-0.00462702,-0.00114767,0.00006861,-0.00074582,-0.00064463,-0.
 01267629,-0.01415005,0.00235912,-0.00044949,0.00071626,0.00020039,0.00
 940974,0.01390764,-0.04979333,-0.00036741,-0.00016106,0.00073597,0.017
 11817,0.02522301,0.00027779,-0.01019020,-0.01289833,0.04842822,0.00201
 847,-0.00092710,0.00005340,-0.00007129,-0.00005562,-0.00014249,-0.0128
 8882,0.00222045,-0.00283277,0.00037793,-0.00022476,0.00039710,-0.27793
 637,0.05106976,-0.06691228,0.00165464,0.00034730,0.00279151,0.00102932
 ,-0.00048689,0.00014452,-0.01535903,0.00390068,-0.00455584,0.30143973,
 0.00031119,0.00255053,0.00097273,0.00012402,-0.00004706,0.00006372,0.0
 2393065,-0.00831920,0.00394848,-0.00103259,0.00089749,0.00044987,0.050
 21783,-0.05645915,0.01629062,-0.00185784,-0.00370851,-0.00401714,0.010
 24085,-0.00296752,0.00246083,-0.02572985,0.00711042,-0.00793673,-0.057
 26585,0.06055957,0.00035443,0.00236872,0.00035816,-0.00002380,-0.00009
 573,-0.00003519,0.02267342,-0.00738812,0.00333443,-0.00014983,0.000924
 84,0.00118486,-0.06776911,0.01583303,-0.06486767,-0.00157363,-0.002930
 04,-0.00419951,-0.02916078,0.00536448,-0.00719279,0.00228571,-0.000556
 50,-0.00031157,0.07184914,-0.01363181,0.06891420,-0.00122397,0.0022187
 5,-0.00133142,0.00043590,0.00177077,-0.00039520,-0.00536918,0.02839603
 ,-0.02717873,-0.00732280,0.00164482,-0.00186903,-0.00173742,-0.0015986
 3,-0.00289141,-0.18186705,0.14102062,-0.11531028,0.00005698,-0.0003263
 6,0.00060071,-0.00000028,0.00063775,0.00001739,-0.00035708,0.00105366,
 0.00122025,0.16002608,-0.00439663,0.00165470,-0.00064603,0.00360645,0.
 00009401,-0.00183115,0.01076770,-0.01317444,0.02261339,0.00383427,0.00
 067918,-0.00060627,-0.00154024,0.00271383,0.00196823,0.15302705,-0.444
 14354,0.28384190,0.00017861,-0.00017199,-0.00101970,-0.00012774,0.0005
 9895,0.00014751,0.00046516,-0.00005921,-0.00054468,-0.14898148,0.51664
 433,0.00268846,0.00090306,0.00110382,-0.00164604,-0.00127972,-0.000881
 14,-0.01120906,0.02411484,0.00430190,-0.00001961,-0.00013347,0.0006738
 6,-0.00414428,-0.00096358,-0.00488135,-0.12598103,0.28060540,-0.295108
 15,-0.00077156,0.00029939,0.00137344,0.00022979,-0.00031513,-0.0000757
 8,-0.00065957,0.00122025,0.00219750,0.12661707,-0.36279467,0.30633941,
 -0.41753421,0.05652140,-0.01737223,-0.00801356,0.00143273,0.00490114,-
 0.01771648,0.00637043,0.00220430,-0.00046550,-0.00039946,0.00002313,0.
 00243287,0.00200782,-0.00002918,-0.00000954,-0.00241791,0.00118907,0.0
 0000223,-0.00028477,-0.00025615,0.00020630,0.00061797,0.00046883,0.000
 52886,-0.00085053,-0.00059787,0.00026768,-0.00043812,0.00020891,0.4415
 7624,0.08011680,-0.06206093,0.02597977,0.02241743,-0.00367005,-0.00528
 142,-0.03751314,0.00293490,-0.00383579,0.00016401,0.00012633,0.0005606
 7,-0.00127529,0.00244092,-0.00006006,-0.00084570,-0.00757533,0.0018630
 6,0.00013863,-0.00012714,-0.00022667,0.00035242,0.00027515,0.00037032,
 0.00086642,-0.00082967,0.00002419,0.00064917,0.00184354,-0.00017701,-0
 .06230138,0.06632143,0.02722583,0.01739219,-0.02408198,-0.03309245,0.0
 0389807,-0.00098221,-0.00231560,-0.00388773,-0.00253742,0.00048595,0.0
 0045738,-0.00025974,-0.00029500,0.00126776,0.00064821,-0.00139027,0.00
 039100,-0.00092205,-0.00036495,-0.00014013,-0.00031742,0.00029414,0.00
 052204,0.00011810,0.00001926,-0.00028896,0.00033029,-0.00050564,-0.000
 69748,0.00043977,0.00954954,-0.01887009,0.02719517,-0.00828716,0.00290
 710,-0.00243924,0.00126444,0.00047821,0.00031123,-0.03053779,-0.026756
 04,0.01155431,-0.00127589,-0.00143938,0.00075026,-0.00212103,-0.002300
 05,-0.00143133,-0.19427483,-0.07281798,0.02785306,-0.00030897,-0.00002
 007,0.00044038,-0.00041764,0.00039914,-0.00004588,-0.00061347,0.000773
 60,0.00091996,0.03049964,-0.02301452,0.01715349,-0.00120976,-0.0022108
 6,0.00020595,0.60733895,0.00011025,0.00127730,-0.00060623,0.00251000,0
 .00022686,0.00024681,-0.00367011,0.00542427,0.00421884,0.00003852,0.00
 038579,-0.00072619,-0.00146625,-0.00254735,-0.00132190,-0.05218861,-0.
 15328676,0.05378630,0.00013087,-0.00004194,-0.00018216,0.00014387,0.00
 162984,-0.00003553,0.00016338,0.00115300,0.00057632,-0.03253099,-0.064
 07677,0.05966858,-0.00009211,0.00051772,-0.00004667,0.00599774,0.27652
 286,-0.00125687,-0.00096047,0.00103426,-0.00174297,-0.00003959,-0.0000
 3159,-0.00306662,-0.00032214,0.00882738,0.00174311,-0.00080636,0.00162
 367,-0.00110644,-0.00025214,0.00020684,0.01199250,0.04958690,-0.095412
 02,-0.00040034,0.00015156,0.00027954,0.00007825,0.00012941,-0.00023144
 ,-0.00006505,0.00031235,0.00025127,0.02277669,0.06075384,-0.00991626,-
 0.00038986,-0.00064638,0.00025902,0.10516481,-0.16739533,0.17833289,-0
 .00123079,0.00075550,-0.00001527,-0.00036063,-0.00005490,-0.00006839,0
 .00090790,-0.00569677,0.00183452,0.00074202,0.00010908,-0.00013454,0.0
 0027374,0.00013104,0.00003040,-0.04371855,0.00161364,-0.01006897,-0.00
 008400,0.00000353,0.00003147,-0.00012534,0.00027967,0.00007244,0.00017
 710,0.00008487,-0.00002788,0.00659149,0.00661949,-0.00246657,-0.000065
 13,-0.00055850,0.00018324,-0.40005648,0.08085344,-0.13372722,0.4369486
 7,-0.00055597,-0.00004710,-0.00017775,-0.00018570,0.00005552,-0.000007
 32,-0.00244577,-0.00100408,0.00387717,0.00011923,-0.00032097,0.0000334
 3,-0.00056225,0.00002983,-0.00024976,-0.03614967,0.01279372,-0.0130579
 4,0.00009089,0.00007223,-0.00002789,0.00001933,0.00013108,0.00018979,-
 0.00007293,0.00011931,0.00005528,0.00604588,-0.00260259,-0.00114796,-0
 .00016607,-0.00019688,0.00000262,0.11800312,-0.06718481,0.05948835,-0.
 08414008,0.05815473,0.00101258,-0.00062223,0.00039877,-0.00006207,-0.0
 0004462,0.00008866,0.00028803,0.00454311,0.00193827,0.00019680,-0.0003
 9815,0.00047582,-0.00075894,0.00009011,-0.00020558,0.01691155,-0.00568
 040,0.01106948,0.00015138,0.00000436,-0.00006702,0.00007786,-0.0000016
 3,0.00008483,-0.00008695,0.00015579,0.00003602,-0.00175040,-0.00118490
 ,-0.00556703,0.00010039,0.00029942,0.00011026,-0.16043699,0.05181715,-
 0.08522356,0.14435677,-0.04897802,0.07686109||-0.00000890,0.00002219,-
 0.00000036,0.00000814,0.00000051,-0.00001433,-0.00000526,-0.00004434,0
 .00000047,-0.00000378,0.00000955,0.00000319,-0.00001192,0.00000512,0.0
 0001430,0.00005146,0.00002860,-0.00000296,0.00000185,-0.00001041,-0.00
 000281,-0.00000702,-0.00000279,0.00000676,-0.00000093,-0.00000592,0.00
 000295,-0.00000950,0.00002388,-0.00002009,0.00000630,-0.00000835,-0.00
 000473,-0.00001170,-0.00002792,0.00002007,-0.00000874,0.00000988,-0.00
 000247|||@


 Make no judgements where you have no compassion.
                               -- Anne McCaffrey
 Job cpu time:  0 days  0 hours 11 minutes 54.0 seconds.
 File lengths (MBytes):  RWF=     48 Int=      0 D2E=      0 Chk=      3 Scr=      1
 Normal termination of Gaussian 09 at Tue Mar 29 15:48:06 2016.
