 Entering Gaussian System, Link 0=g09
 Input=Ala-S-opt-freq-p2-6-31g.com
 Output=Ala-S-opt-freq-p2-6-31g.log
 Initial command:
 /usr/local/gau/g09/l1.exe "/tmp/Gau-2656.inp" -scrdir="/tmp/"
 Entering Link 1 = /usr/local/gau/g09/l1.exe PID=      2658.
  
 Copyright (c) 1988,1990,1992,1993,1995,1998,2003,2009,2013,
            Gaussian, Inc.  All Rights Reserved.
  
 This is part of the Gaussian(R) 09 program.  It is based on
 the Gaussian(R) 03 system (copyright 2003, Gaussian, Inc.),
 the Gaussian(R) 98 system (copyright 1998, Gaussian, Inc.),
 the Gaussian(R) 94 system (copyright 1995, Gaussian, Inc.),
 the Gaussian 92(TM) system (copyright 1992, Gaussian, Inc.),
 the Gaussian 90(TM) system (copyright 1990, Gaussian, Inc.),
 the Gaussian 88(TM) system (copyright 1988, Gaussian, Inc.),
 the Gaussian 86(TM) system (copyright 1986, Carnegie Mellon
 University), and the Gaussian 82(TM) system (copyright 1983,
 Carnegie Mellon University). Gaussian is a federally registered
 trademark of Gaussian, Inc.
  
 This software contains proprietary and confidential information,
 including trade secrets, belonging to Gaussian, Inc.
  
 This software is provided under written license and may be
 used, copied, transmitted, or stored only in accord with that
 written license.
  
 The following legend is applicable only to US Government
 contracts under FAR:
  
                    RESTRICTED RIGHTS LEGEND
  
 Use, reproduction and disclosure by the US Government is
 subject to restrictions as set forth in subparagraphs (a)
 and (c) of the Commercial Computer Software - Restricted
 Rights clause in FAR 52.227-19.
  
 Gaussian, Inc.
 340 Quinnipiac St., Bldg. 40, Wallingford CT 06492
  
  
 ---------------------------------------------------------------
 Warning -- This program may not be used in any manner that
 competes with the business of Gaussian, Inc. or will provide
 assistance to any competitor of Gaussian, Inc.  The licensee
 of this program is prohibited from giving any competitor of
 Gaussian, Inc. access to this program.  By using this program,
 the user acknowledges that Gaussian, Inc. is engaged in the
 business of creating and licensing software in the field of
 computational chemistry and represents and warrants to the
 licensee that it is not a competitor of Gaussian, Inc. and that
 it will not use this program in any manner prohibited above.
 ---------------------------------------------------------------
  

 Cite this work as:
 Gaussian 09, Revision D.01,
 M. J. Frisch, G. W. Trucks, H. B. Schlegel, G. E. Scuseria, 
 M. A. Robb, J. R. Cheeseman, G. Scalmani, V. Barone, B. Mennucci, 
 G. A. Petersson, H. Nakatsuji, M. Caricato, X. Li, H. P. Hratchian, 
 A. F. Izmaylov, J. Bloino, G. Zheng, J. L. Sonnenberg, M. Hada, 
 M. Ehara, K. Toyota, R. Fukuda, J. Hasegawa, M. Ishida, T. Nakajima, 
 Y. Honda, O. Kitao, H. Nakai, T. Vreven, J. A. Montgomery, Jr., 
 J. E. Peralta, F. Ogliaro, M. Bearpark, J. J. Heyd, E. Brothers, 
 K. N. Kudin, V. N. Staroverov, T. Keith, R. Kobayashi, J. Normand, 
 K. Raghavachari, A. Rendell, J. C. Burant, S. S. Iyengar, J. Tomasi, 
 M. Cossi, N. Rega, J. M. Millam, M. Klene, J. E. Knox, J. B. Cross, 
 V. Bakken, C. Adamo, J. Jaramillo, R. Gomperts, R. E. Stratmann, 
 O. Yazyev, A. J. Austin, R. Cammi, C. Pomelli, J. W. Ochterski, 
 R. L. Martin, K. Morokuma, V. G. Zakrzewski, G. A. Voth, 
 P. Salvador, J. J. Dannenberg, S. Dapprich, A. D. Daniels, 
 O. Farkas, J. B. Foresman, J. V. Ortiz, J. Cioslowski, 
 and D. J. Fox, Gaussian, Inc., Wallingford CT, 2013.
 
 ******************************************
 Gaussian 09:  ES64L-G09RevD.01 24-Apr-2013
                 2-Apr-2016 
 ******************************************
 %chk=Ala-S-opt-freq-p2-6-31g.chk
 -----------------------
 # opt freq rb3lyp/6-31g
 -----------------------
 1/14=-1,18=20,19=15,26=3,38=1/1,3;
 2/9=110,12=2,17=6,18=5,40=1/2;
 3/5=1,6=6,11=2,16=1,25=1,30=1,71=1,74=-5,116=1/1,2,3;
 4//1;
 5/5=2,38=5/2;
 6/7=2,8=2,9=2,10=2,28=1/1;
 7//1,2,3,16;
 1/14=-1,18=20,19=15,26=3/3(2);
 2/9=110/2;
 99//99;
 2/9=110/2;
 3/5=1,6=6,11=2,16=1,25=1,30=1,71=1,74=-5,116=1/1,2,3;
 4/5=5,16=3,69=1/1;
 5/5=2,38=5/2;
 7//1,2,3,16;
 1/14=-1,18=20,19=15,26=3/3(-5);
 2/9=110/2;
 6/7=2,8=2,9=2,10=2,19=2,28=1/1;
 99/9=1/99;
 -----------------------
 Ala-S-opt-freq-p2-6-31g
 -----------------------
 Symbolic Z-matrix:
 Charge =  0 Multiplicity = 1
 N                    -1.27101  -1.263    -0.4194 
 H                    -1.87497  -1.62758   0.30677 
 C                    -0.64215  -0.00902  -0.23163 
 H                     0.43052   1.13038  -0.9085 
 C                    -1.54621   1.00209   0.48272 
 C                     0.76408   0.05949   0.04169 
 H                    -1.9224    0.5759    1.42911 
 H                    -1.02075   1.93037   0.72416 
 H                    -2.41386   1.23836  -0.14046 
 O                     1.54852  -0.90323   0.56429 
 H                    -0.81953  -1.95549  -0.99471 
 O                     1.30902   1.15081  -0.49926 
 H                     2.4989   -0.74004   0.38011 
 

 GradGradGradGradGradGradGradGradGradGradGradGradGradGradGradGradGradGrad
 Berny optimization.
 Initialization pass.
                           ----------------------------
                           !    Initial Parameters    !
                           ! (Angstroms and Degrees)  !
 --------------------------                            --------------------------
 ! Name  Definition              Value          Derivative Info.                !
 --------------------------------------------------------------------------------
 ! R1    R(1,2)                  1.0124         estimate D2E/DX2                !
 ! R2    R(1,3)                  1.4153         estimate D2E/DX2                !
 ! R3    R(1,11)                 1.0072         estimate D2E/DX2                !
 ! R4    R(3,5)                  1.533          estimate D2E/DX2                !
 ! R5    R(3,6)                  1.4342         estimate D2E/DX2                !
 ! R6    R(4,12)                 0.9694         estimate D2E/DX2                !
 ! R7    R(5,7)                  1.104          estimate D2E/DX2                !
 ! R8    R(5,8)                  1.0937         estimate D2E/DX2                !
 ! R9    R(5,9)                  1.0941         estimate D2E/DX2                !
 ! R10   R(6,10)                 1.3473         estimate D2E/DX2                !
 ! R11   R(6,12)                 1.3344         estimate D2E/DX2                !
 ! R12   R(10,13)                0.9817         estimate D2E/DX2                !
 ! A1    A(2,1,3)              119.2711         estimate D2E/DX2                !
 ! A2    A(2,1,11)             115.4384         estimate D2E/DX2                !
 ! A3    A(3,1,11)             119.0641         estimate D2E/DX2                !
 ! A4    A(1,3,5)              112.5921         estimate D2E/DX2                !
 ! A5    A(1,3,6)              120.2162         estimate D2E/DX2                !
 ! A6    A(5,3,6)              117.2546         estimate D2E/DX2                !
 ! A7    A(3,5,7)              110.2301         estimate D2E/DX2                !
 ! A8    A(3,5,8)              112.2942         estimate D2E/DX2                !
 ! A9    A(3,5,9)              110.1644         estimate D2E/DX2                !
 ! A10   A(7,5,8)              107.5859         estimate D2E/DX2                !
 ! A11   A(7,5,9)              107.5427         estimate D2E/DX2                !
 ! A12   A(8,5,9)              108.8733         estimate D2E/DX2                !
 ! A13   A(3,6,10)             127.6377         estimate D2E/DX2                !
 ! A14   A(3,6,12)             111.2376         estimate D2E/DX2                !
 ! A15   A(10,6,12)            120.2553         estimate D2E/DX2                !
 ! A16   A(6,10,13)            111.8448         estimate D2E/DX2                !
 ! A17   A(4,12,6)              77.5143         estimate D2E/DX2                !
 ! D1    D(2,1,3,5)            -37.8003         estimate D2E/DX2                !
 ! D2    D(2,1,3,6)            106.9186         estimate D2E/DX2                !
 ! D3    D(11,1,3,5)           171.17           estimate D2E/DX2                !
 ! D4    D(11,1,3,6)           -44.1111         estimate D2E/DX2                !
 ! D5    D(1,3,5,7)             53.7261         estimate D2E/DX2                !
 ! D6    D(1,3,5,8)            173.6674         estimate D2E/DX2                !
 ! D7    D(1,3,5,9)            -64.7987         estimate D2E/DX2                !
 ! D8    D(6,3,5,7)            -92.1181         estimate D2E/DX2                !
 ! D9    D(6,3,5,8)             27.8232         estimate D2E/DX2                !
 ! D10   D(6,3,5,9)            149.3571         estimate D2E/DX2                !
 ! D11   D(1,3,6,10)           -22.9257         estimate D2E/DX2                !
 ! D12   D(1,3,6,12)           146.2852         estimate D2E/DX2                !
 ! D13   D(5,3,6,10)           120.2142         estimate D2E/DX2                !
 ! D14   D(5,3,6,12)           -70.575          estimate D2E/DX2                !
 ! D15   D(3,6,10,13)          160.807          estimate D2E/DX2                !
 ! D16   D(12,6,10,13)          -7.5393         estimate D2E/DX2                !
 ! D17   D(3,6,12,4)           -11.5066         estimate D2E/DX2                !
 ! D18   D(10,6,12,4)          158.6118         estimate D2E/DX2                !
 --------------------------------------------------------------------------------
 Trust Radius=3.00D-01 FncErr=1.00D-07 GrdErr=1.00D-06
 Number of steps in this run=     57 maximum allowed number of steps=    100.
 GradGradGradGradGradGradGradGradGradGradGradGradGradGradGradGradGradGrad

                          Input orientation:                          
 ---------------------------------------------------------------------
 Center     Atomic      Atomic             Coordinates (Angstroms)
 Number     Number       Type             X           Y           Z
 ---------------------------------------------------------------------
      1          7           0       -1.271014   -1.263003   -0.419398
      2          1           0       -1.874973   -1.627576    0.306774
      3          6           0       -0.642150   -0.009022   -0.231626
      4          1           0        0.430521    1.130380   -0.908504
      5          6           0       -1.546214    1.002091    0.482715
      6          6           0        0.764076    0.059485    0.041688
      7          1           0       -1.922401    0.575897    1.429106
      8          1           0       -1.020754    1.930369    0.724157
      9          1           0       -2.413860    1.238358   -0.140460
     10          8           0        1.548524   -0.903227    0.564291
     11          1           0       -0.819534   -1.955492   -0.994713
     12          8           0        1.309019    1.150812   -0.499258
     13          1           0        2.498897   -0.740039    0.380114
 ---------------------------------------------------------------------
                    Distance matrix (angstroms):
                    1          2          3          4          5
     1  N    0.000000
     2  H    1.012426   0.000000
     3  C    1.415343   2.104624   0.000000
     4  H    2.977033   3.794539   1.704999   0.000000
     5  C    2.453608   2.655972   1.532959   2.420626   0.000000
     6  C    2.470459   3.143410   1.434178   1.470013   2.533861
     7  H    2.687531   2.473292   2.176971   3.362754   1.103999
     8  H    3.401172   3.682780   2.195017   2.326320   1.093665
     9  H    2.764183   2.950253   2.168692   2.948229   1.094065
    10  O    3.007803   3.508750   2.496425   2.748566   3.635147
    11  H    1.007156   1.707439   2.098216   3.330566   3.384990
    12  O    3.534042   4.301968   2.285586   0.969360   3.023036
    13  H    3.889080   4.463613   3.282497   3.072000   4.405504
                    6          7          8          9         10
     6  C    0.000000
     7  H    3.067372   0.000000
     8  H    2.674246   1.773278   0.000000
     9  H    3.394436   1.773111   1.779659   0.000000
    10  O    1.347326   3.870792   3.828317   4.558898   0.000000
    11  H    2.764431   3.674118   4.253812   3.670463   3.024145
    12  O    1.334384   3.806730   2.744503   3.741153   2.325419
    13  H    1.939942   4.730745   4.431409   5.321676   0.981713
                   11         12         13
    11  H    0.000000
    12  O    3.798070   0.000000
    13  H    3.792026   2.400921   0.000000
 Stoichiometry    C3H7NO2
 Framework group  C1[X(C3H7NO2)]
 Deg. of freedom    33
 Full point group                 C1      NOp   1
 Largest Abelian subgroup         C1      NOp   1
 Largest concise Abelian subgroup C1      NOp   1
                         Standard orientation:                         
 ---------------------------------------------------------------------
 Center     Atomic      Atomic             Coordinates (Angstroms)
 Number     Number       Type             X           Y           Z
 ---------------------------------------------------------------------
      1          7           0        1.286945    1.253475   -0.421401
      2          1           0        1.896589    1.609622    0.304201
      3          6           0        0.647562    0.004371   -0.236673
      4          1           0       -0.437516   -1.122600   -0.914587
      5          6           0        1.544988   -1.017725    0.470372
      6          6           0       -0.758285   -0.052752    0.041171
      7          1           0        1.928166   -0.598851    1.417226
      8          1           0        1.012091   -1.942287    0.709765
      9          1           0        2.408375   -1.259106   -0.156745
     10          8           0       -1.532340    0.914718    0.570442
     11          1           0        0.839712    1.952351   -0.992292
     12          8           0       -1.314769   -1.136916   -0.502421
     13          1           0       -2.484749    0.760769    0.388848
 ---------------------------------------------------------------------
 Rotational constants (GHZ):      4.9481823      2.9761628      2.1712563
 Standard basis: 6-31G (6D, 7F)
 There are    68 symmetry adapted cartesian basis functions of A   symmetry.
 There are    68 symmetry adapted basis functions of A   symmetry.
    68 basis functions,   160 primitive gaussians,    68 cartesian basis functions
    24 alpha electrons       24 beta electrons
       nuclear repulsion energy       247.2550615574 Hartrees.
 NAtoms=   13 NActive=   13 NUniq=   13 SFac= 1.00D+00 NAtFMM=   60 NAOKFM=F Big=F
 Integral buffers will be    131072 words long.
 Raffenetti 2 integral format.
 Two-electron integral symmetry is turned on.
 One-electron integrals computed using PRISM.
 NBasis=    68 RedAO= T EigKep=  4.95D-03  NBF=    68
 NBsUse=    68 1.00D-06 EigRej= -1.00D+00 NBFU=    68
 ExpMin= 1.61D-01 ExpMax= 5.48D+03 ExpMxC= 8.25D+02 IAcc=1 IRadAn=         1 AccDes= 0.00D+00
 Harris functional with IExCor=  402 and IRadAn=       1 diagonalized for initial guess.
 HarFok:  IExCor=  402 AccDes= 0.00D+00 IRadAn=         1 IDoV= 1 UseB2=F ITyADJ=14
 ICtDFT=  3500011 ScaDFX=  1.000000  1.000000  1.000000  1.000000
 FoFCou: FMM=F IPFlag=           0 FMFlag=      100000 FMFlg1=           0
         NFxFlg=           0 DoJE=T BraDBF=F KetDBF=T FulRan=T
         wScrn=  0.000000 ICntrl=     500 IOpCl=  0 I1Cent=   200000004 NGrid=           0
         NMat0=    1 NMatS0=      1 NMatT0=    0 NMatD0=    1 NMtDS0=    0 NMtDT0=    0
 Petite list used in FoFCou.
 Keep R1 ints in memory in canonical form, NReq=3676491.
 Requested convergence on RMS density matrix=1.00D-08 within 128 cycles.
 Requested convergence on MAX density matrix=1.00D-06.
 Requested convergence on             energy=1.00D-06.
 No special actions if energy rises.
 Integral accuracy reduced to 1.0D-05 until final iterations.
 Initial convergence to 1.0D-05 achieved.  Increase integral accuracy.
 SCF Done:  E(RB3LYP) =  -323.506854332     A.U. after   15 cycles
            NFock= 15  Conv=0.97D-08     -V/T= 2.0044

 **********************************************************************

            Population analysis using the SCF density.

 **********************************************************************

 Orbital symmetries:
       Occupied  (A) (A) (A) (A) (A) (A) (A) (A) (A) (A) (A) (A)
                 (A) (A) (A) (A) (A) (A) (A) (A) (A) (A) (A) (A)
       Virtual   (A) (A) (A) (A) (A) (A) (A) (A) (A) (A) (A) (A)
                 (A) (A) (A) (A) (A) (A) (A) (A) (A) (A) (A) (A)
                 (A) (A) (A) (A) (A) (A) (A) (A) (A) (A) (A) (A)
                 (A) (A) (A) (A) (A) (A) (A) (A)
 The electronic state is 1-A.
 Alpha  occ. eigenvalues --  -19.20440 -19.17934 -14.30768 -10.31058 -10.20016
 Alpha  occ. eigenvalues --  -10.17651  -1.15032  -1.07647  -0.88292  -0.74022
 Alpha  occ. eigenvalues --   -0.67947  -0.61166  -0.53950  -0.52320  -0.49408
 Alpha  occ. eigenvalues --   -0.46072  -0.41981  -0.40358  -0.39092  -0.37846
 Alpha  occ. eigenvalues --   -0.36686  -0.34126  -0.26022  -0.16348
 Alpha virt. eigenvalues --   -0.00994   0.05025   0.09388   0.13116   0.14455
 Alpha virt. eigenvalues --    0.17514   0.18013   0.18225   0.20312   0.25397
 Alpha virt. eigenvalues --    0.26871   0.36973   0.42279   0.53055   0.57142
 Alpha virt. eigenvalues --    0.57708   0.58800   0.60745   0.63515   0.66015
 Alpha virt. eigenvalues --    0.70718   0.75688   0.76739   0.80752   0.82883
 Alpha virt. eigenvalues --    0.84003   0.86087   0.92675   0.93750   0.95227
 Alpha virt. eigenvalues --    0.96480   0.97394   0.98730   1.01537   1.03523
 Alpha virt. eigenvalues --    1.06429   1.10293   1.23117   1.26271   1.32846
 Alpha virt. eigenvalues --    1.38852   1.48470   1.83673   1.90440
          Condensed to atoms (all electrons):
               1          2          3          4          5          6
     1  N    6.955112   0.308661   0.259772  -0.003070  -0.063089  -0.068831
     2  H    0.308661   0.472013  -0.036648   0.000605   0.000162  -0.003743
     3  C    0.259772  -0.036648   5.294605   0.085142   0.385771   0.332205
     4  H   -0.003070   0.000605   0.085142   0.425401   0.012703  -0.083242
     5  C   -0.063089   0.000162   0.385771   0.012703   5.098017  -0.099554
     6  C   -0.068831  -0.003743   0.332205  -0.083242  -0.099554   5.193272
     7  H   -0.005213   0.009602  -0.060465   0.001593   0.383910  -0.013154
     8  H    0.004326  -0.000060  -0.033520  -0.000465   0.361413   0.002185
     9  H    0.005007  -0.002563  -0.035273  -0.003997   0.349105   0.008719
    10  O    0.000257   0.000449  -0.066983   0.010258   0.001503   0.220088
    11  H    0.337229  -0.032667  -0.036530  -0.000161   0.004876  -0.002243
    12  O    0.004576  -0.000217  -0.167129   0.187955  -0.004923   0.155426
    13  H   -0.000729  -0.000049   0.004135  -0.001906  -0.000241  -0.020995
               7          8          9         10         11         12
     1  N   -0.005213   0.004326   0.005007   0.000257   0.337229   0.004576
     2  H    0.009602  -0.000060  -0.002563   0.000449  -0.032667  -0.000217
     3  C   -0.060465  -0.033520  -0.035273  -0.066983  -0.036530  -0.167129
     4  H    0.001593  -0.000465  -0.003997   0.010258  -0.000161   0.187955
     5  C    0.383910   0.361413   0.349105   0.001503   0.004876  -0.004923
     6  C   -0.013154   0.002185   0.008719   0.220088  -0.002243   0.155426
     7  H    0.628373  -0.028628  -0.050358   0.000486   0.000015   0.000048
     8  H   -0.028628   0.577302  -0.026591  -0.000060  -0.000173   0.004337
     9  H   -0.050358  -0.026591   0.606615  -0.000064  -0.000077   0.000453
    10  O    0.000486  -0.000060  -0.000064   8.226557   0.001938  -0.078910
    11  H    0.000015  -0.000173  -0.000077   0.001938   0.430761   0.000180
    12  O    0.000048   0.004337   0.000453  -0.078910   0.000180   8.401732
    13  H   -0.000038   0.000000   0.000009   0.232917  -0.000078  -0.000474
              13
     1  N   -0.000729
     2  H   -0.000049
     3  C    0.004135
     4  H   -0.001906
     5  C   -0.000241
     6  C   -0.020995
     7  H   -0.000038
     8  H    0.000000
     9  H    0.000009
    10  O    0.232917
    11  H   -0.000078
    12  O   -0.000474
    13  H    0.400427
 Mulliken charges:
               1
     1  N   -0.734009
     2  H    0.284454
     3  C    0.074917
     4  H    0.369186
     5  C   -0.429654
     6  C    0.379869
     7  H    0.133830
     8  H    0.139933
     9  H    0.149015
    10  O   -0.548438
    11  H    0.296930
    12  O   -0.503056
    13  H    0.387023
 Sum of Mulliken charges =   0.00000
 Mulliken charges with hydrogens summed into heavy atoms:
               1
     1  N   -0.152625
     3  C    0.074917
     5  C   -0.006876
     6  C    0.379869
    10  O   -0.161415
    12  O   -0.133870
 Electronic spatial extent (au):  <R**2>=            600.1700
 Charge=              0.0000 electrons
 Dipole moment (field-independent basis, Debye):
    X=             -0.6853    Y=              1.0777    Z=              0.2203  Tot=              1.2961
 Quadrupole moment (field-independent basis, Debye-Ang):
   XX=            -32.4615   YY=            -35.7175   ZZ=            -37.4747
   XY=             -2.2817   XZ=              1.8691   YZ=             -1.3741
 Traceless Quadrupole moment (field-independent basis, Debye-Ang):
   XX=              2.7564   YY=             -0.4996   ZZ=             -2.2568
   XY=             -2.2817   XZ=              1.8691   YZ=             -1.3741
 Octapole moment (field-independent basis, Debye-Ang**2):
  XXX=            -28.9422  YYY=             10.4823  ZZZ=             -0.9958  XYY=              5.4378
  XXY=             11.6898  XXZ=              8.8295  XZZ=             -3.4623  YZZ=              0.7168
  YYZ=             -3.5468  XYZ=              4.1409
 Hexadecapole moment (field-independent basis, Debye-Ang**3):
 XXXX=           -348.2486 YYYY=           -226.5808 ZZZZ=            -86.7410 XXXY=            -19.5350
 XXXZ=             -4.1422 YYYX=             10.1088 YYYZ=             -4.6916 ZZZX=              1.9477
 ZZZY=              2.2593 XXYY=           -108.3512 XXZZ=            -86.1851 YYZZ=            -50.6594
 XXYZ=              5.1195 YYXZ=              0.4195 ZZXY=              1.9569
 N-N= 2.472550615574D+02 E-N=-1.252072849730D+03  KE= 3.220766996173D+02
 Calling FoFJK, ICntrl=      2127 FMM=F ISym2X=0 I1Cent= 0 IOpClX= 0 NMat=1 NMatS=1 NMatT=0.
 ***** Axes restored to original set *****
 -------------------------------------------------------------------
 Center     Atomic                   Forces (Hartrees/Bohr)
 Number     Number              X              Y              Z
 -------------------------------------------------------------------
      1        7           0.000683038    0.000735174    0.003293035
      2        1          -0.000565592   -0.001662099    0.000538589
      3        6           0.011479206   -0.025879333    0.031508848
      4        1          -0.024423683    0.060677504   -0.059238930
      5        6           0.001474563    0.003676348   -0.015757991
      6        6          -0.046044501   -0.058691619    0.032441530
      7        1           0.001586874   -0.000973426   -0.001016304
      8        1           0.000011038    0.000676302    0.000643178
      9        1          -0.002118269    0.001740961    0.000949591
     10        8           0.008930492   -0.004886670   -0.002389627
     11        1           0.001025022   -0.000105191    0.000595445
     12        8           0.047047856    0.027586399    0.010736081
     13        1           0.000913957   -0.002894350   -0.002303445
 -------------------------------------------------------------------
 Cartesian Forces:  Max     0.060677504 RMS     0.022479147

 GradGradGradGradGradGradGradGradGradGradGradGradGradGradGradGradGradGrad
 Berny optimization.
 FormGI is forming the generalized inverse of G from B-inverse, IUseBI=4.
 Internal  Forces:  Max     0.138053604 RMS     0.027926624
 Search for a local minimum.
 Step number   1 out of a maximum of   57
 All quantities printed in internal units (Hartrees-Bohrs-Radians)
 Mixed Optimization -- RFO/linear search
 Second derivative matrix not updated -- first step.
 ITU=  0
     Eigenvalues ---    0.00330   0.01489   0.01637   0.01839   0.02149
     Eigenvalues ---    0.02378   0.02389   0.02560   0.06850   0.07156
     Eigenvalues ---    0.16000   0.16000   0.16000   0.16000   0.16000
     Eigenvalues ---    0.16000   0.16000   0.21200   0.22616   0.24772
     Eigenvalues ---    0.24886   0.29152   0.33244   0.34347   0.34393
     Eigenvalues ---    0.40395   0.43169   0.45569   0.46452   0.51054
     Eigenvalues ---    0.53508   0.55594   0.58482
 RFO step:  Lambda=-1.06765735D-01 EMin= 3.29958810D-03
 Linear search not attempted -- first point.
 Maximum step size (   0.300) exceeded in Quadratic search.
    -- Step size scaled by   0.522
 Iteration  1 RMS(Cart)=  0.08379784 RMS(Int)=  0.01568817
 Iteration  2 RMS(Cart)=  0.02864399 RMS(Int)=  0.00141293
 Iteration  3 RMS(Cart)=  0.00140019 RMS(Int)=  0.00006727
 Iteration  4 RMS(Cart)=  0.00000357 RMS(Int)=  0.00006724
 Iteration  5 RMS(Cart)=  0.00000000 RMS(Int)=  0.00006724
 Variable       Old X    -DE/DX   Delta X   Delta X   Delta X     New X
                                 (Linear)    (Quad)   (Total)
    R1        1.91321   0.00132   0.00000   0.00123   0.00123   1.91444
    R2        2.67461  -0.00018   0.00000  -0.00017  -0.00017   2.67444
    R3        1.90325   0.00019   0.00000   0.00017   0.00017   1.90342
    R4        2.89687  -0.00426   0.00000  -0.00558  -0.00558   2.89129
    R5        2.71020  -0.01623   0.00000  -0.01657  -0.01657   2.69363
    R6        1.83182   0.04587   0.00000   0.03727   0.03727   1.86909
    R7        2.08626  -0.00104   0.00000  -0.00123  -0.00123   2.08502
    R8        2.06673   0.00072   0.00000   0.00083   0.00083   2.06756
    R9        2.06748   0.00152   0.00000   0.00176   0.00176   2.06924
   R10        2.54608   0.00947   0.00000   0.00745   0.00745   2.55353
   R11        2.52162   0.10109   0.00000   0.07623   0.07623   2.59785
   R12        1.85517   0.00084   0.00000   0.00071   0.00071   1.85588
    A1        2.08167   0.00173   0.00000   0.00308   0.00308   2.08475
    A2        2.01478  -0.00053   0.00000  -0.00139  -0.00139   2.01339
    A3        2.07806  -0.00163   0.00000  -0.00350  -0.00350   2.07456
    A4        1.96510   0.00309   0.00000   0.00674   0.00673   1.97183
    A5        2.09817  -0.00782   0.00000  -0.01093  -0.01104   2.08713
    A6        2.04648   0.00697   0.00000   0.01298   0.01298   2.05946
    A7        1.92388  -0.00366   0.00000  -0.00770  -0.00770   1.91618
    A8        1.95990   0.00052   0.00000   0.00100   0.00099   1.96089
    A9        1.92273   0.00423   0.00000   0.00882   0.00882   1.93155
   A10        1.87773   0.00041   0.00000  -0.00023  -0.00024   1.87749
   A11        1.87697  -0.00024   0.00000  -0.00044  -0.00042   1.87656
   A12        1.90020  -0.00137   0.00000  -0.00170  -0.00172   1.89848
   A13        2.22770  -0.02368   0.00000  -0.03415  -0.03418   2.19352
   A14        1.94146   0.05286   0.00000   0.07808   0.07808   2.01954
   A15        2.09885  -0.02856   0.00000  -0.04133  -0.04137   2.05748
   A16        1.95206   0.00279   0.00000   0.00545   0.00545   1.95751
   A17        1.35288   0.13805   0.00000   0.26989   0.26989   1.62277
    D1       -0.65974  -0.00350   0.00000  -0.01079  -0.01074  -0.67048
    D2        1.86608   0.00281   0.00000   0.00813   0.00809   1.87417
    D3        2.98748  -0.00242   0.00000  -0.00649  -0.00645   2.98103
    D4       -0.76988   0.00388   0.00000   0.01243   0.01238  -0.75750
    D5        0.93770   0.00092   0.00000   0.00676   0.00681   0.94451
    D6        3.03107  -0.00073   0.00000   0.00185   0.00191   3.03298
    D7       -1.13095   0.00086   0.00000   0.00660   0.00667  -1.12428
    D8       -1.60776   0.00040   0.00000  -0.00253  -0.00260  -1.61036
    D9        0.48561  -0.00125   0.00000  -0.00743  -0.00750   0.47811
   D10        2.60677   0.00034   0.00000  -0.00269  -0.00274   2.60404
   D11       -0.40013   0.00664   0.00000   0.02764   0.02759  -0.37254
   D12        2.55316   0.00868   0.00000   0.04108   0.04120   2.59436
   D13        2.09813   0.01159   0.00000   0.04478   0.04466   2.14280
   D14       -1.23177   0.01363   0.00000   0.05822   0.05827  -1.17349
   D15        2.80661   0.00201   0.00000   0.00120   0.00096   2.80757
   D16       -0.13159  -0.00787   0.00000  -0.02457  -0.02433  -0.15591
   D17       -0.20083  -0.00263   0.00000  -0.01318  -0.01326  -0.21408
   D18        2.76830  -0.00104   0.00000  -0.00128  -0.00120   2.76709
         Item               Value     Threshold  Converged?
 Maximum Force            0.138054     0.000450     NO 
 RMS     Force            0.027927     0.000300     NO 
 Maximum Displacement     0.553186     0.001800     NO 
 RMS     Displacement     0.109384     0.001200     NO 
 Predicted change in Energy=-4.644922D-02
 GradGradGradGradGradGradGradGradGradGradGradGradGradGradGradGradGradGrad

                          Input orientation:                          
 ---------------------------------------------------------------------
 Center     Atomic      Atomic             Coordinates (Angstroms)
 Number     Number       Type             X           Y           Z
 ---------------------------------------------------------------------
      1          7           0       -1.274159   -1.296339   -0.379526
      2          1           0       -1.868469   -1.662216    0.354811
      3          6           0       -0.662678   -0.030788   -0.213970
      4          1           0        0.594067    1.423113   -1.009322
      5          6           0       -1.572883    0.986524    0.477062
      6          6           0        0.738460    0.046439    0.036308
      7          1           0       -1.936251    0.573535    1.433504
      8          1           0       -1.055709    1.925083    0.697760
      9          1           0       -2.449345    1.204250   -0.142147
     10          8           0        1.506513   -0.948635    0.532141
     11          1           0       -0.811997   -1.989296   -0.945888
     12          8           0        1.371633    1.162857   -0.456203
     13          1           0        2.460955   -0.805495    0.350357
 ---------------------------------------------------------------------
                    Distance matrix (angstroms):
                    1          2          3          4          5
     1  N    0.000000
     2  H    1.013076   0.000000
     3  C    1.415251   2.106894   0.000000
     4  H    3.358918   4.176626   2.079861   0.000000
     5  C    2.456510   2.667985   1.530007   2.663760   0.000000
     6  C    2.454914   3.133213   1.425409   1.734769   2.533837
     7  H    2.687354   2.483296   2.168263   3.618244   1.103348
     8  H    3.403795   3.694172   2.193435   2.426492   1.094106
     9  H    2.773149   2.966651   2.173168   3.172105   1.094994
    10  O    2.946892   3.454149   2.470731   2.972180   3.637382
    11  H    1.007248   1.707317   2.096128   3.691283   3.385149
    12  O    3.612996   4.374591   2.371052   0.989082   3.093905
    13  H    3.837283   4.413378   3.267372   3.209469   4.415794
                    6          7          8          9         10
     6  C    0.000000
     7  H    3.063342   0.000000
     8  H    2.680646   1.772951   0.000000
     9  H    3.396244   1.773060   1.779681   0.000000
    10  O    1.351269   3.870669   3.853656   4.553942   0.000000
    11  H    2.740956   3.673357   4.252450   3.677723   2.939903
    12  O    1.374723   3.854918   2.793673   3.834087   2.335254
    13  H    1.947154   4.733958   4.465834   5.328479   0.982087
                   11         12         13
    11  H    0.000000
    12  O    3.865759   0.000000
    13  H    3.714007   2.389889   0.000000
 Stoichiometry    C3H7NO2
 Framework group  C1[X(C3H7NO2)]
 Deg. of freedom    33
 Full point group                 C1      NOp   1
 Largest Abelian subgroup         C1      NOp   1
 Largest concise Abelian subgroup C1      NOp   1
                         Standard orientation:                         
 ---------------------------------------------------------------------
 Center     Atomic      Atomic             Coordinates (Angstroms)
 Number     Number       Type             X           Y           Z
 ---------------------------------------------------------------------
      1          7           0        1.315993    1.228273   -0.426469
      2          1           0        1.938575    1.576975    0.292642
      3          6           0        0.659397   -0.011085   -0.237235
      4          1           0       -0.668339   -1.421699   -0.994273
      5          6           0        1.543151   -1.057131    0.445179
      6          6           0       -0.738401   -0.031629    0.041206
      7          1           0        1.941272   -0.650488    1.390439
      8          1           0        0.994536   -1.972957    0.684663
      9          1           0        2.397981   -1.314030   -0.189077
     10          8           0       -1.457290    0.996738    0.542792
     11          1           0        0.869787    1.933851   -0.990036
     12          8           0       -1.424040   -1.126712   -0.428428
     13          1           0       -2.420000    0.889293    0.381114
 ---------------------------------------------------------------------
 Rotational constants (GHZ):      4.8730362      2.9689756      2.1214324
 Standard basis: 6-31G (6D, 7F)
 There are    68 symmetry adapted cartesian basis functions of A   symmetry.
 There are    68 symmetry adapted basis functions of A   symmetry.
    68 basis functions,   160 primitive gaussians,    68 cartesian basis functions
    24 alpha electrons       24 beta electrons
       nuclear repulsion energy       245.0290555865 Hartrees.
 NAtoms=   13 NActive=   13 NUniq=   13 SFac= 1.00D+00 NAtFMM=   60 NAOKFM=F Big=F
 Integral buffers will be    131072 words long.
 Raffenetti 2 integral format.
 Two-electron integral symmetry is turned on.
 One-electron integrals computed using PRISM.
 NBasis=    68 RedAO= T EigKep=  5.05D-03  NBF=    68
 NBsUse=    68 1.00D-06 EigRej= -1.00D+00 NBFU=    68
 Initial guess from the checkpoint file:  "Ala-S-opt-freq-p2-6-31g.chk"
 B after Tr=     0.000000    0.000000    0.000000
         Rot=    0.999766    0.009530   -0.008932    0.017226 Ang=   2.48 deg.
 ExpMin= 1.61D-01 ExpMax= 5.48D+03 ExpMxC= 8.25D+02 IAcc=1 IRadAn=         1 AccDes= 0.00D+00
 Harris functional with IExCor=  402 and IRadAn=       1 diagonalized for initial guess.
 HarFok:  IExCor=  402 AccDes= 0.00D+00 IRadAn=         1 IDoV= 1 UseB2=F ITyADJ=14
 ICtDFT=  3500011 ScaDFX=  1.000000  1.000000  1.000000  1.000000
 FoFCou: FMM=F IPFlag=           0 FMFlag=      100000 FMFlg1=           0
         NFxFlg=           0 DoJE=T BraDBF=F KetDBF=T FulRan=T
         wScrn=  0.000000 ICntrl=     500 IOpCl=  0 I1Cent=   200000004 NGrid=           0
         NMat0=    1 NMatS0=      1 NMatT0=    0 NMatD0=    1 NMtDS0=    0 NMtDT0=    0
 Petite list used in FoFCou.
 Keep R1 ints in memory in canonical form, NReq=3676491.
 Requested convergence on RMS density matrix=1.00D-08 within 128 cycles.
 Requested convergence on MAX density matrix=1.00D-06.
 Requested convergence on             energy=1.00D-06.
 No special actions if energy rises.
 Integral accuracy reduced to 1.0D-05 until final iterations.
 Initial convergence to 1.0D-05 achieved.  Increase integral accuracy.
 SCF Done:  E(RB3LYP) =  -323.546059786     A.U. after   15 cycles
            NFock= 15  Conv=0.54D-08     -V/T= 2.0054
 Calling FoFJK, ICntrl=      2127 FMM=F ISym2X=0 I1Cent= 0 IOpClX= 0 NMat=1 NMatS=1 NMatT=0.
 ***** Axes restored to original set *****
 -------------------------------------------------------------------
 Center     Atomic                   Forces (Hartrees/Bohr)
 Number     Number              X              Y              Z
 -------------------------------------------------------------------
      1        7          -0.000286178    0.001381810    0.002801873
      2        1          -0.000429764   -0.001160100    0.000138882
      3        6           0.026180675   -0.016947104    0.031867576
      4        1           0.016187080    0.023553513   -0.008111399
      5        6           0.001278028    0.004174365   -0.019836368
      6        6          -0.057768149   -0.015116253   -0.003649819
      7        1           0.001433845   -0.000719323   -0.000898172
      8        1           0.000352288    0.000355006    0.000746148
      9        1          -0.002405158    0.001741492    0.001204396
     10        8           0.013399779   -0.005115251   -0.003822582
     11        1           0.001580748   -0.000221019    0.001250010
     12        8           0.000703061    0.010467310    0.001266193
     13        1          -0.000226255   -0.002394446   -0.002956737
 -------------------------------------------------------------------
 Cartesian Forces:  Max     0.057768149 RMS     0.013623846

 GradGradGradGradGradGradGradGradGradGradGradGradGradGradGradGradGradGrad
 Berny optimization.
 Using GEDIIS/GDIIS optimizer.
 FormGI is forming the generalized inverse of G from B-inverse, IUseBI=4.
 Internal  Forces:  Max     0.055385277 RMS     0.013170204
 Search for a local minimum.
 Step number   2 out of a maximum of   57
 All quantities printed in internal units (Hartrees-Bohrs-Radians)
 Mixed Optimization -- RFO/linear search
 Update second derivatives using D2CorX and points    1    2
 DE= -3.92D-02 DEPred=-4.64D-02 R= 8.44D-01
 TightC=F SS=  1.41D+00  RLast= 3.15D-01 DXNew= 5.0454D-01 9.4429D-01
 Trust test= 8.44D-01 RLast= 3.15D-01 DXMaxT set to 5.05D-01
 ITU=  1  0
 Use linear search instead of GDIIS.
     Eigenvalues ---    0.00330   0.01488   0.01569   0.01779   0.02128
     Eigenvalues ---    0.02386   0.02392   0.02563   0.06819   0.07164
     Eigenvalues ---    0.15947   0.16000   0.16000   0.16000   0.16000
     Eigenvalues ---    0.16000   0.20903   0.22632   0.23342   0.23525
     Eigenvalues ---    0.26431   0.29197   0.33243   0.34346   0.34392
     Eigenvalues ---    0.40442   0.43170   0.45568   0.46452   0.51054
     Eigenvalues ---    0.54752   0.55478   0.69648
 RFO step:  Lambda=-6.40658310D-02 EMin= 3.29959188D-03
 Quartic linear search produced a step of  1.64289.
 Iteration  1 RMS(Cart)=  0.19256868 RMS(Int)=  0.08208155
 Iteration  2 RMS(Cart)=  0.15039339 RMS(Int)=  0.02109117
 Iteration  3 RMS(Cart)=  0.03414087 RMS(Int)=  0.00278895
 Iteration  4 RMS(Cart)=  0.00190527 RMS(Int)=  0.00216608
 Iteration  5 RMS(Cart)=  0.00000696 RMS(Int)=  0.00216608
 Iteration  6 RMS(Cart)=  0.00000000 RMS(Int)=  0.00216608
 Variable       Old X    -DE/DX   Delta X   Delta X   Delta X     New X
                                 (Linear)    (Quad)   (Total)
    R1        1.91444   0.00077   0.00202   0.00077   0.00279   1.91722
    R2        2.67444  -0.00086  -0.00029  -0.00387  -0.00415   2.67028
    R3        1.90342   0.00017   0.00029   0.00040   0.00069   1.90411
    R4        2.89129  -0.00519  -0.00917  -0.02331  -0.03247   2.85882
    R5        2.69363  -0.02965  -0.02722  -0.11702  -0.14425   2.54939
    R6        1.86909  -0.00199   0.06123  -0.09676  -0.03553   1.83356
    R7        2.08502  -0.00098  -0.00202  -0.00328  -0.00530   2.07972
    R8        2.06756   0.00062   0.00137   0.00183   0.00320   2.07076
    R9        2.06924   0.00159   0.00288   0.00558   0.00846   2.07770
   R10        2.55353   0.01053   0.01224   0.02390   0.03614   2.58967
   R11        2.59785   0.03786   0.12524  -0.03927   0.08597   2.68382
   R12        1.85588  -0.00002   0.00116  -0.00176  -0.00060   1.85528
    A1        2.08475   0.00151   0.00506   0.00594   0.01071   2.09546
    A2        2.01339  -0.00035  -0.00228  -0.00590  -0.00852   2.00487
    A3        2.07456  -0.00186  -0.00575  -0.01761  -0.02364   2.05092
    A4        1.97183   0.00275   0.01106   0.03235   0.03936   2.01120
    A5        2.08713  -0.00794  -0.01813  -0.02164  -0.04674   2.04039
    A6        2.05946   0.00827   0.02132   0.06653   0.08501   2.14446
    A7        1.91618  -0.00325  -0.01264  -0.02509  -0.03770   1.87848
    A8        1.96089  -0.00019   0.00163  -0.00435  -0.00327   1.95763
    A9        1.93155   0.00475   0.01449   0.03950   0.05391   1.98546
   A10        1.87749   0.00030  -0.00039  -0.00640  -0.00727   1.87022
   A11        1.87656  -0.00059  -0.00069  -0.00495  -0.00514   1.87141
   A12        1.89848  -0.00115  -0.00282   0.00007  -0.00329   1.89519
   A13        2.19352  -0.00906  -0.05616   0.00655  -0.05020   2.14331
   A14        2.01954   0.03248   0.12827   0.08632   0.21429   2.23383
   A15        2.05748  -0.02312  -0.06796  -0.08813  -0.15686   1.90063
   A16        1.95751   0.00111   0.00895   0.00110   0.01005   1.96755
   A17        1.62277   0.05539   0.44340   0.05755   0.50095   2.12372
    D1       -0.67048  -0.00417  -0.01765  -0.07400  -0.08869  -0.75917
    D2        1.87417   0.00393   0.01329   0.07497   0.08545   1.95961
    D3        2.98103  -0.00258  -0.01059  -0.03466  -0.04244   2.93859
    D4       -0.75750   0.00552   0.02034   0.11431   0.13170  -0.62581
    D5        0.94451   0.00178   0.01119   0.06977   0.08381   1.02832
    D6        3.03298  -0.00017   0.00314   0.04187   0.04824   3.08122
    D7       -1.12428   0.00163   0.01097   0.06728   0.08188  -1.04239
    D8       -1.61036  -0.00022  -0.00427  -0.04426  -0.05216  -1.66252
    D9        0.47811  -0.00217  -0.01232  -0.07216  -0.08773   0.39038
   D10        2.60404  -0.00037  -0.00450  -0.04675  -0.05408   2.54995
   D11       -0.37254   0.00919   0.04532   0.24998   0.29475  -0.07779
   D12        2.59436   0.00936   0.06769   0.27441   0.34506   2.93942
   D13        2.14280   0.01547   0.07338   0.39287   0.46328   2.60608
   D14       -1.17349   0.01565   0.09574   0.41730   0.51359  -0.65990
   D15        2.80757  -0.00064   0.00158  -0.05597  -0.05827   2.74930
   D16       -0.15591  -0.00583  -0.03996  -0.09676  -0.13285  -0.28876
   D17       -0.21408   0.00012  -0.02178   0.01161  -0.00990  -0.22398
   D18        2.76709   0.00121  -0.00198   0.04232   0.04007   2.80716
         Item               Value     Threshold  Converged?
 Maximum Force            0.055385     0.000450     NO 
 RMS     Force            0.013170     0.000300     NO 
 Maximum Displacement     1.052075     0.001800     NO 
 RMS     Displacement     0.358069     0.001200     NO 
 Predicted change in Energy=-2.739043D-02
 GradGradGradGradGradGradGradGradGradGradGradGradGradGradGradGradGradGrad

                          Input orientation:                          
 ---------------------------------------------------------------------
 Center     Atomic      Atomic             Coordinates (Angstroms)
 Number     Number       Type             X           Y           Z
 ---------------------------------------------------------------------
      1          7           0       -1.255058   -1.395623   -0.180813
      2          1           0       -1.831915   -1.733298    0.582422
      3          6           0       -0.712358   -0.091756   -0.134675
      4          1           0        1.089307    1.979847   -0.560374
      5          6           0       -1.663465    0.986382    0.336118
      6          6           0        0.627186    0.007874   -0.009363
      7          1           0       -2.001299    0.714355    1.347585
      8          1           0       -1.175288    1.964603    0.410565
      9          1           0       -2.561183    1.089489   -0.290228
     10          8           0        1.440037   -1.082215    0.160802
     11          1           0       -0.719559   -2.106152   -0.653750
     12          8           0        1.435912    1.165121   -0.163476
     13          1           0        2.367819   -0.909593   -0.109929
 ---------------------------------------------------------------------
                    Distance matrix (angstroms):
                    1          2          3          4          5
     1  N    0.000000
     2  H    1.014552   0.000000
     3  C    1.413054   2.112414   0.000000
     4  H    4.127216   4.860758   2.778265   0.000000
     5  C    2.471429   2.736000   1.512823   3.060789   0.000000
     6  C    2.354154   3.070678   1.349077   2.099011   2.514740
     7  H    2.710144   2.570053   2.123271   3.846248   1.100543
     8  H    3.412800   3.759676   2.177201   2.464010   1.095799
     9  H    2.809575   3.043267   2.199475   3.767200   1.099472
    10  O    2.734678   3.362639   2.387701   3.165333   3.733839
    11  H    1.007612   1.704253   2.080212   4.469464   3.381503
    12  O    3.714705   4.431240   2.489103   0.970279   3.144469
    13  H    3.656021   4.335390   3.186998   3.191607   4.477156
                    6          7          8          9         10
     6  C    0.000000
     7  H    3.041276   0.000000
     8  H    2.693332   1.767320   0.000000
     9  H    3.378531   1.771053   1.782594   0.000000
    10  O    1.370392   4.059422   4.023108   4.574875   0.000000
    11  H    2.588062   3.688287   4.232198   3.706191   2.525034
    12  O    1.420215   3.781655   2.790530   3.999819   2.270615
    13  H    1.970193   4.883722   4.591897   5.322020   0.981771
                   11         12         13
    11  H    0.000000
    12  O    3.948120   0.000000
    13  H    3.355503   2.275028   0.000000
 Stoichiometry    C3H7NO2
 Framework group  C1[X(C3H7NO2)]
 Deg. of freedom    33
 Full point group                 C1      NOp   1
 Largest Abelian subgroup         C1      NOp   1
 Largest concise Abelian subgroup C1      NOp   1
                         Standard orientation:                         
 ---------------------------------------------------------------------
 Center     Atomic      Atomic             Coordinates (Angstroms)
 Number     Number       Type             X           Y           Z
 ---------------------------------------------------------------------
      1          7           0        1.290228    1.279099   -0.221309
      2          1           0        1.929154    1.556304    0.516421
      3          6           0        0.680357    0.004873   -0.187754
      4          1           0       -1.254623   -1.950908   -0.574450
      5          6           0        1.597056   -1.139230    0.185508
      6          6           0       -0.652810   -0.028683    0.016078
      7          1           0        2.008900   -0.924457    1.183231
      8          1           0        1.061120   -2.092469    0.255395
      9          1           0        2.448899   -1.265424   -0.498069
     10          8           0       -1.392925    1.095432    0.274088
     11          1           0        0.767429    2.034532   -0.635173
     12          8           0       -1.531680   -1.134876   -0.128611
     13          1           0       -2.343254    0.982526    0.054996
 ---------------------------------------------------------------------
 Rotational constants (GHZ):      4.9476904      3.1301232      2.0036184
 Standard basis: 6-31G (6D, 7F)
 There are    68 symmetry adapted cartesian basis functions of A   symmetry.
 There are    68 symmetry adapted basis functions of A   symmetry.
    68 basis functions,   160 primitive gaussians,    68 cartesian basis functions
    24 alpha electrons       24 beta electrons
       nuclear repulsion energy       245.1408371483 Hartrees.
 NAtoms=   13 NActive=   13 NUniq=   13 SFac= 1.00D+00 NAtFMM=   60 NAOKFM=F Big=F
 Integral buffers will be    131072 words long.
 Raffenetti 2 integral format.
 Two-electron integral symmetry is turned on.
 One-electron integrals computed using PRISM.
 NBasis=    68 RedAO= T EigKep=  3.22D-03  NBF=    68
 NBsUse=    68 1.00D-06 EigRej= -1.00D+00 NBFU=    68
 Initial guess from the checkpoint file:  "Ala-S-opt-freq-p2-6-31g.chk"
 B after Tr=     0.000000    0.000000    0.000000
         Rot=    0.999855   -0.000385   -0.013334    0.010628 Ang=  -1.95 deg.
 ExpMin= 1.61D-01 ExpMax= 5.48D+03 ExpMxC= 8.25D+02 IAcc=1 IRadAn=         1 AccDes= 0.00D+00
 Harris functional with IExCor=  402 and IRadAn=       1 diagonalized for initial guess.
 HarFok:  IExCor=  402 AccDes= 0.00D+00 IRadAn=         1 IDoV= 1 UseB2=F ITyADJ=14
 ICtDFT=  3500011 ScaDFX=  1.000000  1.000000  1.000000  1.000000
 FoFCou: FMM=F IPFlag=           0 FMFlag=      100000 FMFlg1=           0
         NFxFlg=           0 DoJE=T BraDBF=F KetDBF=T FulRan=T
         wScrn=  0.000000 ICntrl=     500 IOpCl=  0 I1Cent=   200000004 NGrid=           0
         NMat0=    1 NMatS0=      1 NMatT0=    0 NMatD0=    1 NMtDS0=    0 NMtDT0=    0
 Petite list used in FoFCou.
 Keep R1 ints in memory in canonical form, NReq=3676491.
 Requested convergence on RMS density matrix=1.00D-08 within 128 cycles.
 Requested convergence on MAX density matrix=1.00D-06.
 Requested convergence on             energy=1.00D-06.
 No special actions if energy rises.
 Integral accuracy reduced to 1.0D-05 until final iterations.
 Initial convergence to 1.0D-05 achieved.  Increase integral accuracy.
 SCF Done:  E(RB3LYP) =  -323.579591952     A.U. after   15 cycles
            NFock= 15  Conv=0.46D-08     -V/T= 2.0057
 Calling FoFJK, ICntrl=      2127 FMM=F ISym2X=0 I1Cent= 0 IOpClX= 0 NMat=1 NMatS=1 NMatT=0.
 ***** Axes restored to original set *****
 -------------------------------------------------------------------
 Center     Atomic                   Forces (Hartrees/Bohr)
 Number     Number              X              Y              Z
 -------------------------------------------------------------------
      1        7          -0.011137866   -0.003610466   -0.007097298
      2        1           0.001829602    0.002878305   -0.001551367
      3        6          -0.002554564   -0.007929800    0.024425123
      4        1          -0.013310194   -0.005685700   -0.001191348
      5        6           0.001429946    0.002139043   -0.009200449
      6        6           0.009276978    0.029588503   -0.015676066
      7        1          -0.001723455    0.001763389    0.000632851
      8        1          -0.000434384   -0.000167221    0.000267197
      9        1           0.003279829   -0.001626251   -0.000525852
     10        8           0.007684032   -0.010428072   -0.002926002
     11        1           0.001762199   -0.000136483    0.002491886
     12        8           0.009429225   -0.010397435    0.010516936
     13        1          -0.005531348    0.003612188   -0.000165611
 -------------------------------------------------------------------
 Cartesian Forces:  Max     0.029588503 RMS     0.008674120

 GradGradGradGradGradGradGradGradGradGradGradGradGradGradGradGradGradGrad
 Berny optimization.
 Using GEDIIS/GDIIS optimizer.
 FormGI is forming the generalized inverse of G from B-inverse, IUseBI=4.
 Internal  Forces:  Max     0.026563278 RMS     0.006012467
 Search for a local minimum.
 Step number   3 out of a maximum of   57
 All quantities printed in internal units (Hartrees-Bohrs-Radians)
 Mixed Optimization -- RFO/linear search
 Update second derivatives using D2CorX and points    2    3
 DE= -3.35D-02 DEPred=-2.74D-02 R= 1.22D+00
 TightC=F SS=  1.41D+00  RLast= 1.07D+00 DXNew= 8.4853D-01 3.2073D+00
 Trust test= 1.22D+00 RLast= 1.07D+00 DXMaxT set to 8.49D-01
 ITU=  1  1  0
 Use linear search instead of GDIIS.
     Eigenvalues ---    0.00330   0.01321   0.01487   0.01879   0.02032
     Eigenvalues ---    0.02412   0.02564   0.02575   0.06548   0.07326
     Eigenvalues ---    0.15457   0.16000   0.16000   0.16000   0.16000
     Eigenvalues ---    0.16111   0.17968   0.23372   0.23501   0.23701
     Eigenvalues ---    0.25423   0.29197   0.33245   0.34363   0.34393
     Eigenvalues ---    0.41183   0.43218   0.45591   0.46452   0.51080
     Eigenvalues ---    0.54993   0.55859   0.66850
 RFO step:  Lambda=-1.28069464D-02 EMin= 3.29950399D-03
 Quartic linear search produced a step of -0.07560.
 Iteration  1 RMS(Cart)=  0.11842877 RMS(Int)=  0.01368590
 Iteration  2 RMS(Cart)=  0.02704955 RMS(Int)=  0.00206673
 Iteration  3 RMS(Cart)=  0.00038184 RMS(Int)=  0.00205364
 Iteration  4 RMS(Cart)=  0.00000025 RMS(Int)=  0.00205364
 Variable       Old X    -DE/DX   Delta X   Delta X   Delta X     New X
                                 (Linear)    (Quad)   (Total)
    R1        1.91722  -0.00316  -0.00021  -0.00566  -0.00587   1.91136
    R2        2.67028   0.00390   0.00031   0.00785   0.00817   2.67845
    R3        1.90411  -0.00014  -0.00005  -0.00025  -0.00030   1.90381
    R4        2.85882  -0.00285   0.00245  -0.00740  -0.00494   2.85388
    R5        2.54939   0.00711   0.01090   0.02108   0.03198   2.58137
    R6        1.83356   0.00047   0.00269   0.01555   0.01824   1.85180
    R7        2.07972   0.00068   0.00040   0.00170   0.00210   2.08182
    R8        2.07076  -0.00032  -0.00024  -0.00076  -0.00100   2.06976
    R9        2.07770  -0.00253  -0.00064  -0.00622  -0.00686   2.07084
   R10        2.58967   0.00632  -0.00273   0.00894   0.00621   2.59587
   R11        2.68382  -0.01633  -0.00650  -0.00669  -0.01319   2.67063
   R12        1.85528  -0.00455   0.00005  -0.00722  -0.00717   1.84811
    A1        2.09546  -0.00277  -0.00081  -0.02158  -0.02302   2.07244
    A2        2.00487   0.00123   0.00064  -0.00335  -0.00347   2.00140
    A3        2.05092  -0.00016   0.00179  -0.00865  -0.00750   2.04342
    A4        2.01120  -0.00348  -0.00298   0.01438   0.00418   2.01538
    A5        2.04039   0.00928   0.00353   0.06361   0.06108   2.10147
    A6        2.14446  -0.00327  -0.00643   0.01317  -0.00074   2.14372
    A7        1.87848   0.00445   0.00285   0.02518   0.02803   1.90651
    A8        1.95763   0.00074   0.00025   0.00350   0.00359   1.96122
    A9        1.98546  -0.00474  -0.00408  -0.02673  -0.03079   1.95467
   A10        1.87022  -0.00137   0.00055  -0.00154  -0.00116   1.86906
   A11        1.87141   0.00011   0.00039   0.00205   0.00262   1.87403
   A12        1.89519   0.00098   0.00025  -0.00089  -0.00077   1.89443
   A13        2.14331   0.00313   0.00380   0.00166   0.00547   2.14879
   A14        2.23383  -0.00464  -0.01620  -0.00449  -0.02069   2.21314
   A15        1.90063   0.00143   0.01186   0.00199   0.01388   1.91450
   A16        1.96755  -0.00889  -0.00076  -0.04292  -0.04368   1.92388
   A17        2.12372  -0.02656  -0.03787  -0.06210  -0.09997   2.02375
    D1       -0.75917  -0.00251   0.00670  -0.09576  -0.09104  -0.85021
    D2        1.95961   0.00237  -0.00646   0.11530   0.11121   2.07082
    D3        2.93859   0.00035   0.00321  -0.03014  -0.02929   2.90930
    D4       -0.62581   0.00524  -0.00996   0.18092   0.17295  -0.45286
    D5        1.02832   0.00350  -0.00634   0.09647   0.08800   1.11632
    D6        3.08122   0.00503  -0.00365   0.11235   0.10673  -3.09523
    D7       -1.04239   0.00322  -0.00619   0.09301   0.08496  -0.95743
    D8       -1.66252  -0.00506   0.00394  -0.14207  -0.13628  -1.79880
    D9        0.39038  -0.00353   0.00663  -0.12619  -0.11755   0.27283
   D10        2.54995  -0.00534   0.00409  -0.14552  -0.13932   2.41063
   D11       -0.07779   0.00288  -0.02228   0.07582   0.05213  -0.02566
   D12        2.93942   0.00209  -0.02609   0.06645   0.03879   2.97821
   D13        2.60608   0.00846  -0.03502   0.30604   0.27260   2.87868
   D14       -0.65990   0.00768  -0.03883   0.29668   0.25926  -0.40065
   D15        2.74930  -0.00075   0.00441  -0.01485  -0.01026   2.73904
   D16       -0.28876   0.00033   0.01004  -0.00663   0.00323  -0.28553
   D17       -0.22398   0.00096   0.00075   0.01303   0.01376  -0.21022
   D18        2.80716   0.00043  -0.00303   0.00477   0.00177   2.80893
         Item               Value     Threshold  Converged?
 Maximum Force            0.026563     0.000450     NO 
 RMS     Force            0.006012     0.000300     NO 
 Maximum Displacement     0.400540     0.001800     NO 
 RMS     Displacement     0.137350     0.001200     NO 
 Predicted change in Energy=-8.941429D-03
 GradGradGradGradGradGradGradGradGradGradGradGradGradGradGradGradGradGrad

                          Input orientation:                          
 ---------------------------------------------------------------------
 Center     Atomic      Atomic             Coordinates (Angstroms)
 Number     Number       Type             X           Y           Z
 ---------------------------------------------------------------------
      1          7           0       -1.295075   -1.418905   -0.137117
      2          1           0       -1.915431   -1.724030    0.601179
      3          6           0       -0.689770   -0.141415   -0.034278
      4          1           0        0.927972    1.968008   -0.348417
      5          6           0       -1.625280    0.995394    0.302191
      6          6           0        0.669898   -0.023216    0.023097
      7          1           0       -2.049514    0.831441    1.305578
      8          1           0       -1.113913    1.963731    0.323249
      9          1           0       -2.463327    1.059079   -0.401006
     10          8           0        1.518133   -1.103692    0.015647
     11          1           0       -0.747818   -2.153250   -0.556889
     12          8           0        1.420042    1.171715   -0.058506
     13          1           0        2.404221   -0.835827   -0.299841
 ---------------------------------------------------------------------
                    Distance matrix (angstroms):
                    1          2          3          4          5
     1  N    0.000000
     2  H    1.011447   0.000000
     3  C    1.417375   2.100172   0.000000
     4  H    4.056817   4.755819   2.676833   0.000000
     5  C    2.476059   2.751154   1.510207   2.808623   0.000000
     6  C    2.415519   3.148153   1.366000   2.041959   2.526519
     7  H    2.777518   2.654164   2.142561   3.590670   1.101653
     8  H    3.418623   3.784079   2.177007   2.149523   1.095269
     9  H    2.752246   3.008365   2.172828   3.511385   1.095840
    10  O    2.834931   3.537941   2.409004   3.148995   3.790688
    11  H    1.007452   1.699609   2.079416   4.453818   3.379632
    12  O    3.753578   4.466083   2.485196   0.979930   3.071673
    13  H    3.748499   4.501126   3.182060   3.169095   4.466843
                    6          7          8          9         10
     6  C    0.000000
     7  H    3.125763   0.000000
     8  H    2.687011   1.767031   0.000000
     9  H    3.341904   1.770731   1.778724   0.000000
    10  O    1.373676   4.258728   4.053562   4.550077   0.000000
    11  H    2.623613   3.751210   4.225896   3.645041   2.562011
    12  O    1.413236   3.743572   2.682155   3.900070   2.278727
    13  H    1.942293   5.019254   4.539056   5.224359   0.977976
                   11         12         13
    11  H    0.000000
    12  O    4.000424   0.000000
    13  H    3.425934   2.248794   0.000000
 Stoichiometry    C3H7NO2
 Framework group  C1[X(C3H7NO2)]
 Deg. of freedom    33
 Full point group                 C1      NOp   1
 Largest Abelian subgroup         C1      NOp   1
 Largest concise Abelian subgroup C1      NOp   1
                         Standard orientation:                         
 ---------------------------------------------------------------------
 Center     Atomic      Atomic             Coordinates (Angstroms)
 Number     Number       Type             X           Y           Z
 ---------------------------------------------------------------------
      1          7           0        1.336790    1.301486   -0.155097
      2          1           0        2.016960    1.527516    0.558558
      3          6           0        0.679333    0.047153   -0.097187
      4          1           0       -1.053558   -1.963754   -0.441826
      5          6           0        1.579434   -1.149499    0.099202
      6          6           0       -0.677941   -0.016166    0.043365
      7          1           0        2.074386   -1.074184    1.080522
      8          1           0        1.025059   -2.094061    0.089986
      9          1           0        2.366736   -1.200066   -0.661366
     10          8           0       -1.472640    1.097686    0.164905
     11          1           0        0.799257    2.086123   -0.487305
     12          8           0       -1.487671   -1.169148   -0.067113
     13          1           0       -2.388839    0.890789   -0.107509
 ---------------------------------------------------------------------
 Rotational constants (GHZ):      4.9304593      3.1177580      1.9611883
 Standard basis: 6-31G (6D, 7F)
 There are    68 symmetry adapted cartesian basis functions of A   symmetry.
 There are    68 symmetry adapted basis functions of A   symmetry.
    68 basis functions,   160 primitive gaussians,    68 cartesian basis functions
    24 alpha electrons       24 beta electrons
       nuclear repulsion energy       244.3295743651 Hartrees.
 NAtoms=   13 NActive=   13 NUniq=   13 SFac= 1.00D+00 NAtFMM=   60 NAOKFM=F Big=F
 Integral buffers will be    131072 words long.
 Raffenetti 2 integral format.
 Two-electron integral symmetry is turned on.
 One-electron integrals computed using PRISM.
 NBasis=    68 RedAO= T EigKep=  3.22D-03  NBF=    68
 NBsUse=    68 1.00D-06 EigRej= -1.00D+00 NBFU=    68
 Initial guess from the checkpoint file:  "Ala-S-opt-freq-p2-6-31g.chk"
 B after Tr=     0.000000    0.000000    0.000000
         Rot=    0.999976   -0.004631    0.002261   -0.004628 Ang=  -0.79 deg.
 ExpMin= 1.61D-01 ExpMax= 5.48D+03 ExpMxC= 8.25D+02 IAcc=1 IRadAn=         1 AccDes= 0.00D+00
 Harris functional with IExCor=  402 and IRadAn=       1 diagonalized for initial guess.
 HarFok:  IExCor=  402 AccDes= 0.00D+00 IRadAn=         1 IDoV= 1 UseB2=F ITyADJ=14
 ICtDFT=  3500011 ScaDFX=  1.000000  1.000000  1.000000  1.000000
 FoFCou: FMM=F IPFlag=           0 FMFlag=      100000 FMFlg1=           0
         NFxFlg=           0 DoJE=T BraDBF=F KetDBF=T FulRan=T
         wScrn=  0.000000 ICntrl=     500 IOpCl=  0 I1Cent=   200000004 NGrid=           0
         NMat0=    1 NMatS0=      1 NMatT0=    0 NMatD0=    1 NMtDS0=    0 NMtDT0=    0
 Petite list used in FoFCou.
 Keep R1 ints in memory in canonical form, NReq=3676491.
 Requested convergence on RMS density matrix=1.00D-08 within 128 cycles.
 Requested convergence on MAX density matrix=1.00D-06.
 Requested convergence on             energy=1.00D-06.
 No special actions if energy rises.
 Integral accuracy reduced to 1.0D-05 until final iterations.
 Initial convergence to 1.0D-05 achieved.  Increase integral accuracy.
 SCF Done:  E(RB3LYP) =  -323.588550992     A.U. after   14 cycles
            NFock= 14  Conv=0.63D-08     -V/T= 2.0058
 Calling FoFJK, ICntrl=      2127 FMM=F ISym2X=0 I1Cent= 0 IOpClX= 0 NMat=1 NMatS=1 NMatT=0.
 ***** Axes restored to original set *****
 -------------------------------------------------------------------
 Center     Atomic                   Forces (Hartrees/Bohr)
 Number     Number              X              Y              Z
 -------------------------------------------------------------------
      1        7          -0.000820017    0.003075780   -0.005161186
      2        1           0.000084081    0.001261501    0.000349808
      3        6           0.014809423   -0.003438311    0.014055795
      4        1          -0.001969106   -0.008594881    0.001693378
      5        6           0.002772917   -0.001865911   -0.002818691
      6        6          -0.020380829    0.016007241   -0.009847572
      7        1          -0.001101584    0.001810171   -0.000322674
      8        1          -0.000988041    0.000472214    0.000916708
      9        1           0.000913734   -0.000765135   -0.000869799
     10        8           0.003514094   -0.006922369   -0.001187000
     11        1           0.002136972   -0.000903923    0.001379570
     12        8           0.001337070   -0.000574326    0.001721948
     13        1          -0.000308712    0.000437948    0.000089713
 -------------------------------------------------------------------
 Cartesian Forces:  Max     0.020380829 RMS     0.006031260

 GradGradGradGradGradGradGradGradGradGradGradGradGradGradGradGradGradGrad
 Berny optimization.
 Using GEDIIS/GDIIS optimizer.
 FormGI is forming the generalized inverse of G from B-inverse, IUseBI=4.
 Internal  Forces:  Max     0.018011124 RMS     0.003945050
 Search for a local minimum.
 Step number   4 out of a maximum of   57
 All quantities printed in internal units (Hartrees-Bohrs-Radians)
 Mixed Optimization -- RFO/linear search
 Update second derivatives using D2CorX and points    3    4
 DE= -8.96D-03 DEPred=-8.94D-03 R= 1.00D+00
 TightC=F SS=  1.41D+00  RLast= 5.44D-01 DXNew= 1.4270D+00 1.6324D+00
 Trust test= 1.00D+00 RLast= 5.44D-01 DXMaxT set to 1.43D+00
 ITU=  1  1  1  0
 Use linear search instead of GDIIS.
     Eigenvalues ---    0.00329   0.01155   0.01463   0.02000   0.02119
     Eigenvalues ---    0.02427   0.02582   0.02837   0.06697   0.07160
     Eigenvalues ---    0.13568   0.15638   0.16000   0.16000   0.16000
     Eigenvalues ---    0.16050   0.16698   0.23405   0.24614   0.24875
     Eigenvalues ---    0.25719   0.29079   0.33245   0.34335   0.34392
     Eigenvalues ---    0.42771   0.45377   0.46342   0.47246   0.51203
     Eigenvalues ---    0.54887   0.55866   0.65544
 RFO step:  Lambda=-4.09490152D-03 EMin= 3.28623976D-03
 Quartic linear search produced a step of  0.49211.
 Iteration  1 RMS(Cart)=  0.09292339 RMS(Int)=  0.00742338
 Iteration  2 RMS(Cart)=  0.01060764 RMS(Int)=  0.00301755
 Iteration  3 RMS(Cart)=  0.00006499 RMS(Int)=  0.00301703
 Iteration  4 RMS(Cart)=  0.00000006 RMS(Int)=  0.00301703
 Variable       Old X    -DE/DX   Delta X   Delta X   Delta X     New X
                                 (Linear)    (Quad)   (Total)
    R1        1.91136  -0.00018  -0.00289   0.00132  -0.00157   1.90979
    R2        2.67845  -0.00344   0.00402  -0.01353  -0.00951   2.66894
    R3        1.90381   0.00124  -0.00015   0.00391   0.00376   1.90757
    R4        2.85388  -0.00194  -0.00243  -0.00707  -0.00950   2.84438
    R5        2.58137  -0.01801   0.01574  -0.06643  -0.05069   2.53068
    R6        1.85180  -0.00650   0.00898  -0.00957  -0.00059   1.85121
    R7        2.08182  -0.00014   0.00103  -0.00117  -0.00014   2.08168
    R8        2.06976  -0.00002  -0.00049   0.00020  -0.00030   2.06946
    R9        2.07084  -0.00019  -0.00338   0.00113  -0.00225   2.06859
   R10        2.59587   0.00709   0.00305   0.01565   0.01871   2.61458
   R11        2.67063  -0.00829  -0.00649  -0.00219  -0.00868   2.66195
   R12        1.84811  -0.00019  -0.00353   0.00183  -0.00170   1.84641
    A1        2.07244  -0.00163  -0.01133  -0.01902  -0.03231   2.04013
    A2        2.00140   0.00097  -0.00171  -0.00473  -0.00901   1.99239
    A3        2.04342  -0.00083  -0.00369  -0.01639  -0.02205   2.02137
    A4        2.01538   0.00013   0.00206   0.01231   0.00292   2.01829
    A5        2.10147  -0.00102   0.03006  -0.00706   0.01153   2.11301
    A6        2.14372   0.00150  -0.00037   0.01997   0.00815   2.15188
    A7        1.90651   0.00329   0.01379   0.02336   0.03702   1.94353
    A8        1.96122   0.00173   0.00177   0.01454   0.01592   1.97714
    A9        1.95467  -0.00294  -0.01515  -0.02039  -0.03536   1.91930
   A10        1.86906  -0.00191  -0.00057  -0.01035  -0.01154   1.85751
   A11        1.87403  -0.00030   0.00129  -0.00306  -0.00135   1.87268
   A12        1.89443   0.00006  -0.00038  -0.00453  -0.00498   1.88944
   A13        2.14879  -0.00245   0.00269  -0.02218  -0.01961   2.12918
   A14        2.21314   0.00174  -0.01018   0.02562   0.01534   2.22848
   A15        1.91450   0.00073   0.00683   0.00005   0.00677   1.92128
   A16        1.92388  -0.00092  -0.02149   0.00685  -0.01465   1.90923
   A17        2.02375  -0.01146  -0.04920  -0.00501  -0.05420   1.96954
    D1       -0.85021  -0.00156  -0.04480  -0.04004  -0.08500  -0.93521
    D2        2.07082   0.00155   0.05473   0.08377   0.14014   2.21096
    D3        2.90930   0.00058  -0.01442   0.02825   0.01219   2.92148
    D4       -0.45286   0.00369   0.08511   0.15205   0.23732  -0.21553
    D5        1.11632   0.00073   0.04331  -0.00226   0.03937   1.15569
    D6       -3.09523   0.00160   0.05252   0.00930   0.06078  -3.03446
    D7       -0.95743   0.00077   0.04181  -0.00105   0.03970  -0.91774
    D8       -1.79880  -0.00211  -0.06706  -0.12558  -0.19179  -1.99060
    D9        0.27283  -0.00124  -0.05785  -0.11401  -0.17039   0.10244
   D10        2.41063  -0.00207  -0.06856  -0.12437  -0.19147   2.21916
   D11       -0.02566  -0.00013   0.02565  -0.07249  -0.04776  -0.07342
   D12        2.97821   0.00018   0.01909  -0.03721  -0.01907   2.95913
   D13        2.87868   0.00300   0.13415   0.05935   0.19444   3.07312
   D14       -0.40065   0.00332   0.12758   0.09462   0.22313  -0.17752
   D15        2.73904   0.00027  -0.00505   0.02507   0.01985   2.75889
   D16       -0.28553  -0.00012   0.00159  -0.00710  -0.00534  -0.29087
   D17       -0.21022   0.00020   0.00677  -0.01908  -0.01250  -0.22272
   D18        2.80893   0.00026   0.00087   0.01045   0.01151   2.82044
         Item               Value     Threshold  Converged?
 Maximum Force            0.018011     0.000450     NO 
 RMS     Force            0.003945     0.000300     NO 
 Maximum Displacement     0.283322     0.001800     NO 
 RMS     Displacement     0.098772     0.001200     NO 
 Predicted change in Energy=-3.242814D-03
 GradGradGradGradGradGradGradGradGradGradGradGradGradGradGradGradGradGrad

                          Input orientation:                          
 ---------------------------------------------------------------------
 Center     Atomic      Atomic             Coordinates (Angstroms)
 Number     Number       Type             X           Y           Z
 ---------------------------------------------------------------------
      1          7           0       -1.283047   -1.417369   -0.108725
      2          1           0       -1.934294   -1.712925    0.605329
      3          6           0       -0.667992   -0.158493    0.069195
      4          1           0        0.863304    1.950225   -0.213672
      5          6           0       -1.604691    0.998151    0.293554
      6          6           0        0.664325   -0.028695    0.030768
      7          1           0       -2.140233    0.900716    1.251246
      8          1           0       -1.096484    1.967836    0.320165
      9          1           0       -2.358708    1.027795   -0.499442
     10          8           0        1.503841   -1.120931   -0.097741
     11          1           0       -0.684937   -2.154140   -0.452821
     12          8           0        1.412368    1.164103   -0.013201
     13          1           0        2.366684   -0.827240   -0.449769
 ---------------------------------------------------------------------
                    Distance matrix (angstroms):
                    1          2          3          4          5
     1  N    0.000000
     2  H    1.010617   0.000000
     3  C    1.412345   2.075384   0.000000
     4  H    3.994812   4.681451   2.621368   0.000000
     5  C    2.469822   2.748777   1.505180   2.693459   0.000000
     6  C    2.395857   3.149534   1.339176   2.003863   2.504376
     7  H    2.820958   2.700137   2.164870   3.502669   1.101578
     8  H    3.417362   3.785663   2.183544   2.031271   1.095112
     9  H    2.699729   2.985330   2.142230   3.363614   1.094652
    10  O    2.802631   3.558866   2.381388   3.139383   3.782405
    11  H    1.009440   1.695654   2.062861   4.393183   3.367486
    12  O    3.733415   4.456457   2.466566   0.979616   3.037150
    13  H    3.712829   4.516201   3.150524   3.167049   4.433553
                    6          7          8          9         10
     6  C    0.000000
     7  H    3.196704   0.000000
     8  H    2.677748   1.759281   0.000000
     9  H    3.245924   1.768838   1.774441   0.000000
    10  O    1.383575   4.380193   4.059164   4.438206   0.000000
    11  H    2.563568   3.788651   4.213972   3.595608   2.446294
    12  O    1.408641   3.780102   2.655458   3.804737   2.288426
    13  H    1.940777   5.117771   4.516500   5.076707   0.977076
                   11         12         13
    11  H    0.000000
    12  O    3.950025   0.000000
    13  H    3.327622   2.250946   0.000000
 Stoichiometry    C3H7NO2
 Framework group  C1[X(C3H7NO2)]
 Deg. of freedom    33
 Full point group                 C1      NOp   1
 Largest Abelian subgroup         C1      NOp   1
 Largest concise Abelian subgroup C1      NOp   1
                         Standard orientation:                         
 ---------------------------------------------------------------------
 Center     Atomic      Atomic             Coordinates (Angstroms)
 Number     Number       Type             X           Y           Z
 ---------------------------------------------------------------------
      1          7           0        1.300377    1.321407   -0.128156
      2          1           0        2.017208    1.538537    0.550339
      3          6           0        0.665473    0.065646   -0.006997
      4          1           0       -0.945460   -1.975679   -0.337842
      5          6           0        1.583140   -1.126650    0.036399
      6          6           0       -0.668661   -0.030819    0.057599
      7          1           0        2.199164   -1.125707    0.949628
      8          1           0        1.050587   -2.083458    0.023045
      9          1           0        2.267343   -1.103045   -0.817750
     10          8           0       -1.483443    1.086755    0.095514
     11          1           0        0.697652    2.098623   -0.355377
     12          8           0       -1.452555   -1.198315   -0.024462
     13          1           0       -2.380860    0.844300   -0.205375
 ---------------------------------------------------------------------
 Rotational constants (GHZ):      4.9367360      3.1936200      1.9784811
 Standard basis: 6-31G (6D, 7F)
 There are    68 symmetry adapted cartesian basis functions of A   symmetry.
 There are    68 symmetry adapted basis functions of A   symmetry.
    68 basis functions,   160 primitive gaussians,    68 cartesian basis functions
    24 alpha electrons       24 beta electrons
       nuclear repulsion energy       245.5853837062 Hartrees.
 NAtoms=   13 NActive=   13 NUniq=   13 SFac= 1.00D+00 NAtFMM=   60 NAOKFM=F Big=F
 Integral buffers will be    131072 words long.
 Raffenetti 2 integral format.
 Two-electron integral symmetry is turned on.
 One-electron integrals computed using PRISM.
 NBasis=    68 RedAO= T EigKep=  2.68D-03  NBF=    68
 NBsUse=    68 1.00D-06 EigRej= -1.00D+00 NBFU=    68
 Initial guess from the checkpoint file:  "Ala-S-opt-freq-p2-6-31g.chk"
 B after Tr=     0.000000    0.000000    0.000000
         Rot=    0.999957   -0.002152   -0.002405   -0.008663 Ang=  -1.06 deg.
 ExpMin= 1.61D-01 ExpMax= 5.48D+03 ExpMxC= 8.25D+02 IAcc=1 IRadAn=         1 AccDes= 0.00D+00
 Harris functional with IExCor=  402 and IRadAn=       1 diagonalized for initial guess.
 HarFok:  IExCor=  402 AccDes= 0.00D+00 IRadAn=         1 IDoV= 1 UseB2=F ITyADJ=14
 ICtDFT=  3500011 ScaDFX=  1.000000  1.000000  1.000000  1.000000
 FoFCou: FMM=F IPFlag=           0 FMFlag=      100000 FMFlg1=           0
         NFxFlg=           0 DoJE=T BraDBF=F KetDBF=T FulRan=T
         wScrn=  0.000000 ICntrl=     500 IOpCl=  0 I1Cent=   200000004 NGrid=           0
         NMat0=    1 NMatS0=      1 NMatT0=    0 NMatD0=    1 NMtDS0=    0 NMtDT0=    0
 Petite list used in FoFCou.
 Keep R1 ints in memory in canonical form, NReq=3676491.
 Requested convergence on RMS density matrix=1.00D-08 within 128 cycles.
 Requested convergence on MAX density matrix=1.00D-06.
 Requested convergence on             energy=1.00D-06.
 No special actions if energy rises.
 Integral accuracy reduced to 1.0D-05 until final iterations.
 Initial convergence to 1.0D-05 achieved.  Increase integral accuracy.
 SCF Done:  E(RB3LYP) =  -323.591802430     A.U. after   14 cycles
            NFock= 14  Conv=0.44D-08     -V/T= 2.0055
 Calling FoFJK, ICntrl=      2127 FMM=F ISym2X=0 I1Cent= 0 IOpClX= 0 NMat=1 NMatS=1 NMatT=0.
 ***** Axes restored to original set *****
 -------------------------------------------------------------------
 Center     Atomic                   Forces (Hartrees/Bohr)
 Number     Number              X              Y              Z
 -------------------------------------------------------------------
      1        7          -0.000428109   -0.000905297   -0.001462913
      2        1          -0.001522601   -0.000652638    0.000457317
      3        6          -0.005022475    0.002895978    0.003863011
      4        1           0.001839390   -0.004658319    0.000949647
      5        6          -0.001022905   -0.000991738    0.000516692
      6        6           0.004854132    0.007535886   -0.005251115
      7        1           0.000085323   -0.000070193   -0.000593878
      8        1           0.000012509    0.000275180    0.000682638
      9        1          -0.000997697    0.000402011   -0.000726060
     10        8           0.002695761   -0.003032878   -0.000037655
     11        1           0.000940098   -0.000835854    0.000877474
     12        8          -0.002099904    0.000491790    0.000383844
     13        1           0.000666477   -0.000453928    0.000340997
 -------------------------------------------------------------------
 Cartesian Forces:  Max     0.007535886 RMS     0.002363261

 GradGradGradGradGradGradGradGradGradGradGradGradGradGradGradGradGradGrad
 Berny optimization.
 Using GEDIIS/GDIIS optimizer.
 FormGI is forming the generalized inverse of G from B-inverse, IUseBI=4.
 Internal  Forces:  Max     0.008008412 RMS     0.001953925
 Search for a local minimum.
 Step number   5 out of a maximum of   57
 All quantities printed in internal units (Hartrees-Bohrs-Radians)
 Mixed Optimization -- RFO/linear search
 Update second derivatives using D2CorX and points    4    5
 DE= -3.25D-03 DEPred=-3.24D-03 R= 1.00D+00
 TightC=F SS=  1.41D+00  RLast= 5.44D-01 DXNew= 2.4000D+00 1.6307D+00
 Trust test= 1.00D+00 RLast= 5.44D-01 DXMaxT set to 1.63D+00
 ITU=  1  1  1  1  0
 Use linear search instead of GDIIS.
     Eigenvalues ---    0.00324   0.01094   0.01409   0.01890   0.02233
     Eigenvalues ---    0.02466   0.02596   0.03336   0.06724   0.07043
     Eigenvalues ---    0.13076   0.15734   0.16000   0.16000   0.16008
     Eigenvalues ---    0.16097   0.16672   0.23283   0.24966   0.25430
     Eigenvalues ---    0.25771   0.29148   0.33251   0.34385   0.34403
     Eigenvalues ---    0.42870   0.45627   0.46447   0.50831   0.53151
     Eigenvalues ---    0.54529   0.55994   0.63816
 RFO step:  Lambda=-9.92933674D-04 EMin= 3.24253979D-03
 Quartic linear search produced a step of  0.07196.
 Iteration  1 RMS(Cart)=  0.04008376 RMS(Int)=  0.00105280
 Iteration  2 RMS(Cart)=  0.00126603 RMS(Int)=  0.00029006
 Iteration  3 RMS(Cart)=  0.00000084 RMS(Int)=  0.00029006
 Variable       Old X    -DE/DX   Delta X   Delta X   Delta X     New X
                                 (Linear)    (Quad)   (Total)
    R1        1.90979   0.00150  -0.00011   0.00333   0.00322   1.91301
    R2        2.66894   0.00259  -0.00068   0.00533   0.00464   2.67359
    R3        1.90757   0.00086   0.00027   0.00235   0.00262   1.91019
    R4        2.84438   0.00089  -0.00068   0.00252   0.00183   2.84621
    R5        2.53068   0.00801  -0.00365   0.01685   0.01320   2.54387
[...]
    R9        2.07717   0.00000   0.00000  -0.00001  -0.00001   2.07717
   R10        2.66482   0.00001   0.00000   0.00001   0.00001   2.66483
   R11        2.64885   0.00001   0.00000   0.00005   0.00005   2.64890
   R12        1.85468   0.00000   0.00000   0.00000   0.00000   1.85468
    A1        2.10258   0.00000   0.00000   0.00002   0.00002   2.10260
    A2        2.07788   0.00000   0.00000   0.00001   0.00001   2.07789
    A3        2.08053   0.00000   0.00000   0.00005   0.00005   2.08059
    A4        2.03345   0.00000   0.00000  -0.00002  -0.00002   2.03343
    A5        2.10966  -0.00001   0.00000  -0.00004  -0.00004   2.10963
    A6        2.14004   0.00001   0.00000   0.00006   0.00006   2.14010
    A7        1.93153   0.00000   0.00000  -0.00001  -0.00001   1.93152
    A8        1.93081   0.00000   0.00000  -0.00001  -0.00001   1.93080
    A9        1.93803   0.00000   0.00000   0.00002   0.00002   1.93805
   A10        1.88943   0.00000   0.00000  -0.00002  -0.00002   1.88941
   A11        1.87473   0.00000   0.00000   0.00001   0.00001   1.87474
   A12        1.89759   0.00000   0.00000   0.00001   0.00001   1.89760
   A13        2.10339   0.00000   0.00000   0.00003   0.00003   2.10343
   A14        2.16418   0.00000   0.00000  -0.00003  -0.00003   2.16415
   A15        2.01544   0.00000   0.00000   0.00000   0.00000   2.01544
   A16        1.92628   0.00001   0.00000   0.00002   0.00002   1.92631
   A17        1.93088   0.00000   0.00000  -0.00003  -0.00003   1.93085
    D1        0.10954   0.00000   0.00000  -0.00018  -0.00018   0.10936
    D2       -3.04060   0.00000   0.00000  -0.00021  -0.00021  -3.04081
    D3        3.02427   0.00000   0.00000   0.00026   0.00026   3.02453
    D4       -0.12587   0.00000   0.00000   0.00023   0.00023  -0.12564
    D5        1.03078   0.00000   0.00000   0.00009   0.00009   1.03088
    D6        3.12490   0.00000   0.00000   0.00005   0.00005   3.12495
    D7       -1.04963   0.00000   0.00000   0.00008   0.00008  -1.04955
    D8       -2.10210   0.00000   0.00000   0.00013   0.00013  -2.10198
    D9       -0.00799   0.00000   0.00000   0.00008   0.00008  -0.00790
   D10        2.10067   0.00000   0.00000   0.00011   0.00011   2.10078
   D11        0.09061   0.00000   0.00000  -0.00003  -0.00003   0.09058
   D12       -3.03040   0.00000   0.00000   0.00002   0.00002  -3.03038
   D13       -3.06007   0.00000   0.00000  -0.00006  -0.00006  -3.06013
   D14        0.10211   0.00000   0.00000  -0.00001  -0.00001   0.10210
   D15       -2.14441   0.00000   0.00000  -0.00004  -0.00004  -2.14445
   D16        0.97827   0.00000   0.00000  -0.00009  -0.00009   0.97819
   D17       -2.06781   0.00000   0.00000  -0.00019  -0.00019  -2.06799
   D18        1.09343   0.00000   0.00000  -0.00013  -0.00013   1.09330
         Item               Value     Threshold  Converged?
 Maximum Force            0.000015     0.000450     YES
 RMS     Force            0.000005     0.000300     YES
 Maximum Displacement     0.000288     0.001800     YES
 RMS     Displacement     0.000083     0.001200     YES
 Predicted change in Energy=-2.736363D-09
 Optimization completed.
    -- Stationary point found.
                           ----------------------------
                           !   Optimized Parameters   !
                           ! (Angstroms and Degrees)  !
 --------------------------                            --------------------------
 ! Name  Definition              Value          Derivative Info.                !
 --------------------------------------------------------------------------------
 ! R1    R(1,2)                  1.0035         -DE/DX =    0.0                 !
 ! R2    R(1,3)                  1.3932         -DE/DX =    0.0                 !
 ! R3    R(1,11)                 1.0054         -DE/DX =    0.0                 !
 ! R4    R(3,5)                  1.5033         -DE/DX =    0.0                 !
 ! R5    R(3,6)                  1.3453         -DE/DX =    0.0                 !
 ! R6    R(4,12)                 0.9822         -DE/DX =    0.0                 !
 ! R7    R(5,7)                  1.0984         -DE/DX =    0.0                 !
 ! R8    R(5,8)                  1.0904         -DE/DX =    0.0                 !
 ! R9    R(5,9)                  1.0992         -DE/DX =    0.0                 !
 ! R10   R(6,10)                 1.4102         -DE/DX =    0.0                 !
 ! R11   R(6,12)                 1.4017         -DE/DX =    0.0                 !
 ! R12   R(10,13)                0.9815         -DE/DX =    0.0                 !
 ! A1    A(2,1,3)              120.4689         -DE/DX =    0.0                 !
 ! A2    A(2,1,11)             119.0538         -DE/DX =    0.0                 !
 ! A3    A(3,1,11)             119.2058         -DE/DX =    0.0                 !
 ! A4    A(1,3,5)              116.508          -DE/DX =    0.0                 !
 ! A5    A(1,3,6)              120.8748         -DE/DX =    0.0                 !
 ! A6    A(5,3,6)              122.6152         -DE/DX =    0.0                 !
 ! A7    A(3,5,7)              110.6686         -DE/DX =    0.0                 !
 ! A8    A(3,5,8)              110.6273         -DE/DX =    0.0                 !
 ! A9    A(3,5,9)              111.0412         -DE/DX =    0.0                 !
 ! A10   A(7,5,8)              108.2565         -DE/DX =    0.0                 !
 ! A11   A(7,5,9)              107.4143         -DE/DX =    0.0                 !
 ! A12   A(8,5,9)              108.7238         -DE/DX =    0.0                 !
 ! A13   A(3,6,10)             120.5154         -DE/DX =    0.0                 !
 ! A14   A(3,6,12)             123.9987         -DE/DX =    0.0                 !
 ! A15   A(10,6,12)            115.4763         -DE/DX =    0.0                 !
 ! A16   A(6,10,13)            110.368          -DE/DX =    0.0                 !
 ! A17   A(4,12,6)             110.6311         -DE/DX =    0.0                 !
 ! D1    D(2,1,3,5)              6.2762         -DE/DX =    0.0                 !
 ! D2    D(2,1,3,6)           -174.2134         -DE/DX =    0.0                 !
 ! D3    D(11,1,3,5)           173.2777         -DE/DX =    0.0                 !
 ! D4    D(11,1,3,6)            -7.212          -DE/DX =    0.0                 !
 ! D5    D(1,3,5,7)             59.0595         -DE/DX =    0.0                 !
 ! D6    D(1,3,5,8)            179.0434         -DE/DX =    0.0                 !
 ! D7    D(1,3,5,9)            -60.1392         -DE/DX =    0.0                 !
 ! D8    D(6,3,5,7)           -120.4416         -DE/DX =    0.0                 !
 ! D9    D(6,3,5,8)             -0.4577         -DE/DX =    0.0                 !
 ! D10   D(6,3,5,9)            120.3598         -DE/DX =    0.0                 !
 ! D11   D(1,3,6,10)             5.1914         -DE/DX =    0.0                 !
 ! D12   D(1,3,6,12)          -173.6291         -DE/DX =    0.0                 !
 ! D13   D(5,3,6,10)          -175.3288         -DE/DX =    0.0                 !
 ! D14   D(5,3,6,12)             5.8507         -DE/DX =    0.0                 !
 ! D15   D(3,6,10,13)         -122.8659         -DE/DX =    0.0                 !
 ! D16   D(12,6,10,13)          56.0509         -DE/DX =    0.0                 !
 ! D17   D(3,6,12,4)          -118.4765         -DE/DX =    0.0                 !
 ! D18   D(10,6,12,4)           62.6491         -DE/DX =    0.0                 !
 --------------------------------------------------------------------------------
 GradGradGradGradGradGradGradGradGradGradGradGradGradGradGradGradGradGrad

 1\1\GINC-KALI\Freq\RB3LYP\6-31G\C3H7N1O2\ROOT\02-Apr-2016\0\\#N Geom=A
 llCheck Guess=TCheck SCRF=Check GenChk RB3LYP/6-31G Freq\\Ala-S-opt-fr
 eq-p2-6-31g\\0,1\N,-1.1564649401,-1.4446917547,0.0603855776\H,-2.13918
 54027,-1.6328355162,0.1371637999\C,-0.6822555096,-0.1354203669,0.10479
 78284\H,1.5563443263,1.7262039048,-0.8114218707\C,-1.6921439276,0.9337
 793203,0.4161072515\C,0.6173687349,0.1358411464,-0.1123920508\H,-2.161
 2306728,0.7515438573,1.392405344\H,-1.2169655961,1.9147838335,0.443243
 6688\H,-2.4936243801,0.9506183979,-0.335937917\O,1.5078731897,-0.88762
 37752,-0.4971930329\H,-0.5409634101,-2.1793526978,-0.2433397909\O,1.18
 92531739,1.4062949262,0.0415273405\H,2.2521313542,-0.9501086956,0.1395
 396116\\Version=ES64L-G09RevD.01\State=1-A\HF=-323.5973584\RMSD=3.855e
 -09\RMSF=7.626e-06\ZeroPoint=0.1053686\Thermal=0.1131698\Dipole=-0.215
 1385,-0.2034385,-0.1513667\DipoleDeriv=-0.4693632,-0.1620954,-0.082743
 9,-0.6417327,-0.9788387,0.1701274,-0.0431003,0.1336159,-0.8584608,0.13
 16661,0.0009694,0.0297619,0.0148049,0.1945875,-0.0324941,-0.0116216,-0
 .0637169,0.3912545,0.4452887,0.356937,-0.0352119,0.6891159,0.7659939,-
 0.0685445,-0.0235086,-0.0065054,0.1593406,0.352982,-0.0559146,0.081002
 3,-0.0850776,0.2592874,-0.0108165,0.1861385,0.1196767,0.0639154,0.1294
 186,0.0249052,0.0153533,-0.0772649,-0.0694953,-0.010586,-0.0008104,-0.
 0241449,0.1450238,0.767306,-0.231119,-0.1887731,-0.0728895,0.9416651,0
 .0753075,-0.1482042,0.0621185,-0.144566,-0.029315,0.017365,0.1011263,0
 .0008942,0.0597791,0.0602546,0.1271034,0.0244966,-0.1040068,0.0827407,
 -0.0775994,-0.0077223,-0.0172593,-0.0512814,-0.0099726,-0.0005035,0.00
 73203,0.0967164,-0.1372868,0.0400601,-0.0945237,0.0179831,0.0645917,-0
 .0327297,-0.1340248,-0.001924,-0.0370903,-0.8137844,0.1881312,0.308370
 5,0.2713802,-0.7829434,0.0083084,0.4177417,-0.0343836,-0.2464494,0.145
 0622,0.0001146,0.0674202,0.0253513,0.175946,-0.0465797,0.0387205,-0.07
 45302,0.3877647,-0.7954343,-0.1488736,-0.0824663,-0.1652735,-0.9026669
 ,-0.0066759,-0.1521782,-0.1218256,-0.0598759,0.1907193,0.0471195,-0.11
 15933,0.0399679,0.3233749,-0.0955989,-0.2557524,-0.0201975,0.2064337\P
 olar=62.6071462,4.5129412,46.5159596,-5.8857663,-0.0013228,28.0838932\
 PG=C01 [X(C3H7N1O2)]\NImag=0\\0.85403141,-0.00244137,0.72283061,-0.145
 74185,0.13182436,0.07724336,-0.46071266,-0.07223375,0.04622866,0.47639
 397,-0.06794340,-0.08318422,-0.00742521,0.07899756,0.08221899,0.034631
 76,-0.00943762,-0.00257317,-0.04276147,0.00425016,0.00775594,-0.156824
 84,-0.06857412,0.01120379,-0.00776598,-0.03932751,-0.00188113,0.859252
 76,-0.07631945,-0.30408115,-0.02495697,0.00312385,-0.00480698,0.002161
 20,0.07969858,0.64174977,0.01598012,-0.01268358,-0.04305310,-0.0003848
 1,0.00413630,-0.00440647,-0.12326217,0.04333436,0.18521449,-0.00106578
 ,0.00186808,-0.00186576,-0.00026328,-0.00030087,-0.00061296,0.00148982
 ,-0.00491475,0.00351254,0.07701095,-0.00118331,-0.00073925,-0.00120119
 ,-0.00002105,-0.00007466,-0.00081320,0.00429017,-0.00135556,0.00178492
 ,0.07305115,0.09060097,-0.00001104,0.00155081,0.00011522,-0.00022279,-
 0.00018807,0.00040475,-0.00303748,-0.00338310,-0.00136455,-0.13911266,
 -0.11500631,0.34076604,0.00980289,-0.00970014,-0.00303883,0.00156656,-
 0.00058463,0.00007815,-0.15044967,0.06259173,0.02155944,-0.00038446,0.
 00052183,-0.00028022,0.53614043,0.02771890,-0.03563041,-0.00991569,0.0
 0121064,0.00232228,-0.00021991,0.05453246,-0.15373458,-0.01889259,-0.0
 0040083,-0.00003675,0.00007261,0.05258314,0.56220344,0.00133537,-0.002
 94610,0.00110857,0.00021928,0.00008343,0.00139840,0.02089336,-0.020341
 48,-0.08131026,0.00085404,0.00088359,-0.00028800,0.00626887,-0.0069773
 2,0.53722054,-0.01741951,-0.01446042,0.00473886,0.00137454,0.00202685,
 -0.00013078,-0.49761856,-0.09402123,0.07461031,-0.01174813,-0.03096690
 ,-0.00058645,-0.02365965,0.00674683,0.00555715,0.86086104,-0.05058420,
 -0.02444494,0.00583864,0.00078071,-0.00581532,-0.00080596,-0.07234079,
 -0.10424185,0.01028435,-0.00994854,-0.02558054,-0.00739303,0.02340623,
 0.00835596,-0.00473584,0.10494799,0.51811296,0.00085163,0.00055746,0.0
 1037661,-0.00063292,-0.00096834,-0.00154425,0.07667733,0.01050478,-0.0
 5513544,0.01426577,0.03121967,0.01111764,0.00783652,-0.00075649,0.0016
 6713,-0.12718758,0.03105459,0.14158102,0.00134106,-0.00091367,-0.00194
 026,0.00048630,0.00010630,0.00043635,-0.01695810,-0.00286027,0.0238858
 7,-0.00002318,-0.00006490,0.00009191,-0.09048263,-0.01988586,0.0936512
 2,0.00254932,0.00288711,0.00089495,0.10195102,-0.00014782,0.00141927,0
 .00156428,-0.00055279,-0.00037270,-0.00063521,0.01484334,0.00336284,-0
 .02501286,0.00003238,0.00005169,0.00017458,-0.01967547,-0.05735909,0.0
 3955461,-0.00129322,-0.00311459,-0.00092288,0.01767381,0.05937303,-0.0
 0066594,-0.00019688,0.00124692,-0.00002988,-0.00070055,-0.00101752,0.0
 0573921,0.00164792,-0.00361057,-0.00021665,-0.00004056,-0.00008055,0.0
 9395562,0.04006626,-0.24986390,-0.00207111,-0.00117792,-0.00023794,-0.
 10672369,-0.04379247,0.27452897,-0.00416149,0.00293811,0.00153153,-0.0
 0023295,0.00015006,-0.00002586,0.01276917,0.02350922,-0.00008687,-0.00
 004554,-0.00031616,0.00002646,-0.10306177,-0.11336206,-0.00330721,-0.0
 0041569,0.00217134,0.00020533,-0.00594808,-0.01172880,-0.00138430,0.11
 184812,0.00477805,-0.00152914,-0.00146649,0.00033915,0.00048051,0.0000
 8860,-0.01410502,-0.02270392,0.00047358,-0.00001318,0.00034495,0.00008
 815,-0.10602394,-0.27147087,-0.00598189,-0.00042806,-0.00226630,-0.000
 39122,-0.00184934,-0.00427811,-0.00110696,0.11808804,0.29797237,0.0014
 5072,-0.00081674,0.00102980,0.00002215,0.00017885,-0.00083228,-0.00418
 288,-0.00698179,-0.00152616,0.00053563,-0.00020139,-0.00005829,-0.0027
 2363,-0.00509325,-0.04998154,0.00000741,-0.00064600,-0.00008743,0.0140
 1823,0.02863212,0.00125518,0.00195581,0.00702232,0.05041942,0.00197257
 ,-0.00121378,0.00120469,0.00031417,0.00069339,-0.00071157,-0.02432806,
 0.00110286,-0.01435206,0.00008655,0.00009854,-0.00005157,-0.17663118,-
 0.00058084,-0.12586107,0.00273342,0.00265417,-0.00147790,0.00994660,-0
 .00038226,0.01035761,-0.01008779,0.00156693,-0.01070169,0.19868968,-0.
 00040643,0.00187721,-0.00080659,-0.00039905,-0.00076896,0.00056389,0.0
 2219489,-0.00134772,0.01683992,0.00010100,-0.00000459,-0.00016353,0.00
 037612,-0.05048252,0.00161861,-0.00098260,-0.00301315,0.00092493,0.004
 60800,0.00008306,0.00541162,-0.02124827,0.00189795,-0.02261138,-0.0043
 4034,0.05076342,0.00011745,0.00097054,0.00026300,-0.00043385,0.0007087
 9,-0.00026595,0.00791250,-0.00195369,0.00844742,0.00002801,-0.00001067
 ,0.00002553,-0.12570680,0.00079907,-0.16884182,0.00077453,-0.00068501,
 -0.00008972,-0.02313444,-0.00078547,-0.02253011,0.00079370,0.00070182,
 -0.00037512,0.13947571,-0.00019607,0.18396997,-0.00003247,-0.00400960,
 -0.00065802,0.00011121,0.00086624,0.00065343,-0.02676164,0.04416026,0.
 01580121,-0.00000054,0.00370989,-0.00195492,-0.00168630,-0.00504349,-0
 .00069960,-0.17049558,0.08298526,0.04125354,-0.00159420,0.00093626,0.0
 0064752,0.00028740,0.00012957,-0.00004871,-0.00193474,0.00128386,0.000
 15462,0.44343433,-0.00143710,0.00776310,-0.00109324,-0.00089902,0.0009
 9367,0.00093032,0.00037409,-0.01461559,-0.00411591,-0.00012424,0.00351
 043,-0.00075345,-0.00135014,0.00207266,0.00138897,0.07149451,-0.137082
 05,-0.05235452,0.00058019,-0.00015334,-0.00046951,-0.00076736,0.000518
 16,0.00018686,0.00112240,-0.00031080,0.00014055,-0.13077941,0.21115821
 ,-0.00147741,0.00313652,-0.00249728,-0.00025640,-0.00037761,0.00000895
 ,0.00510852,-0.01023340,-0.00109421,0.00008614,-0.00124842,-0.00039934
 ,0.00086892,0.00003720,0.01130976,0.01227262,-0.02679397,-0.06307009,-
 0.00133186,0.00150317,0.00002415,-0.00003403,-0.00016923,-0.00006229,0
 .00226345,-0.00200260,-0.00070420,0.17521779,0.06009268,0.26211739,-0.
 22131111,0.17317873,0.08339527,-0.01185296,0.02674405,0.00996342,0.013
 63998,-0.00898326,-0.00482763,0.00040054,-0.00033888,0.00031024,-0.000
 59383,-0.00254318,0.00007495,0.00175015,-0.00528367,-0.00035919,-0.000
 21708,0.00008088,-0.00004964,0.00051036,-0.00057431,0.00001370,-0.0000
 9893,-0.00002942,0.00013409,-0.00131192,0.00344211,-0.00022721,0.22049
 934,0.17303898,-0.27953105,-0.09593056,-0.01057377,0.00955225,0.004047
 39,0.02339311,-0.02249773,-0.01092827,0.00001801,-0.00018583,0.0000479
 9,-0.00440595,-0.00363235,0.00000439,0.00253658,-0.00306612,-0.0008045
 3,-0.00008125,0.00024875,-0.00013688,0.00128337,-0.00087278,-0.0004142
 7,-0.00007989,0.00027073,0.00019894,0.00123931,0.00201121,-0.00019016,
 -0.18657257,0.29569175,0.09140877,-0.10730128,-0.05004324,-0.00275702,
 -0.00020126,-0.00163215,0.00017513,0.00307819,0.00075971,0.00054222,0.
 00032026,-0.00009546,0.00010689,0.00038709,0.00176721,0.00052464,-0.00
 023827,0.00118266,-0.00022771,0.00030909,0.00017766,0.00012998,0.00007
 852,0.00070974,0.00025777,-0.00027137,-0.00001970,-0.00004665,0.001807
 88,-0.00204903,-0.08822041,0.10335060,0.05035762,-0.00561429,-0.004783
 84,0.00458335,0.00065027,-0.00142295,0.00067175,-0.00734168,-0.0310424
 3,-0.00864842,-0.06542733,-0.04915106,0.14512604,-0.00036913,-0.000325
 14,-0.00175803,-0.11716241,-0.08545909,0.00000460,-0.00057945,-0.00033
 135,0.00044940,-0.00153630,-0.00183627,-0.00028429,-0.00114408,-0.0007
 1517,-0.00001848,0.01537850,0.02289719,0.00199522,-0.00120976,0.000181
 15,-0.00074967,0.18162585,-0.00487039,-0.00535208,0.00188190,0.0004655
 5,-0.00066076,0.00009115,-0.00328482,-0.01198137,-0.00558453,-0.060229
 64,-0.06463524,0.12377010,0.00250178,-0.00319114,-0.00122695,-0.084306
 29,-0.21066862,-0.03317763,-0.00049646,0.00098800,0.00051567,-0.000903
 02,0.00210227,0.00080747,-0.00055603,0.00095940,0.00003877,-0.00440951
 ,-0.05247538,-0.01265331,0.00050589,0.00119087,-0.00031908,0.15654866,
 0.34116848,0.00232607,-0.00335181,0.00742792,0.00086672,0.00040317,0.0
 0279953,0.00174717,0.00812926,-0.00204861,0.12277998,0.08291215,-0.348
 80846,0.00016026,0.00048384,-0.00381370,0.01798093,0.00129706,-0.05707
 363,0.00026535,-0.00059709,0.00009434,0.00037358,0.00044573,-0.0005731
 4,-0.00029986,0.00069028,0.00020162,-0.00280674,-0.01703324,0.00181804
 ,-0.00026566,0.00053683,-0.00128874,-0.14310408,-0.07415748,0.40195063
 ,-0.00000578,0.00034578,0.00035857,-0.00006920,-0.00000508,-0.00031107
 ,0.00089679,0.00395488,-0.00378752,-0.00002961,0.00037070,-0.00029752,
 -0.00019126,-0.00065057,0.00277165,-0.03074894,0.00378346,-0.01233208,
 -0.00047158,0.00054503,-0.00000816,0.00007456,-0.00007163,-0.00006244,
 0.00048180,-0.00044258,-0.00009703,-0.25539405,0.03544678,-0.19448575,
 -0.00020479,0.00002291,-0.00114394,0.00272982,-0.00096573,-0.00002372,
 0.28293224,-0.00020246,0.00060205,0.00168676,-0.00023802,0.00011589,-0
 .00022081,-0.00169439,-0.00374616,0.00036432,0.00086142,-0.00189562,0.
 00118325,-0.00024058,0.00058335,-0.00132401,0.03870597,-0.00717545,0.0
 1511418,0.00029634,-0.00024881,-0.00001975,0.00018553,-0.00019510,-0.0
 0006281,-0.00008515,0.00007597,0.00007243,0.00893135,-0.02339028,-0.01
 110086,0.00037362,0.00082030,-0.00100038,-0.00455968,0.00255555,0.0002
 4131,-0.04233394,0.03189830,-0.00020568,-0.00130567,-0.00064461,0.0001
 4233,0.00010035,-0.00009578,0.00290667,-0.00100530,-0.00087227,-0.0007
 9630,0.00140115,-0.00133454,0.00091482,0.00000918,-0.00037239,0.013509
 47,-0.00599864,0.01131343,0.00011409,0.00000815,0.00001337,-0.00017812
 ,0.00021706,0.00008210,-0.00010351,0.00000229,-0.00008092,-0.22751348,
 0.01127259,-0.20540186,0.00005807,0.00021855,0.00017372,0.00173262,0.0
 0001393,-0.00068580,0.20941902,-0.00493364,0.19790557\\-0.00000097,0.0
 0000507,0.00000136,-0.00000547,-0.00000331,-0.00000468,0.00000462,-0.0
 0002161,-0.00000286,0.00000207,0.00000877,-0.00000356,0.00000123,0.000
 00622,0.00000494,0.00001114,0.00002080,0.00000710,-0.00000315,-0.00000
 463,-0.00000599,-0.00000483,-0.00000136,-0.00000067,-0.00000073,-0.000
 00278,-0.00000364,-0.00000362,0.00000758,0.00000221,0.00001098,-0.0000
 0398,-0.00000848,-0.00000922,-0.00001656,0.00001007,-0.00000206,0.0000
 0578,0.00000419\\\@



 IN THIS SHORT LIFE

 THAT ONLY LASTS AN HOUR

 HOW MUCH, HOW LITTLE, IS WITHIN OUR POWER....


 EMILY DICKINSON BOLTS OF MELODY NO. 521
 Job cpu time:       0 days  0 hours  1 minutes  9.3 seconds.
 File lengths (MBytes):  RWF=     13 Int=      0 D2E=      0 Chk=      2 Scr=      1
 Normal termination of Gaussian 09 at Sat Apr  2 23:23:38 2016.
