 Entering Gaussian System, Link 0=g09
 Input=Ala-S-opt-freq-ts2-6-31g.com
 Output=Ala-S-opt-freq-ts2-6-31g.log
 Initial command:
 /usr/local/gau/g09/l1.exe "/tmp/Gau-2236.inp" -scrdir="/tmp/"
 Entering Link 1 = /usr/local/gau/g09/l1.exe PID=      2238.
  
 Copyright (c) 1988,1990,1992,1993,1995,1998,2003,2009,2013,
            Gaussian, Inc.  All Rights Reserved.
  
 This is part of the Gaussian(R) 09 program.  It is based on
 the Gaussian(R) 03 system (copyright 2003, Gaussian, Inc.),
 the Gaussian(R) 98 system (copyright 1998, Gaussian, Inc.),
 the Gaussian(R) 94 system (copyright 1995, Gaussian, Inc.),
 the Gaussian 92(TM) system (copyright 1992, Gaussian, Inc.),
 the Gaussian 90(TM) system (copyright 1990, Gaussian, Inc.),
 the Gaussian 88(TM) system (copyright 1988, Gaussian, Inc.),
 the Gaussian 86(TM) system (copyright 1986, Carnegie Mellon
 University), and the Gaussian 82(TM) system (copyright 1983,
 Carnegie Mellon University). Gaussian is a federally registered
 trademark of Gaussian, Inc.
  
 This software contains proprietary and confidential information,
 including trade secrets, belonging to Gaussian, Inc.
  
 This software is provided under written license and may be
 used, copied, transmitted, or stored only in accord with that
 written license.
  
 The following legend is applicable only to US Government
 contracts under FAR:
  
                    RESTRICTED RIGHTS LEGEND
  
 Use, reproduction and disclosure by the US Government is
 subject to restrictions as set forth in subparagraphs (a)
 and (c) of the Commercial Computer Software - Restricted
 Rights clause in FAR 52.227-19.
  
 Gaussian, Inc.
 340 Quinnipiac St., Bldg. 40, Wallingford CT 06492
  
  
 ---------------------------------------------------------------
 Warning -- This program may not be used in any manner that
 competes with the business of Gaussian, Inc. or will provide
 assistance to any competitor of Gaussian, Inc.  The licensee
 of this program is prohibited from giving any competitor of
 Gaussian, Inc. access to this program.  By using this program,
 the user acknowledges that Gaussian, Inc. is engaged in the
 business of creating and licensing software in the field of
 computational chemistry and represents and warrants to the
 licensee that it is not a competitor of Gaussian, Inc. and that
 it will not use this program in any manner prohibited above.
 ---------------------------------------------------------------
  

 Cite this work as:
 Gaussian 09, Revision D.01,
 M. J. Frisch, G. W. Trucks, H. B. Schlegel, G. E. Scuseria, 
 M. A. Robb, J. R. Cheeseman, G. Scalmani, V. Barone, B. Mennucci, 
 G. A. Petersson, H. Nakatsuji, M. Caricato, X. Li, H. P. Hratchian, 
 A. F. Izmaylov, J. Bloino, G. Zheng, J. L. Sonnenberg, M. Hada, 
 M. Ehara, K. Toyota, R. Fukuda, J. Hasegawa, M. Ishida, T. Nakajima, 
 Y. Honda, O. Kitao, H. Nakai, T. Vreven, J. A. Montgomery, Jr., 
 J. E. Peralta, F. Ogliaro, M. Bearpark, J. J. Heyd, E. Brothers, 
 K. N. Kudin, V. N. Staroverov, T. Keith, R. Kobayashi, J. Normand, 
 K. Raghavachari, A. Rendell, J. C. Burant, S. S. Iyengar, J. Tomasi, 
 M. Cossi, N. Rega, J. M. Millam, M. Klene, J. E. Knox, J. B. Cross, 
 V. Bakken, C. Adamo, J. Jaramillo, R. Gomperts, R. E. Stratmann, 
 O. Yazyev, A. J. Austin, R. Cammi, C. Pomelli, J. W. Ochterski, 
 R. L. Martin, K. Morokuma, V. G. Zakrzewski, G. A. Voth, 
 P. Salvador, J. J. Dannenberg, S. Dapprich, A. D. Daniels, 
 O. Farkas, J. B. Foresman, J. V. Ortiz, J. Cioslowski, 
 and D. J. Fox, Gaussian, Inc., Wallingford CT, 2013.
 
 ******************************************
 Gaussian 09:  ES64L-G09RevD.01 24-Apr-2013
                 2-Apr-2016 
 ******************************************
 %chk=Ala-S-opt-freq-ts2-6-31g.chk
 -----------------------------------------------
 # opt=(calcfc,ts) freq rb3lyp/6-31g iop(1/11=1)
 -----------------------------------------------
 1/5=1,10=4,11=1,14=-1,18=20,26=3,38=1/1,3;
 2/9=110,12=2,17=6,18=5,40=1/2;
 3/5=1,6=6,11=2,16=1,25=1,30=1,71=2,74=-5,116=1,140=1/1,2,3;
 4//1;
 5/5=2,38=5/2;
 8/6=4,10=90,11=11/1;
 11/6=1,8=1,9=11,15=111,16=1/1,2,10;
 10/6=1,13=1/2;
 6/7=2,8=2,9=2,10=2,28=1/1;
 7/10=1,18=20,25=1/1,2,3,16;
 1/5=1,10=4,11=1,14=-1,18=20,26=3/3(2);
 2/9=110/2;
 99//99;
 2/9=110/2;
 3/5=1,6=6,11=2,16=1,25=1,30=1,71=1,74=-5,116=1/1,2,3;
 4/5=5,16=3,69=1/1;
 5/5=2,38=5/2;
 7//1,2,3,16;
 1/5=1,11=1,14=-1,18=20,26=3/3(-5);
 2/9=110/2;
 6/7=2,8=2,9=2,10=2,19=2,28=1/1;
 99/9=1/99;
 ------------------------
 Ala-S-opt-freq-ts2-6-31g
 ------------------------
 Symbolic Z-matrix:
 Charge =  0 Multiplicity = 1
 N                    -1.23522  -1.15195  -0.53716 
 H                    -1.10854  -1.73365   0.28129 
 C                    -0.66583   0.18958  -0.42947 
 H                     0.37057   0.78905  -1.33308 
 C                    -1.33506   1.10323   0.63017 
 C                     0.81759   0.06933  -0.13856 
 H                    -1.254     0.65271   1.62503 
 H                    -0.87324   2.09747   0.65587 
 H                    -2.39665   1.22461   0.38732 
 O                     1.05367  -0.78937   0.92071 
 H                    -2.16323  -1.1969   -0.93659 
 O                     1.72882   0.66914  -0.70942 
 H                     2.01713  -0.8624    1.09381 
 
 Add virtual bond connecting atoms C3         and H4         Dist= 2.83D+00.
 Add virtual bond connecting atoms C6         and H4         Dist= 2.77D+00.
 Add virtual bond connecting atoms O12        and H4         Dist= 2.83D+00.

 GradGradGradGradGradGradGradGradGradGradGradGradGradGradGradGradGradGrad
 Berny optimization.
 Initialization pass.
                           ----------------------------
                           !    Initial Parameters    !
                           ! (Angstroms and Degrees)  !
 --------------------------                            --------------------------
 ! Name  Definition              Value          Derivative Info.                !
 --------------------------------------------------------------------------------
 ! R1    R(1,2)                  1.0121         calculate D2E/DX2 analytically  !
 ! R2    R(1,3)                  1.4613         calculate D2E/DX2 analytically  !
 ! R3    R(1,11)                 1.0113         calculate D2E/DX2 analytically  !
 ! R4    R(3,4)                  1.5            calculate D2E/DX2 analytically  !
 ! R5    R(3,5)                  1.551          calculate D2E/DX2 analytically  !
 ! R6    R(3,6)                  1.5164         calculate D2E/DX2 analytically  !
 ! R7    R(4,6)                  1.4645         calculate D2E/DX2 analytically  !
 ! R8    R(4,12)                 1.4994         calculate D2E/DX2 analytically  !
 ! R9    R(5,7)                  1.0951         calculate D2E/DX2 analytically  !
 ! R10   R(5,8)                  1.0966         calculate D2E/DX2 analytically  !
 ! R11   R(5,9)                  1.0958         calculate D2E/DX2 analytically  !
 ! R12   R(6,10)                 1.3839         calculate D2E/DX2 analytically  !
 ! R13   R(6,12)                 1.2313         calculate D2E/DX2 analytically  !
 ! R14   R(10,13)                0.9816         calculate D2E/DX2 analytically  !
 ! A1    A(2,1,3)              114.7883         calculate D2E/DX2 analytically  !
 ! A2    A(2,1,11)             114.1243         calculate D2E/DX2 analytically  !
 ! A3    A(3,1,11)             115.3058         calculate D2E/DX2 analytically  !
 ! A4    A(1,3,4)              126.2777         calculate D2E/DX2 analytically  !
 ! A5    A(1,3,5)              115.0253         calculate D2E/DX2 analytically  !
 ! A6    A(1,3,6)              108.8138         calculate D2E/DX2 analytically  !
 ! A7    A(4,3,5)              118.3125         calculate D2E/DX2 analytically  !
 ! A8    A(5,3,6)              109.7394         calculate D2E/DX2 analytically  !
 ! A9    A(3,4,12)             110.0821         calculate D2E/DX2 analytically  !
 ! A10   A(3,5,7)              110.2664         calculate D2E/DX2 analytically  !
 ! A11   A(3,5,8)              111.6179         calculate D2E/DX2 analytically  !
 ! A12   A(3,5,9)              109.3827         calculate D2E/DX2 analytically  !
 ! A13   A(7,5,8)              108.6953         calculate D2E/DX2 analytically  !
 ! A14   A(7,5,9)              108.5789         calculate D2E/DX2 analytically  !
 ! A15   A(8,5,9)              108.2267         calculate D2E/DX2 analytically  !
 ! A16   A(3,6,10)             111.2793         calculate D2E/DX2 analytically  !
 ! A17   A(3,6,12)             126.6118         calculate D2E/DX2 analytically  !
 ! A18   A(10,6,12)            122.0668         calculate D2E/DX2 analytically  !
 ! A19   A(6,10,13)            110.4007         calculate D2E/DX2 analytically  !
 ! A20   L(4,6,10,1,-1)        169.2273         calculate D2E/DX2 analytically  !
 ! A21   L(4,6,10,1,-2)        177.3837         calculate D2E/DX2 analytically  !
 ! D1    D(2,1,3,4)            121.4895         calculate D2E/DX2 analytically  !
 ! D2    D(2,1,3,5)            -65.7959         calculate D2E/DX2 analytically  !
 ! D3    D(2,1,3,6)             57.7651         calculate D2E/DX2 analytically  !
 ! D4    D(11,1,3,4)          -102.7573         calculate D2E/DX2 analytically  !
 ! D5    D(11,1,3,5)            69.9573         calculate D2E/DX2 analytically  !
 ! D6    D(11,1,3,6)          -166.4817         calculate D2E/DX2 analytically  !
 ! D7    D(1,3,4,12)           -98.1267         calculate D2E/DX2 analytically  !
 ! D8    D(5,3,4,12)            89.373          calculate D2E/DX2 analytically  !
 ! D9    D(1,3,5,7)             59.736          calculate D2E/DX2 analytically  !
 ! D10   D(1,3,5,8)           -179.3421         calculate D2E/DX2 analytically  !
 ! D11   D(1,3,5,9)            -59.6012         calculate D2E/DX2 analytically  !
 ! D12   D(4,3,5,7)           -126.9323         calculate D2E/DX2 analytically  !
 ! D13   D(4,3,5,8)             -6.0105         calculate D2E/DX2 analytically  !
 ! D14   D(4,3,5,9)            113.7304         calculate D2E/DX2 analytically  !
 ! D15   D(6,3,5,7)            -63.3325         calculate D2E/DX2 analytically  !
 ! D16   D(6,3,5,8)             57.5894         calculate D2E/DX2 analytically  !
 ! D17   D(6,3,5,9)            177.3303         calculate D2E/DX2 analytically  !
 ! D18   D(1,3,6,10)           -50.2687         calculate D2E/DX2 analytically  !
 ! D19   D(1,3,6,12)           132.0679         calculate D2E/DX2 analytically  !
 ! D20   D(5,3,6,10)            76.3899         calculate D2E/DX2 analytically  !
 ! D21   D(5,3,6,12)          -101.2735         calculate D2E/DX2 analytically  !
 ! D22   D(3,4,6,12)          -170.8944         calculate D2E/DX2 analytically  !
 ! D23   D(3,6,10,13)          179.6142         calculate D2E/DX2 analytically  !
 ! D24   D(12,6,10,13)          -2.599          calculate D2E/DX2 analytically  !
 --------------------------------------------------------------------------------
 Trust Radius=3.00D-01 FncErr=1.00D-07 GrdErr=1.00D-06
 Number of steps in this run=     69 maximum allowed number of steps=    100.
 Search for a saddle point of order  1.
 GradGradGradGradGradGradGradGradGradGradGradGradGradGradGradGradGradGrad

                          Input orientation:                          
 ---------------------------------------------------------------------
 Center     Atomic      Atomic             Coordinates (Angstroms)
 Number     Number       Type             X           Y           Z
 ---------------------------------------------------------------------
      1          7           0       -1.235224   -1.151951   -0.537164
      2          1           0       -1.108535   -1.733650    0.281293
      3          6           0       -0.665831    0.189580   -0.429471
      4          1           0        0.370568    0.789047   -1.333083
      5          6           0       -1.335056    1.103233    0.630165
      6          6           0        0.817588    0.069331   -0.138562
      7          1           0       -1.253999    0.652714    1.625026
      8          1           0       -0.873243    2.097472    0.655868
      9          1           0       -2.396654    1.224610    0.387320
     10          8           0        1.053667   -0.789368    0.920705
     11          1           0       -2.163232   -1.196899   -0.936587
     12          8           0        1.728820    0.669143   -0.709418
     13          1           0        2.017129   -0.862402    1.093808
 ---------------------------------------------------------------------
                    Distance matrix (angstroms):
                    1          2          3          4          5
     1  N    0.000000
     2  H    1.012075   0.000000
     3  C    1.461339   2.097614   0.000000
     4  H    2.641880   3.340353   1.500000   0.000000
     5  C    2.541354   2.867216   1.550952   2.619582   0.000000
     6  C    2.421663   2.671511   1.516450   1.464479   2.508739
     7  H    2.816422   2.742537   2.186640   3.377605   1.095119
     8  H    3.480389   3.856574   2.204775   2.686070   1.096560
     9  H    2.802076   3.228280   2.175818   3.287404   1.095763
    10  O    2.737859   2.444511   2.395410   2.835063   3.061429
    11  H    1.011315   1.698152   2.102784   3.243661   2.903652
    12  O    3.483046   3.847792   2.458191   1.499394   3.371981
    13  H    3.649892   3.345001   3.259650   3.365746   3.913544
                    6          7          8          9         10
     6  C    0.000000
     7  H    2.782454   0.000000
     8  H    2.757424   1.780890   0.000000
     9  H    3.455803   1.778944   1.776172   0.000000
    10  O    1.383887   2.810870   3.480943   4.030549   0.000000
    11  H    3.335486   3.287801   3.879802   2.769643   3.736851
    12  O    1.231257   3.787758   3.267241   4.304755   2.289189
    13  H    1.955955   3.643906   4.160156   4.933176   0.981610
                   11         12         13
    11  H    0.000000
    12  O    4.322243   0.000000
    13  H    4.659379   2.383354   0.000000
 Stoichiometry    C3H7NO2
 Framework group  C1[X(C3H7NO2)]
 Deg. of freedom    33
 Full point group                 C1      NOp   1
 Largest Abelian subgroup         C1      NOp   1
 Largest concise Abelian subgroup C1      NOp   1
                         Standard orientation:                         
 ---------------------------------------------------------------------
 Center     Atomic      Atomic             Coordinates (Angstroms)
 Number     Number       Type             X           Y           Z
 ---------------------------------------------------------------------
      1          7           0       -1.264489   -1.127210   -0.580182
      2          1           0       -1.171485   -1.715749    0.237906
      3          6           0       -0.673029    0.202603   -0.448718
      4          1           0        0.399092    0.787204   -1.319809
      5          6           0       -1.353885    1.122959    0.597624
      6          6           0        0.799247    0.052481   -0.117828
      7          1           0       -1.308881    0.665465    1.591586
      8          1           0       -0.874244    2.108054    0.642062
      9          1           0       -2.405883    1.265899    0.326396
     10          8           0        0.989689   -0.816424    0.942303
     11          1           0       -2.181790   -1.152240   -1.005260
     12          8           0        1.737082    0.637968   -0.659738
     13          1           0        1.946447   -0.908773    1.141410
 ---------------------------------------------------------------------
 Rotational constants (GHZ):      4.9184851      2.8154600      2.4948071
 Standard basis: 6-31G (6D, 7F)
 There are    68 symmetry adapted cartesian basis functions of A   symmetry.
 There are    68 symmetry adapted basis functions of A   symmetry.
    68 basis functions,   160 primitive gaussians,    68 cartesian basis functions
    24 alpha electrons       24 beta electrons
       nuclear repulsion energy       247.7660034445 Hartrees.
 NAtoms=   13 NActive=   13 NUniq=   13 SFac= 1.00D+00 NAtFMM=   60 NAOKFM=F Big=F
 Integral buffers will be    131072 words long.
 Raffenetti 2 integral format.
 Two-electron integral symmetry is turned on.
 One-electron integrals computed using PRISM.
 NBasis=    68 RedAO= T EigKep=  5.68D-03  NBF=    68
 NBsUse=    68 1.00D-06 EigRej= -1.00D+00 NBFU=    68
 ExpMin= 1.61D-01 ExpMax= 5.48D+03 ExpMxC= 8.25D+02 IAcc=1 IRadAn=         1 AccDes= 0.00D+00
 Harris functional with IExCor=  402 and IRadAn=       1 diagonalized for initial guess.
 HarFok:  IExCor=  402 AccDes= 0.00D+00 IRadAn=         1 IDoV= 1 UseB2=F ITyADJ=14
 ICtDFT=  3500011 ScaDFX=  1.000000  1.000000  1.000000  1.000000
 FoFCou: FMM=F IPFlag=           0 FMFlag=      100000 FMFlg1=           0
         NFxFlg=           0 DoJE=T BraDBF=F KetDBF=T FulRan=T
         wScrn=  0.000000 ICntrl=     500 IOpCl=  0 I1Cent=   200000004 NGrid=           0
         NMat0=    1 NMatS0=      1 NMatT0=    0 NMatD0=    1 NMtDS0=    0 NMtDT0=    0
 Petite list used in FoFCou.
 Keep R1 ints in memory in canonical form, NReq=3676491.
 Requested convergence on RMS density matrix=1.00D-08 within 128 cycles.
 Requested convergence on MAX density matrix=1.00D-06.
 Requested convergence on             energy=1.00D-06.
 No special actions if energy rises.
 Integral accuracy reduced to 1.0D-05 until final iterations.
 Initial convergence to 1.0D-05 achieved.  Increase integral accuracy.
 SCF Done:  E(RB3LYP) =  -323.492745117     A.U. after   15 cycles
            NFock= 15  Conv=0.54D-08     -V/T= 2.0055
 DoSCS=F DFT=T ScalE2(SS,OS)=  1.000000  1.000000
 Range of M.O.s used for correlation:     1    68
 NBasis=    68 NAE=    24 NBE=    24 NFC=     0 NFV=     0
 NROrb=     68 NOA=    24 NOB=    24 NVA=    44 NVB=    44
 Symmetrizing basis deriv contribution to polar:
 IMax=3 JMax=2 DiffMx= 0.00D+00
 G2DrvN: will do    14 centers at a time, making    1 passes.
 Calling FoFCou, ICntrl=  3107 FMM=F I1Cent=   0 AccDes= 0.00D+00.
 End of G2Drv F.D. properties file   721 does not exist.
 End of G2Drv F.D. properties file   722 does not exist.
 End of G2Drv F.D. properties file   788 does not exist.
          IDoAtm=1111111111111
          Differentiating once with respect to nuclear coordinates.
 Keep R1 ints in memory in canonical form, NReq=3645290.
          There are    42 degrees of freedom in the 1st order CPHF.  IDoFFX=6 NUNeed=     0.
     36 vectors produced by pass  0 Test12= 2.51D-15 2.38D-09 XBig12= 1.74D-01 9.15D-02.
 AX will form    36 AO Fock derivatives at one time.
     36 vectors produced by pass  1 Test12= 2.51D-15 2.38D-09 XBig12= 2.49D-02 4.12D-02.
     36 vectors produced by pass  2 Test12= 2.51D-15 2.38D-09 XBig12= 1.80D-04 2.85D-03.
     36 vectors produced by pass  3 Test12= 2.51D-15 2.38D-09 XBig12= 2.03D-07 5.84D-05.
     36 vectors produced by pass  4 Test12= 2.51D-15 2.38D-09 XBig12= 1.31D-10 1.77D-06.
     19 vectors produced by pass  5 Test12= 2.51D-15 2.38D-09 XBig12= 7.97D-14 4.29D-08.
 InvSVY:  IOpt=1 It=  1 EMax= 1.78D-15
 Solved reduced A of dimension   199 with    36 vectors.
 End of Minotr F.D. properties file   721 does not exist.
 End of Minotr F.D. properties file   722 does not exist.
 End of Minotr F.D. properties file   788 does not exist.

 **********************************************************************

            Population analysis using the SCF density.

 **********************************************************************

 Orbital symmetries:
       Occupied  (A) (A) (A) (A) (A) (A) (A) (A) (A) (A) (A) (A)
                 (A) (A) (A) (A) (A) (A) (A) (A) (A) (A) (A) (A)
       Virtual   (A) (A) (A) (A) (A) (A) (A) (A) (A) (A) (A) (A)
                 (A) (A) (A) (A) (A) (A) (A) (A) (A) (A) (A) (A)
                 (A) (A) (A) (A) (A) (A) (A) (A) (A) (A) (A) (A)
                 (A) (A) (A) (A) (A) (A) (A) (A)
 The electronic state is 1-A.
 Alpha  occ. eigenvalues --  -19.21054 -19.18678 -14.31038 -10.35354 -10.23369
 Alpha  occ. eigenvalues --  -10.18144  -1.14858  -1.06444  -0.88688  -0.75402
 Alpha  occ. eigenvalues --   -0.68367  -0.61237  -0.51513  -0.50702  -0.48432
 Alpha  occ. eigenvalues --   -0.47470  -0.42149  -0.41103  -0.39951  -0.38733
 Alpha  occ. eigenvalues --   -0.34441  -0.32546  -0.25811  -0.21343
 Alpha virt. eigenvalues --   -0.03182   0.04389   0.05182   0.09945   0.13830
 Alpha virt. eigenvalues --    0.15699   0.17455   0.17738   0.19633   0.22843
 Alpha virt. eigenvalues --    0.27187   0.29925   0.34882   0.50961   0.53834
 Alpha virt. eigenvalues --    0.57310   0.57910   0.62360   0.63735   0.66192
 Alpha virt. eigenvalues --    0.70636   0.74848   0.76389   0.79203   0.79930
 Alpha virt. eigenvalues --    0.80714   0.88657   0.90794   0.93533   0.94605
 Alpha virt. eigenvalues --    0.94707   0.96744   0.96937   0.99233   1.00366
 Alpha virt. eigenvalues --    1.05759   1.10170   1.12905   1.21293   1.37766
 Alpha virt. eigenvalues --    1.46257   1.58265   1.80713   1.84743
          Condensed to atoms (all electrons):
               1          2          3          4          5          6
     1  N    6.926275   0.322451   0.266671  -0.006387  -0.090082  -0.046255
     2  H    0.322451   0.452794  -0.042211   0.003325   0.003060  -0.021625
     3  C    0.266671  -0.042211   5.451858   0.248333   0.306322   0.189369
     4  H   -0.006387   0.003325   0.248333   0.657708  -0.014373  -0.084774
     5  C   -0.090082   0.003060   0.306322  -0.014373   5.189956  -0.058012
     6  C   -0.046255  -0.021625   0.189369  -0.084774  -0.058012   5.041533
     7  H    0.002178   0.004448  -0.044451   0.003980   0.366105  -0.018318
     8  H    0.006019  -0.000024  -0.023072   0.000967   0.332802   0.002191
     9  H   -0.001522  -0.000649  -0.032758  -0.001918   0.371990   0.005981
    10  O    0.002467   0.013436  -0.130994   0.020556   0.001491   0.140098
    11  H    0.331856  -0.034464  -0.037880  -0.001680  -0.001105   0.006666
    12  O    0.002580  -0.000231  -0.152708  -0.038100   0.002726   0.393118
    13  H   -0.000534  -0.000666   0.010018  -0.001961  -0.000586  -0.015988
               7          8          9         10         11         12
     1  N    0.002178   0.006019  -0.001522   0.002467   0.331856   0.002580
     2  H    0.004448  -0.000024  -0.000649   0.013436  -0.034464  -0.000231
     3  C   -0.044451  -0.023072  -0.032758  -0.130994  -0.037880  -0.152708
     4  H    0.003980   0.000967  -0.001918   0.020556  -0.001680  -0.038100
     5  C    0.366105   0.332802   0.371990   0.001491  -0.001105   0.002726
     6  C   -0.018318   0.002191   0.005981   0.140098   0.006666   0.393118
     7  H    0.601167  -0.028596  -0.035722   0.006814  -0.000518  -0.000362
     8  H   -0.028596   0.595065  -0.026011  -0.000080  -0.000062   0.000486
     9  H   -0.035722  -0.026011   0.573455  -0.000068   0.002631  -0.000029
    10  O    0.006814  -0.000080  -0.000068   8.376113   0.000044  -0.105856
    11  H   -0.000518  -0.000062   0.002631   0.000044   0.441628  -0.000065
    12  O   -0.000362   0.000486  -0.000029  -0.105856  -0.000065   8.298432
    13  H   -0.000344  -0.000007   0.000016   0.226593   0.000021   0.002114
              13
     1  N   -0.000534
     2  H   -0.000666
     3  C    0.010018
     4  H   -0.001961
     5  C   -0.000586
     6  C   -0.015988
     7  H   -0.000344
     8  H   -0.000007
     9  H    0.000016
    10  O    0.226593
    11  H    0.000021
    12  O    0.002114
    13  H    0.396265
 Mulliken charges:
               1
     1  N   -0.715717
     2  H    0.300355
     3  C   -0.008497
     4  H    0.214324
     5  C   -0.410293
     6  C    0.466016
     7  H    0.143618
     8  H    0.140323
     9  H    0.144604
    10  O   -0.550613
    11  H    0.292927
    12  O   -0.402107
    13  H    0.385059
 Sum of Mulliken charges =   0.00000
 Mulliken charges with hydrogens summed into heavy atoms:
               1
     1  N   -0.122434
     3  C   -0.008497
     5  C    0.018252
     6  C    0.680340
    10  O   -0.165554
    12  O   -0.402107
 APT charges:
               1
     1  N   -1.261787
     2  H    0.457922
     3  C   -0.123304
     4  H    0.192740
     5  C   -1.184679
     6  C    0.138715
     7  H    0.309798
     8  H    0.361119
     9  H    0.493213
    10  O   -0.756600
    11  H    0.684202
    12  O   -0.018098
    13  H    0.706759
 Sum of APT charges =   0.00000
 APT charges with hydrogens summed into heavy atoms:
               1
     1  N   -0.119664
     3  C   -0.123304
     5  C   -0.020549
     6  C    0.331455
    10  O   -0.049840
    12  O   -0.018098
 Electronic spatial extent (au):  <R**2>=            580.5120
 Charge=              0.0000 electrons
 Dipole moment (field-independent basis, Debye):
    X=             -0.6980    Y=             -0.6538    Z=              2.0833  Tot=              2.2923
 Quadrupole moment (field-independent basis, Debye-Ang):
   XX=            -32.0162   YY=            -37.2359   ZZ=            -38.5279
   XY=             -2.0776   XZ=              3.7082   YZ=             -0.5781
 Traceless Quadrupole moment (field-independent basis, Debye-Ang):
   XX=              3.9104   YY=             -1.3092   ZZ=             -2.6012
   XY=             -2.0776   XZ=              3.7082   YZ=             -0.5781
 Octapole moment (field-independent basis, Debye-Ang**2):
  XXX=             -0.5049  YYY=             -4.9125  ZZZ=              5.2049  XYY=              0.8951
  XXY=            -15.5642  XXZ=              7.9013  XZZ=              5.0125  YZZ=             -1.5565
  YYZ=              5.4590  XYZ=             -0.8091
 Hexadecapole moment (field-independent basis, Debye-Ang**3):
 XXXX=           -343.4339 YYYY=           -198.7934 ZZZZ=           -140.5096 XXXY=             -6.9969
 XXXZ=             38.5077 YYYX=              6.7780 YYYZ=             -9.1698 ZZZX=              6.1845
 ZZZY=             -5.9261 XXYY=            -87.1660 XXZZ=            -76.3177 YYZZ=            -60.4900
 XXYZ=             -1.2938 YYXZ=              2.0408 ZZXY=             -0.7881
 N-N= 2.477660034445D+02 E-N=-1.252553511150D+03  KE= 3.217117801118D+02
  Exact polarizability:   0.000   0.000   0.000   0.000   0.000   0.000
 Approx polarizability:  84.758  14.348  61.425  -8.576 -16.084  60.034
 Calling FoFJK, ICntrl=    100147 FMM=F ISym2X=0 I1Cent= 0 IOpClX= 0 NMat=1 NMatS=1 NMatT=0.
 ***** Axes restored to original set *****
 -------------------------------------------------------------------
 Center     Atomic                   Forces (Hartrees/Bohr)
 Number     Number              X              Y              Z
 -------------------------------------------------------------------
      1        7           0.002519263    0.017621815   -0.012878414
      2        1           0.001816493   -0.000583044    0.001590709
      3        6           0.064395688    0.016180392   -0.018754080
      4        1          -0.098394469    0.008223447   -0.031852570
      5        6           0.002883096    0.004308666   -0.016171474
      6        6          -0.025703428   -0.057992450    0.086203831
      7        1           0.000019019   -0.002161033    0.001258055
      8        1          -0.001040704    0.000342512    0.000654465
      9        1           0.000436149    0.000978197    0.000010932
     10        8           0.014522986    0.005286943   -0.005435802
     11        1           0.001334228   -0.000297777   -0.001266534
     12        8           0.035251944    0.011978021   -0.006397077
     13        1           0.001959734   -0.003885688    0.003037958
 -------------------------------------------------------------------
 Cartesian Forces:  Max     0.098394469 RMS     0.027499358
 FormGI is forming the generalized inverse of G from B-inverse, IUseBI=4.

 GradGradGradGradGradGradGradGradGradGradGradGradGradGradGradGradGradGrad
 Berny optimization.
 Internal  Forces:  Max     0.053841804 RMS     0.013314094
 Search for a saddle point.
 Step number   1 out of a maximum of   69
 All quantities printed in internal units (Hartrees-Bohrs-Radians)
 Swapping is turned off.
 Second derivative matrix not updated -- analytic derivatives used.
 ITU=  0
     Eigenvalues ---   -0.03305  -0.00077   0.00240   0.00480   0.01005
     Eigenvalues ---    0.01710   0.02079   0.02969   0.04499   0.04795
     Eigenvalues ---    0.04925   0.05283   0.06922   0.09808   0.11874
     Eigenvalues ---    0.12563   0.13082   0.14157   0.15450   0.15585
     Eigenvalues ---    0.17499   0.19494   0.24488   0.26920   0.33886
     Eigenvalues ---    0.33961   0.34226   0.34863   0.37123   0.46418
     Eigenvalues ---    0.47111   0.47358   0.69464
 Eigenvectors required to have negative eigenvalues:
                          R4        R8        A20       A21       D7
   1                   -0.70414   0.55325  -0.28245   0.13067  -0.11062
                          D13       D14       D4        D12       A4
   1                   -0.09136  -0.08724   0.08667  -0.08527  -0.07851
 RFO step:  Lambda0=5.017396346D-02 Lambda=-3.81319418D-02.
 Linear search not attempted -- option 19 set.
 Maximum step size (   0.300) exceeded in Quadratic search.
    -- Step size scaled by   0.308
 Iteration  1 RMS(Cart)=  0.04305563 RMS(Int)=  0.00189364
 Iteration  2 RMS(Cart)=  0.00163014 RMS(Int)=  0.00076613
 Iteration  3 RMS(Cart)=  0.00000188 RMS(Int)=  0.00076613
 Iteration  4 RMS(Cart)=  0.00000000 RMS(Int)=  0.00076613
 Variable       Old X    -DE/DX   Delta X   Delta X   Delta X     New X
                                 (Linear)    (Quad)   (Total)
    R1        1.91254   0.00184   0.00000   0.00460   0.00460   1.91714
    R2        2.76153  -0.01664   0.00000   0.00449   0.00449   2.76602
    R3        1.91111  -0.00071   0.00000   0.00087   0.00087   1.91198
    R4        2.83459  -0.05384   0.00000   0.14740   0.14618   2.98076
    R5        2.93087  -0.00868   0.00000  -0.00469  -0.00469   2.92619
    R6        2.86567  -0.00355   0.00000  -0.01997  -0.01986   2.84582
    R7        2.76746   0.03770   0.00000   0.10037   0.10144   2.86890
    R8        2.83344   0.03045   0.00000  -0.17090  -0.17172   2.66173
    R9        2.06948   0.00204   0.00000   0.00457   0.00457   2.07404
   R10        2.07220  -0.00011   0.00000   0.00033   0.00033   2.07253
   R11        2.07069  -0.00032   0.00000   0.00020   0.00020   2.07089
   R12        2.61517   0.00011   0.00000  -0.03289  -0.03289   2.58228
   R13        2.32674   0.02148   0.00000   0.02669   0.02772   2.35446
   R14        1.85497   0.00275   0.00000   0.00032   0.00032   1.85530
    A1        2.00343  -0.00147   0.00000  -0.00177  -0.00184   2.00160
    A2        1.99184   0.00106   0.00000  -0.01242  -0.01253   1.97932
    A3        2.01247   0.00107   0.00000  -0.00359  -0.00366   2.00881
    A4        2.20396  -0.00827   0.00000   0.01253   0.01165   2.21561
    A5        2.00757   0.01545   0.00000  -0.00121  -0.00163   2.00594
    A6        1.89916  -0.01185   0.00000  -0.01629  -0.01505   1.88410
    A7        2.06494  -0.00882   0.00000  -0.01047  -0.00915   2.05579
    A8        1.91531  -0.00797   0.00000  -0.00221  -0.00271   1.91260
    A9        1.92129  -0.00012   0.00000  -0.03175  -0.03373   1.88757
   A10        1.92451  -0.00212   0.00000   0.00771   0.00769   1.93221
   A11        1.94810   0.00206   0.00000   0.00351   0.00349   1.95159
   A12        1.90909   0.00062   0.00000  -0.00148  -0.00148   1.90761
   A13        1.89709   0.00032   0.00000  -0.00259  -0.00262   1.89448
   A14        1.89506   0.00039   0.00000  -0.00397  -0.00397   1.89109
   A15        1.88891  -0.00129   0.00000  -0.00359  -0.00359   1.88532
   A16        1.94219   0.03167   0.00000   0.06590   0.06627   2.00846
   A17        2.20979  -0.03019   0.00000  -0.06569  -0.06554   2.14425
   A18        2.13047  -0.00131   0.00000  -0.00002  -0.00061   2.12986
   A19        1.92686   0.00814   0.00000   0.01775   0.01775   1.94460
   A20        2.95357   0.00242   0.00000   0.12419   0.12227   3.07584
   A21        3.09593  -0.00047   0.00000   0.00057  -0.00108   3.09485
    D1        2.12039   0.01303   0.00000   0.08511   0.08459   2.20498
    D2       -1.14835  -0.00285   0.00000   0.09218   0.09228  -1.05607
    D3        1.00819  -0.01155   0.00000   0.07560   0.07596   1.08415
    D4       -1.79345   0.01425   0.00000   0.05916   0.05868  -1.73477
    D5        1.22099  -0.00162   0.00000   0.06623   0.06638   1.28736
    D6       -2.90565  -0.01033   0.00000   0.04965   0.05005  -2.85560
    D7       -1.71263  -0.00829   0.00000   0.05195   0.05287  -1.65977
    D8        1.55985   0.00648   0.00000   0.04400   0.04444   1.60429
    D9        1.04259   0.00077   0.00000  -0.01182  -0.01156   1.03103
   D10       -3.13011   0.00111   0.00000  -0.00749  -0.00722  -3.13733
   D11       -1.04024   0.00121   0.00000  -0.01073  -0.01047  -1.05070
   D12       -2.21539  -0.01389   0.00000  -0.00361  -0.00305  -2.21844
   D13       -0.10490  -0.01355   0.00000   0.00071   0.00129  -0.10361
   D14        1.98497  -0.01346   0.00000  -0.00253  -0.00195   1.98302
   D15       -1.10536   0.01146   0.00000   0.01239   0.01155  -1.09381
   D16        1.00512   0.01179   0.00000   0.01672   0.01589   1.02102
   D17        3.09500   0.01189   0.00000   0.01348   0.01264   3.10764
   D18       -0.87735  -0.00120   0.00000  -0.03882  -0.03963  -0.91698
   D19        2.30502  -0.00603   0.00000  -0.04454  -0.04349   2.26153
   D20        1.33325   0.00458   0.00000  -0.05330  -0.05385   1.27940
   D21       -1.76756  -0.00026   0.00000  -0.05902  -0.05771  -1.82527
   D22       -2.98267   0.00119   0.00000  -0.04321  -0.04541  -3.02808
   D23        3.13486  -0.00289   0.00000  -0.00599  -0.00524   3.12962
   D24       -0.04536   0.00085   0.00000  -0.00245  -0.00320  -0.04856
         Item               Value     Threshold  Converged?
 Maximum Force            0.053842     0.000450     NO 
 RMS     Force            0.013314     0.000300     NO 
 Maximum Displacement     0.148447     0.001800     NO 
 RMS     Displacement     0.043301     0.001200     NO 
 Predicted change in Energy= 3.711990D-03
 GradGradGradGradGradGradGradGradGradGradGradGradGradGradGradGradGradGrad

                          Input orientation:                          
 ---------------------------------------------------------------------
 Center     Atomic      Atomic             Coordinates (Angstroms)
 Number     Number       Type             X           Y           Z
 ---------------------------------------------------------------------
      1          7           0       -1.241323   -1.157091   -0.537940
      2          1           0       -1.187090   -1.713466    0.308659
      3          6           0       -0.668332    0.185074   -0.425065
      4          1           0        0.426941    0.829966   -1.359159
      5          6           0       -1.333948    1.091571    0.639350
      6          6           0        0.798669    0.039116   -0.117716
      7          1           0       -1.265666    0.635286    1.635206
      8          1           0       -0.868981    2.084120    0.677799
      9          1           0       -2.393408    1.222858    0.391887
     10          8           0        1.089676   -0.761312    0.950883
     11          1           0       -2.145083   -1.201187   -0.990674
     12          8           0        1.686130    0.633209   -0.759433
     13          1           0        2.058413   -0.827285    1.096102
 ---------------------------------------------------------------------
                    Distance matrix (angstroms):
                    1          2          3          4          5
     1  N    0.000000
     2  H    1.014508   0.000000
     3  C    1.463716   2.100456   0.000000
     4  H    2.721379   3.443220   1.577353   0.000000
     5  C    2.539896   2.828278   1.548471   2.676417   0.000000
     6  C    2.401888   2.682644   1.505941   1.518159   2.495769
     7  H    2.817050   2.698617   2.191852   3.445147   1.097537
     8  H    3.481682   3.828723   2.205209   2.720572   1.096735
     9  H    2.802862   3.175552   2.172624   3.342887   1.095869
    10  O    2.794064   2.550041   2.424762   2.882305   3.066624
    11  H    1.011778   1.693649   2.102956   3.297980   2.927739
    12  O    3.438636   3.860453   2.419942   1.408525   3.359697
    13  H    3.696907   3.455238   3.282370   3.381788   3.924123
                    6          7          8          9         10
     6  C    0.000000
     7  H    2.773018   0.000000
     8  H    2.756074   1.781322   0.000000
     9  H    3.442425   1.778450   1.774090   0.000000
    10  O    1.366483   2.822485   3.465170   4.047380   0.000000
    11  H    3.311507   3.322838   3.899421   2.801631   3.798263
    12  O    1.245927   3.800973   3.270989   4.279702   2.285964
    13  H    1.952168   3.671409   4.149806   4.951536   0.981780
                   11         12         13
    11  H    0.000000
    12  O    4.254019   0.000000
    13  H    4.707846   2.390533   0.000000
 Stoichiometry    C3H7NO2
 Framework group  C1[X(C3H7NO2)]
 Deg. of freedom    33
 Full point group                 C1      NOp   1
 Largest Abelian subgroup         C1      NOp   1
 Largest concise Abelian subgroup C1      NOp   1
                         Standard orientation:                         
 ---------------------------------------------------------------------
 Center     Atomic      Atomic             Coordinates (Angstroms)
 Number     Number       Type             X           Y           Z
 ---------------------------------------------------------------------
      1          7           0       -1.256486   -1.140021   -0.575727
      2          1           0       -1.229792   -1.698538    0.270779
      3          6           0       -0.674207    0.196497   -0.444820
      4          1           0        0.451289    0.832938   -1.348282
      5          6           0       -1.359215    1.107098    0.603671
      6          6           0        0.782750    0.036210   -0.099216
      7          1           0       -1.321485    0.648242    1.599971
      8          1           0       -0.886207    2.095173    0.656557
      9          1           0       -2.410508    1.248782    0.328646
     10          8           0        1.037995   -0.769001    0.974916
     11          1           0       -2.148355   -1.174767   -1.052231
     12          8           0        1.692327    0.623226   -0.715996
     13          1           0        2.001906   -0.844323    1.145484
 ---------------------------------------------------------------------
 Rotational constants (GHZ):      4.8853228      2.7933271      2.5279530
 Standard basis: 6-31G (6D, 7F)
 There are    68 symmetry adapted cartesian basis functions of A   symmetry.
 There are    68 symmetry adapted basis functions of A   symmetry.
    68 basis functions,   160 primitive gaussians,    68 cartesian basis functions
    24 alpha electrons       24 beta electrons
       nuclear repulsion energy       247.6977763868 Hartrees.
 NAtoms=   13 NActive=   13 NUniq=   13 SFac= 1.00D+00 NAtFMM=   60 NAOKFM=F Big=F
 Integral buffers will be    131072 words long.
 Raffenetti 2 integral format.
 Two-electron integral symmetry is turned on.
 One-electron integrals computed using PRISM.
 NBasis=    68 RedAO= T EigKep=  5.63D-03  NBF=    68
 NBsUse=    68 1.00D-06 EigRej= -1.00D+00 NBFU=    68
 Initial guess from the checkpoint file:  "Ala-S-opt-freq-ts2-6-31g.chk"
 B after Tr=     0.000000    0.000000    0.000000
         Rot=    0.999945    0.007601   -0.004795   -0.005366 Ang=   1.20 deg.
 ExpMin= 1.61D-01 ExpMax= 5.48D+03 ExpMxC= 8.25D+02 IAcc=1 IRadAn=         1 AccDes= 0.00D+00
 Harris functional with IExCor=  402 and IRadAn=       1 diagonalized for initial guess.
 HarFok:  IExCor=  402 AccDes= 0.00D+00 IRadAn=         1 IDoV= 1 UseB2=F ITyADJ=14
 ICtDFT=  3500011 ScaDFX=  1.000000  1.000000  1.000000  1.000000
 FoFCou: FMM=F IPFlag=           0 FMFlag=      100000 FMFlg1=           0
         NFxFlg=           0 DoJE=T BraDBF=F KetDBF=T FulRan=T
         wScrn=  0.000000 ICntrl=     500 IOpCl=  0 I1Cent=   200000004 NGrid=           0
         NMat0=    1 NMatS0=      1 NMatT0=    0 NMatD0=    1 NMtDS0=    0 NMtDT0=    0
 Petite list used in FoFCou.
 Keep R1 ints in memory in canonical form, NReq=3676491.
 Requested convergence on RMS density matrix=1.00D-08 within 128 cycles.
 Requested convergence on MAX density matrix=1.00D-06.
 Requested convergence on             energy=1.00D-06.
 No special actions if energy rises.
 Integral accuracy reduced to 1.0D-05 until final iterations.
 Initial convergence to 1.0D-05 achieved.  Increase integral accuracy.
 SCF Done:  E(RB3LYP) =  -323.489272187     A.U. after   14 cycles
            NFock= 14  Conv=0.80D-08     -V/T= 2.0055
 Calling FoFJK, ICntrl=      2127 FMM=F ISym2X=0 I1Cent= 0 IOpClX= 0 NMat=1 NMatS=1 NMatT=0.
 ***** Axes restored to original set *****
 -------------------------------------------------------------------
 Center     Atomic                   Forces (Hartrees/Bohr)
 Number     Number              X              Y              Z
 -------------------------------------------------------------------
      1        7           0.000882445    0.013244117   -0.010679581
      2        1           0.000594891   -0.000356382    0.001488486
      3        6           0.055068004    0.013389925   -0.014429724
      4        1          -0.078525636    0.007846334   -0.025325445
      5        6           0.001191429    0.003354783   -0.012525275
      6        6          -0.018889272   -0.043966205    0.067825404
      7        1          -0.000354012   -0.001577922    0.001033219
      8        1          -0.000698360    0.000235477    0.000512224
      9        1           0.000335768    0.000860462   -0.000042473
     10        8           0.010579409    0.003716172   -0.004503447
     11        1           0.001310042   -0.000381114   -0.001370362
     12        8           0.026939782    0.006522743   -0.004210014
     13        1           0.001565509   -0.002888389    0.002226988
 -------------------------------------------------------------------
 Cartesian Forces:  Max     0.078525636 RMS     0.021837801

 GradGradGradGradGradGradGradGradGradGradGradGradGradGradGradGradGradGrad
 Berny optimization.
 FormGI is forming the generalized inverse of G from B-inverse, IUseBI=4.
 Internal  Forces:  Max     0.044037587 RMS     0.010558324
 Search for a saddle point.
 Step number   2 out of a maximum of   69
 All quantities printed in internal units (Hartrees-Bohrs-Radians)
 Swapping is turned off.
 Update second derivatives using D2CorX and points    1    2
 ITU=  0  0
     Eigenvalues ---   -0.04292   0.00068   0.00239   0.00478   0.01005
     Eigenvalues ---    0.01742   0.02079   0.02979   0.04514   0.04798
     Eigenvalues ---    0.04924   0.05284   0.06958   0.09794   0.11881
     Eigenvalues ---    0.12560   0.13082   0.14156   0.15448   0.15582
     Eigenvalues ---    0.17500   0.19494   0.24467   0.26917   0.33886
     Eigenvalues ---    0.33961   0.34225   0.34863   0.37086   0.46418
     Eigenvalues ---    0.47111   0.47352   0.69300
 Eigenvectors required to have negative eigenvalues:
                          R4        R8        A20       A21       D7
   1                    0.68977  -0.56761   0.27949  -0.13163   0.10900
                          D3        D13       D14       D12       D6
   1                    0.09588   0.09243   0.08740   0.08572   0.08056
 RFO step:  Lambda0=3.564170052D-02 Lambda=-2.66970100D-02.
 Linear search not attempted -- option 19 set.
 Maximum step size (   0.300) exceeded in Quadratic search.
    -- Step size scaled by   0.375
 Iteration  1 RMS(Cart)=  0.03881589 RMS(Int)=  0.00135782
 Iteration  2 RMS(Cart)=  0.00122934 RMS(Int)=  0.00054199
 Iteration  3 RMS(Cart)=  0.00000087 RMS(Int)=  0.00054199
 Variable       Old X    -DE/DX   Delta X   Delta X   Delta X     New X
                                 (Linear)    (Quad)   (Total)
    R1        1.91714   0.00146   0.00000   0.00384   0.00384   1.92099
    R2        2.76602  -0.01175   0.00000   0.00126   0.00125   2.76728
    R3        1.91198  -0.00054   0.00000   0.00015   0.00015   1.91213
    R4        2.98076  -0.04404   0.00000   0.15530   0.15408   3.13484
    R5        2.92619  -0.00609   0.00000  -0.00328  -0.00328   2.92291
    R6        2.84582  -0.00179   0.00000  -0.02409  -0.02401   2.82181
    R7        2.86890   0.02922   0.00000   0.10244   0.10366   2.97256
    R8        2.66173   0.02506   0.00000  -0.16653  -0.16740   2.49433
    R9        2.07404   0.00157   0.00000   0.00508   0.00508   2.07912
   R10        2.07253  -0.00007   0.00000   0.00023   0.00023   2.07276
   R11        2.07089  -0.00021   0.00000   0.00017   0.00017   2.07106
   R12        2.58228   0.00033   0.00000  -0.03033  -0.03033   2.55195
   R13        2.35446   0.01566   0.00000   0.03004   0.03096   2.38543
   R14        1.85530   0.00207   0.00000   0.00038   0.00038   1.85567
    A1        2.00160  -0.00087   0.00000   0.00544   0.00543   2.00703
    A2        1.97932   0.00064   0.00000  -0.00801  -0.00802   1.97130
    A3        2.00881   0.00080   0.00000  -0.00274  -0.00274   2.00607
    A4        2.21561  -0.00629   0.00000   0.02507   0.02478   2.24038
    A5        2.00594   0.01136   0.00000  -0.00213  -0.00251   2.00342
    A6        1.88410  -0.00896   0.00000  -0.00465  -0.00408   1.88002
    A7        2.05579  -0.00639   0.00000  -0.02447  -0.02383   2.03196
    A8        1.91260  -0.00574   0.00000   0.00778   0.00819   1.92079
    A9        1.88757  -0.00008   0.00000  -0.04282  -0.04463   1.84294
   A10        1.93221  -0.00122   0.00000   0.01047   0.01045   1.94266
   A11        1.95159   0.00143   0.00000   0.00318   0.00316   1.95475
   A12        1.90761   0.00043   0.00000  -0.00325  -0.00325   1.90436
   A13        1.89448   0.00018   0.00000  -0.00198  -0.00202   1.89245
   A14        1.89109   0.00012   0.00000  -0.00539  -0.00538   1.88571
   A15        1.88532  -0.00097   0.00000  -0.00363  -0.00363   1.88169
   A16        2.00846   0.02453   0.00000   0.06670   0.06715   2.07561
   A17        2.14425  -0.02347   0.00000  -0.06161  -0.06111   2.08315
   A18        2.12986  -0.00095   0.00000  -0.00477  -0.00577   2.12409
   A19        1.94460   0.00601   0.00000   0.01605   0.01605   1.96066
   A20        3.07584  -0.00002   0.00000   0.10661   0.10532   3.18116
   A21        3.09485  -0.00061   0.00000  -0.04194  -0.04130   3.05354
    D1        2.20498   0.01134   0.00000   0.05134   0.05090   2.25588
    D2       -1.05607  -0.00241   0.00000   0.03390   0.03377  -1.02231
    D3        1.08415  -0.00891   0.00000   0.03900   0.03957   1.12372
    D4       -1.73477   0.01227   0.00000   0.04184   0.04140  -1.69338
    D5        1.28736  -0.00149   0.00000   0.02440   0.02426   1.31162
    D6       -2.85560  -0.00798   0.00000   0.02950   0.03007  -2.82553
    D7       -1.65977  -0.00710   0.00000   0.02244   0.02262  -1.63715
    D8        1.60429   0.00594   0.00000   0.03886   0.03864   1.64293
    D9        1.03103   0.00092   0.00000  -0.00428  -0.00425   1.02677
   D10       -3.13733   0.00128   0.00000   0.00266   0.00272  -3.13461
   D11       -1.05070   0.00125   0.00000  -0.00201  -0.00197  -1.05267
   D12       -2.21844  -0.01163   0.00000  -0.01658  -0.01589  -2.23432
   D13       -0.10361  -0.01127   0.00000  -0.00963  -0.00892  -0.11252
   D14        1.98302  -0.01130   0.00000  -0.01431  -0.01360   1.96942
   D15       -1.09381   0.00904   0.00000  -0.00265  -0.00341  -1.09722
   D16        1.02102   0.00940   0.00000   0.00429   0.00356   1.02458
   D17        3.10764   0.00937   0.00000  -0.00038  -0.00112   3.10652
   D18       -0.91698  -0.00120   0.00000   0.01643   0.01632  -0.90066
   D19        2.26153  -0.00446   0.00000   0.00657   0.00677   2.26830
   D20        1.27940   0.00317   0.00000   0.01575   0.01580   1.29521
   D21       -1.82527  -0.00008   0.00000   0.00588   0.00625  -1.81902
   D22       -3.02808   0.00016   0.00000  -0.01250  -0.01302  -3.04110
   D23        3.12962  -0.00222   0.00000  -0.01845  -0.01851   3.11112
   D24       -0.04856   0.00047   0.00000  -0.01002  -0.00996  -0.05851
         Item               Value     Threshold  Converged?
 Maximum Force            0.044038     0.000450     NO 
 RMS     Force            0.010558     0.000300     NO 
 Maximum Displacement     0.120251     0.001800     NO 
 RMS     Displacement     0.038964     0.001200     NO 
 Predicted change in Energy= 3.356237D-03
 GradGradGradGradGradGradGradGradGradGradGradGradGradGradGradGradGradGrad

                          Input orientation:                          
 ---------------------------------------------------------------------
 Center     Atomic      Atomic             Coordinates (Angstroms)
 Number     Number       Type             X           Y           Z
 ---------------------------------------------------------------------
      1          7           0       -1.248338   -1.164850   -0.520842
      2          1           0       -1.243246   -1.708784    0.337917
      3          6           0       -0.665691    0.173941   -0.408741
      4          1           0        0.490575    0.877251   -1.368070
      5          6           0       -1.343047    1.090480    0.636983
      6          6           0        0.783508    0.013324   -0.086594
      7          1           0       -1.304627    0.646037    1.642708
      8          1           0       -0.876094    2.082130    0.678029
      9          1           0       -2.396217    1.226778    0.366094
     10          8           0        1.138541   -0.775511    0.950401
     11          1           0       -2.134213   -1.205188   -1.008130
     12          8           0        1.642036    0.639073   -0.768358
     13          1           0        2.112810   -0.833821    1.058504
 ---------------------------------------------------------------------
                    Distance matrix (angstroms):
                    1          2          3          4          5
     1  N    0.000000
     2  H    1.016542   0.000000
     3  C    1.464379   2.106115   0.000000
     4  H    2.812791   3.550226   1.658888   0.000000
     5  C    2.536935   2.816963   1.546736   2.725413   0.000000
     6  C    2.388527   2.693250   1.493236   1.573011   2.491198
     7  H    2.821955   2.692847   2.199899   3.512976   1.100222
     8  H    3.481197   3.823807   2.206019   2.739715   1.096859
     9  H    2.797171   3.153991   2.168768   3.385715   1.095958
    10  O    2.830783   2.630407   2.450302   2.920067   3.120647
    11  H    1.011855   1.690939   2.101862   3.369811   2.932990
    12  O    3.416089   3.880867   2.381444   1.319942   3.330086
    13  H    3.728436   3.542304   3.299766   3.383442   3.977884
                    6          7          8          9         10
     6  C    0.000000
     7  H    2.784083   0.000000
     8  H    2.760233   1.782304   0.000000
     9  H    3.433373   1.777237   1.771920   0.000000
    10  O    1.350432   2.910182   3.507001   4.104277   0.000000
    11  H    3.293493   3.337992   3.902877   2.805636   3.838149
    12  O    1.262313   3.807376   3.242750   4.235548   2.282255
    13  H    1.948319   3.769635   4.192980   5.005679   0.981981
                   11         12         13
    11  H    0.000000
    12  O    4.209376   0.000000
    13  H    4.737731   2.393422   0.000000
 Stoichiometry    C3H7NO2
 Framework group  C1[X(C3H7NO2)]
 Deg. of freedom    33
 Full point group                 C1      NOp   1
 Largest Abelian subgroup         C1      NOp   1
 Largest concise Abelian subgroup C1      NOp   1
                         Standard orientation:                         
 ---------------------------------------------------------------------
 Center     Atomic      Atomic             Coordinates (Angstroms)
 Number     Number       Type             X           Y           Z
 ---------------------------------------------------------------------
      1          7           0       -1.250254   -1.141539   -0.588624
      2          1           0       -1.261060   -1.710837    0.253481
      3          6           0       -0.674327    0.194817   -0.424713
      4          1           0        0.499141    0.929431   -1.338619
      5          6           0       -1.375957    1.077989    0.633643
      6          6           0        0.768456    0.028416   -0.077665
      7          1           0       -1.356780    0.603838    1.626267
      8          1           0       -0.913127    2.069180    0.713822
      9          1           0       -2.423771    1.219579    0.345265
     10          8           0        1.104639   -0.790084    0.942484
     11          1           0       -2.125799   -1.169616   -1.095067
     12          8           0        1.638797    0.676451   -0.722639
     13          1           0        2.076663   -0.849068    1.068878
 ---------------------------------------------------------------------
 Rotational constants (GHZ):      4.8617096      2.7986167      2.5162993
 Standard basis: 6-31G (6D, 7F)
 There are    68 symmetry adapted cartesian basis functions of A   symmetry.
 There are    68 symmetry adapted basis functions of A   symmetry.
    68 basis functions,   160 primitive gaussians,    68 cartesian basis functions
    24 alpha electrons       24 beta electrons
       nuclear repulsion energy       247.5357251924 Hartrees.
 NAtoms=   13 NActive=   13 NUniq=   13 SFac= 1.00D+00 NAtFMM=   60 NAOKFM=F Big=F
 Integral buffers will be    131072 words long.
 Raffenetti 2 integral format.
 Two-electron integral symmetry is turned on.
 One-electron integrals computed using PRISM.
 NBasis=    68 RedAO= T EigKep=  5.55D-03  NBF=    68
 NBsUse=    68 1.00D-06 EigRej= -1.00D+00 NBFU=    68
 Initial guess from the checkpoint file:  "Ala-S-opt-freq-ts2-6-31g.chk"
 B after Tr=     0.000000    0.000000    0.000000
         Rot=    0.999862   -0.013067   -0.006231   -0.008173 Ang=  -1.91 deg.
 ExpMin= 1.61D-01 ExpMax= 5.48D+03 ExpMxC= 8.25D+02 IAcc=1 IRadAn=         1 AccDes= 0.00D+00
 Harris functional with IExCor=  402 and IRadAn=       1 diagonalized for initial guess.
 HarFok:  IExCor=  402 AccDes= 0.00D+00 IRadAn=         1 IDoV= 1 UseB2=F ITyADJ=14
 ICtDFT=  3500011 ScaDFX=  1.000000  1.000000  1.000000  1.000000
 FoFCou: FMM=F IPFlag=           0 FMFlag=      100000 FMFlg1=           0
         NFxFlg=           0 DoJE=T BraDBF=F KetDBF=T FulRan=T
         wScrn=  0.000000 ICntrl=     500 IOpCl=  0 I1Cent=   200000004 NGrid=           0
         NMat0=    1 NMatS0=      1 NMatT0=    0 NMatD0=    1 NMtDS0=    0 NMtDT0=    0
 Petite list used in FoFCou.
 Keep R1 ints in memory in canonical form, NReq=3676491.
 Requested convergence on RMS density matrix=1.00D-08 within 128 cycles.
 Requested convergence on MAX density matrix=1.00D-06.
 Requested convergence on             energy=1.00D-06.
 No special actions if energy rises.
 Integral accuracy reduced to 1.0D-05 until final iterations.
 Initial convergence to 1.0D-05 achieved.  Increase integral accuracy.
 SCF Done:  E(RB3LYP) =  -323.486501152     A.U. after   16 cycles
            NFock= 16  Conv=0.23D-08     -V/T= 2.0055
 Calling FoFJK, ICntrl=      2127 FMM=F ISym2X=0 I1Cent= 0 IOpClX= 0 NMat=1 NMatS=1 NMatT=0.
 ***** Axes restored to original set *****
 -------------------------------------------------------------------
 Center     Atomic                   Forces (Hartrees/Bohr)
 Number     Number              X              Y              Z
 -------------------------------------------------------------------
      1        7           0.000267545    0.008596641   -0.007064100
      2        1          -0.000914510   -0.000130746    0.001436281
      3        6           0.039941567    0.009728381   -0.009733351
      4        1          -0.052731787    0.006101235   -0.017786606
      5        6           0.000909786    0.002339590   -0.008552469
      6        6          -0.015385989   -0.031097931    0.047018770
      7        1          -0.000615765   -0.001051982    0.000868804
      8        1          -0.000403086    0.000267825    0.000527186
      9        1           0.000347213    0.000729174   -0.000254993
     10        8           0.007772787    0.001856513   -0.002583074
     11        1           0.001412235   -0.000341279   -0.001643840
     12        8           0.018002874    0.005324734   -0.003679175
     13        1           0.001397130   -0.002322156    0.001446568
 -------------------------------------------------------------------
 Cartesian Forces:  Max     0.052731787 RMS     0.015186025

 GradGradGradGradGradGradGradGradGradGradGradGradGradGradGradGradGradGrad
 Berny optimization.
 FormGI is forming the generalized inverse of G from B-inverse, IUseBI=4.
 Internal  Forces:  Max     0.030728150 RMS     0.007397177
 Search for a saddle point.
 Step number   3 out of a maximum of   69
 All quantities printed in internal units (Hartrees-Bohrs-Radians)
 Swapping is turned off.
 Update second derivatives using D2CorX and points    2    3
 ITU=  0  0  0
     Eigenvalues ---   -0.06473   0.00103   0.00242   0.00441   0.01002
     Eigenvalues ---    0.01854   0.02078   0.02975   0.04530   0.04800
     Eigenvalues ---    0.04923   0.05283   0.07085   0.09774   0.11931
     Eigenvalues ---    0.12571   0.13082   0.14154   0.15444   0.15578
     Eigenvalues ---    0.17502   0.19481   0.24440   0.26915   0.33885
     Eigenvalues ---    0.33961   0.34225   0.34862   0.36964   0.46416
     Eigenvalues ---    0.47110   0.47332   0.68724
 Eigenvectors required to have negative eigenvalues:
                          R4        R8        A20       A21       D3
   1                    0.65920  -0.58687   0.27559  -0.14313   0.10737
                          D7        D13       D6        D14       D12
   1                    0.10037   0.09381   0.09090   0.08677   0.08503
 RFO step:  Lambda0=1.567828257D-02 Lambda=-1.63039406D-02.
 Linear search not attempted -- option 19 set.
 Maximum step size (   0.300) exceeded in Quadratic search.
    -- Step size scaled by   0.565
 Iteration  1 RMS(Cart)=  0.05973234 RMS(Int)=  0.00229426
 Iteration  2 RMS(Cart)=  0.00246547 RMS(Int)=  0.00067559
 Iteration  3 RMS(Cart)=  0.00000302 RMS(Int)=  0.00067559
 Iteration  4 RMS(Cart)=  0.00000000 RMS(Int)=  0.00067559
 Variable       Old X    -DE/DX   Delta X   Delta X   Delta X     New X
                                 (Linear)    (Quad)   (Total)
    R1        1.92099   0.00127   0.00000   0.00501   0.00501   1.92600
    R2        2.76728  -0.00718   0.00000   0.00318   0.00320   2.77048
    R3        1.91213  -0.00043   0.00000   0.00034   0.00034   1.91247
    R4        3.13484  -0.03073   0.00000   0.11773   0.11633   3.25117
    R5        2.92291  -0.00376   0.00000  -0.00153  -0.00153   2.92138
    R6        2.82181  -0.00088   0.00000  -0.02623  -0.02574   2.79607
    R7        2.97256   0.02008   0.00000   0.09669   0.09741   3.06997
    R8        2.49433   0.01652   0.00000  -0.17749  -0.17833   2.31600
    R9        2.07912   0.00120   0.00000   0.00620   0.00620   2.08532
   R10        2.07276   0.00009   0.00000   0.00080   0.00080   2.07357
   R11        2.07106  -0.00018   0.00000   0.00003   0.00003   2.07109
   R12        2.55195   0.00181   0.00000  -0.02865  -0.02865   2.52330
   R13        2.38543   0.01227   0.00000   0.03937   0.04056   2.42599
   R14        1.85567   0.00168   0.00000   0.00142   0.00142   1.85710
    A1        2.00703  -0.00018   0.00000   0.00838   0.00837   2.01540
    A2        1.97130   0.00024   0.00000  -0.01139  -0.01140   1.95990
    A3        2.00607   0.00029   0.00000  -0.00755  -0.00756   1.99850
    A4        2.24038  -0.00375   0.00000   0.03612   0.03593   2.27631
    A5        2.00342   0.00743   0.00000  -0.00192  -0.00241   2.00101
    A6        1.88002  -0.00609   0.00000   0.00299   0.00283   1.88285
    A7        2.03196  -0.00480   0.00000  -0.03860  -0.03849   1.99347
    A8        1.92079  -0.00348   0.00000   0.01651   0.01750   1.93829
    A9        1.84294   0.00079   0.00000  -0.03519  -0.03776   1.80517
   A10        1.94266  -0.00047   0.00000   0.01585   0.01582   1.95848
   A11        1.95475   0.00111   0.00000   0.00496   0.00490   1.95966
   A12        1.90436   0.00002   0.00000  -0.00755  -0.00753   1.89683
   A13        1.89245  -0.00004   0.00000  -0.00359  -0.00369   1.88876
   A14        1.88571   0.00002   0.00000  -0.00623  -0.00619   1.87952
   A15        1.88169  -0.00068   0.00000  -0.00443  -0.00442   1.87727
   A16        2.07561   0.01752   0.00000   0.08318   0.08333   2.15894
   A17        2.08315  -0.01680   0.00000  -0.07721  -0.07647   2.00668
   A18        2.12409  -0.00066   0.00000  -0.00550  -0.00655   2.11755
   A19        1.96066   0.00440   0.00000   0.01724   0.01724   1.97790
   A20        3.18116  -0.00019   0.00000   0.09608   0.09579   3.27695
   A21        3.05354  -0.00086   0.00000  -0.06477  -0.06267   2.99087
    D1        2.25588   0.00907   0.00000   0.10413   0.10411   2.35999
    D2       -1.02231  -0.00145   0.00000   0.06042   0.05997  -0.96234
    D3        1.12372  -0.00552   0.00000   0.08275   0.08321   1.20694
    D4       -1.69338   0.00956   0.00000   0.08737   0.08736  -1.60602
    D5        1.31162  -0.00096   0.00000   0.04366   0.04321   1.35484
    D6       -2.82553  -0.00502   0.00000   0.06599   0.06646  -2.75907
    D7       -1.63715  -0.00536   0.00000  -0.00207  -0.00243  -1.63958
    D8        1.64293   0.00450   0.00000   0.03970   0.03920   1.68213
    D9        1.02677   0.00072   0.00000  -0.00396  -0.00432   1.02245
   D10       -3.13461   0.00111   0.00000   0.00622   0.00593  -3.12868
   D11       -1.05267   0.00096   0.00000  -0.00117  -0.00148  -1.05415
   D12       -2.23432  -0.00854   0.00000  -0.03641  -0.03543  -2.26976
   D13       -0.11252  -0.00815   0.00000  -0.02622  -0.02518  -0.13770
   D14        1.96942  -0.00830   0.00000  -0.03361  -0.03259   1.93683
   D15       -1.09722   0.00608   0.00000  -0.01920  -0.01992  -1.11714
   D16        1.02458   0.00647   0.00000  -0.00901  -0.00967   1.01491
   D17        3.10652   0.00633   0.00000  -0.01640  -0.01708   3.08944
   D18       -0.90066  -0.00034   0.00000   0.05583   0.05606  -0.84460
   D19        2.26830  -0.00257   0.00000   0.03689   0.03645   2.30475
   D20        1.29521   0.00252   0.00000   0.06631   0.06674   1.36194
   D21       -1.81902   0.00029   0.00000   0.04737   0.04712  -1.77190
   D22       -3.04110  -0.00012   0.00000   0.00873   0.00924  -3.03186
   D23        3.11112  -0.00186   0.00000  -0.03747  -0.03824   3.07288
   D24       -0.05851   0.00017   0.00000  -0.01920  -0.01843  -0.07694
         Item               Value     Threshold  Converged?
 Maximum Force            0.030728     0.000450     NO 
 RMS     Force            0.007397     0.000300     NO 
 Maximum Displacement     0.179529     0.001800     NO 
 RMS     Displacement     0.059573     0.001200     NO 
 Predicted change in Energy=-4.242081D-04
 GradGradGradGradGradGradGradGradGradGradGradGradGradGradGradGradGradGrad

                          Input orientation:                          
 ---------------------------------------------------------------------
 Center     Atomic      Atomic             Coordinates (Angstroms)
 Number     Number       Type             X           Y           Z
 ---------------------------------------------------------------------
      1          7           0       -1.254339   -1.180128   -0.487941
      2          1           0       -1.338248   -1.695524    0.387321
      3          6           0       -0.656121    0.153927   -0.379285
      4          1           0        0.540045    0.922428   -1.348061
      5          6           0       -1.355950    1.094208    0.628683
      6          6           0        0.774686   -0.015868   -0.042789
      7          1           0       -1.368631    0.676022    1.649801
      8          1           0       -0.885469    2.084673    0.669432
      9          1           0       -2.396156    1.234969    0.313539
     10          8           0        1.216879   -0.815067    0.931223
     11          1           0       -2.103416   -1.215944   -1.037491
     12          8           0        1.585487    0.676890   -0.757473
     13          1           0        2.197233   -0.859727    0.982941
 ---------------------------------------------------------------------
                    Distance matrix (angstroms):
                    1          2          3          4          5
     1  N    0.000000
     2  H    1.019194   0.000000
     3  C    1.466074   2.115053   0.000000
     4  H    2.894885   3.659673   1.720445   0.000000
     5  C    2.535701   2.800210   1.545927   2.744417   0.000000
     6  C    2.381303   2.733263   1.479617   1.624559   2.494545
     7  H    2.833424   2.686821   2.213017   3.562434   1.103504
     8  H    3.483461   3.817654   2.209115   2.730052   1.097284
     9  H    2.789051   3.116473   2.162494   3.388196   1.095973
    10  O    2.873015   2.756757   2.482843   2.944848   3.218123
    11  H    1.012037   1.686881   2.098677   3.414231   2.944766
    12  O    3.403788   3.935369   2.332664   1.225574   3.278359
    13  H    3.765568   3.681433   3.320359   3.369855   4.070439
                    6          7          8          9         10
     6  C    0.000000
     7  H    2.817335   0.000000
     8  H    2.770496   1.782938   0.000000
     9  H    3.427214   1.775901   1.769415   0.000000
    10  O    1.335272   3.069945   3.591225   4.199786   0.000000
    11  H    3.273085   3.367637   3.910378   2.813886   3.880837
    12  O    1.283778   3.810745   3.181750   4.160768   2.283309
    13  H    1.946242   3.939367   4.274440   5.092649   0.982733
                   11         12         13
    11  H    0.000000
    12  O    4.155627   0.000000
    13  H    4.764936   2.400930   0.000000
 Stoichiometry    C3H7NO2
 Framework group  C1[X(C3H7NO2)]
 Deg. of freedom    33
 Full point group                 C1      NOp   1
 Largest Abelian subgroup         C1      NOp   1
 Largest concise Abelian subgroup C1      NOp   1
                         Standard orientation:                         
 ---------------------------------------------------------------------
 Center     Atomic      Atomic             Coordinates (Angstroms)
 Number     Number       Type             X           Y           Z
 ---------------------------------------------------------------------
      1          7           0       -1.243259   -1.152538   -0.593514
      2          1           0       -1.325796   -1.724711    0.245869
      3          6           0       -0.673209    0.183147   -0.392614
      4          1           0        0.517163    1.035505   -1.296180
      5          6           0       -1.402226    1.042841    0.665380
      6          6           0        0.757177    0.019923   -0.051119
      7          1           0       -1.417020    0.559661    1.657368
      8          1           0       -0.952253    2.037598    0.775006
      9          1           0       -2.441747    1.183322    0.347862
     10          8           0        1.205308   -0.831528    0.874711
     11          1           0       -2.085720   -1.169437   -1.154044
     12          8           0        1.561186    0.772866   -0.710460
     13          1           0        2.185777   -0.860342    0.934830
 ---------------------------------------------------------------------
 Rotational constants (GHZ):      4.8321757      2.8159608      2.4709950
 Standard basis: 6-31G (6D, 7F)
 There are    68 symmetry adapted cartesian basis functions of A   symmetry.
 There are    68 symmetry adapted basis functions of A   symmetry.
    68 basis functions,   160 primitive gaussians,    68 cartesian basis functions
    24 alpha electrons       24 beta electrons
       nuclear repulsion energy       247.1358462272 Hartrees.
 NAtoms=   13 NActive=   13 NUniq=   13 SFac= 1.00D+00 NAtFMM=   60 NAOKFM=F Big=F
 Integral buffers will be    131072 words long.
 Raffenetti 2 integral format.
 Two-electron integral symmetry is turned on.
 One-electron integrals computed using PRISM.
 NBasis=    68 RedAO= T EigKep=  5.49D-03  NBF=    68
 NBsUse=    68 1.00D-06 EigRej= -1.00D+00 NBFU=    68
 Initial guess from the checkpoint file:  "Ala-S-opt-freq-ts2-6-31g.chk"
 B after Tr=     0.000000    0.000000    0.000000
         Rot=    0.999698   -0.019052   -0.009049   -0.012600 Ang=  -2.82 deg.
 ExpMin= 1.61D-01 ExpMax= 5.48D+03 ExpMxC= 8.25D+02 IAcc=1 IRadAn=         1 AccDes= 0.00D+00
 Harris functional with IExCor=  402 and IRadAn=       1 diagonalized for initial guess.
 HarFok:  IExCor=  402 AccDes= 0.00D+00 IRadAn=         1 IDoV= 1 UseB2=F ITyADJ=14
 ICtDFT=  3500011 ScaDFX=  1.000000  1.000000  1.000000  1.000000
 FoFCou: FMM=F IPFlag=           0 FMFlag=      100000 FMFlg1=           0
         NFxFlg=           0 DoJE=T BraDBF=F KetDBF=T FulRan=T
         wScrn=  0.000000 ICntrl=     500 IOpCl=  0 I1Cent=   200000004 NGrid=           0
         NMat0=    1 NMatS0=      1 NMatT0=    0 NMatD0=    1 NMtDS0=    0 NMtDT0=    0
 Petite list used in FoFCou.
 Keep R1 ints in memory in canonical form, NReq=3676491.
 Requested convergence on RMS density matrix=1.00D-08 within 128 cycles.
 Requested convergence on MAX density matrix=1.00D-06.
 Requested convergence on             energy=1.00D-06.
 No special actions if energy rises.
 Integral accuracy reduced to 1.0D-05 until final iterations.
 Initial convergence to 1.0D-05 achieved.  Increase integral accuracy.
 SCF Done:  E(RB3LYP) =  -323.487588040     A.U. after   16 cycles
            NFock= 16  Conv=0.47D-08     -V/T= 2.0055
 Calling FoFJK, ICntrl=      2127 FMM=F ISym2X=0 I1Cent= 0 IOpClX= 0 NMat=1 NMatS=1 NMatT=0.
 ***** Axes restored to original set *****
 -------------------------------------------------------------------
 Center     Atomic                   Forces (Hartrees/Bohr)
 Number     Number              X              Y              Z
 -------------------------------------------------------------------
      1        7          -0.000363265    0.004435682   -0.001611327
      2        1          -0.002349685    0.000415394    0.000965099
      3        6           0.022004817   -0.000035601   -0.001868108
      4        1          -0.023503977    0.004221755   -0.008226877
      5        6           0.000825859    0.002341883   -0.005390254
      6        6          -0.015901976   -0.015947989    0.022710721
      7        1          -0.000486303   -0.000776209    0.000032478
      8        1          -0.000080844    0.000225097    0.000620289
      9        1           0.000316469    0.000749638   -0.000337030
     10        8           0.005960511   -0.000490128   -0.000371060
     11        1           0.001546342   -0.000366843   -0.002036027
     12        8           0.011072648    0.007130291   -0.004820306
     13        1           0.000959406   -0.001902970    0.000332403
 -------------------------------------------------------------------
 Cartesian Forces:  Max     0.023503977 RMS     0.007940240

 GradGradGradGradGradGradGradGradGradGradGradGradGradGradGradGradGradGrad
 Berny optimization.
 FormGI is forming the generalized inverse of G from B-inverse, IUseBI=4.
 Internal  Forces:  Max     0.013635592 RMS     0.003862468
 Search for a saddle point.
 Step number   4 out of a maximum of   69
 All quantities printed in internal units (Hartrees-Bohrs-Radians)
 Swapping is turned off.
 Update second derivatives using D2CorX and points    3    4
 ITU=  0  0  0  0
     Eigenvalues ---   -0.08075   0.00051   0.00295   0.00414   0.01005
     Eigenvalues ---    0.01851   0.02078   0.02920   0.04519   0.04798
     Eigenvalues ---    0.04925   0.05264   0.07288   0.09737   0.12065
     Eigenvalues ---    0.12615   0.13083   0.14099   0.15440   0.15578
     Eigenvalues ---    0.17508   0.19388   0.24395   0.26907   0.33884
     Eigenvalues ---    0.33960   0.34219   0.34852   0.36889   0.46415
     Eigenvalues ---    0.47110   0.47319   0.67584
 Eigenvectors required to have negative eigenvalues:
                          R4        R8        A20       A21       D3
   1                   -0.63193   0.58827  -0.28058   0.14311  -0.12204
                          D6        R13       D18       D7        D20
   1                   -0.10711  -0.10084  -0.09331  -0.09328  -0.08938
 RFO step:  Lambda0=1.922367392D-03 Lambda=-1.01764991D-02.
 Linear search not attempted -- option 19 set.
 Iteration  1 RMS(Cart)=  0.12160997 RMS(Int)=  0.01451097
 Iteration  2 RMS(Cart)=  0.02388641 RMS(Int)=  0.00349423
 Iteration  3 RMS(Cart)=  0.00047356 RMS(Int)=  0.00348073
 Iteration  4 RMS(Cart)=  0.00000125 RMS(Int)=  0.00348073
 Iteration  5 RMS(Cart)=  0.00000001 RMS(Int)=  0.00348073
 Variable       Old X    -DE/DX   Delta X   Delta X   Delta X     New X
                                 (Linear)    (Quad)   (Total)
    R1        1.92600   0.00081   0.00000   0.00245   0.00245   1.92845
    R2        2.77048  -0.00340   0.00000  -0.01845  -0.01827   2.75221
    R3        1.91247  -0.00018   0.00000  -0.00019  -0.00019   1.91228
    R4        3.25117  -0.01364   0.00000  -0.02872  -0.03147   3.21971
    R5        2.92138  -0.00203   0.00000  -0.00401  -0.00401   2.91737
    R6        2.79607  -0.00222   0.00000  -0.05689  -0.05845   2.73762
    R7        3.06997   0.00945   0.00000   0.04303   0.04394   3.11392
    R8        2.31600   0.00645   0.00000  -0.05203  -0.04867   2.26733
    R9        2.08532   0.00033   0.00000   0.00434   0.00434   2.08966
   R10        2.07357   0.00019   0.00000   0.00018   0.00018   2.07375
   R11        2.07109  -0.00011   0.00000  -0.00064  -0.00064   2.07045
   R12        2.52330   0.00369   0.00000  -0.00223  -0.00223   2.52107
   R13        2.42599   0.01157   0.00000   0.04754   0.04842   2.47440
   R14        1.85710   0.00106   0.00000   0.00133   0.00133   1.85842
    A1        2.01540   0.00031   0.00000   0.01635   0.01632   2.03172
    A2        1.95990  -0.00004   0.00000  -0.00278  -0.00282   1.95708
    A3        1.99850  -0.00017   0.00000  -0.00294  -0.00297   1.99553
    A4        2.27631  -0.00025   0.00000   0.09397   0.09046   2.36677
    A5        2.00101   0.00327   0.00000   0.01968   0.01445   2.01546
    A6        1.88285  -0.00242   0.00000   0.03423   0.02816   1.91101
    A7        1.99347  -0.00388   0.00000  -0.13668  -0.13744   1.85603
    A8        1.93829  -0.00119   0.00000   0.05707   0.06194   2.00022
    A9        1.80517   0.00214   0.00000  -0.01614  -0.02030   1.78487
   A10        1.95848  -0.00070   0.00000   0.00968   0.00966   1.96813
   A11        1.95966   0.00090   0.00000   0.00579   0.00577   1.96542
   A12        1.89683   0.00009   0.00000  -0.00542  -0.00541   1.89143
   A13        1.88876   0.00003   0.00000  -0.00317  -0.00323   1.88553
   A14        1.87952   0.00017   0.00000  -0.00518  -0.00516   1.87436
   A15        1.87727  -0.00051   0.00000  -0.00262  -0.00261   1.87466
   A16        2.15894   0.00928   0.00000   0.07708   0.07582   2.23476
   A17        2.00668  -0.00803   0.00000  -0.05544  -0.05854   1.94814
   A18        2.11755  -0.00124   0.00000  -0.02134  -0.01792   2.09963
   A19        1.97790   0.00258   0.00000   0.00508   0.00508   1.98298
   A20        3.27695   0.00138   0.00000   0.02217   0.02898   3.30593
   A21        2.99087  -0.00114   0.00000  -0.11324  -0.10856   2.88231
    D1        2.35999   0.00610   0.00000   0.20434   0.20806   2.56805
    D2       -0.96234  -0.00038   0.00000   0.02264   0.01845  -0.94389
    D3        1.20694  -0.00151   0.00000   0.13755   0.13801   1.34494
    D4       -1.60602   0.00620   0.00000   0.21429   0.21802  -1.38800
    D5        1.35484  -0.00028   0.00000   0.03258   0.02841   1.38325
    D6       -2.75907  -0.00141   0.00000   0.14750   0.14797  -2.61110
    D7       -1.63958  -0.00289   0.00000  -0.10396  -0.10649  -1.74606
    D8        1.68213   0.00297   0.00000   0.06426   0.06085   1.74297
    D9        1.02245   0.00062   0.00000   0.02260   0.01841   1.04086
   D10       -3.12868   0.00080   0.00000   0.02990   0.02575  -3.10293
   D11       -1.05415   0.00077   0.00000   0.02665   0.02248  -1.03167
   D12       -2.26976  -0.00453   0.00000  -0.10684  -0.09800  -2.36776
   D13       -0.13770  -0.00435   0.00000  -0.09954  -0.09067  -0.22837
   D14        1.93683  -0.00438   0.00000  -0.10279  -0.09393   1.84289
   D15       -1.11714   0.00232   0.00000  -0.08288  -0.08759  -1.20474
   D16        1.01491   0.00250   0.00000  -0.07558  -0.08025   0.93466
   D17        3.08944   0.00247   0.00000  -0.07883  -0.08352   3.00592
   D18       -0.84460   0.00134   0.00000   0.21200   0.21233  -0.63227
   D19        2.30475   0.00011   0.00000   0.16945   0.16510   2.46984
   D20        1.36194   0.00296   0.00000   0.30064   0.30270   1.66465
   D21       -1.77190   0.00173   0.00000   0.25810   0.25547  -1.51643
   D22       -3.03186  -0.00024   0.00000   0.10172   0.10299  -2.92887
   D23        3.07288  -0.00171   0.00000  -0.10354  -0.10638   2.96649
   D24       -0.07694  -0.00043   0.00000  -0.05849  -0.05564  -0.13259
         Item               Value     Threshold  Converged?
 Maximum Force            0.013636     0.000450     NO 
 RMS     Force            0.003862     0.000300     NO 
 Maximum Displacement     0.404769     0.001800     NO 
 RMS     Displacement     0.139201     0.001200     NO 
 Predicted change in Energy=-6.621745D-03
 GradGradGradGradGradGradGradGradGradGradGradGradGradGradGradGradGradGrad

                          Input orientation:                          
 ---------------------------------------------------------------------
 Center     Atomic      Atomic             Coordinates (Angstroms)
 Number     Number       Type             X           Y           Z
 ---------------------------------------------------------------------
      1          7           0       -1.247389   -1.212222   -0.396200
      2          1           0       -1.457661   -1.684398    0.483709
      3          6           0       -0.626682    0.101342   -0.294260
      4          1           0        0.495583    0.992383   -1.215935
      5          6           0       -1.379529    1.125368    0.582050
      6          6           0        0.777502   -0.051199    0.027748
      7          1           0       -1.497596    0.788138    1.628533
      8          1           0       -0.892350    2.108597    0.594891
      9          1           0       -2.384119    1.262666    0.166883
     10          8           0        1.345078   -0.962567    0.819624
     11          1           0       -2.020013   -1.258887   -1.048034
     12          8           0        1.516022    0.823511   -0.607858
     13          1           0        2.327151   -0.971872    0.768747
 ---------------------------------------------------------------------
                    Distance matrix (angstroms):
                    1          2          3          4          5
     1  N    0.000000
     2  H    1.020492   0.000000
     3  C    1.456406   2.117694   0.000000
     4  H    2.927490   3.724124   1.703795   0.000000
     5  C    2.537472   2.812572   1.543803   2.601246   0.000000
     6  C    2.372317   2.805564   1.448685   1.647813   2.518798
     7  H    2.857200   2.725005   2.219755   3.479293   1.105799
     8  H    3.483699   3.836502   2.211390   2.539958   1.097382
     9  H    2.781059   3.105461   2.156366   3.205920   1.095635
    10  O    2.874273   2.913627   2.502095   2.947366   3.440843
    11  H    1.011934   1.686278   2.088006   3.380034   2.958390
    12  O    3.438815   4.040286   2.282772   1.199821   3.145030
[...]
   A20        3.21975  -0.00001   0.00000  -0.00022  -0.00022   3.21954
   A21        2.80051  -0.00001   0.00000  -0.00028  -0.00028   2.80023
    D1       -2.88844   0.00002   0.00000   0.00157   0.00157  -2.88687
    D2       -0.65974   0.00000   0.00000   0.00110   0.00110  -0.65864
    D3        1.86608   0.00001   0.00000   0.00136   0.00136   1.86745
    D4        0.75878   0.00000   0.00000  -0.00035  -0.00035   0.75843
    D5        2.98748  -0.00002   0.00000  -0.00083  -0.00083   2.98665
    D6       -0.76988  -0.00001   0.00000  -0.00056  -0.00056  -0.77044
    D7       -2.06590  -0.00002   0.00000  -0.00067  -0.00067  -2.06657
    D8        1.89657   0.00000   0.00000  -0.00020  -0.00020   1.89638
    D9        0.93770   0.00001   0.00000   0.00104   0.00104   0.93874
   D10        3.03107   0.00000   0.00000   0.00100   0.00100   3.03207
   D11       -1.13095   0.00001   0.00000   0.00107   0.00107  -1.12988
   D12       -2.72632   0.00000   0.00000   0.00070   0.00070  -2.72562
   D13       -0.63294  -0.00001   0.00000   0.00066   0.00066  -0.63229
   D14        1.48822   0.00000   0.00000   0.00073   0.00073   1.48895
   D15       -1.60776   0.00001   0.00000   0.00078   0.00078  -1.60698
   D16        0.48561   0.00000   0.00000   0.00074   0.00074   0.48635
   D17        2.60677   0.00001   0.00000   0.00081   0.00081   2.60759
   D18       -0.40013   0.00001   0.00000   0.00019   0.00019  -0.39994
   D19        2.55316   0.00001   0.00000   0.00016   0.00016   2.55332
   D20        2.09813   0.00000   0.00000   0.00035   0.00035   2.09848
   D21       -1.23177   0.00000   0.00000   0.00033   0.00033  -1.23144
   D22       -2.92941   0.00002   0.00000   0.00042   0.00042  -2.92898
   D23        2.80661  -0.00001   0.00000  -0.00014  -0.00014   2.80647
   D24       -0.13159   0.00000   0.00000  -0.00010  -0.00010  -0.13169
         Item               Value     Threshold  Converged?
 Maximum Force            0.000102     0.000450     YES
 RMS     Force            0.000018     0.000300     YES
 Maximum Displacement     0.001625     0.001800     YES
 RMS     Displacement     0.000518     0.001200     YES
 Predicted change in Energy=-7.879465D-08
 Optimization completed.
    -- Stationary point found.
                           ----------------------------
                           !   Optimized Parameters   !
                           ! (Angstroms and Degrees)  !
 --------------------------                            --------------------------
 ! Name  Definition              Value          Derivative Info.                !
 --------------------------------------------------------------------------------
 ! R1    R(1,2)                  1.0124         -DE/DX =    0.0                 !
 ! R2    R(1,3)                  1.4153         -DE/DX =    0.0001              !
 ! R3    R(1,11)                 1.0072         -DE/DX =    0.0                 !
 ! R4    R(3,4)                  1.5969         -DE/DX =    0.0                 !
 ! R5    R(3,5)                  1.533          -DE/DX =    0.0                 !
 ! R6    R(3,6)                  1.4342         -DE/DX =    0.0                 !
 ! R7    R(4,6)                  1.6465         -DE/DX =    0.0                 !
 ! R8    R(4,12)                 1.2953         -DE/DX =    0.0                 !
 ! R9    R(5,7)                  1.104          -DE/DX =    0.0                 !
 ! R10   R(5,8)                  1.0937         -DE/DX =    0.0                 !
 ! R11   R(5,9)                  1.0941         -DE/DX =    0.0                 !
 ! R12   R(6,10)                 1.3473         -DE/DX =    0.0                 !
 ! R13   R(6,12)                 1.3344         -DE/DX =    0.0                 !
 ! R14   R(10,13)                0.9817         -DE/DX =    0.0                 !
 ! A1    A(2,1,3)              119.2711         -DE/DX =    0.0                 !
 ! A2    A(2,1,11)             115.4385         -DE/DX =    0.0                 !
 ! A3    A(3,1,11)             119.0641         -DE/DX =    0.0                 !
 ! A4    A(1,3,4)              140.981          -DE/DX =    0.0                 !
 ! A5    A(1,3,5)              112.5921         -DE/DX =    0.0                 !
 ! A6    A(1,3,6)              120.2162         -DE/DX =    0.0                 !
 ! A7    A(4,3,5)               93.2646         -DE/DX =    0.0                 !
 ! A8    A(5,3,6)              117.2546         -DE/DX =    0.0                 !
 ! A9    A(3,4,12)             103.9293         -DE/DX =    0.0                 !
 ! A10   A(3,5,7)              110.2301         -DE/DX =    0.0                 !
 ! A11   A(3,5,8)              112.2942         -DE/DX =    0.0                 !
 ! A12   A(3,5,9)              110.1643         -DE/DX =    0.0                 !
 ! A13   A(7,5,8)              107.5859         -DE/DX =    0.0                 !
 ! A14   A(7,5,9)              107.5428         -DE/DX =    0.0                 !
 ! A15   A(8,5,9)              108.8732         -DE/DX =    0.0                 !
 ! A16   A(3,6,10)             127.6377         -DE/DX =    0.0                 !
 ! A17   A(3,6,12)             111.2376         -DE/DX =    0.0                 !
 ! A18   A(10,6,12)            120.2553         -DE/DX =    0.0                 !
 ! A19   A(6,10,13)            111.8448         -DE/DX =    0.0                 !
 ! A20   L(4,6,10,1,-1)        184.4782         -DE/DX =    0.0                 !
 ! A21   L(4,6,10,1,-2)        160.4573         -DE/DX =    0.0                 !
 ! D1    D(2,1,3,4)           -165.4955         -DE/DX =    0.0                 !
 ! D2    D(2,1,3,5)            -37.8003         -DE/DX =    0.0                 !
 ! D3    D(2,1,3,6)            106.9186         -DE/DX =    0.0                 !
 ! D4    D(11,1,3,4)            43.4748         -DE/DX =    0.0                 !
 ! D5    D(11,1,3,5)           171.1701         -DE/DX =    0.0                 !
 ! D6    D(11,1,3,6)           -44.1111         -DE/DX =    0.0                 !
 ! D7    D(1,3,4,12)          -118.3671         -DE/DX =    0.0                 !
 ! D8    D(5,3,4,12)           108.6655         -DE/DX =    0.0                 !
 ! D9    D(1,3,5,7)             53.7261         -DE/DX =    0.0                 !
 ! D10   D(1,3,5,8)            173.6674         -DE/DX =    0.0                 !
 ! D11   D(1,3,5,9)            -64.7988         -DE/DX =    0.0                 !
 ! D12   D(4,3,5,7)           -156.2064         -DE/DX =    0.0                 !
 ! D13   D(4,3,5,8)            -36.265          -DE/DX =    0.0                 !
 ! D14   D(4,3,5,9)             85.2688         -DE/DX =    0.0                 !
 ! D15   D(6,3,5,7)            -92.1181         -DE/DX =    0.0                 !
 ! D16   D(6,3,5,8)             27.8232         -DE/DX =    0.0                 !
 ! D17   D(6,3,5,9)            149.3571         -DE/DX =    0.0                 !
 ! D18   D(1,3,6,10)           -22.9257         -DE/DX =    0.0                 !
 ! D19   D(1,3,6,12)           146.2852         -DE/DX =    0.0                 !
 ! D20   D(5,3,6,10)           120.2142         -DE/DX =    0.0                 !
 ! D21   D(5,3,6,12)           -70.5749         -DE/DX =    0.0                 !
 ! D22   D(3,4,6,12)          -167.8427         -DE/DX =    0.0                 !
 ! D23   D(3,6,10,13)          160.807          -DE/DX =    0.0                 !
 ! D24   D(12,6,10,13)          -7.5394         -DE/DX =    0.0                 !
 --------------------------------------------------------------------------------
 GradGradGradGradGradGradGradGradGradGradGradGradGradGradGradGradGradGrad


 Test job not archived.
 1\1\GINC-KALI\Freq\RB3LYP\6-31G\C3H7N1O2\ROOT\02-Apr-2016\0\\#N Geom=A
 llCheck Guess=TCheck SCRF=Check Test GenChk RB3LYP/6-31G Freq\\Ala-S-o
 pt-freq-ts2-6-31g\\0,1\N,-1.4301610871,-1.1126048862,-0.2911465655\H,-
 2.0433741499,-1.3900470922,0.46516051\C,-0.6423650812,0.0547858204,-0.
 1505283631\H,0.2346739105,1.0713178715,-1.0151871003\C,-1.3819716448,1
 .1795602424,0.5828394676\C,0.7717849584,-0.0502946805,0.0639567553\H,-
 1.7677013002,0.8150253235,1.550899569\H,-0.7350167381,2.0374297474,0.7
 868282822\H,-2.2391360542,1.5153761797,-0.0083258021\O,1.451577055,-1.
 0975293875,0.5703838717\H,-1.0935186527,-1.862930852,-0.8725634821\O,1
 .4250443913,0.9576933293,-0.517241305\H,2.4061627031,-1.0569212858,0.3
 448237525\\Version=ES64L-G09RevD.01\State=1-A\HF=-323.5060635\RMSD=1.8
 77e-09\RMSF=3.330e-05\ZeroPoint=0.100606\Thermal=0.1074768\Dipole=0.13
 22745,-0.649583,0.2548381\DipoleDeriv=-0.7858498,-0.1343338,-0.3584096
 ,-0.1517366,-0.624623,-0.0009633,-0.3684167,0.0070273,-0.3600041,0.292
 3033,-0.0454892,0.1004994,-0.167885,0.1073554,-0.0270947,0.2691739,0.0
 659349,0.107632,-0.0028742,0.3897413,0.1560615,0.6807192,0.2603109,0.2
 364542,-0.1751522,0.1626387,-0.3148281,0.3602367,0.4174548,-0.3988132,
 0.079298,0.2588213,-0.0870511,-0.0535526,0.1061748,0.0602458,0.2196306
 ,-0.0563993,-0.0667817,-0.2708738,0.1216323,-0.0029131,-0.0391306,-0.1
 342992,0.3100202,1.5528286,-0.4973956,0.3745453,-0.363532,0.8030888,-0
 .3614126,0.2045377,-0.426981,0.342845,-0.0674326,0.0390396,0.1052154,0
 .0108418,-0.0115924,0.092114,0.189755,0.0142263,-0.1634306,0.0154387,-
 0.1237494,-0.0293042,-0.0496671,-0.0308243,-0.0421503,-0.0018828,-0.02
 11616,0.055911,-0.0974334,0.0915813,-0.0394764,0.062847,0.0579782,0.00
 76693,-0.0753652,0.0338451,-0.0113912,-0.7341839,0.4348374,-0.334172,0
 .6327914,-0.8139997,0.2223263,-0.3395532,0.1789597,-0.4672192,0.168853
 5,0.0233287,0.138666,-0.0094873,0.0937474,-0.0889977,0.0883885,-0.0228
 312,0.2626818,-1.1606576,-0.5108808,0.2920726,-0.3915578,-0.5431847,-0
 .0283624,0.1444963,0.0032639,-0.2072123,0.2391401,-0.0277351,0.0598969
 ,-0.0617578,0.3212896,0.0803814,0.1567018,0.0332023,0.3847497\Polar=62
 .581589,0.8622168,48.597921,-1.9893386,-4.1525875,34.9950695\PG=C01 [X
 (C3H7N1O2)]\NImag=1\\0.41257191,0.11345916,0.62699136,-0.31762663,0.17
 662489,0.49570131,-0.16284031,-0.06350886,0.18473808,0.18303927,-0.081
 22243,-0.08624225,0.06098339,0.08054269,0.08710267,0.20850390,0.051102
 73,-0.25726270,-0.20412272,-0.06214916,0.26399200,-0.13620963,-0.10732
 365,0.02245684,-0.01556333,-0.01869431,-0.00679420,0.61216953,-0.08902
 091,-0.22106897,-0.01024178,-0.01104908,-0.01140937,-0.00113521,0.0756
 7243,0.45443103,0.00295349,-0.04735951,-0.07363206,0.01316573,0.024949
 10,0.00388332,-0.05117405,0.11101976,0.18317468,0.00217007,0.00131069,
 -0.01005066,0.00125721,0.00500259,-0.00214810,-0.02427599,0.06732037,-
 0.05823285,-0.12259862,-0.00367637,-0.00611227,-0.00598222,0.00299172,
 0.00125667,-0.00049132,0.00121084,0.01396135,-0.01021191,-0.07711572,0
 .03890165,0.00059897,-0.00080094,0.00668349,-0.00181223,-0.00056504,-0
 .00059815,-0.01005687,0.00355725,-0.03323414,-0.00093515,-0.04052962,0
 .08617555,0.00625209,-0.02112184,-0.00980484,0.00102975,-0.00135921,-0
 .00142666,-0.10330115,0.04586691,0.02646039,-0.00607893,0.00066924,0.0
 0363190,0.55673212,0.01386275,-0.03618209,-0.02376901,0.00157520,0.002
 37581,-0.00045511,0.01217175,-0.11245711,-0.03944787,-0.00803920,-0.00
 016160,-0.00068578,0.05042841,0.52280963,0.00570198,-0.00244930,-0.004
 40703,-0.00158384,0.00293697,0.00305283,0.03307951,-0.07606844,-0.0665
 7070,0.03703414,0.00351434,-0.00442434,0.04692143,-0.02539504,0.502664
 35,-0.02723359,-0.01069635,-0.00448363,-0.00024325,0.00142497,-0.00369
 479,-0.25934393,-0.05513841,0.06661634,0.13600855,0.04885151,-0.002543
 11,-0.02400714,0.03346812,-0.03190864,0.60336713,-0.03932957,-0.015132
 43,-0.00049007,-0.00421573,-0.00335061,-0.00136168,0.04796374,-0.09854
 393,0.01446410,0.09319242,-0.01551903,0.04716631,0.02309557,-0.0001813
 2,0.00124879,-0.09433451,0.57157421,-0.00622220,-0.00881570,-0.0069027
 9,0.00543197,0.00229196,0.00076541,0.00586127,0.00403141,-0.05276353,-
 0.05569679,0.03843101,-0.04434226,0.01527015,0.00163349,0.00125704,0.0
 2379174,-0.20215519,0.26902882,0.00115350,-0.00107925,-0.00269666,0.00
 067122,0.00088538,0.00031659,-0.01339473,0.00160677,0.01701778,-0.0028
 2535,0.00100210,-0.00006782,-0.07594709,-0.03092510,0.06719649,0.00851
 736,-0.00072039,0.00276292,0.08244999,0.00218140,0.00425518,0.00011795
 ,-0.00146386,0.00000249,0.00149616,0.01565953,-0.00058733,-0.02279055,
 0.00301267,0.00031564,-0.00057322,-0.02908540,-0.07820191,0.07131896,-
 0.00702244,-0.00159733,-0.00351175,0.02855387,0.08513616,-0.00104267,0
 .00091823,0.00169273,-0.00054260,-0.00204506,-0.00061936,0.01475095,-0
 .00232337,-0.01276301,0.00219185,-0.00135932,-0.00012540,0.06561140,0.
 07711543,-0.23057454,-0.00830436,-0.00032143,-0.00091737,-0.08021367,-
 0.07985528,0.25564777,-0.00075146,0.00249528,0.00209750,-0.00022602,0.
 00041462,-0.00009860,0.01013049,0.01368341,0.00299772,-0.00011988,0.00
 077731,0.00078250,-0.14608242,-0.12670983,-0.03004683,-0.00006594,0.00
 068550,-0.00095076,-0.00648648,-0.00794868,-0.00280636,0.15793804,0.00
 324897,-0.00286890,-0.00359027,-0.00000247,0.00084424,-0.00036086,-0.0
 1565582,-0.01584178,-0.00237503,-0.00167523,-0.00112351,-0.00144965,-0
 .12325519,-0.21184713,-0.03780524,-0.00144316,-0.00202383,0.00075344,-
 0.00727497,-0.00921426,-0.00261123,0.13716362,0.23161700,0.00252145,-0
 .00297397,-0.00096678,-0.00047233,-0.00019814,-0.00037332,-0.01131298,
 -0.00927441,-0.00504832,-0.00137910,-0.00214017,-0.00200329,-0.0284829
 5,-0.03712324,-0.05598452,0.00001762,-0.00095685,0.00008355,0.01831248
 ,0.02393543,0.00512973,0.02958951,0.04370488,0.06061792,0.00225495,-0.
 00058858,0.00018064,-0.00016433,0.00029729,-0.00030984,-0.01580226,0.0
 0201630,-0.00285443,0.00396901,0.00088309,-0.00049796,-0.20782666,0.06
 027884,-0.11515761,-0.00343319,0.00143719,0.00109038,0.00879531,-0.004
 30532,0.00719418,-0.01404802,0.00696209,-0.01043461,0.22898142,-0.0021
 2074,0.00198424,-0.00030746,0.00054911,-0.00075178,0.00073404,0.021989
 25,-0.00510394,0.00637896,-0.00412546,-0.00121613,-0.00033289,0.058835
 04,-0.07254992,0.04581808,0.00360686,-0.00232878,-0.00013607,0.0099856
 8,-0.00376015,0.00866931,-0.02133153,0.00904436,-0.01522923,-0.0699610
 1,0.07628266,-0.00040452,0.00125129,0.00019003,-0.00018771,0.00001310,
 -0.00041615,0.01736238,-0.00604725,0.00617977,-0.00236727,-0.00131720,
 0.00074633,-0.11710605,0.04576766,-0.13052045,0.00326554,-0.00264187,-
 0.00008908,-0.02344959,0.00901899,-0.01742920,-0.00296147,0.00246476,-
 0.00324310,0.12316674,-0.04724056,0.14323112,0.00004812,-0.00166898,0.
 00145731,0.00038940,-0.00072353,0.00081293,-0.00989179,0.04359342,-0.0
 1991816,-0.01811148,-0.00595466,-0.00503439,-0.00086575,-0.00338050,-0
 .00274961,-0.17673020,0.13033136,-0.06387454,-0.00128747,0.00026677,0.
 00182302,0.00035457,0.00032547,-0.00021596,-0.00096693,0.00103346,0.00
 108935,0.60281763,0.00136823,0.00667988,-0.00227548,-0.00038116,0.0014
 8647,-0.00135872,0.00398760,-0.01716613,0.01317795,-0.00013559,-0.0011
 5508,0.00631124,-0.00177512,0.00403246,-0.00045044,0.06094745,-0.22631
 972,0.08994546,0.00155354,-0.00060831,-0.00181016,-0.00030190,0.000114
 63,0.00046863,0.00026069,-0.00007845,0.00002315,-0.10031944,0.29813770
 ,-0.00043201,0.00008291,0.00043649,0.00020426,-0.00048555,0.00027208,-
 0.01126491,0.00405107,0.00120393,0.00568920,0.00079238,0.00637455,0.00
 183309,-0.00399855,0.00113221,-0.02790972,0.07918995,-0.08758499,-0.00
 130211,0.00119011,0.00082438,0.00023452,0.00010968,-0.00003253,0.00003
 701,-0.00030770,-0.00006176,-0.04653725,-0.14226041,0.13234296,-0.0858
 3114,0.09078984,0.11895132,-0.00553885,0.02006056,0.00694184,0.0012928
 1,-0.01769179,-0.01774544,-0.00150204,-0.00090067,0.00030549,-0.000983
 76,-0.00170139,0.00113968,0.00590538,-0.00402654,-0.00161638,-0.000194
 21,0.00027828,-0.00022111,0.00039857,-0.00010081,0.00015657,0.00017367
 ,-0.00007243,0.00004400,-0.00105761,0.00284849,-0.00019793,0.08781643,
 0.08175316,-0.27621588,-0.19097073,-0.00573820,0.00907054,0.01291365,0
 .01548777,-0.01813615,-0.01300374,0.00001577,-0.00023120,-0.00016339,-
 0.00487842,-0.00402011,-0.00056054,-0.00023296,0.00127173,0.00060732,-
 0.00012023,0.00039121,0.00004497,0.00095568,-0.00113857,-0.00097876,-0
 .00008664,0.00024016,0.00022910,-0.00003851,-0.00035286,-0.00002813,-0
 .08807418,0.28851185,0.10222796,-0.17099999,-0.17163176,0.00739340,-0.
 02290583,-0.01324622,-0.00246639,0.00117207,-0.00096790,-0.00089443,-0
 .00017179,0.00029161,0.00021227,0.00049285,0.00166888,0.00341900,-0.00
 218126,0.00055491,-0.00020513,0.00036691,0.00043172,0.00002021,0.00051
 001,0.00086500,0.00018065,-0.00009686,-0.00014306,-0.00053162,0.001919
 12,-0.00046871,-0.10955796,0.19239490,0.18246845,-0.01274951,-0.002005
 47,0.01446523,-0.00162412,-0.00684303,0.00220718,-0.05315562,-0.077905
 20,0.01713142,0.03392202,0.03069159,0.01557261,0.00198854,-0.00224594,
 -0.00813187,-0.22513320,-0.15338327,0.07192017,-0.00181612,0.00026131,
 0.00183745,-0.00095816,0.00166697,0.00164754,-0.00186941,0.00129004,0.
 00124025,0.02642015,0.03116708,-0.00422285,-0.00058590,0.00108545,-0.0
 0004822,0.22959962,0.00052657,0.00241548,0.00059595,0.00050907,-0.0002
 4794,0.00102022,-0.04853604,0.03778369,-0.03870425,-0.08609678,-0.0305
 3370,-0.01449223,0.00248468,-0.01331854,0.01749899,-0.02859620,-0.2001
 1593,0.08010192,-0.00341240,0.00376606,0.00371816,0.00001521,0.0026250
 8,0.00080491,0.00280002,-0.00166184,-0.00135432,-0.01824721,-0.0329864
 7,0.03875760,-0.00165243,0.00057192,-0.00090181,0.18278017,0.22736317,
 0.00251523,0.00250116,0.01006070,-0.00196078,-0.00291081,0.00076866,0.
 00123172,-0.02005159,0.04397083,0.08237696,0.01894418,-0.01647403,-0.0
 0181291,0.00536332,-0.01591729,0.00822852,0.06551325,-0.08272686,0.002
 10886,-0.00064209,-0.00090107,0.00102330,0.00083623,0.00093957,-0.0023
 2522,0.00177331,0.00131601,0.01947413,0.02256885,-0.00780999,0.0017645
 5,-0.00029204,0.00007276,-0.11330448,-0.08642266,0.07196139,0.00116499
 ,-0.00006200,0.00031550,-0.00018663,0.00021440,-0.00018753,0.00734561,
 0.00104578,0.00358206,-0.00181456,0.00057001,0.00005607,-0.00090960,0.
 00121688,-0.00149484,-0.03760798,-0.00069576,0.00223207,0.00036406,-0.
 00038814,-0.00027809,-0.00008329,0.00004053,0.00005273,-0.00006357,0.0
 0032173,0.00030835,-0.42111864,0.00078014,0.08386870,0.00010663,-0.000
 12868,0.00025025,0.00596171,-0.00257465,0.00068011,0.44684127,-0.00103
 020,0.00149666,-0.00069516,0.00019155,-0.00013692,0.00004526,-0.003933
 09,-0.00586136,0.00390299,0.00733348,0.00161721,0.00255796,0.00009532,
 -0.00029815,0.00039286,0.04916513,-0.00773302,-0.00317729,-0.00005500,
 0.00010255,-0.00014025,0.00010131,-0.00018732,-0.00003908,0.00000603,-
 0.00010044,-0.00016684,-0.04521765,-0.03178412,0.02290665,0.00024307,0
 .00003737,0.00040168,-0.00655971,0.00433902,-0.00718110,-0.00034023,0.
 03850853,0.00070505,0.00091821,0.00003836,-0.00025125,0.00008506,-0.00
 021840,-0.00167330,0.00131049,0.00656714,0.00441218,0.00052164,0.00093
 007,-0.00130721,0.00050185,-0.00137644,-0.02649451,0.00252596,0.003637
 14,0.00021985,-0.00007163,-0.00039641,0.00011875,-0.00018670,0.0000160
 8,-0.00026993,0.00027707,0.00023954,0.11420480,0.01374082,-0.04662862,
 0.00003536,-0.00019261,0.00010432,-0.00031443,-0.00062247,-0.00526069,
 -0.08938538,-0.01880767,0.04234792\\0.00005814,0.00006560,-0.00000045,
 0.00003377,0.00000223,-0.00000939,-0.00014474,-0.00005984,-0.00005236,
 -0.00003208,-0.00000494,0.00002030,0.00001446,0.00000447,0.00003391,0.
 00000864,-0.00000449,0.00000031,-0.00000633,0.00000680,-0.00000246,0.0
 0000404,0.00000214,-0.00000158,0.00000807,-0.00000420,-0.00001375,0.00
 001389,0.00000644,0.00000692,-0.00000606,-0.00000512,0.00002726,0.0000
 4751,-0.00001399,-0.00001192,0.00000068,0.00000491,0.00000321\\\@


 I am not a vegetarian because I love animals;
 I am a vegetarian because I hate plants.
                               -- A. Whitney Brown
 Job cpu time:       0 days  0 hours  0 minutes 59.7 seconds.
 File lengths (MBytes):  RWF=     12 Int=      0 D2E=      0 Chk=      2 Scr=      1
 Normal termination of Gaussian 09 at Sat Apr  2 12:48:19 2016.
