 Entering Link 1 = c:\G03W05\l1.exe PID=      3516.
  
 Copyright (c) 1988,1990,1992,1993,1995,1998,2003,2004,2007, Gaussian, Inc.
                  All Rights Reserved.
  
 This is the Gaussian(R) 03 program.  It is based on the
 the Gaussian(R) 98 system (copyright 1998, Gaussian, Inc.),
 the Gaussian(R) 94 system (copyright 1995, Gaussian, Inc.),
 the Gaussian 92(TM) system (copyright 1992, Gaussian, Inc.),
 the Gaussian 90(TM) system (copyright 1990, Gaussian, Inc.),
 the Gaussian 88(TM) system (copyright 1988, Gaussian, Inc.),
 the Gaussian 86(TM) system (copyright 1986, Carnegie Mellon
 University), and the Gaussian 82(TM) system (copyright 1983,
 Carnegie Mellon University). Gaussian is a federally registered
 trademark of Gaussian, Inc.
  
 This software contains proprietary and confidential information,
 including trade secrets, belonging to Gaussian, Inc.
  
 This software is provided under written license and may be
 used, copied, transmitted, or stored only in accord with that
 written license.
  
 The following legend is applicable only to US Government
 contracts under FAR:
  
                    RESTRICTED RIGHTS LEGEND
  
 Use, reproduction and disclosure by the US Government is
 subject to restrictions as set forth in subparagraphs (a)
 and (c) of the Commercial Computer Software - Restricted
 Rights clause in FAR 52.227-19.
  
 Gaussian, Inc.
 340 Quinnipiac St., Bldg. 40, Wallingford CT 06492
  
  
 ---------------------------------------------------------------
 Warning -- This program may not be used in any manner that
 competes with the business of Gaussian, Inc. or will provide
 assistance to any competitor of Gaussian, Inc.  The licensee
 of this program is prohibited from giving any competitor of
 Gaussian, Inc. access to this program.  By using this program,
 the user acknowledges that Gaussian, Inc. is engaged in the
 business of creating and licensing software in the field of
 computational chemistry and represents and warrants to the
 licensee that it is not a competitor of Gaussian, Inc. and that
 it will not use this program in any manner prohibited above.
 ---------------------------------------------------------------
  

 Cite this work as:
 Gaussian 03, Revision E.01,
 M. J. Frisch, G. W. Trucks, H. B. Schlegel, G. E. Scuseria, 
 M. A. Robb, J. R. Cheeseman, J. A. Montgomery, Jr., T. Vreven, 
 K. N. Kudin, J. C. Burant, J. M. Millam, S. S. Iyengar, J. Tomasi, 
 V. Barone, B. Mennucci, M. Cossi, G. Scalmani, N. Rega, 
 G. A. Petersson, H. Nakatsuji, M. Hada, M. Ehara, K. Toyota, 
 R. Fukuda, J. Hasegawa, M. Ishida, T. Nakajima, Y. Honda, O. Kitao, 
 H. Nakai, M. Klene, X. Li, J. E. Knox, H. P. Hratchian, J. B. Cross, 
 V. Bakken, C. Adamo, J. Jaramillo, R. Gomperts, R. E. Stratmann, 
 O. Yazyev, A. J. Austin, R. Cammi, C. Pomelli, J. W. Ochterski, 
 P. Y. Ayala, K. Morokuma, G. A. Voth, P. Salvador, J. J. Dannenberg, 
 V. G. Zakrzewski, S. Dapprich, A. D. Daniels, M. C. Strain, 
 O. Farkas, D. K. Malick, A. D. Rabuck, K. Raghavachari, 
 J. B. Foresman, J. V. Ortiz, Q. Cui, A. G. Baboul, S. Clifford, 
 J. Cioslowski, B. B. Stefanov, G. Liu, A. Liashenko, P. Piskorz, 
 I. Komaromi, R. L. Martin, D. J. Fox, T. Keith, M. A. Al-Laham, 
 C. Y. Peng, A. Nanayakkara, M. Challacombe, P. M. W. Gill, 
 B. Johnson, W. Chen, M. W. Wong, C. Gonzalez, and J. A. Pople, 
 Gaussian, Inc., Wallingford CT, 2004.
 
 ******************************************
 Gaussian 03:  IA32W-G03RevE.01 11-Sep-2007
                29-Mar-2016 
 ******************************************
 %chk=E:\YangJ\Amiano\Val\opt-rs\r\Val-R-opt-6-311gdp.chk
 ------------------------------------------------
 # opt freq b3lyp/6-311++g(d,p) geom=connectivity
 ------------------------------------------------
 1/14=-1,18=20,26=3,38=1,57=2/1,3;
 2/9=110,17=6,18=5,40=1/2;
 3/5=4,6=6,7=1111,11=2,16=1,25=1,30=1,74=-5/1,2,3;
 4//1;
 5/5=2,38=5/2;
 6/7=2,8=2,9=2,10=2,28=1/1;
 7//1,2,3,16;
 1/14=-1,18=20/3(3);
 2/9=110/2;
 6/7=2,8=2,9=2,10=2,19=2,28=1/1;
 99//99;
 2/9=110/2;
 3/5=4,6=6,7=1111,11=2,16=1,25=1,30=1,74=-5/1,2,3;
 4/5=5,16=3/1;
 5/5=2,38=5/2;
 7//1,2,3,16;
 1/14=-1,18=20/3(-5);
 2/9=110/2;
 6/7=2,8=2,9=2,10=2,19=2,28=1/1;
 99/9=1/99;
 ----------------------------
 Val-R-opt-freq-6-311++g(d,p)
 ----------------------------
 Symbolic Z-matrix:
 Charge =  0 Multiplicity = 1
 C                    -0.05763   0.45891   0.28743 
 H                    -0.00469   0.46278   1.39043 
 C                    -1.33429  -0.30134  -0.07238 
 O                    -1.43407  -1.26725  -0.78149 
 O                    -2.41439   0.27601   0.52082 
 H                    -3.19831  -0.21475   0.23115 
 C                     1.20335  -0.2442   -0.25256 
 C                     2.44451   0.65163  -0.12576 
 H                     2.62013   0.94807   0.91534 
 H                     3.33229   0.11025  -0.4626 
 H                     2.3673    1.55363  -0.73691 
 N                    -0.2213    1.81506  -0.26609 
 H                    -1.07596   2.23422   0.08527 
 H                     0.54673   2.40922   0.02452 
 H                     1.02986  -0.44671  -1.31404 
 C                     1.44087  -1.57819   0.47159 
 H                     0.59228  -2.25533   0.36728 
 H                     2.31882  -2.08167   0.05823 
 H                     1.6274   -1.41603   1.5394 
 

 GradGradGradGradGradGradGradGradGradGradGradGradGradGradGradGradGradGrad
 Berny optimization.
 Initialization pass.
                           ----------------------------
                           !    Initial Parameters    !
                           ! (Angstroms and Degrees)  !
 --------------------------                            --------------------------
 ! Name  Definition              Value          Derivative Info.                !
 --------------------------------------------------------------------------------
 ! R1    R(1,2)                  1.1043         estimate D2E/DX2                !
 ! R2    R(1,3)                  1.5288         estimate D2E/DX2                !
 ! R3    R(1,7)                  1.5414         estimate D2E/DX2                !
 ! R4    R(1,12)                 1.4739         estimate D2E/DX2                !
 ! R5    R(3,4)                  1.2024         estimate D2E/DX2                !
 ! R6    R(3,5)                  1.3608         estimate D2E/DX2                !
 ! R7    R(5,6)                  0.9692         estimate D2E/DX2                !
 ! R8    R(7,8)                  1.5359         estimate D2E/DX2                !
 ! R9    R(7,15)                 1.0945         estimate D2E/DX2                !
 ! R10   R(7,16)                 1.5363         estimate D2E/DX2                !
 ! R11   R(8,9)                  1.0966         estimate D2E/DX2                !
 ! R12   R(8,10)                 1.093          estimate D2E/DX2                !
 ! R13   R(8,11)                 1.0923         estimate D2E/DX2                !
 ! R14   R(12,13)                1.0147         estimate D2E/DX2                !
 ! R15   R(12,14)                1.0136         estimate D2E/DX2                !
 ! R16   R(16,17)                1.0906         estimate D2E/DX2                !
 ! R17   R(16,18)                1.0932         estimate D2E/DX2                !
 ! R18   R(16,19)                1.096          estimate D2E/DX2                !
 ! A1    A(2,1,3)              106.0724         estimate D2E/DX2                !
 ! A2    A(2,1,7)              108.1976         estimate D2E/DX2                !
 ! A3    A(2,1,12)             112.161          estimate D2E/DX2                !
 ! A4    A(3,1,7)              111.9538         estimate D2E/DX2                !
 ! A5    A(3,1,12)             106.0476         estimate D2E/DX2                !
 ! A6    A(7,1,12)             112.271          estimate D2E/DX2                !
 ! A7    A(1,3,4)              127.4127         estimate D2E/DX2                !
 ! A8    A(1,3,5)              110.4407         estimate D2E/DX2                !
 ! A9    A(4,3,5)              122.143          estimate D2E/DX2                !
 ! A10   A(3,5,6)              107.2705         estimate D2E/DX2                !
 ! A11   A(1,7,8)              111.4753         estimate D2E/DX2                !
 ! A12   A(1,7,15)             107.127          estimate D2E/DX2                !
 ! A13   A(1,7,16)             110.9416         estimate D2E/DX2                !
 ! A14   A(8,7,15)             108.4261         estimate D2E/DX2                !
 ! A15   A(8,7,16)             110.0341         estimate D2E/DX2                !
 ! A16   A(15,7,16)            108.7225         estimate D2E/DX2                !
 ! A17   A(7,8,9)              111.4351         estimate D2E/DX2                !
 ! A18   A(7,8,10)             110.0002         estimate D2E/DX2                !
 ! A19   A(7,8,11)             112.2301         estimate D2E/DX2                !
 ! A20   A(9,8,10)             107.2412         estimate D2E/DX2                !
 ! A21   A(9,8,11)             108.6191         estimate D2E/DX2                !
 ! A22   A(10,8,11)            107.0975         estimate D2E/DX2                !
 ! A23   A(1,12,13)            110.0957         estimate D2E/DX2                !
 ! A24   A(1,12,14)            110.3378         estimate D2E/DX2                !
 ! A25   A(13,12,14)           107.2657         estimate D2E/DX2                !
 ! A26   A(7,16,17)            111.9451         estimate D2E/DX2                !
 ! A27   A(7,16,18)            110.2321         estimate D2E/DX2                !
 ! A28   A(7,16,19)            110.9192         estimate D2E/DX2                !
 ! A29   A(17,16,18)           107.6232         estimate D2E/DX2                !
 ! A30   A(17,16,19)           108.5086         estimate D2E/DX2                !
 ! A31   A(18,16,19)           107.4476         estimate D2E/DX2                !
 ! D1    D(2,1,3,4)           -124.0781         estimate D2E/DX2                !
 ! D2    D(2,1,3,5)             56.6096         estimate D2E/DX2                !
 ! D3    D(7,1,3,4)             -6.268          estimate D2E/DX2                !
 ! D4    D(7,1,3,5)            174.4197         estimate D2E/DX2                !
 ! D5    D(12,1,3,4)           116.4928         estimate D2E/DX2                !
 ! D6    D(12,1,3,5)           -62.8195         estimate D2E/DX2                !
 ! D7    D(2,1,7,8)            -74.4103         estimate D2E/DX2                !
 ! D8    D(2,1,7,15)           167.1224         estimate D2E/DX2                !
 ! D9    D(2,1,7,16)            48.5959         estimate D2E/DX2                !
 ! D10   D(3,1,7,8)            169.0562         estimate D2E/DX2                !
 ! D11   D(3,1,7,15)            50.5889         estimate D2E/DX2                !
 ! D12   D(3,1,7,16)           -67.9376         estimate D2E/DX2                !
 ! D13   D(12,1,7,8)            49.9024         estimate D2E/DX2                !
 ! D14   D(12,1,7,15)          -68.5649         estimate D2E/DX2                !
 ! D15   D(12,1,7,16)          172.9086         estimate D2E/DX2                !
 ! D16   D(2,1,12,13)          -59.8726         estimate D2E/DX2                !
 ! D17   D(2,1,12,14)           58.335          estimate D2E/DX2                !
 ! D18   D(3,1,12,13)           55.4816         estimate D2E/DX2                !
 ! D19   D(3,1,12,14)          173.6892         estimate D2E/DX2                !
 ! D20   D(7,1,12,13)          178.0413         estimate D2E/DX2                !
 ! D21   D(7,1,12,14)          -63.7511         estimate D2E/DX2                !
 ! D22   D(1,3,5,6)            177.469          estimate D2E/DX2                !
 ! D23   D(4,3,5,6)             -1.8859         estimate D2E/DX2                !
 ! D24   D(1,7,8,9)             58.0275         estimate D2E/DX2                !
 ! D25   D(1,7,8,10)           176.8275         estimate D2E/DX2                !
 ! D26   D(1,7,8,11)           -64.0456         estimate D2E/DX2                !
 ! D27   D(15,7,8,9)           175.7139         estimate D2E/DX2                !
 ! D28   D(15,7,8,10)          -65.4861         estimate D2E/DX2                !
 ! D29   D(15,7,8,11)           53.6409         estimate D2E/DX2                !
 ! D30   D(16,7,8,9)           -65.4956         estimate D2E/DX2                !
 ! D31   D(16,7,8,10)           53.3044         estimate D2E/DX2                !
 ! D32   D(16,7,8,11)          172.4313         estimate D2E/DX2                !
 ! D33   D(1,7,16,17)           58.4424         estimate D2E/DX2                !
 ! D34   D(1,7,16,18)          178.2025         estimate D2E/DX2                !
 ! D35   D(1,7,16,19)          -62.9172         estimate D2E/DX2                !
 ! D36   D(8,7,16,17)         -177.7236         estimate D2E/DX2                !
 ! D37   D(8,7,16,18)          -57.9636         estimate D2E/DX2                !
 ! D38   D(8,7,16,19)           60.9167         estimate D2E/DX2                !
 ! D39   D(15,7,16,17)         -59.1151         estimate D2E/DX2                !
 ! D40   D(15,7,16,18)          60.6449         estimate D2E/DX2                !
 ! D41   D(15,7,16,19)         179.5253         estimate D2E/DX2                !
 --------------------------------------------------------------------------------
 Trust Radius=3.00D-01 FncErr=1.00D-07 GrdErr=1.00D-06
 Number of steps in this run= 100 maximum allowed number of steps= 114.
 GradGradGradGradGradGradGradGradGradGradGradGradGradGradGradGradGradGrad

                          Input orientation:                          
 ---------------------------------------------------------------------
 Center     Atomic     Atomic              Coordinates (Angstroms)
 Number     Number      Type              X           Y           Z
 ---------------------------------------------------------------------
    1          6             0       -0.057626    0.458906    0.287427
    2          1             0       -0.004688    0.462781    1.390433
    3          6             0       -1.334293   -0.301337   -0.072376
    4          8             0       -1.434065   -1.267254   -0.781491
    5          8             0       -2.414389    0.276008    0.520816
    6          1             0       -3.198311   -0.214750    0.231147
    7          6             0        1.203346   -0.244198   -0.252560
    8          6             0        2.444514    0.651625   -0.125755
    9          1             0        2.620127    0.948067    0.915344
   10          1             0        3.332292    0.110250   -0.462604
   11          1             0        2.367303    1.553627   -0.736908
   12          7             0       -0.221300    1.815064   -0.266090
   13          1             0       -1.075959    2.234221    0.085265
   14          1             0        0.546731    2.409224    0.024517
   15          1             0        1.029863   -0.446710   -1.314036
   16          6             0        1.440871   -1.578190    0.471589
   17          1             0        0.592281   -2.255329    0.367280
   18          1             0        2.318824   -2.081666    0.058233
   19          1             0        1.627398   -1.416029    1.539400
 ---------------------------------------------------------------------
                    Distance matrix (angstroms):
                    1          2          3          4          5
     1  C    0.000000
     2  H    1.104282   0.000000
     3  C    1.528825   2.119324   0.000000
     4  O    2.452916   3.123042   1.202412   0.000000
     5  O    2.375343   2.568614   1.360813   2.244704   0.000000
     6  H    3.212613   3.464422   1.890552   2.290363   0.969167
     7  C    1.541425   2.158377   2.544669   2.877907   3.735871
     8  C    2.543337   2.886707   3.897482   4.376695   4.916104
     9  H    2.793550   2.711248   4.263102   4.921724   5.094474
    10  H    3.489363   3.833205   4.700925   4.971656   5.832575
    11  H    2.850957   3.367769   4.193365   4.733894   5.106737
    12  N    1.473884   2.149339   2.399048   3.352182   2.792410
    13  H    2.056603   2.447261   2.553555   3.624891   2.411576
    14  H    2.058667   2.440990   3.300724   4.253198   3.683090
    15  H    2.137161   3.035065   2.674339   2.651007   3.968863
    16  C    2.535581   2.664485   3.102868   3.151531   4.278259
    17  H    2.792101   2.965019   2.779041   2.530226   3.933358
    18  H    3.486338   3.694276   4.065943   3.930977   5.308099
    19  H    2.814627   2.493155   3.551334   3.844636   4.498505
                    6          7          8          9         10
     6  H    0.000000
     7  C    4.428253   0.000000
     8  C    5.720093   1.535929   0.000000
     9  H    5.972813   2.189238   1.096633   0.000000
    10  H    6.575385   2.168447   1.093025   1.762912   0.000000
    11  H    5.919489   2.195806   1.092281   1.777796   1.757778
    12  N    3.637304   2.504069   2.912018   3.197058   3.946267
    13  H    3.243936   3.384068   3.865601   4.000534   4.923829
    14  H    4.577475   2.747465   2.591007   2.688405   3.644437
    15  H    4.507644   1.094458   2.149323   3.073187   2.517205
    16  C    4.841362   1.536341   2.517180   2.823037   2.702040
    17  H    4.307097   2.191404   3.481987   3.830702   3.713803
    18  H    5.827011   2.171905   2.742358   3.163021   2.470402
    19  H    5.142185   2.182688   2.777699   2.638921   3.040429
                   11         12         13         14         15
    11  H    0.000000
    12  N    2.644028   0.000000
    13  H    3.604890   1.014685   0.000000
    14  H    2.150883   1.013583   1.633230   0.000000
    15  H    2.474504   2.789126   3.685094   3.190846   0.000000
    16  C    3.482387   3.849825   4.584556   4.110819   2.153516
    17  H    4.344891   4.198949   4.797772   4.677351   2.507868
    18  H    3.721553   4.662823   5.491099   4.827996   2.493516
    19  H    3.814170   4.137323   4.769379   4.253854   3.072251
                   16         17         18         19
    16  C    0.000000
    17  H    1.090643   0.000000
    18  H    1.093230   1.762561   0.000000
    19  H    1.096042   1.774755   1.764936   0.000000
 Stoichiometry    C5H11NO2
 Framework group  C1[X(C5H11NO2)]
 Deg. of freedom    51
 Full point group                 C1
 Largest Abelian subgroup         C1      NOp   1
 Largest concise Abelian subgroup C1      NOp   1
                         Standard orientation:                         
 ---------------------------------------------------------------------
 Center     Atomic     Atomic              Coordinates (Angstroms)
 Number     Number      Type              X           Y           Z
 ---------------------------------------------------------------------
    1          6             0       -0.057626    0.458906    0.287427
    2          1             0       -0.004688    0.462781    1.390433
    3          6             0       -1.334293   -0.301337   -0.072376
    4          8             0       -1.434065   -1.267254   -0.781491
    5          8             0       -2.414389    0.276008    0.520816
    6          1             0       -3.198311   -0.214750    0.231147
    7          6             0        1.203346   -0.244198   -0.252560
    8          6             0        2.444514    0.651625   -0.125755
    9          1             0        2.620127    0.948067    0.915344
   10          1             0        3.332292    0.110250   -0.462604
   11          1             0        2.367303    1.553627   -0.736908
   12          7             0       -0.221300    1.815064   -0.266090
   13          1             0       -1.075959    2.234221    0.085265
   14          1             0        0.546731    2.409224    0.024517
   15          1             0        1.029863   -0.446710   -1.314036
   16          6             0        1.440871   -1.578190    0.471589
   17          1             0        0.592281   -2.255329    0.367280
   18          1             0        2.318824   -2.081666    0.058233
   19          1             0        1.627398   -1.416029    1.539400
 ---------------------------------------------------------------------
 Rotational constants (GHZ):      3.0420339      1.5129565      1.1357184
 Standard basis: 6-311++G(d,p) (5D, 7F)
 There are   253 symmetry adapted basis functions of A   symmetry.
 Integral buffers will be    262144 words long.
 Raffenetti 2 integral format.
 Two-electron integral symmetry is turned on.
   253 basis functions,   387 primitive gaussians,   261 cartesian basis functions
    32 alpha electrons       32 beta electrons
       nuclear repulsion energy       404.8708116792 Hartrees.
 NAtoms=   19 NActive=   19 NUniq=   19 SFac= 7.50D-01 NAtFMM=   80 NAOKFM=F Big=F
 One-electron integrals computed using PRISM.
 NBasis=   253 RedAO= T  NBF=   253
 NBsUse=   253 1.00D-06 NBFU=   253
 Harris functional with IExCor=  402 diagonalized for initial guess.
 ExpMin= 3.60D-02 ExpMax= 8.59D+03 ExpMxC= 1.30D+03 IAcc=3 IRadAn=         5 AccDes= 0.00D+00
 HarFok:  IExCor= 402 AccDes= 0.00D+00 IRadAn=         5 IDoV=1
 ScaDFX=  1.000000  1.000000  1.000000  1.000000
 Initial guess orbital symmetries:
       Occupied  (A) (A) (A) (A) (A) (A) (A) (A) (A) (A) (A) (A)
                 (A) (A) (A) (A) (A) (A) (A) (A) (A) (A) (A) (A)
                 (A) (A) (A) (A) (A) (A) (A) (A)
       Virtual   (A) (A) (A) (A) (A) (A) (A) (A) (A) (A) (A) (A)
                 (A) (A) (A) (A) (A) (A) (A) (A) (A) (A) (A) (A)
                 (A) (A) (A) (A) (A) (A) (A) (A) (A) (A) (A) (A)
                 (A) (A) (A) (A) (A) (A) (A) (A) (A) (A) (A) (A)
                 (A) (A) (A) (A) (A) (A) (A) (A) (A) (A) (A) (A)
                 (A) (A) (A) (A) (A) (A) (A) (A) (A) (A) (A) (A)
                 (A) (A) (A) (A) (A) (A) (A) (A) (A) (A) (A) (A)
                 (A) (A) (A) (A) (A) (A) (A) (A) (A) (A) (A) (A)
                 (A) (A) (A) (A) (A) (A) (A) (A) (A) (A) (A) (A)
                 (A) (A) (A) (A) (A) (A) (A) (A) (A) (A) (A) (A)
                 (A) (A) (A) (A) (A) (A) (A) (A) (A) (A) (A) (A)
                 (A) (A) (A) (A) (A) (A) (A) (A) (A) (A) (A) (A)
                 (A) (A) (A) (A) (A) (A) (A) (A) (A) (A) (A) (A)
                 (A) (A) (A) (A) (A) (A) (A) (A) (A) (A) (A) (A)
                 (A) (A) (A) (A) (A) (A) (A) (A) (A) (A) (A) (A)
                 (A) (A) (A) (A) (A) (A) (A) (A) (A) (A) (A) (A)
                 (A) (A) (A) (A) (A) (A) (A) (A) (A) (A) (A) (A)
                 (A) (A) (A) (A) (A) (A) (A) (A) (A) (A) (A) (A)
                 (A) (A) (A) (A) (A)
 The electronic state of the initial guess is 1-A.
 Requested convergence on RMS density matrix=1.00D-08 within 128 cycles.
 Requested convergence on MAX density matrix=1.00D-06.
 Requested convergence on             energy=1.00D-06.
 No special actions if energy rises.
 SCF Done:  E(RB+HF-LYP) =  -402.498704609     A.U. after   13 cycles
             Convg  =    0.6354D-08             -V/T =  2.0041
             S**2   =   0.0000

 **********************************************************************

            Population analysis using the SCF density.

 **********************************************************************

 Orbital symmetries:
       Occupied  (A) (A) (A) (A) (A) (A) (A) (A) (A) (A) (A) (A)
                 (A) (A) (A) (A) (A) (A) (A) (A) (A) (A) (A) (A)
                 (A) (A) (A) (A) (A) (A) (A) (A)
       Virtual   (A) (A) (A) (A) (A) (A) (A) (A) (A) (A) (A) (A)
                 (A) (A) (A) (A) (A) (A) (A) (A) (A) (A) (A) (A)
                 (A) (A) (A) (A) (A) (A) (A) (A) (A) (A) (A) (A)
                 (A) (A) (A) (A) (A) (A) (A) (A) (A) (A) (A) (A)
                 (A) (A) (A) (A) (A) (A) (A) (A) (A) (A) (A) (A)
                 (A) (A) (A) (A) (A) (A) (A) (A) (A) (A) (A) (A)
                 (A) (A) (A) (A) (A) (A) (A) (A) (A) (A) (A) (A)
                 (A) (A) (A) (A) (A) (A) (A) (A) (A) (A) (A) (A)
                 (A) (A) (A) (A) (A) (A) (A) (A) (A) (A) (A) (A)
                 (A) (A) (A) (A) (A) (A) (A) (A) (A) (A) (A) (A)
                 (A) (A) (A) (A) (A) (A) (A) (A) (A) (A) (A) (A)
                 (A) (A) (A) (A) (A) (A) (A) (A) (A) (A) (A) (A)
                 (A) (A) (A) (A) (A) (A) (A) (A) (A) (A) (A) (A)
                 (A) (A) (A) (A) (A) (A) (A) (A) (A) (A) (A) (A)
                 (A) (A) (A) (A) (A) (A) (A) (A) (A) (A) (A) (A)
                 (A) (A) (A) (A) (A) (A) (A) (A) (A) (A) (A) (A)
                 (A) (A) (A) (A) (A) (A) (A) (A) (A) (A) (A) (A)
                 (A) (A) (A) (A) (A) (A) (A) (A) (A) (A) (A) (A)
                 (A) (A) (A) (A) (A)
 The electronic state is 1-A.
 Alpha  occ. eigenvalues --  -19.18332 -19.12849 -14.30842 -10.31634 -10.22406
 Alpha  occ. eigenvalues --  -10.18175 -10.16573 -10.15857  -1.12490  -1.03664
 Alpha  occ. eigenvalues --   -0.90687  -0.80046  -0.72172  -0.68706  -0.63269
 Alpha  occ. eigenvalues --   -0.56305  -0.52667  -0.50447  -0.49394  -0.48012
 Alpha  occ. eigenvalues --   -0.45135  -0.43412  -0.42351  -0.41278  -0.39540
 Alpha  occ. eigenvalues --   -0.38636  -0.35017  -0.34534  -0.34189  -0.33431
 Alpha  occ. eigenvalues --   -0.29627  -0.25795
 Alpha virt. eigenvalues --   -0.02467  -0.01086  -0.00056   0.00753   0.01362
 Alpha virt. eigenvalues --    0.02671   0.03766   0.03922   0.04916   0.05206
 Alpha virt. eigenvalues --    0.06143   0.07185   0.08321   0.09056   0.09198
 Alpha virt. eigenvalues --    0.09755   0.09959   0.10345   0.11389   0.12133
 Alpha virt. eigenvalues --    0.12324   0.12926   0.13410   0.13935   0.14570
 Alpha virt. eigenvalues --    0.14761   0.15537   0.16090   0.16685   0.16898
 Alpha virt. eigenvalues --    0.17309   0.18492   0.19060   0.19401   0.19753
 Alpha virt. eigenvalues --    0.20223   0.21223   0.21873   0.22295   0.23861
 Alpha virt. eigenvalues --    0.23894   0.24204   0.24960   0.25860   0.26259
 Alpha virt. eigenvalues --    0.27081   0.28445   0.29098   0.30001   0.30353
 Alpha virt. eigenvalues --    0.30918   0.31759   0.32792   0.33386   0.33490
 Alpha virt. eigenvalues --    0.35121   0.35478   0.37515   0.39072   0.39655
 Alpha virt. eigenvalues --    0.41526   0.44070   0.45333   0.49182   0.49855
 Alpha virt. eigenvalues --    0.51511   0.52135   0.54619   0.55437   0.56807
 Alpha virt. eigenvalues --    0.59341   0.60855   0.62447   0.62977   0.64369
 Alpha virt. eigenvalues --    0.65740   0.65945   0.67598   0.68080   0.68711
 Alpha virt. eigenvalues --    0.70044   0.70356   0.73442   0.75400   0.76813
 Alpha virt. eigenvalues --    0.77728   0.78584   0.80570   0.83118   0.87296
 Alpha virt. eigenvalues --    0.88715   0.91115   0.92866   0.99626   1.01365
 Alpha virt. eigenvalues --    1.03056   1.04490   1.07738   1.10713   1.14002
 Alpha virt. eigenvalues --    1.15055   1.16940   1.19877   1.20259   1.22185
 Alpha virt. eigenvalues --    1.25264   1.26315   1.31052   1.31757   1.39825
 Alpha virt. eigenvalues --    1.39952   1.42604   1.45044   1.46404   1.47148
 Alpha virt. eigenvalues --    1.49637   1.52184   1.53479   1.55186   1.56619
 Alpha virt. eigenvalues --    1.57871   1.59070   1.61006   1.62811   1.63674
 Alpha virt. eigenvalues --    1.66032   1.66820   1.69356   1.70825   1.71605
 Alpha virt. eigenvalues --    1.72892   1.75027   1.77166   1.79820   1.80443
 Alpha virt. eigenvalues --    1.85465   1.89677   1.91690   1.95776   1.97257
 Alpha virt. eigenvalues --    1.98014   2.00226   2.02805   2.06031   2.07030
 Alpha virt. eigenvalues --    2.10417   2.14706   2.15985   2.18793   2.22912
 Alpha virt. eigenvalues --    2.26322   2.31915   2.37737   2.39557   2.46789
 Alpha virt. eigenvalues --    2.48468   2.48911   2.50427   2.52223   2.53694
 Alpha virt. eigenvalues --    2.55438   2.56641   2.57205   2.61112   2.63337
 Alpha virt. eigenvalues --    2.64160   2.66116   2.69672   2.71919   2.73456
 Alpha virt. eigenvalues --    2.75548   2.78253   2.78921   2.83149   2.84705
 Alpha virt. eigenvalues --    2.87864   2.90348   2.92333   2.94571   2.98795
 Alpha virt. eigenvalues --    3.01017   3.03659   3.06070   3.10263   3.14488
 Alpha virt. eigenvalues --    3.17348   3.18290   3.20286   3.25879   3.37433
 Alpha virt. eigenvalues --    3.45223   3.56186   3.60866   3.67599   3.77762
 Alpha virt. eigenvalues --    3.78955   3.80415   3.82415   3.84087   3.93632
 Alpha virt. eigenvalues --    4.06565   4.08854   4.20699   4.29525   4.32303
 Alpha virt. eigenvalues --    4.73977   4.83085   4.97649   5.06276   5.19524
 Alpha virt. eigenvalues --    5.38688   5.59047   5.84871  23.79699  23.80472
 Alpha virt. eigenvalues --   23.84486  23.97315  23.98348  35.60863  49.85965
 Alpha virt. eigenvalues --   50.00554
          Condensed to atoms (all electrons):
              1          2          3          4          5          6
     1  C    8.394745   0.505491  -1.334810  -0.082468  -0.270872  -0.062323
     2  H    0.505491   0.635603  -0.106877  -0.002716  -0.014857   0.004252
     3  C   -1.334810  -0.106877   6.512697   0.442040   0.257640   0.069096
     4  O   -0.082468  -0.002716   0.442040   8.015626  -0.127253  -0.003395
     5  O   -0.270872  -0.014857   0.257640  -0.127253   8.085812   0.240066
     6  H   -0.062323   0.004252   0.069096  -0.003395   0.240066   0.461033
     7  C   -1.218748  -0.056690   0.295216   0.071028   0.047121  -0.000982
     8  C    0.506389  -0.003783  -0.198311   0.016849   0.003665   0.000082
     9  H   -0.062034   0.007798   0.002812   0.000047   0.000174  -0.000050
    10  H    0.033059   0.000135  -0.002838   0.000673   0.000333  -0.000066
    11  H   -0.027432   0.002703   0.020755   0.000606   0.000490   0.000367
    12  N    0.151676  -0.095890  -0.038486  -0.012857  -0.012922   0.004316
    13  H   -0.000300   0.002667  -0.047868  -0.000240   0.008129  -0.002055
    14  H   -0.030282  -0.004617  -0.008512   0.000009  -0.001156  -0.000870
    15  H   -0.104880   0.018943  -0.034831  -0.005121  -0.001798  -0.001611
    16  C   -0.224313  -0.100880   0.265311  -0.048557  -0.019806   0.000789
    17  H   -0.033648  -0.008521   0.047863   0.002124  -0.000196   0.001543
    18  H    0.049128  -0.003261  -0.004969  -0.000098  -0.000618   0.000087
    19  H   -0.103569   0.013355   0.010554   0.004379   0.002684  -0.000350
              7          8          9         10         11         12
     1  C   -1.218748   0.506389  -0.062034   0.033059  -0.027432   0.151676
     2  H   -0.056690  -0.003783   0.007798   0.000135   0.002703  -0.095890
     3  C    0.295216  -0.198311   0.002812  -0.002838   0.020755  -0.038486
     4  O    0.071028   0.016849   0.000047   0.000673   0.000606  -0.012857
     5  O    0.047121   0.003665   0.000174   0.000333   0.000490  -0.012922
     6  H   -0.000982   0.000082  -0.000050  -0.000066   0.000367   0.004316
     7  C    6.892224  -0.590526   0.091018  -0.102920  -0.020057  -0.165092
     8  C   -0.590526   5.973650   0.348652   0.425878   0.381107   0.009355
     9  H    0.091018   0.348652   0.554322  -0.028610  -0.048062  -0.009565
    10  H   -0.102920   0.425878  -0.028610   0.548491  -0.017690   0.004455
    11  H   -0.020057   0.381107  -0.048062  -0.017690   0.577038   0.000617
    12  N   -0.165092   0.009355  -0.009565   0.004455   0.000617   6.661259
    13  H    0.022613  -0.001246  -0.000427   0.000170  -0.000555   0.383261
    14  H   -0.041438   0.026353  -0.001590   0.000710   0.003954   0.396817
    15  H    0.583625  -0.090651   0.010240  -0.008478  -0.008053  -0.002769
    16  C    0.108281  -0.175110  -0.028034  -0.002634   0.009269   0.037894
    17  H   -0.099338   0.021082  -0.002616   0.000944  -0.001587   0.002491
    18  H   -0.089324   0.004040   0.002219   0.001636   0.001492  -0.004584
    19  H    0.102352  -0.029245   0.009456   0.001302  -0.002121  -0.002872
             13         14         15         16         17         18
     1  C   -0.000300  -0.030282  -0.104880  -0.224313  -0.033648   0.049128
     2  H    0.002667  -0.004617   0.018943  -0.100880  -0.008521  -0.003261
     3  C   -0.047868  -0.008512  -0.034831   0.265311   0.047863  -0.004969
     4  O   -0.000240   0.000009  -0.005121  -0.048557   0.002124  -0.000098
     5  O    0.008129  -0.001156  -0.001798  -0.019806  -0.000196  -0.000618
     6  H   -0.002055  -0.000870  -0.001611   0.000789   0.001543   0.000087
     7  C    0.022613  -0.041438   0.583625   0.108281  -0.099338  -0.089324
     8  C   -0.001246   0.026353  -0.090651  -0.175110   0.021082   0.004040
     9  H   -0.000427  -0.001590   0.010240  -0.028034  -0.002616   0.002219
    10  H    0.000170   0.000710  -0.008478  -0.002634   0.000944   0.001636
    11  H   -0.000555   0.003954  -0.008053   0.009269  -0.001587   0.001492
    12  N    0.383261   0.396817  -0.002769   0.037894   0.002491  -0.004584
    13  H    0.454964  -0.058340  -0.000486  -0.004171   0.000336   0.000243
    14  H   -0.058340   0.476451   0.001395   0.008874  -0.000461  -0.001135
    15  H   -0.000486   0.001395   0.523621  -0.083151  -0.017147  -0.014815
    16  C   -0.004171   0.008874  -0.083151   5.632661   0.443573   0.406354
    17  H    0.000336  -0.000461  -0.017147   0.443573   0.540824  -0.012963
    18  H    0.000243  -0.001135  -0.014815   0.406354  -0.012963   0.568904
    19  H   -0.001371   0.002354   0.014894   0.359331  -0.047640  -0.040957
             19
     1  C   -0.103569
     2  H    0.013355
     3  C    0.010554
     4  O    0.004379
     5  O    0.002684
     6  H   -0.000350
     7  C    0.102352
     8  C   -0.029245
     9  H    0.009456
    10  H    0.001302
    11  H   -0.002121
    12  N   -0.002872
    13  H   -0.001371
    14  H    0.002354
    15  H    0.014894
    16  C    0.359331
    17  H   -0.047640
    18  H   -0.040957
    19  H    0.582738
 Mulliken atomic charges:
              1
     1  C   -0.084809
     2  H    0.207145
     3  C   -0.146482
     4  O   -0.270676
     5  O   -0.196637
     6  H    0.290070
     7  C    0.171635
     8  C   -0.628230
     9  H    0.154249
    10  H    0.145450
    11  H    0.127158
    12  N   -0.307104
    13  H    0.244675
    14  H    0.231481
    15  H    0.221073
    16  C   -0.585681
    17  H    0.163335
    18  H    0.138623
    19  H    0.124726
 Sum of Mulliken charges=   0.00000
 Atomic charges with hydrogens summed into heavy atoms:
              1
     1  C    0.122336
     2  H    0.000000
     3  C   -0.146482
     4  O   -0.270676
     5  O    0.093433
     6  H    0.000000
     7  C    0.392708
     8  C   -0.201373
     9  H    0.000000
    10  H    0.000000
    11  H    0.000000
    12  N    0.169052
    13  H    0.000000
    14  H    0.000000
    15  H    0.000000
    16  C   -0.158997
    17  H    0.000000
    18  H    0.000000
    19  H    0.000000
 Sum of Mulliken charges=   0.00000
 Electronic spatial extent (au):  <R**2>=  1095.3503
 Charge=     0.0000 electrons
 Dipole moment (field-independent basis, Debye):
    X=     0.1451    Y=     1.2726    Z=     1.8860  Tot=     2.2798
 Quadrupole moment (field-independent basis, Debye-Ang):
   XX=   -43.7737   YY=   -51.3532   ZZ=   -53.8049
   XY=    -0.3712   XZ=    -1.4057   YZ=     0.1938
 Traceless Quadrupole moment (field-independent basis, Debye-Ang):
   XX=     5.8703   YY=    -1.7093   ZZ=    -4.1610
   XY=    -0.3712   XZ=    -1.4057   YZ=     0.1938
 Octapole moment (field-independent basis, Debye-Ang**2):
  XXX=   -45.0465  YYY=    14.1539  ZZZ=     1.6375  XYY=    -0.4771
  XXY=    -2.0657  XXZ=    -1.9491  XZZ=    -0.8134  YZZ=    -1.3919
  YYZ=     7.0613  XYZ=     4.6457
 Hexadecapole moment (field-independent basis, Debye-Ang**3):
 XXXX=  -740.7596 YYYY=  -415.0367 ZZZZ=  -138.3046 XXXY=    10.8644
 XXXZ=    -8.5228 YYYX=    -2.4341 YYYZ=    11.0955 ZZZX=    -1.0709
 ZZZY=     7.4351 XXYY=  -218.9477 XXZZ=  -174.4773 YYZZ=  -106.7960
 XXYZ=    -5.0137 YYXZ=    -9.2449 ZZXY=     1.1161
 N-N= 4.048708116792D+02 E-N=-1.750229775430D+03  KE= 4.008662184502D+02
 ***** Axes restored to original set *****
 -------------------------------------------------------------------
 Center     Atomic                   Forces (Hartrees/Bohr)
 Number     Number              X              Y              Z
 -------------------------------------------------------------------
    1          6           0.000008854   -0.000008817    0.000005217
    2          1          -0.000002788    0.000003104   -0.000000968
    3          6          -0.000004924    0.000020313    0.000020917
    4          8          -0.000008601   -0.000021132   -0.000011985
    5          8           0.000007466   -0.000008479   -0.000005182
    6          1          -0.000003601   -0.000001712    0.000004091
    7          6          -0.000004261    0.000011330   -0.000005021
    8          6           0.000007452   -0.000001875   -0.000002555
    9          1           0.000000984    0.000001266   -0.000000827
   10          1          -0.000001042    0.000000734   -0.000001326
   11          1          -0.000003924   -0.000000556   -0.000001593
   12          7          -0.000001900    0.000006224    0.000001977
   13          1          -0.000001567   -0.000004250    0.000001149
   14          1           0.000001865    0.000000781   -0.000000591
   15          1          -0.000000187   -0.000001233   -0.000001037
   16          6           0.000002080    0.000000643    0.000002220
   17          1           0.000001356   -0.000000151   -0.000001039
   18          1           0.000000648    0.000001138   -0.000002953
   19          1           0.000002092    0.000002672   -0.000000495
 -------------------------------------------------------------------
 Cartesian Forces:  Max     0.000021132 RMS     0.000006352

 GradGradGradGradGradGradGradGradGradGradGradGradGradGradGradGradGradGrad
 Berny optimization.
 Internal  Forces:  Max     0.000024997 RMS     0.000003749
 Search for a local minimum.
 Step number   1 out of a maximum of 100
 All quantities printed in internal units (Hartrees-Bohrs-Radians)
 Second derivative matrix not updated -- first step.
     Eigenvalues ---    0.00230   0.00285   0.00291   0.00385   0.00714
     Eigenvalues ---    0.00799   0.02210   0.03514   0.04182   0.04481
     Eigenvalues ---    0.04716   0.04750   0.04859   0.05280   0.05352
     Eigenvalues ---    0.05570   0.05577   0.06690   0.16000   0.16000
     Eigenvalues ---    0.16000   0.16000   0.16000   0.16000   0.16000
     Eigenvalues ---    0.16000   0.16000   0.16575   0.16807   0.17641
     Eigenvalues ---    0.17785   0.24999   0.25000   0.28393   0.28845
     Eigenvalues ---    0.28883   0.29532   0.33213   0.34057   0.34124
     Eigenvalues ---    0.34302   0.34442   0.34465   0.34550   0.34738
     Eigenvalues ---    0.35279   0.45197   0.45378   0.52784   0.53547
     Eigenvalues ---    1.036201000.000001000.000001000.000001000.00000
     Eigenvalues --- 1000.000001000.000001000.000001000.000001000.00000
     Eigenvalues --- 1000.000001000.000001000.000001000.000001000.00000
     Eigenvalues --- 1000.000001000.000001000.000001000.000001000.00000
     Eigenvalues --- 1000.000001000.000001000.000001000.000001000.00000
     Eigenvalues --- 1000.000001000.000001000.000001000.000001000.00000
     Eigenvalues --- 1000.000001000.000001000.000001000.000001000.00000
     Eigenvalues --- 1000.000001000.000001000.000001000.000001000.00000
 RFO step:  Lambda= 0.00000000D+00.
 Linear search not attempted -- first point.
 Iteration  1 RMS(Cart)=  0.00007499 RMS(Int)=  0.00000000
 Iteration  2 RMS(Cart)=  0.00000000 RMS(Int)=  0.00000000
 Variable       Old X    -DE/DX   Delta X   Delta X   Delta X     New X
                                 (Linear)    (Quad)   (Total)
    R1        2.08679   0.00000   0.00000   0.00000   0.00000   2.08679
    R2        2.88906   0.00001   0.00000   0.00004   0.00004   2.88910
    R3        2.91287   0.00000   0.00000   0.00000   0.00000   2.91287
    R4        2.78524   0.00000   0.00000   0.00001   0.00001   2.78525
    R5        2.27223   0.00002   0.00000   0.00002   0.00002   2.27225
    R6        2.57156  -0.00001   0.00000  -0.00002  -0.00002   2.57155
    R7        1.83146   0.00000   0.00000   0.00001   0.00001   1.83147
    R8        2.90248   0.00000   0.00000   0.00001   0.00001   2.90249
    R9        2.06823   0.00000   0.00000   0.00000   0.00000   2.06823
   R10        2.90326   0.00000   0.00000  -0.00001  -0.00001   2.90326
   R11        2.07234   0.00000   0.00000   0.00000   0.00000   2.07234
   R12        2.06552   0.00000   0.00000   0.00000   0.00000   2.06552
   R13        2.06411   0.00000   0.00000   0.00000   0.00000   2.06411
   R14        1.91748   0.00000   0.00000   0.00000   0.00000   1.91747
   R15        1.91539   0.00000   0.00000   0.00001   0.00001   1.91540
   R16        2.06102   0.00000   0.00000   0.00000   0.00000   2.06102
   R17        2.06591   0.00000   0.00000   0.00000   0.00000   2.06591
   R18        2.07122   0.00000   0.00000   0.00000   0.00000   2.07122
    A1        1.85131   0.00000   0.00000  -0.00002  -0.00002   1.85130
    A2        1.88841   0.00000   0.00000   0.00003   0.00003   1.88844
    A3        1.95758   0.00000   0.00000  -0.00004  -0.00004   1.95754
    A4        1.95396   0.00000   0.00000   0.00003   0.00003   1.95399
    A5        1.85088   0.00000   0.00000   0.00000   0.00000   1.85088
    A6        1.95950   0.00000   0.00000  -0.00001  -0.00001   1.95949
    A7        2.22377   0.00001   0.00000   0.00003   0.00003   2.22380
    A8        1.92755   0.00000   0.00000   0.00001   0.00001   1.92756
    A9        2.13180  -0.00001   0.00000  -0.00003  -0.00003   2.13177
   A10        1.87222   0.00001   0.00000   0.00003   0.00003   1.87225
   A11        1.94561   0.00001   0.00000   0.00005   0.00005   1.94566
   A12        1.86972   0.00000   0.00000   0.00002   0.00002   1.86973
   A13        1.93630   0.00000   0.00000  -0.00002  -0.00002   1.93627
   A14        1.89239   0.00000   0.00000   0.00000   0.00000   1.89240
   A15        1.92046   0.00000   0.00000  -0.00004  -0.00004   1.92042
   A16        1.89757   0.00000   0.00000   0.00000   0.00000   1.89756
   A17        1.94491   0.00000   0.00000   0.00001   0.00001   1.94492
   A18        1.91987   0.00000   0.00000   0.00000   0.00000   1.91986
   A19        1.95878   0.00000   0.00000  -0.00002  -0.00002   1.95876
   A20        1.87171   0.00000   0.00000   0.00000   0.00000   1.87171
   A21        1.89576   0.00000   0.00000   0.00001   0.00001   1.89577
   A22        1.86920   0.00000   0.00000   0.00001   0.00001   1.86922
   A23        1.92153   0.00000   0.00000  -0.00002  -0.00002   1.92151
   A24        1.92576   0.00000   0.00000   0.00001   0.00001   1.92576
   A25        1.87214   0.00000   0.00000   0.00002   0.00002   1.87216
   A26        1.95381   0.00000   0.00000   0.00000   0.00000   1.95381
   A27        1.92391   0.00000   0.00000  -0.00001  -0.00001   1.92390
   A28        1.93591   0.00000   0.00000  -0.00001  -0.00001   1.93589
   A29        1.87838   0.00000   0.00000   0.00000   0.00000   1.87838
   A30        1.89383   0.00000   0.00000   0.00001   0.00001   1.89385
   A31        1.87531   0.00000   0.00000   0.00001   0.00001   1.87533
    D1       -2.16557   0.00000   0.00000   0.00003   0.00003  -2.16554
    D2        0.98802   0.00000   0.00000   0.00010   0.00010   0.98813
    D3       -0.10940   0.00000   0.00000   0.00008   0.00008  -0.10932
    D4        3.04420   0.00000   0.00000   0.00014   0.00014   3.04434
    D5        2.03318   0.00000   0.00000   0.00009   0.00009   2.03327
    D6       -1.09641   0.00000   0.00000   0.00015   0.00015  -1.09625
    D7       -1.29870   0.00000   0.00000  -0.00002  -0.00002  -1.29872
    D8        2.91684   0.00000   0.00000  -0.00006  -0.00006   2.91678
    D9        0.84816   0.00000   0.00000  -0.00005  -0.00005   0.84811
   D10        2.95059   0.00000   0.00000  -0.00003  -0.00003   2.95056
   D11        0.88294   0.00000   0.00000  -0.00007  -0.00007   0.88287
   D12       -1.18574   0.00000   0.00000  -0.00006  -0.00006  -1.18580
   D13        0.87096   0.00000   0.00000  -0.00005  -0.00005   0.87091
   D14       -1.19668   0.00000   0.00000  -0.00009  -0.00009  -1.19677
   D15        3.01783   0.00000   0.00000  -0.00008  -0.00008   3.01774
   D16       -1.04497   0.00000   0.00000   0.00001   0.00001  -1.04496
   D17        1.01814   0.00000   0.00000   0.00003   0.00003   1.01816
   D18        0.96834   0.00000   0.00000  -0.00003  -0.00003   0.96831
   D19        3.03145   0.00000   0.00000  -0.00001  -0.00001   3.03144
   D20        3.10741   0.00000   0.00000   0.00000   0.00000   3.10741
   D21       -1.11267   0.00000   0.00000   0.00002   0.00002  -1.11265
   D22        3.09742   0.00000   0.00000  -0.00002  -0.00002   3.09739
   D23       -0.03292   0.00000   0.00000   0.00004   0.00004  -0.03288
   D24        1.01277   0.00000   0.00000  -0.00005  -0.00005   1.01272
   D25        3.08622   0.00000   0.00000  -0.00005  -0.00005   3.08617
   D26       -1.11781   0.00000   0.00000  -0.00005  -0.00005  -1.11786
   D27        3.06679   0.00000   0.00000   0.00000   0.00000   3.06678
   D28       -1.14295   0.00000   0.00000   0.00000   0.00000  -1.14295
   D29        0.93621   0.00000   0.00000   0.00000   0.00000   0.93621
   D30       -1.14311   0.00000   0.00000  -0.00003  -0.00003  -1.14314
   D31        0.93034   0.00000   0.00000  -0.00003  -0.00003   0.93031
   D32        3.00949   0.00000   0.00000  -0.00003  -0.00003   3.00947
   D33        1.02001   0.00000   0.00000  -0.00002  -0.00002   1.01999
   D34        3.11022   0.00000   0.00000  -0.00003  -0.00003   3.11019
   D35       -1.09811   0.00000   0.00000  -0.00003  -0.00003  -1.09814
   D36       -3.10186   0.00000   0.00000   0.00000   0.00000  -3.10187
   D37       -1.01166   0.00000   0.00000  -0.00001  -0.00001  -1.01167
   D38        1.06320   0.00000   0.00000  -0.00001  -0.00001   1.06319
   D39       -1.03175   0.00000   0.00000  -0.00002  -0.00002  -1.03178
   D40        1.05845   0.00000   0.00000  -0.00003  -0.00003   1.05842
   D41        3.13331   0.00000   0.00000  -0.00003  -0.00003   3.13328
         Item               Value     Threshold  Converged?
 Maximum Force            0.000025     0.000450     YES
 RMS     Force            0.000004     0.000300     YES
 Maximum Displacement     0.000245     0.001800     YES
 RMS     Displacement     0.000075     0.001200     YES
 Predicted change in Energy=-2.225825D-09
 Optimization completed.
    -- Stationary point found.
                           ----------------------------
                           !   Optimized Parameters   !
                           ! (Angstroms and Degrees)  !
 --------------------------                            --------------------------
 ! Name  Definition              Value          Derivative Info.                !
 --------------------------------------------------------------------------------
 ! R1    R(1,2)                  1.1043         -DE/DX =    0.0                 !
 ! R2    R(1,3)                  1.5288         -DE/DX =    0.0                 !
 ! R3    R(1,7)                  1.5414         -DE/DX =    0.0                 !
 ! R4    R(1,12)                 1.4739         -DE/DX =    0.0                 !
 ! R5    R(3,4)                  1.2024         -DE/DX =    0.0                 !
 ! R6    R(3,5)                  1.3608         -DE/DX =    0.0                 !
 ! R7    R(5,6)                  0.9692         -DE/DX =    0.0                 !
 ! R8    R(7,8)                  1.5359         -DE/DX =    0.0                 !
 ! R9    R(7,15)                 1.0945         -DE/DX =    0.0                 !
 ! R10   R(7,16)                 1.5363         -DE/DX =    0.0                 !
 ! R11   R(8,9)                  1.0966         -DE/DX =    0.0                 !
 ! R12   R(8,10)                 1.093          -DE/DX =    0.0                 !
 ! R13   R(8,11)                 1.0923         -DE/DX =    0.0                 !
 ! R14   R(12,13)                1.0147         -DE/DX =    0.0                 !
 ! R15   R(12,14)                1.0136         -DE/DX =    0.0                 !
 ! R16   R(16,17)                1.0906         -DE/DX =    0.0                 !
 ! R17   R(16,18)                1.0932         -DE/DX =    0.0                 !
 ! R18   R(16,19)                1.096          -DE/DX =    0.0                 !
 ! A1    A(2,1,3)              106.0724         -DE/DX =    0.0                 !
 ! A2    A(2,1,7)              108.1976         -DE/DX =    0.0                 !
 ! A3    A(2,1,12)             112.161          -DE/DX =    0.0                 !
 ! A4    A(3,1,7)              111.9538         -DE/DX =    0.0                 !
 ! A5    A(3,1,12)             106.0476         -DE/DX =    0.0                 !
 ! A6    A(7,1,12)             112.271          -DE/DX =    0.0                 !
 ! A7    A(1,3,4)              127.4127         -DE/DX =    0.0                 !
 ! A8    A(1,3,5)              110.4407         -DE/DX =    0.0                 !
 ! A9    A(4,3,5)              122.143          -DE/DX =    0.0                 !
 ! A10   A(3,5,6)              107.2705         -DE/DX =    0.0                 !
 ! A11   A(1,7,8)              111.4753         -DE/DX =    0.0                 !
 ! A12   A(1,7,15)             107.127          -DE/DX =    0.0                 !
 ! A13   A(1,7,16)             110.9416         -DE/DX =    0.0                 !
 ! A14   A(8,7,15)             108.4261         -DE/DX =    0.0                 !
 ! A15   A(8,7,16)             110.0341         -DE/DX =    0.0                 !
 ! A16   A(15,7,16)            108.7225         -DE/DX =    0.0                 !
 ! A17   A(7,8,9)              111.4351         -DE/DX =    0.0                 !
 ! A18   A(7,8,10)             110.0002         -DE/DX =    0.0                 !
 ! A19   A(7,8,11)             112.2301         -DE/DX =    0.0                 !
 ! A20   A(9,8,10)             107.2412         -DE/DX =    0.0                 !
 ! A21   A(9,8,11)             108.6191         -DE/DX =    0.0                 !
 ! A22   A(10,8,11)            107.0975         -DE/DX =    0.0                 !
 ! A23   A(1,12,13)            110.0957         -DE/DX =    0.0                 !
 ! A24   A(1,12,14)            110.3378         -DE/DX =    0.0                 !
 ! A25   A(13,12,14)           107.2657         -DE/DX =    0.0                 !
 ! A26   A(7,16,17)            111.9451         -DE/DX =    0.0                 !
 ! A27   A(7,16,18)            110.2321         -DE/DX =    0.0                 !
 ! A28   A(7,16,19)            110.9192         -DE/DX =    0.0                 !
 ! A29   A(17,16,18)           107.6232         -DE/DX =    0.0                 !
 ! A30   A(17,16,19)           108.5086         -DE/DX =    0.0                 !
 ! A31   A(18,16,19)           107.4476         -DE/DX =    0.0                 !
 ! D1    D(2,1,3,4)           -124.0781         -DE/DX =    0.0                 !
 ! D2    D(2,1,3,5)             56.6096         -DE/DX =    0.0                 !
 ! D3    D(7,1,3,4)             -6.268          -DE/DX =    0.0                 !
 ! D4    D(7,1,3,5)            174.4197         -DE/DX =    0.0                 !
 ! D5    D(12,1,3,4)           116.4928         -DE/DX =    0.0                 !
 ! D6    D(12,1,3,5)           -62.8195         -DE/DX =    0.0                 !
 ! D7    D(2,1,7,8)            -74.4103         -DE/DX =    0.0                 !
 ! D8    D(2,1,7,15)           167.1224         -DE/DX =    0.0                 !
 ! D9    D(2,1,7,16)            48.5959         -DE/DX =    0.0                 !
 ! D10   D(3,1,7,8)            169.0562         -DE/DX =    0.0                 !
 ! D11   D(3,1,7,15)            50.5889         -DE/DX =    0.0                 !
 ! D12   D(3,1,7,16)           -67.9376         -DE/DX =    0.0                 !
 ! D13   D(12,1,7,8)            49.9024         -DE/DX =    0.0                 !
 ! D14   D(12,1,7,15)          -68.5649         -DE/DX =    0.0                 !
 ! D15   D(12,1,7,16)          172.9086         -DE/DX =    0.0                 !
 ! D16   D(2,1,12,13)          -59.8726         -DE/DX =    0.0                 !
 ! D17   D(2,1,12,14)           58.335          -DE/DX =    0.0                 !
 ! D18   D(3,1,12,13)           55.4816         -DE/DX =    0.0                 !
 ! D19   D(3,1,12,14)          173.6892         -DE/DX =    0.0                 !
 ! D20   D(7,1,12,13)          178.0413         -DE/DX =    0.0                 !
 ! D21   D(7,1,12,14)          -63.7511         -DE/DX =    0.0                 !
 ! D22   D(1,3,5,6)            177.469          -DE/DX =    0.0                 !
 ! D23   D(4,3,5,6)             -1.8859         -DE/DX =    0.0                 !
 ! D24   D(1,7,8,9)             58.0275         -DE/DX =    0.0                 !
 ! D25   D(1,7,8,10)           176.8275         -DE/DX =    0.0                 !
 ! D26   D(1,7,8,11)           -64.0456         -DE/DX =    0.0                 !
 ! D27   D(15,7,8,9)           175.7139         -DE/DX =    0.0                 !
 ! D28   D(15,7,8,10)          -65.4861         -DE/DX =    0.0                 !
 ! D29   D(15,7,8,11)           53.6409         -DE/DX =    0.0                 !
 ! D30   D(16,7,8,9)           -65.4956         -DE/DX =    0.0                 !
 ! D31   D(16,7,8,10)           53.3044         -DE/DX =    0.0                 !
 ! D32   D(16,7,8,11)          172.4313         -DE/DX =    0.0                 !
 ! D33   D(1,7,16,17)           58.4424         -DE/DX =    0.0                 !
 ! D34   D(1,7,16,18)          178.2025         -DE/DX =    0.0                 !
 ! D35   D(1,7,16,19)          -62.9172         -DE/DX =    0.0                 !
 ! D36   D(8,7,16,17)         -177.7236         -DE/DX =    0.0                 !
 ! D37   D(8,7,16,18)          -57.9636         -DE/DX =    0.0                 !
 ! D38   D(8,7,16,19)           60.9167         -DE/DX =    0.0                 !
 ! D39   D(15,7,16,17)         -59.1151         -DE/DX =    0.0                 !
 ! D40   D(15,7,16,18)          60.6449         -DE/DX =    0.0                 !
 ! D41   D(15,7,16,19)         179.5253         -DE/DX =    0.0                 !
 --------------------------------------------------------------------------------
 GradGradGradGradGradGradGradGradGradGradGradGradGradGradGradGradGradGrad

                          Input orientation:                          
 ---------------------------------------------------------------------
 Center     Atomic     Atomic              Coordinates (Angstroms)
 Number     Number      Type              X           Y           Z
 ---------------------------------------------------------------------
    1          6             0       -0.057626    0.458906    0.287427
    2          1             0       -0.004688    0.462781    1.390433
    3          6             0       -1.334293   -0.301337   -0.072376
    4          8             0       -1.434065   -1.267254   -0.781491
    5          8             0       -2.414389    0.276008    0.520816
    6          1             0       -3.198311   -0.214750    0.231147
    7          6             0        1.203346   -0.244198   -0.252560
    8          6             0        2.444514    0.651625   -0.125755
    9          1             0        2.620127    0.948067    0.915344
   10          1             0        3.332292    0.110250   -0.462604
   11          1             0        2.367303    1.553627   -0.736908
   12          7             0       -0.221300    1.815064   -0.266090
   13          1             0       -1.075959    2.234221    0.085265
   14          1             0        0.546731    2.409224    0.024517
   15          1             0        1.029863   -0.446710   -1.314036
   16          6             0        1.440871   -1.578190    0.471589
   17          1             0        0.592281   -2.255329    0.367280
   18          1             0        2.318824   -2.081666    0.058233
   19          1             0        1.627398   -1.416029    1.539400
 ---------------------------------------------------------------------
                    Distance matrix (angstroms):
                    1          2          3          4          5
     1  C    0.000000
     2  H    1.104282   0.000000
     3  C    1.528825   2.119324   0.000000
     4  O    2.452916   3.123042   1.202412   0.000000
     5  O    2.375343   2.568614   1.360813   2.244704   0.000000
     6  H    3.212613   3.464422   1.890552   2.290363   0.969167
     7  C    1.541425   2.158377   2.544669   2.877907   3.735871
     8  C    2.543337   2.886707   3.897482   4.376695   4.916104
     9  H    2.793550   2.711248   4.263102   4.921724   5.094474
    10  H    3.489363   3.833205   4.700925   4.971656   5.832575
    11  H    2.850957   3.367769   4.193365   4.733894   5.106737
    12  N    1.473884   2.149339   2.399048   3.352182   2.792410
    13  H    2.056603   2.447261   2.553555   3.624891   2.411576
    14  H    2.058667   2.440990   3.300724   4.253198   3.683090
    15  H    2.137161   3.035065   2.674339   2.651007   3.968863
    16  C    2.535581   2.664485   3.102868   3.151531   4.278259
    17  H    2.792101   2.965019   2.779041   2.530226   3.933358
    18  H    3.486338   3.694276   4.065943   3.930977   5.308099
    19  H    2.814627   2.493155   3.551334   3.844636   4.498505
                    6          7          8          9         10
     6  H    0.000000
     7  C    4.428253   0.000000
     8  C    5.720093   1.535929   0.000000
     9  H    5.972813   2.189238   1.096633   0.000000
    10  H    6.575385   2.168447   1.093025   1.762912   0.000000
    11  H    5.919489   2.195806   1.092281   1.777796   1.757778
    12  N    3.637304   2.504069   2.912018   3.197058   3.946267
    13  H    3.243936   3.384068   3.865601   4.000534   4.923829
    14  H    4.577475   2.747465   2.591007   2.688405   3.644437
    15  H    4.507644   1.094458   2.149323   3.073187   2.517205
    16  C    4.841362   1.536341   2.517180   2.823037   2.702040
    17  H    4.307097   2.191404   3.481987   3.830702   3.713803
    18  H    5.827011   2.171905   2.742358   3.163021   2.470402
    19  H    5.142185   2.182688   2.777699   2.638921   3.040429
                   11         12         13         14         15
    11  H    0.000000
    12  N    2.644028   0.000000
    13  H    3.604890   1.014685   0.000000
    14  H    2.150883   1.013583   1.633230   0.000000
    15  H    2.474504   2.789126   3.685094   3.190846   0.000000
    16  C    3.482387   3.849825   4.584556   4.110819   2.153516
    17  H    4.344891   4.198949   4.797772   4.677351   2.507868
    18  H    3.721553   4.662823   5.491099   4.827996   2.493516
    19  H    3.814170   4.137323   4.769379   4.253854   3.072251
                   16         17         18         19
    16  C    0.000000
    17  H    1.090643   0.000000
    18  H    1.093230   1.762561   0.000000
    19  H    1.096042   1.774755   1.764936   0.000000
 Stoichiometry    C5H11NO2
 Framework group  C1[X(C5H11NO2)]
 Deg. of freedom    51
 Full point group                 C1
 Largest Abelian subgroup         C1      NOp   1
 Largest concise Abelian subgroup C1      NOp   1
                         Standard orientation:                         
 ---------------------------------------------------------------------
 Center     Atomic     Atomic              Coordinates (Angstroms)
 Number     Number      Type              X           Y           Z
 ---------------------------------------------------------------------
    1          6             0       -0.057626    0.458906    0.287427
    2          1             0       -0.004688    0.462781    1.390433
    3          6             0       -1.334293   -0.301337   -0.072376
    4          8             0       -1.434065   -1.267254   -0.781491
    5          8             0       -2.414389    0.276008    0.520816
    6          1             0       -3.198311   -0.214750    0.231147
    7          6             0        1.203346   -0.244198   -0.252560
    8          6             0        2.444514    0.651625   -0.125755
    9          1             0        2.620127    0.948067    0.915344
   10          1             0        3.332292    0.110250   -0.462604
   11          1             0        2.367303    1.553627   -0.736908
   12          7             0       -0.221300    1.815064   -0.266090
   13          1             0       -1.075959    2.234221    0.085265
   14          1             0        0.546731    2.409224    0.024517
   15          1             0        1.029863   -0.446710   -1.314036
   16          6             0        1.440871   -1.578190    0.471589
   17          1             0        0.592281   -2.255329    0.367280
   18          1             0        2.318824   -2.081666    0.058233
   19          1             0        1.627398   -1.416029    1.539400
 ---------------------------------------------------------------------
 Rotational constants (GHZ):      3.0420339      1.5129565      1.1357184

 **********************************************************************

            Population analysis using the SCF density.

 **********************************************************************

 Orbital symmetries:
       Occupied  (A) (A) (A) (A) (A) (A) (A) (A) (A) (A) (A) (A)
                 (A) (A) (A) (A) (A) (A) (A) (A) (A) (A) (A) (A)
                 (A) (A) (A) (A) (A) (A) (A) (A)
       Virtual   (A) (A) (A) (A) (A) (A) (A) (A) (A) (A) (A) (A)
                 (A) (A) (A) (A) (A) (A) (A) (A) (A) (A) (A) (A)
                 (A) (A) (A) (A) (A) (A) (A) (A) (A) (A) (A) (A)
                 (A) (A) (A) (A) (A) (A) (A) (A) (A) (A) (A) (A)
                 (A) (A) (A) (A) (A) (A) (A) (A) (A) (A) (A) (A)
                 (A) (A) (A) (A) (A) (A) (A) (A) (A) (A) (A) (A)
                 (A) (A) (A) (A) (A) (A) (A) (A) (A) (A) (A) (A)
                 (A) (A) (A) (A) (A) (A) (A) (A) (A) (A) (A) (A)
                 (A) (A) (A) (A) (A) (A) (A) (A) (A) (A) (A) (A)
                 (A) (A) (A) (A) (A) (A) (A) (A) (A) (A) (A) (A)
                 (A) (A) (A) (A) (A) (A) (A) (A) (A) (A) (A) (A)
                 (A) (A) (A) (A) (A) (A) (A) (A) (A) (A) (A) (A)
                 (A) (A) (A) (A) (A) (A) (A) (A) (A) (A) (A) (A)
                 (A) (A) (A) (A) (A) (A) (A) (A) (A) (A) (A) (A)
                 (A) (A) (A) (A) (A) (A) (A) (A) (A) (A) (A) (A)
                 (A) (A) (A) (A) (A) (A) (A) (A) (A) (A) (A) (A)
                 (A) (A) (A) (A) (A) (A) (A) (A) (A) (A) (A) (A)
                 (A) (A) (A) (A) (A) (A) (A) (A) (A) (A) (A) (A)
                 (A) (A) (A) (A) (A)
 The electronic state is 1-A.
 Alpha  occ. eigenvalues --  -19.18332 -19.12849 -14.30842 -10.31634 -10.22406
 Alpha  occ. eigenvalues --  -10.18175 -10.16573 -10.15857  -1.12490  -1.03664
 Alpha  occ. eigenvalues --   -0.90687  -0.80046  -0.72172  -0.68706  -0.63269
 Alpha  occ. eigenvalues --   -0.56305  -0.52667  -0.50447  -0.49394  -0.48012
 Alpha  occ. eigenvalues --   -0.45135  -0.43412  -0.42351  -0.41278  -0.39540
 Alpha  occ. eigenvalues --   -0.38636  -0.35017  -0.34534  -0.34189  -0.33431
 Alpha  occ. eigenvalues --   -0.29627  -0.25795
 Alpha virt. eigenvalues --   -0.02467  -0.01086  -0.00056   0.00753   0.01362
 Alpha virt. eigenvalues --    0.02671   0.03766   0.03922   0.04916   0.05206
 Alpha virt. eigenvalues --    0.06143   0.07185   0.08321   0.09056   0.09198
 Alpha virt. eigenvalues --    0.09755   0.09959   0.10345   0.11389   0.12133
 Alpha virt. eigenvalues --    0.12324   0.12926   0.13410   0.13935   0.14570
 Alpha virt. eigenvalues --    0.14761   0.15537   0.16090   0.16685   0.16898
 Alpha virt. eigenvalues --    0.17309   0.18492   0.19060   0.19401   0.19753
 Alpha virt. eigenvalues --    0.20223   0.21223   0.21873   0.22295   0.23861
 Alpha virt. eigenvalues --    0.23894   0.24204   0.24960   0.25860   0.26259
 Alpha virt. eigenvalues --    0.27081   0.28445   0.29098   0.30001   0.30353
 Alpha virt. eigenvalues --    0.30918   0.31759   0.32792   0.33386   0.33490
 Alpha virt. eigenvalues --    0.35121   0.35478   0.37515   0.39072   0.39655
 Alpha virt. eigenvalues --    0.41526   0.44070   0.45333   0.49182   0.49855
 Alpha virt. eigenvalues --    0.51511   0.52135   0.54619   0.55437   0.56807
 Alpha virt. eigenvalues --    0.59341   0.60855   0.62447   0.62977   0.64369
 Alpha virt. eigenvalues --    0.65740   0.65945   0.67598   0.68080   0.68711
 Alpha virt. eigenvalues --    0.70044   0.70356   0.73442   0.75400   0.76813
 Alpha virt. eigenvalues --    0.77728   0.78584   0.80570   0.83118   0.87296
 Alpha virt. eigenvalues --    0.88715   0.91115   0.92866   0.99626   1.01365
 Alpha virt. eigenvalues --    1.03056   1.04490   1.07738   1.10713   1.14002
 Alpha virt. eigenvalues --    1.15055   1.16940   1.19877   1.20259   1.22185
 Alpha virt. eigenvalues --    1.25264   1.26315   1.31052   1.31757   1.39825
 Alpha virt. eigenvalues --    1.39952   1.42604   1.45044   1.46404   1.47148
 Alpha virt. eigenvalues --    1.49637   1.52184   1.53479   1.55186   1.56619
 Alpha virt. eigenvalues --    1.57871   1.59070   1.61006   1.62811   1.63674
 Alpha virt. eigenvalues --    1.66032   1.66820   1.69356   1.70825   1.71605
 Alpha virt. eigenvalues --    1.72892   1.75027   1.77166   1.79820   1.80443
 Alpha virt. eigenvalues --    1.85465   1.89677   1.91690   1.95776   1.97257
 Alpha virt. eigenvalues --    1.98014   2.00226   2.02805   2.06031   2.07030
 Alpha virt. eigenvalues --    2.10417   2.14706   2.15985   2.18793   2.22912
 Alpha virt. eigenvalues --    2.26322   2.31915   2.37737   2.39557   2.46789
 Alpha virt. eigenvalues --    2.48468   2.48911   2.50427   2.52223   2.53694
 Alpha virt. eigenvalues --    2.55438   2.56641   2.57205   2.61112   2.63337
 Alpha virt. eigenvalues --    2.64160   2.66116   2.69672   2.71919   2.73456
 Alpha virt. eigenvalues --    2.75548   2.78253   2.78921   2.83149   2.84705
 Alpha virt. eigenvalues --    2.87864   2.90348   2.92333   2.94571   2.98795
 Alpha virt. eigenvalues --    3.01017   3.03659   3.06070   3.10263   3.14488
 Alpha virt. eigenvalues --    3.17348   3.18290   3.20286   3.25879   3.37433
 Alpha virt. eigenvalues --    3.45223   3.56186   3.60866   3.67599   3.77762
 Alpha virt. eigenvalues --    3.78955   3.80415   3.82415   3.84087   3.93632
 Alpha virt. eigenvalues --    4.06565   4.08854   4.20699   4.29525   4.32303
 Alpha virt. eigenvalues --    4.73977   4.83085   4.97649   5.06276   5.19524
 Alpha virt. eigenvalues --    5.38688   5.59047   5.84871  23.79699  23.80472
 Alpha virt. eigenvalues --   23.84486  23.97315  23.98348  35.60863  49.85965
 Alpha virt. eigenvalues --   50.00554
          Condensed to atoms (all electrons):
              1          2          3          4          5          6
     1  C    8.394745   0.505491  -1.334810  -0.082468  -0.270872  -0.062323
     2  H    0.505491   0.635603  -0.106877  -0.002716  -0.014857   0.004252
     3  C   -1.334810  -0.106877   6.512697   0.442040   0.257640   0.069096
     4  O   -0.082468  -0.002716   0.442040   8.015626  -0.127253  -0.003395
     5  O   -0.270872  -0.014857   0.257640  -0.127253   8.085812   0.240066
     6  H   -0.062323   0.004252   0.069096  -0.003395   0.240066   0.461033
     7  C   -1.218748  -0.056690   0.295216   0.071028   0.047121  -0.000982
     8  C    0.506389  -0.003783  -0.198311   0.016849   0.003665   0.000082
     9  H   -0.062034   0.007798   0.002812   0.000047   0.000174  -0.000050
    10  H    0.033059   0.000135  -0.002838   0.000673   0.000333  -0.000066
    11  H   -0.027432   0.002703   0.020755   0.000606   0.000490   0.000367
    12  N    0.151676  -0.095890  -0.038486  -0.012857  -0.012922   0.004316
    13  H   -0.000300   0.002667  -0.047868  -0.000240   0.008129  -0.002055
    14  H   -0.030282  -0.004617  -0.008512   0.000009  -0.001156  -0.000870
    15  H   -0.104880   0.018943  -0.034831  -0.005121  -0.001798  -0.001611
    16  C   -0.224313  -0.100880   0.265311  -0.048557  -0.019806   0.000789
    17  H   -0.033648  -0.008521   0.047863   0.002124  -0.000196   0.001543
    18  H    0.049128  -0.003261  -0.004969  -0.000098  -0.000618   0.000087
    19  H   -0.103569   0.013355   0.010554   0.004379   0.002684  -0.000350
              7          8          9         10         11         12
     1  C   -1.218748   0.506389  -0.062034   0.033059  -0.027432   0.151676
     2  H   -0.056690  -0.003783   0.007798   0.000135   0.002703  -0.095890
     3  C    0.295216  -0.198311   0.002812  -0.002838   0.020755  -0.038486
     4  O    0.071028   0.016849   0.000047   0.000673   0.000606  -0.012857
     5  O    0.047121   0.003665   0.000174   0.000333   0.000490  -0.012922
     6  H   -0.000982   0.000082  -0.000050  -0.000066   0.000367   0.004316
     7  C    6.892224  -0.590526   0.091018  -0.102920  -0.020057  -0.165092
     8  C   -0.590526   5.973650   0.348652   0.425878   0.381107   0.009355
     9  H    0.091018   0.348652   0.554322  -0.028610  -0.048062  -0.009565
    10  H   -0.102920   0.425878  -0.028610   0.548491  -0.017690   0.004455
    11  H   -0.020057   0.381107  -0.048062  -0.017690   0.577038   0.000617
    12  N   -0.165092   0.009355  -0.009565   0.004455   0.000617   6.661259
    13  H    0.022613  -0.001246  -0.000427   0.000170  -0.000555   0.383261
    14  H   -0.041438   0.026353  -0.001590   0.000710   0.003954   0.396817
    15  H    0.583625  -0.090651   0.010240  -0.008478  -0.008053  -0.002769
    16  C    0.108281  -0.175110  -0.028034  -0.002634   0.009269   0.037894
    17  H   -0.099338   0.021082  -0.002616   0.000944  -0.001587   0.002491
    18  H   -0.089324   0.004040   0.002219   0.001636   0.001492  -0.004584
    19  H    0.102352  -0.029245   0.009456   0.001302  -0.002121  -0.002872
             13         14         15         16         17         18
     1  C   -0.000300  -0.030282  -0.104880  -0.224313  -0.033648   0.049128
     2  H    0.002667  -0.004617   0.018943  -0.100880  -0.008521  -0.003261
     3  C   -0.047868  -0.008512  -0.034831   0.265311   0.047863  -0.004969
     4  O   -0.000240   0.000009  -0.005121  -0.048557   0.002124  -0.000098
     5  O    0.008129  -0.001156  -0.001798  -0.019806  -0.000196  -0.000618
     6  H   -0.002055  -0.000870  -0.001611   0.000789   0.001543   0.000087
     7  C    0.022613  -0.041438   0.583625   0.108281  -0.099338  -0.089324
     8  C   -0.001246   0.026353  -0.090651  -0.175110   0.021082   0.004040
     9  H   -0.000427  -0.001590   0.010240  -0.028034  -0.002616   0.002219
    10  H    0.000170   0.000710  -0.008478  -0.002634   0.000944   0.001636
    11  H   -0.000555   0.003954  -0.008053   0.009269  -0.001587   0.001492
    12  N    0.383261   0.396817  -0.002769   0.037894   0.002491  -0.004584
    13  H    0.454964  -0.058340  -0.000486  -0.004171   0.000336   0.000243
    14  H   -0.058340   0.476451   0.001395   0.008874  -0.000461  -0.001135
    15  H   -0.000486   0.001395   0.523621  -0.083151  -0.017147  -0.014815
    16  C   -0.004171   0.008874  -0.083151   5.632661   0.443573   0.406354
    17  H    0.000336  -0.000461  -0.017147   0.443573   0.540824  -0.012963
    18  H    0.000243  -0.001135  -0.014815   0.406354  -0.012963   0.568904
    19  H   -0.001371   0.002354   0.014894   0.359331  -0.047640  -0.040957
             19
     1  C   -0.103569
     2  H    0.013355
     3  C    0.010554
     4  O    0.004379
     5  O    0.002684
     6  H   -0.000350
     7  C    0.102352
     8  C   -0.029245
     9  H    0.009456
    10  H    0.001302
    11  H   -0.002121
    12  N   -0.002872
    13  H   -0.001371
    14  H    0.002354
    15  H    0.014894
    16  C    0.359331
    17  H   -0.047640
    18  H   -0.040957
    19  H    0.582738
 Mulliken atomic charges:
              1
     1  C   -0.084809
     2  H    0.207145
     3  C   -0.146482
     4  O   -0.270676
     5  O   -0.196637
     6  H    0.290070
     7  C    0.171635
     8  C   -0.628230
     9  H    0.154249
    10  H    0.145450
    11  H    0.127158
    12  N   -0.307104
    13  H    0.244675
    14  H    0.231481
    15  H    0.221073
    16  C   -0.585681
    17  H    0.163335
    18  H    0.138623
    19  H    0.124726
 Sum of Mulliken charges=   0.00000
 Atomic charges with hydrogens summed into heavy atoms:
              1
     1  C    0.122336
     2  H    0.000000
     3  C   -0.146482
     4  O   -0.270676
     5  O    0.093433
     6  H    0.000000
     7  C    0.392708
     8  C   -0.201373
     9  H    0.000000
    10  H    0.000000
    11  H    0.000000
    12  N    0.169052
    13  H    0.000000
    14  H    0.000000
    15  H    0.000000
    16  C   -0.158997
    17  H    0.000000
    18  H    0.000000
    19  H    0.000000
 Sum of Mulliken charges=   0.00000
 Electronic spatial extent (au):  <R**2>=  1095.3503
 Charge=     0.0000 electrons
 Dipole moment (field-independent basis, Debye):
    X=     0.1451    Y=     1.2726    Z=     1.8860  Tot=     2.2798
 Quadrupole moment (field-independent basis, Debye-Ang):
   XX=   -43.7737   YY=   -51.3532   ZZ=   -53.8049
   XY=    -0.3712   XZ=    -1.4057   YZ=     0.1938
 Traceless Quadrupole moment (field-independent basis, Debye-Ang):
   XX=     5.8703   YY=    -1.7093   ZZ=    -4.1610
   XY=    -0.3712   XZ=    -1.4057   YZ=     0.1938
 Octapole moment (field-independent basis, Debye-Ang**2):
  XXX=   -45.0465  YYY=    14.1539  ZZZ=     1.6375  XYY=    -0.4771
  XXY=    -2.0657  XXZ=    -1.9491  XZZ=    -0.8134  YZZ=    -1.3919
  YYZ=     7.0613  XYZ=     4.6457
 Hexadecapole moment (field-independent basis, Debye-Ang**3):
 XXXX=  -740.7596 YYYY=  -415.0367 ZZZZ=  -138.3046 XXXY=    10.8644
 XXXZ=    -8.5228 YYYX=    -2.4341 YYYZ=    11.0955 ZZZX=    -1.0709
 ZZZY=     7.4351 XXYY=  -218.9477 XXZZ=  -174.4773 YYZZ=  -106.7960
 XXYZ=    -5.0137 YYXZ=    -9.2449 ZZXY=     1.1161
 N-N= 4.048708116792D+02 E-N=-1.750229775430D+03  KE= 4.008662184502D+02
 1|1|UNPC-UNK|FOpt|RB3LYP|6-311++G(d,p)|C5H11N1O2|PCUSER|29-Mar-2016|0|
 |# opt freq b3lyp/6-311++g(d,p) geom=connectivity||Val-R-opt-freq-6-31
 1++g(d,p)||0,1|C,-0.057626,0.458906,0.287427|H,-0.004688,0.462781,1.39
 0433|C,-1.334293,-0.301337,-0.072376|O,-1.434065,-1.267254,-0.781491|O
 ,-2.414389,0.276008,0.520816|H,-3.198311,-0.21475,0.231147|C,1.203346,
 -0.244198,-0.25256|C,2.444514,0.651625,-0.125755|H,2.620127,0.948067,0
 .915344|H,3.332292,0.11025,-0.462604|H,2.367303,1.553627,-0.736908|N,-
 0.2213,1.815064,-0.26609|H,-1.075959,2.234221,0.085265|H,0.546731,2.40
 9224,0.024517|H,1.029863,-0.44671,-1.314036|C,1.440871,-1.57819,0.4715
 89|H,0.592281,-2.255329,0.36728|H,2.318824,-2.081666,0.058233|H,1.6273
 98,-1.416029,1.5394||Version=IA32W-G03RevE.01|State=1-A|HF=-402.498704
 6|RMSD=6.354e-009|RMSF=6.352e-006|Thermal=0.|Dipole=0.0570833,0.500661
 2,0.7420044|PG=C01 [X(C5H11N1O2)]||@


 If your ship doesn't come in, swim out to it!
                          -- Jonathan Winters
 Job cpu time:  0 days  0 hours  6 minutes 36.0 seconds.
 File lengths (MBytes):  RWF=     45 Int=      0 D2E=      0 Chk=      8 Scr=      1
 Normal termination of Gaussian 03 at Tue Mar 29 16:01:15 2016.
 Link1:  Proceeding to internal job step number  2.
 ----------------------------------------------------------------------
 #N Geom=AllCheck Guess=Read SCRF=Check GenChk RB3LYP/6-311++G(d,p) Fre
 q
 ----------------------------------------------------------------------
 1/10=4,29=7,30=1,38=1,40=1,46=1/1,3;
 2/40=1/2;
 3/5=4,6=6,7=1111,11=2,16=1,25=1,30=1,70=2,71=2,74=-5/1,2,3;
 4/5=1,7=1/1;
 5/5=2,38=6/2;
 8/6=4,10=90,11=11/1;
 11/6=1,8=1,9=11,15=111,16=1/1,2,10;
 10/6=1/2;
 6/7=2,8=2,9=2,10=2,18=1,28=1/1;
 7/8=1,10=1,25=1/1,2,3,16;
 1/10=4,30=1,46=1/3;
 99//99;
 ----------------------------
 Val-R-opt-freq-6-311++g(d,p)
 ----------------------------
 Redundant internal coordinates taken from checkpoint file:
 E:\YangJ\Amiano\Val\opt-rs\r\Val-R-opt-6-311gdp.chk
 Charge =  0 Multiplicity = 1
 C,0,-0.057626,0.458906,0.287427
 H,0,-0.004688,0.462781,1.390433
 C,0,-1.334293,-0.301337,-0.072376
 O,0,-1.434065,-1.267254,-0.781491
 O,0,-2.414389,0.276008,0.520816
 H,0,-3.198311,-0.21475,0.231147
 C,0,1.203346,-0.244198,-0.25256
 C,0,2.444514,0.651625,-0.125755
 H,0,2.620127,0.948067,0.915344
 H,0,3.332292,0.11025,-0.462604
 H,0,2.367303,1.553627,-0.736908
 N,0,-0.2213,1.815064,-0.26609
 H,0,-1.075959,2.234221,0.085265
 H,0,0.546731,2.409224,0.024517
 H,0,1.029863,-0.44671,-1.314036
 C,0,1.440871,-1.57819,0.471589
 H,0,0.592281,-2.255329,0.36728
 H,0,2.318824,-2.081666,0.058233
 H,0,1.627398,-1.416029,1.5394
 Recover connectivity data from disk.

 GradGradGradGradGradGradGradGradGradGradGradGradGradGradGradGradGradGrad
 Berny optimization.
 Initialization pass.
                           ----------------------------
                           !    Initial Parameters    !
                           ! (Angstroms and Degrees)  !
 --------------------------                            --------------------------
 ! Name  Definition              Value          Derivative Info.                !
 --------------------------------------------------------------------------------
 ! R1    R(1,2)                  1.1043         calculate D2E/DX2 analytically  !
 ! R2    R(1,3)                  1.5288         calculate D2E/DX2 analytically  !
 ! R3    R(1,7)                  1.5414         calculate D2E/DX2 analytically  !
 ! R4    R(1,12)                 1.4739         calculate D2E/DX2 analytically  !
 ! R5    R(3,4)                  1.2024         calculate D2E/DX2 analytically  !
 ! R6    R(3,5)                  1.3608         calculate D2E/DX2 analytically  !
 ! R7    R(5,6)                  0.9692         calculate D2E/DX2 analytically  !
 ! R8    R(7,8)                  1.5359         calculate D2E/DX2 analytically  !
 ! R9    R(7,15)                 1.0945         calculate D2E/DX2 analytically  !
 ! R10   R(7,16)                 1.5363         calculate D2E/DX2 analytically  !
 ! R11   R(8,9)                  1.0966         calculate D2E/DX2 analytically  !
 ! R12   R(8,10)                 1.093          calculate D2E/DX2 analytically  !
 ! R13   R(8,11)                 1.0923         calculate D2E/DX2 analytically  !
 ! R14   R(12,13)                1.0147         calculate D2E/DX2 analytically  !
 ! R15   R(12,14)                1.0136         calculate D2E/DX2 analytically  !
 ! R16   R(16,17)                1.0906         calculate D2E/DX2 analytically  !
 ! R17   R(16,18)                1.0932         calculate D2E/DX2 analytically  !
 ! R18   R(16,19)                1.096          calculate D2E/DX2 analytically  !
 ! A1    A(2,1,3)              106.0724         calculate D2E/DX2 analytically  !
 ! A2    A(2,1,7)              108.1976         calculate D2E/DX2 analytically  !
 ! A3    A(2,1,12)             112.161          calculate D2E/DX2 analytically  !
 ! A4    A(3,1,7)              111.9538         calculate D2E/DX2 analytically  !
 ! A5    A(3,1,12)             106.0476         calculate D2E/DX2 analytically  !
 ! A6    A(7,1,12)             112.271          calculate D2E/DX2 analytically  !
 ! A7    A(1,3,4)              127.4127         calculate D2E/DX2 analytically  !
 ! A8    A(1,3,5)              110.4407         calculate D2E/DX2 analytically  !
 ! A9    A(4,3,5)              122.143          calculate D2E/DX2 analytically  !
 ! A10   A(3,5,6)              107.2705         calculate D2E/DX2 analytically  !
 ! A11   A(1,7,8)              111.4753         calculate D2E/DX2 analytically  !
 ! A12   A(1,7,15)             107.127          calculate D2E/DX2 analytically  !
 ! A13   A(1,7,16)             110.9416         calculate D2E/DX2 analytically  !
 ! A14   A(8,7,15)             108.4261         calculate D2E/DX2 analytically  !
[...]
 422,-0.07172253,-0.50499000,-0.31042557,0.04055927,0.56357846,-0.00033
 855,-0.02153388,0.00548452,0.00072659,0.00088190,0.00045249,-0.0475869
 6,-0.31512085,-0.30405996,0.02078842,0.39324882,0.32253438,-0.03914997
 ,0.01455527,0.01587955,-0.00130970,-0.00023724,0.00069319,-0.20830724,
 0.03484076,0.04745873,0.00956493,0.04305447,0.03535239,0.57010149,-0.0
 1304684,0.00898537,0.00242051,-0.00037714,0.00036231,0.00031112,0.0168
 8691,-0.11252765,-0.04046348,0.05086728,-0.03678705,-0.05669683,0.1187
 8890,0.29820545,-0.00277893,-0.00123223,0.00823462,0.00201208,0.001098
 68,0.00158792,0.03164058,-0.04118017,-0.09916409,0.04049611,-0.0559860
 0,-0.01910342,0.02460087,0.18470101,0.17960888,-0.00289055,0.00495581,
 0.00462219,0.00055858,0.00021259,-0.00031224,-0.04700840,-0.02086306,-
 0.00978979,0.00898217,-0.00255259,-0.00379981,-0.32156023,-0.16761854,
 -0.09439016,0.36187412,0.00240432,0.00058504,-0.00287068,-0.00009348,-
 0.00028972,-0.00031781,0.01446463,0.01749426,0.00844386,-0.00176519,-0
 .00579552,0.00033177,-0.20256595,-0.15861754,-0.08687866,0.18704474,0.
 14541226,0.00244224,-0.00309760,0.00172781,0.00036851,0.00019804,0.000
 30498,0.01881699,0.01224775,0.01134579,-0.00326852,0.00059959,-0.00505
 989,-0.12291407,-0.09116606,-0.07254294,0.10428087,0.08137284,0.064054
 35,-0.12973719,0.02792693,0.02876362,-0.00001625,0.00042367,0.00002770
 ,-0.03074208,0.00667252,0.00897031,0.00203759,0.00342668,0.00238647,-0
 .00250703,-0.00179827,-0.00098694,-0.00054916,0.00047691,0.00059173,0.
 46393075,0.02385440,-0.09253749,-0.01775827,0.00401047,-0.00123641,-0.
 00262710,-0.00755744,0.01437877,0.01025377,-0.00079463,-0.00285217,-0.
 00058270,-0.00707677,-0.00220522,-0.00117735,-0.00157144,0.00032719,0.
 00039894,0.00945712,0.46567338,0.02995383,-0.01902595,-0.09747582,0.02
 757219,-0.01407949,-0.01494506,-0.00195361,0.00891894,0.00402031,-0.00
 036206,-0.00140100,-0.00206655,-0.00286188,-0.00163587,0.00030016,-0.0
 0073629,-0.00001983,0.00065055,0.02255733,0.01908005,0.58773362,-0.030
 84755,-0.01288422,-0.00224307,0.00188366,-0.00023571,-0.00043891,-0.00
 109230,0.00398216,0.00242020,0.00017042,-0.00069640,-0.00037326,-0.001
 61751,-0.00079973,-0.00027816,-0.00032070,0.00005067,0.00017191,-0.140
 70513,-0.04744203,-0.00861232,0.49177663,0.00940887,0.01186200,0.00291
 520,0.00046158,-0.00005592,0.00009014,0.00165681,-0.00386289,-0.002528
 34,0.00008627,0.00108257,0.00046541,0.00230540,0.00078132,0.00022751,0
 .00049145,-0.00006257,-0.00014789,-0.04550167,-0.11050346,-0.00732862,
 -0.05310019,0.53582139,0.01053242,0.00737327,0.00087771,0.00075634,0.0
 0078648,0.00041851,0.00075248,-0.00317407,-0.00198510,-0.00088129,0.00
 064055,0.00109849,0.00102322,0.00066740,0.00027734,0.00030763,-0.00000
 335,-0.00009035,-0.00906903,-0.00718292,-0.08083948,-0.00988774,-0.012
 33244,0.55839017,0.00169514,0.00009374,-0.00185405,-0.00010470,0.00006
 634,0.00079174,0.00001923,-0.00101543,-0.00028374,-0.00026833,0.000451
 03,0.00044299,0.00001521,0.00022573,0.00011335,0.00003747,0.00000917,-
 0.00002791,-0.00512172,-0.00730158,-0.02743475,-0.05177026,-0.00968390
 ,-0.03501125,0.05614389,0.00103589,0.00048836,0.00014737,-0.00036984,0
 .00019241,0.00038018,0.00019736,-0.00040445,-0.00007919,-0.00020813,0.
 00011548,0.00019720,-0.00011588,0.00008852,0.00006565,0.00002106,0.000
 00216,-0.00002120,-0.00219097,-0.00596253,-0.01872737,-0.00961116,-0.0
 6546784,-0.06190729,0.01347374,0.06750599,0.00065083,-0.00064982,0.000
 69580,-0.00087658,0.00010280,0.00022780,0.00010362,-0.00020779,-0.0000
 2305,0.00002038,0.00019969,0.00017071,-0.00026083,0.00006902,0.0000593
 3,-0.00000636,0.00000957,-0.00001144,-0.00159797,-0.00076553,-0.003603
 79,-0.03456602,-0.06219775,-0.27527795,0.04015670,0.07039811,0.3006790
 2,-0.00276533,-0.00453205,-0.00218878,0.00010126,-0.00003551,0.0001331
 6,0.00008004,0.00187184,0.00113835,-0.00018400,-0.00060465,-0.00030109
 ,-0.00105150,-0.00036242,-0.00010887,-0.00013205,0.00004113,0.00006337
 ,-0.02282661,0.01308894,0.00935031,-0.21444389,0.10648318,0.06567408,0
 .00455252,-0.00309077,-0.00118832,0.23559637,-0.00283169,-0.00344450,-
 0.00038042,-0.00003445,0.00003613,0.00002848,-0.00050914,0.00081353,0.
 00041884,0.00006216,-0.00009233,0.00003009,-0.00048585,-0.00010108,-0.
 00005457,-0.00014612,0.00002455,0.00003922,-0.01693860,0.00860546,0.00
 732938,0.10834611,-0.11279797,-0.04175499,0.00599110,-0.00485048,-0.00
 199817,-0.11488271,0.12315211,-0.00036341,0.00011842,0.00052999,-0.000
 37741,-0.00001738,0.00024678,-0.00009244,-0.00020904,0.00028841,0.0000
 4997,0.00016880,-0.00002124,0.00001144,-0.00000661,-0.00003357,-0.0000
 2076,-0.00000217,-0.00001058,-0.00285865,0.00203726,0.00012950,0.06591
 984,-0.04125734,-0.07173279,0.02549169,-0.01614850,-0.00960333,-0.0718
 1549,0.04543405,0.07394869,0.00105977,-0.00063437,0.00070855,-0.000050
 83,0.00010281,-0.00015920,-0.00002402,-0.00047126,-0.00047333,0.000063
 83,0.00028631,0.00014703,0.00006644,0.00015390,0.00006708,-0.00000337,
 -0.00001204,0.00001803,0.00376039,-0.02163455,0.01632934,-0.04830348,0
 .01928402,-0.01320246,-0.00172584,0.00349689,-0.00160250,-0.00203213,0
 .02096363,-0.01584119,0.05295199,0.00067902,-0.00106203,0.00001567,-0.
 00004777,0.00006755,-0.00011189,0.00023984,-0.00031076,-0.00016236,-0.
 00011319,0.00027058,0.00003053,-0.00023281,0.00014861,0.00008173,-0.00
 000511,-0.00000782,0.00001784,0.00288420,-0.01497817,0.01000889,0.0174
 3298,-0.22292014,0.12020407,-0.00068569,0.00903061,-0.00532124,0.00138
 886,-0.01371267,0.00932823,-0.02027834,0.24441363,-0.00022868,0.001201
 13,-0.00028127,0.00003598,-0.00002805,0.00014141,-0.00001087,0.0001227
 6,0.00030409,0.00003754,-0.00013410,-0.00016769,0.00007925,-0.00010616
 ,-0.00004821,0.00001560,-0.00000099,-0.00000985,0.00101739,-0.00427945
 ,0.00130476,-0.01186196,0.12135148,-0.13143293,-0.00281173,0.02558005,
 -0.01609860,0.00011940,-0.00922500,0.00612036,0.01346448,-0.13266582,0
 .13837325,-0.10191919,0.00283634,0.00123846,0.00357962,0.00501091,-0.0
 0188222,0.00565634,-0.02861017,0.01533462,-0.00382509,-0.00129885,-0.0
 0587176,-0.00254331,-0.00074373,-0.00009250,0.00094355,0.00017677,-0.0
 0066226,-0.00304425,0.02993982,-0.01405786,-0.00108854,0.00058844,0.00
 016198,-0.00008849,0.00015038,-0.00029342,0.00033372,0.00073992,-0.000
 33769,-0.00030559,0.00161669,-0.00051670,0.69587312,0.01015551,-0.1676
 8854,0.07444551,0.00347937,-0.01403632,0.01335216,-0.00520589,-0.03320
 173,0.00761123,-0.00325725,0.00064308,-0.00184261,-0.00096020,-0.00089
 110,-0.00022480,0.00071259,0.00008375,-0.00029487,0.00712737,-0.020340
 66,0.00682430,-0.00058522,0.00013875,-0.00072047,0.00000765,0.00016499
 ,0.00043377,-0.00038560,-0.00033554,0.00006583,0.00093843,-0.00028861,
 0.00023351,0.02380209,0.53603502,0.00039120,0.02214786,-0.07939229,-0.
 00329767,0.03960182,-0.01123224,0.00215682,-0.00521214,0.00296276,-0.0
 0081098,0.00090713,-0.00103501,0.00025261,0.00018547,0.00110330,-0.000
 21399,0.00028510,-0.00016186,-0.00119759,-0.00780736,0.00612073,0.0002
 3185,0.00089297,-0.00079058,0.00023852,0.00009736,0.00030894,0.0000662
 1,-0.00040488,0.00036104,0.00020181,-0.00097753,0.00041762,-0.02667597
 ,0.05573244,0.19720104,-0.00169430,0.00073890,0.00226593,0.00014064,-0
 .00092338,0.00026003,0.00355497,-0.00159149,-0.00061544,-0.00071457,0.
 00029255,0.00048192,-0.00265344,-0.00057198,0.00002198,-0.00013661,-0.
 00016353,0.00015616,0.00047221,-0.00047723,-0.00081684,-0.00006116,0.0
 0003857,0.00051496,0.00000376,-0.00004867,-0.00003078,0.00004628,0.000
 16385,-0.00013524,-0.00002144,0.00032244,-0.00028628,-0.31635566,0.121
 48680,0.10358084,0.34177236,0.03068972,-0.01560001,-0.01534367,-0.0000
 3298,0.00130846,0.00056734,0.00417092,-0.00374354,-0.00267060,-0.00074
 243,0.00111878,0.00111772,-0.00071020,0.00116907,0.00052716,-0.0007590
 6,0.00064710,-0.00005723,-0.00176858,-0.00588994,0.00428736,-0.0011963
 6,-0.00014315,0.00054184,0.00013097,-0.00000014,0.00008383,0.00001220,
 0.00026532,-0.00009881,0.00007516,0.00044193,-0.00039877,0.12305678,-0
 .12000500,-0.04749258,-0.13323760,0.13057557,-0.01555539,0.01088100,-0
 .00107288,-0.00072066,0.00004014,0.00087315,0.00115773,-0.00129263,0.0
 0149561,-0.00019363,0.00000547,-0.00024025,-0.00051998,0.00136472,-0.0
 0101582,0.00007488,-0.00051650,0.00003825,0.00052286,0.00098657,-0.000
 54127,0.00007723,0.00014825,0.00006039,0.00009785,-0.00012863,0.000155
 54,0.00003967,-0.00000186,0.00006201,-0.00034788,-0.00016108,-0.000022
 07,0.14824198,-0.06798424,-0.06754796,-0.11887683,0.05158871,0.0670194
 3,0.00616937,0.00430249,-0.00061631,0.00020801,0.00053447,-0.00010807,
 -0.00164691,0.00148894,-0.00015807,0.00077212,0.00030738,0.00072129,0.
 00018286,-0.00095326,0.00000186,0.00022131,-0.00003982,0.00012644,0.00
 090972,0.00016409,0.00030531,-0.00067194,0.00127481,-0.00037631,-0.000
 20586,0.00016766,-0.00025480,0.00002790,-0.00038652,0.00010698,-0.0023
 2545,0.00092390,0.00124681,-0.27203930,-0.15878112,-0.07578996,-0.0245
 3004,-0.02152421,-0.01354788,0.29344232,-0.02863338,-0.02227027,-0.011
 11091,0.00019012,0.00198599,0.00033062,0.00515055,-0.00555555,0.003807
 47,-0.00191148,-0.00072903,-0.00176168,-0.00079122,0.00109092,-0.00026
 086,-0.00003648,0.00013767,-0.00013765,-0.00104067,-0.00041524,-0.0002
 8128,-0.00003478,-0.00024991,0.00053177,0.00036851,-0.00012534,0.00028
 320,-0.00012140,0.00069745,-0.00007793,0.00083380,0.00063796,-0.000774
 62,-0.16074151,-0.18066431,-0.05703499,0.01397059,0.01074753,0.0042852
 7,0.17271501,0.19425089,0.01328380,0.01485717,-0.00009021,0.00129626,-
 0.00017956,0.00114242,-0.00105646,0.00278244,-0.00178155,0.00038344,-0
 .00008416,0.00060983,0.00095615,-0.00015735,0.00039515,-0.00009008,0.0
 0018836,-0.00019927,-0.00079866,-0.00096558,0.00043716,-0.00023732,-0.
 00089410,0.00188795,-0.00040330,0.00020917,-0.00066248,-0.00009030,0.0
 0042951,-0.00064199,0.00131846,0.00042881,-0.00060581,-0.11659474,-0.0
 8657133,-0.05031993,0.01328802,0.00816815,0.00000226,0.08831614,0.0619
 9293,0.05005249,0.00111423,0.00592296,0.02881002,-0.00422425,0.0023828
 3,0.00221281,-0.00005578,0.00136003,0.00250159,-0.00027969,-0.00069841
 ,-0.00103088,0.00062142,-0.00050013,-0.00051891,-0.00007863,-0.0000424
 2,-0.00005341,-0.05369430,-0.00599943,-0.03988424,-0.00621548,-0.00708
 499,-0.02629474,-0.00404332,-0.00323879,-0.00045786,0.00066811,0.00084
 403,-0.00002071,0.00120682,0.00025125,0.00048823,0.00090792,-0.0011340
 9,-0.00095178,0.00005580,-0.00018070,-0.00017920,-0.00015009,0.0000207
 2,-0.00001530,0.06459562,-0.00030466,-0.00354784,-0.01630286,0.0021504
 5,-0.00098218,-0.00073460,-0.00094370,0.00017457,0.00019955,-0.0000767
 7,0.00015309,0.00024225,0.00033411,-0.00019656,-0.00015933,-0.00003568
 ,0.00001975,0.00003996,-0.00581716,-0.05587118,-0.04687380,-0.00486674
 ,-0.00570065,-0.01934325,-0.00354005,-0.00173143,-0.00034081,0.0003012
 8,0.00063382,0.00050646,0.00070628,0.00040473,-0.00016635,-0.00099242,
 0.00078093,0.00045041,0.00004241,0.00015572,0.00039348,0.00001667,0.00
 002302,-0.00022482,0.00764828,0.06487038,0.00128985,-0.00228709,-0.014
 84374,0.00209595,-0.00098634,0.00002297,-0.00093797,-0.00265244,-0.001
 66831,-0.00115923,0.00121496,0.00172011,-0.00005337,0.00059695,0.00049
 187,0.00012636,-0.00000976,-0.00002776,-0.03737794,-0.04697225,-0.2877
 6641,-0.00100516,-0.00080197,-0.00119831,0.00003260,0.00030157,0.00161
 416,-0.00052710,-0.00001261,0.00023283,-0.00022921,-0.00037889,0.00058
 026,-0.00032250,-0.00003341,0.00140757,-0.00000379,-0.00007756,0.00015
 146,0.00002450,0.00010126,-0.00003469,0.04082235,0.05010433,0.31317329
 ,-0.00392475,0.02476330,-0.01311576,0.00104274,-0.00009184,-0.00093242
 ,-0.00011846,0.00194637,-0.00027085,-0.00097613,-0.00064585,-0.0006507
 2,0.00033211,-0.00034396,-0.00021985,0.00001134,0.00005349,-0.00006194
 ,-0.08023725,0.01450757,-0.00749928,0.00226799,-0.02642433,0.01425356,
 0.00061034,0.00042131,0.00025029,0.00102994,-0.00102390,0.00027722,-0.
 00482177,-0.00456079,-0.00024721,-0.00583749,0.00291274,0.00114746,0.0
 0006798,0.00190688,-0.00022487,-0.00040859,-0.00000422,0.00048143,-0.0
 0102032,0.00480808,-0.00230540,0.57317956,0.00794193,-0.01926358,0.005
 57581,-0.00101617,0.00057824,0.00096233,0.00040279,0.00258177,0.001347
 23,0.00098340,-0.00229888,0.00102164,-0.00037781,-0.00042068,-0.000561
 37,-0.00015832,0.00009715,0.00003759,0.01137684,-0.14913408,0.03989275
 ,-0.00325694,-0.02632066,0.01263649,0.00141036,0.00101559,0.00038889,0
 .00193904,0.00126157,-0.00022399,-0.00219287,-0.00176554,-0.00047104,0
 .00211418,0.00022004,-0.00069833,-0.00002607,-0.00037999,0.00043074,-0
 .00011817,0.00017700,-0.00002856,-0.00028072,0.00342524,-0.00077907,0.
 02288810,0.48973483,-0.00127763,-0.00928132,0.00538064,0.00095025,-0.0
 0148917,0.00052502,-0.00123854,-0.00050770,-0.00054170,-0.00049876,0.0
 0089353,0.00030522,0.00030677,0.00024254,0.00014738,0.00003441,-0.0000
 0774,-0.00002287,-0.00802334,0.04200846,-0.10295373,0.00239600,0.00012
 475,0.00082447,-0.00044502,-0.00141818,0.00070214,-0.00001542,0.000280
 57,0.00003408,-0.00086173,-0.00130558,0.00057247,0.00345437,-0.0012605
 3,-0.00052570,0.00031327,-0.00120776,0.00055420,-0.00012449,0.00021963
 ,0.00007606,-0.00530148,0.02988016,-0.01488618,-0.00937911,0.04570230,
 0.53033786,0.00052542,0.00004376,0.00054146,0.00001287,-0.00009370,-0.
 00000626,-0.00111730,0.00120707,-0.00037197,-0.00218133,0.00089654,-0.
 00094736,0.00042658,-0.00012645,-0.00015096,-0.00004557,-0.00003301,-0
 .00000828,0.00525141,0.00428281,0.00151125,0.00023159,0.00087934,-0.00
 008302,-0.00006973,0.00005947,-0.00005634,0.00038264,0.00008346,-0.000
 22771,0.00043023,0.00016093,-0.00026904,0.00007306,-0.00027320,-0.0000
 1664,0.00000516,-0.00002828,-0.00002638,-0.00000656,-0.00001729,-0.000
 00006,0.00024879,-0.00046093,0.00026772,-0.21119453,-0.12920910,-0.020
 33032,0.22956120,-0.00114754,0.00064733,-0.00019096,0.00009523,-0.0000
 2798,-0.00018227,0.00127066,-0.00293810,-0.00147306,-0.00079710,0.0019
 8589,0.00001317,-0.00040633,0.00059101,0.00069503,0.00021578,-0.000038
 65,-0.00001265,-0.02224043,-0.01647270,-0.00438383,0.00248623,-0.00459
 371,0.00359769,0.00022872,0.00018261,-0.00009816,-0.00000958,0.0002596
 2,0.00011128,-0.00162196,-0.00107291,-0.00008310,0.00040427,0.00026248
 ,0.00000784,0.00000173,-0.00003048,-0.00005597,-0.00020174,0.00023760,
 0.00012220,0.00004585,0.00105291,0.00001446,-0.12649113,-0.14728467,-0
 .01675267,0.13921143,0.16048347,0.00005438,-0.00053424,0.00051629,-0.0
 0017617,-0.00004684,-0.00009548,-0.00040776,0.00155710,0.00151109,-0.0
 0035072,-0.00076850,-0.00077566,0.00040339,-0.00044947,-0.00060533,-0.
 00009774,-0.00003122,0.00007521,0.01388220,0.00876795,0.00115962,-0.00
 087541,0.00286519,-0.00142899,0.00016713,0.00038307,0.00028783,-0.0004
 3884,-0.00010423,-0.00006359,0.00066008,0.00095723,0.00047124,-0.00007
 905,-0.00009393,-0.00016069,-0.00000373,-0.00002843,0.00001908,0.00006
 436,-0.00011887,-0.00008328,0.00048920,-0.00048001,0.00028738,-0.02221
 173,-0.01852276,-0.05070304,0.02386584,0.01696935,0.05074898,0.0009315
 9,0.00028214,-0.00131448,0.00007537,-0.00011820,-0.00001062,0.00089872
 ,-0.00063856,-0.00033224,-0.00059829,0.00051809,-0.00034989,-0.0003782
 4,0.00010077,0.00023484,0.00007191,-0.00001882,0.00000047,-0.00504248,
 0.00163446,0.00183025,0.00059551,-0.00115753,0.00002394,-0.00000719,-0
 .00005279,-0.00003651,0.00061366,-0.00003890,0.00006018,0.00019004,-0.
 00005415,-0.00020847,-0.00028334,0.00004587,0.00022280,0.00008315,0.00
 012770,-0.00003530,-0.00001181,0.00007734,0.00002047,-0.00000277,0.000
 08751,-0.00037796,-0.21529968,0.09528362,0.08157093,-0.01969057,0.0119
 4810,0.01047926,0.23257587,-0.00114737,-0.00399074,0.00384129,-0.00033
 344,0.00004076,0.00009297,-0.00065879,-0.00114752,-0.00047016,0.000006
 23,0.00083998,0.00005504,0.00024387,0.00021928,0.00009643,0.00004703,-
 0.00002564,0.00000473,0.02274559,-0.01425313,-0.01207364,0.00158485,0.
 00109143,-0.00107700,-0.00006524,-0.00004553,0.00006276,-0.00096329,-0
 .00033733,0.00034691,-0.00018034,0.00052000,0.00016546,0.00200709,-0.0
 0072725,-0.00036809,0.00000692,-0.00066048,0.00016114,0.00008775,0.000
 05307,-0.00010761,-0.00024809,0.00120406,0.00007092,0.09321840,-0.0983
 4337,-0.04510383,-0.01556940,0.01011912,0.00892579,-0.10459178,0.10852
 576,0.00069559,0.00231464,-0.00188760,-0.00015653,0.00017535,0.0005975
 4,0.00025974,0.00004699,-0.00015988,-0.00016922,0.00000292,-0.00009814
 ,-0.00003044,-0.00004717,0.00003163,-0.00003223,0.00001128,-0.00001697
 ,-0.01394623,0.00844445,0.00582928,-0.00044732,-0.00043882,0.00020838,
 0.00015683,-0.00003655,-0.00004349,0.00006065,-0.00010756,0.00027493,-
 0.00024597,-0.00010993,-0.00005215,-0.00100559,0.00046793,0.00062658,-
 0.00007276,0.00039438,-0.00002588,0.00002714,-0.00001673,-0.00004944,-
 0.00024674,-0.00068554,0.00068887,0.08188062,-0.04658363,-0.08534018,-
 0.00332445,0.00238975,0.00094220,-0.08957715,0.04756236,0.09043806,0.0
 0035700,-0.00037793,-0.00169323,-0.00012916,0.00037700,0.00045699,-0.0
 0012077,-0.00092104,-0.00087704,-0.00049020,0.00087788,0.00020318,-0.0
 0023285,0.00021896,0.00033653,0.00002482,0.00001242,-0.00004036,-0.002
 13860,-0.00108458,-0.00519067,0.00021212,-0.00000613,0.00080525,0.0003
 2789,-0.00009677,0.00004648,0.00000306,0.00008362,0.00017336,-0.000115
 61,0.00007774,-0.00006375,-0.00003708,-0.00008585,0.00046446,-0.000035
 11,0.00001007,0.00001579,0.00006293,0.00000578,-0.00005793,0.00034591,
 0.00094303,-0.00035970,-0.05470303,-0.00770408,-0.04153017,-0.00284335
 ,-0.00299219,-0.02542469,0.00527853,0.00381000,0.02617404,0.05423350,-
 0.00092725,0.00145434,0.00144184,0.00021588,-0.00012444,-0.00060738,0.
 00013309,-0.00029246,-0.00034133,-0.00022557,0.00043312,-0.00009700,-0
 .00016251,0.00010500,0.00022214,0.00004536,0.00000659,-0.00002137,0.00
 477851,0.00366759,0.02948900,0.00082649,0.00190140,0.00051622,-0.00016
 517,-0.00019901,-0.00045238,-0.00013851,-0.00007766,-0.00007548,0.0001
 8448,0.00018306,-0.00032092,-0.00005700,-0.00014995,-0.00031249,-0.000
 02482,0.00002324,-0.00014457,0.00002167,-0.00002945,0.00003435,0.00093
 181,-0.00486834,0.00258696,-0.00784021,-0.05387999,-0.04101746,-0.0010
 1343,-0.00336284,-0.01924717,-0.00343489,-0.00308247,-0.01378409,0.006
 85206,0.05829227,0.00110321,-0.00098395,-0.00018415,-0.00069221,0.0004
 9456,0.00096148,0.00038219,-0.00063260,-0.00058963,-0.00025758,0.00045
 858,0.00025206,-0.00037701,0.00017026,0.00027581,0.00002751,0.00001594
 ,-0.00004316,-0.00286326,-0.00185893,-0.01749358,-0.00039037,-0.001153
 61,0.00073306,0.00058233,0.00070719,0.00042286,0.00002903,0.00005415,-
 0.00012155,0.00004860,0.00012135,0.00043313,-0.00003916,-0.00014050,0.
 00065667,-0.00004143,0.00009892,0.00003475,0.00003506,0.00002337,-0.00
 013467,-0.00036896,0.00349473,0.00005464,-0.04117142,-0.04012702,-0.28
 448614,-0.00036748,-0.00068810,-0.00210287,-0.00220054,-0.00218546,-0.
 01196376,0.04656149,0.04213112,0.31329507||-0.00000885,0.00000883,-0.0
 0000523,0.00000279,-0.00000310,0.00000099,0.00000494,-0.00002039,-0.00
 002097,0.00000860,0.00002116,0.00001201,-0.00000748,0.00000850,0.00000
 521,0.00000360,0.00000171,-0.00000409,0.00000427,-0.00001137,0.0000049
 9,-0.00000745,0.00000186,0.00000254,-0.00000098,-0.00000126,0.00000084
 ,0.00000103,-0.00000073,0.00000133,0.00000392,0.00000056,0.00000159,0.
 00000190,-0.00000624,-0.00000199,0.00000155,0.00000426,-0.00000114,-0.
 00000185,-0.00000077,0.00000060,0.00000019,0.00000124,0.00000107,-0.00
 000209,-0.00000065,-0.00000224,-0.00000134,0.00000016,0.00000104,-0.00
 000066,-0.00000113,0.00000296,-0.00000209,-0.00000267,0.00000051|||@


 Human beings, who are almost unique in having the
 ability to learn from the experience of others, are
 also remarkable for their apparent disinclination to do so.
                               -- Douglas Adams,
                                Last Chance to See
 Job cpu time:  0 days  0 hours 52 minutes  8.0 seconds.
 File lengths (MBytes):  RWF=    108 Int=      0 D2E=      0 Chk=      8 Scr=      1
 Normal termination of Gaussian 03 at Tue Mar 29 16:53:23 2016.
