 Entering Gaussian System, Link 0=g09
 Input=Ser-R-opt-6-311++g(d,p).com
 Output=Ser-R-opt-6-311++g(d,p).log
 Initial command:
 /usr/local/gau/g09/l1.exe "/tmp/Gau-21301.inp" -scrdir="/tmp/"
 Entering Link 1 = /usr/local/gau/g09/l1.exe PID=     21303.
  
 Copyright (c) 1988,1990,1992,1993,1995,1998,2003,2009,2013,
            Gaussian, Inc.  All Rights Reserved.
  
 This is part of the Gaussian(R) 09 program.  It is based on
 the Gaussian(R) 03 system (copyright 2003, Gaussian, Inc.),
 the Gaussian(R) 98 system (copyright 1998, Gaussian, Inc.),
 the Gaussian(R) 94 system (copyright 1995, Gaussian, Inc.),
 the Gaussian 92(TM) system (copyright 1992, Gaussian, Inc.),
 the Gaussian 90(TM) system (copyright 1990, Gaussian, Inc.),
 the Gaussian 88(TM) system (copyright 1988, Gaussian, Inc.),
 the Gaussian 86(TM) system (copyright 1986, Carnegie Mellon
 University), and the Gaussian 82(TM) system (copyright 1983,
 Carnegie Mellon University). Gaussian is a federally registered
 trademark of Gaussian, Inc.
  
 This software contains proprietary and confidential information,
 including trade secrets, belonging to Gaussian, Inc.
  
 This software is provided under written license and may be
 used, copied, transmitted, or stored only in accord with that
 written license.
  
 The following legend is applicable only to US Government
 contracts under FAR:
  
                    RESTRICTED RIGHTS LEGEND
  
 Use, reproduction and disclosure by the US Government is
 subject to restrictions as set forth in subparagraphs (a)
 and (c) of the Commercial Computer Software - Restricted
 Rights clause in FAR 52.227-19.
  
 Gaussian, Inc.
 340 Quinnipiac St., Bldg. 40, Wallingford CT 06492
  
  
 ---------------------------------------------------------------
 Warning -- This program may not be used in any manner that
 competes with the business of Gaussian, Inc. or will provide
 assistance to any competitor of Gaussian, Inc.  The licensee
 of this program is prohibited from giving any competitor of
 Gaussian, Inc. access to this program.  By using this program,
 the user acknowledges that Gaussian, Inc. is engaged in the
 business of creating and licensing software in the field of
 computational chemistry and represents and warrants to the
 licensee that it is not a competitor of Gaussian, Inc. and that
 it will not use this program in any manner prohibited above.
 ---------------------------------------------------------------
  

 Cite this work as:
 Gaussian 09, Revision D.01,
 M. J. Frisch, G. W. Trucks, H. B. Schlegel, G. E. Scuseria, 
 M. A. Robb, J. R. Cheeseman, G. Scalmani, V. Barone, B. Mennucci, 
 G. A. Petersson, H. Nakatsuji, M. Caricato, X. Li, H. P. Hratchian, 
 A. F. Izmaylov, J. Bloino, G. Zheng, J. L. Sonnenberg, M. Hada, 
 M. Ehara, K. Toyota, R. Fukuda, J. Hasegawa, M. Ishida, T. Nakajima, 
 Y. Honda, O. Kitao, H. Nakai, T. Vreven, J. A. Montgomery, Jr., 
 J. E. Peralta, F. Ogliaro, M. Bearpark, J. J. Heyd, E. Brothers, 
 K. N. Kudin, V. N. Staroverov, T. Keith, R. Kobayashi, J. Normand, 
 K. Raghavachari, A. Rendell, J. C. Burant, S. S. Iyengar, J. Tomasi, 
 M. Cossi, N. Rega, J. M. Millam, M. Klene, J. E. Knox, J. B. Cross, 
 V. Bakken, C. Adamo, J. Jaramillo, R. Gomperts, R. E. Stratmann, 
 O. Yazyev, A. J. Austin, R. Cammi, C. Pomelli, J. W. Ochterski, 
 R. L. Martin, K. Morokuma, V. G. Zakrzewski, G. A. Voth, 
 P. Salvador, J. J. Dannenberg, S. Dapprich, A. D. Daniels, 
 O. Farkas, J. B. Foresman, J. V. Ortiz, J. Cioslowski, 
 and D. J. Fox, Gaussian, Inc., Wallingford CT, 2013.
 
 ******************************************
 Gaussian 09:  ES64L-G09RevD.01 24-Apr-2013
                28-Mar-2016 
 ******************************************
 %chk=Ser-R-opt-6-311gdp.chk
 -------------------------------------------
 # opt b3lyp/6-311++g(d,p) geom=connectivity
 -------------------------------------------
 1/14=-1,18=20,19=15,26=3,38=1,57=2/1,3;
 2/9=110,12=2,17=6,18=5,40=1/2;
 3/5=4,6=6,7=1111,11=2,16=1,25=1,30=1,71=1,74=-5/1,2,3;
 4//1;
 5/5=2,38=5/2;
 6/7=2,8=2,9=2,10=2,28=1/1;
 7//1,2,3,16;
 1/14=-1,18=20,19=15,26=3/3(2);
 2/9=110/2;
 99//99;
 2/9=110/2;
 3/5=4,6=6,7=1111,11=2,16=1,25=1,30=1,71=1,74=-5/1,2,3;
 4/5=5,16=3,69=1/1;
 5/5=2,38=5/2;
 7//1,2,3,16;
 1/14=-1,18=20,19=15,26=3/3(-5);
 2/9=110/2;
 6/7=2,8=2,9=2,10=2,19=2,28=1/1;
 99/9=1/99;
 -----------------------
 Ser-R-opt-6-311++g(d,p)
 -----------------------
 Symbolic Z-matrix:
 Charge =  0 Multiplicity = 1
 C                     0.20728   0.2578    0.31104 
 H                     0.29991   0.36217   1.41218 
 C                    -1.17507  -0.30115   0.05213 
 O                    -1.45372  -1.47075  -0.2234 
 O                    -2.14508   0.66658   0.20412 
 H                    -3.03445   0.29035   0.02693 
 C                     1.27411  -0.73712  -0.13461 
 H                     1.13576  -1.69752   0.37403 
 H                     1.19617  -0.88763  -1.21771 
 O                     2.54554  -0.12047   0.22628 
 H                     3.29103  -0.63083  -0.14313 
 N                     0.38275   1.51169  -0.4133 
 H                    -0.31737   2.21534  -0.21729 
 H                     1.3379    1.8462   -0.36935 
 

 GradGradGradGradGradGradGradGradGradGradGradGradGradGradGradGradGradGrad
 Berny optimization.
 Initialization pass.
                           ----------------------------
                           !    Initial Parameters    !
                           ! (Angstroms and Degrees)  !
 --------------------------                            --------------------------
 ! Name  Definition              Value          Derivative Info.                !
 --------------------------------------------------------------------------------
 ! R1    R(1,2)                  1.11           estimate D2E/DX2                !
 ! R2    R(1,3)                  1.5134         estimate D2E/DX2                !
 ! R3    R(1,7)                  1.5253         estimate D2E/DX2                !
 ! R4    R(1,12)                 1.4587         estimate D2E/DX2                !
 ! R5    R(3,4)                  1.2335         estimate D2E/DX2                !
 ! R6    R(3,5)                  1.3786         estimate D2E/DX2                !
 ! R7    R(5,6)                  0.9818         estimate D2E/DX2                !
 ! R8    R(7,8)                  1.0955         estimate D2E/DX2                !
 ! R9    R(7,9)                  1.0963         estimate D2E/DX2                !
 ! R10   R(7,10)                 1.4584         estimate D2E/DX2                !
 ! R11   R(10,11)                0.9761         estimate D2E/DX2                !
 ! R12   R(12,13)                1.0118         estimate D2E/DX2                !
 ! R13   R(12,14)                1.013          estimate D2E/DX2                !
 ! A1    A(2,1,3)              106.3007         estimate D2E/DX2                !
 ! A2    A(2,1,7)              107.0268         estimate D2E/DX2                !
 ! A3    A(2,1,12)             113.6882         estimate D2E/DX2                !
 ! A4    A(3,1,7)              110.3631         estimate D2E/DX2                !
 ! A5    A(3,1,12)             110.0234         estimate D2E/DX2                !
 ! A6    A(7,1,12)             109.3592         estimate D2E/DX2                !
 ! A7    A(1,3,4)              126.4953         estimate D2E/DX2                !
 ! A8    A(1,3,5)              111.3819         estimate D2E/DX2                !
 ! A9    A(4,3,5)              122.0915         estimate D2E/DX2                !
 ! A10   A(3,5,6)              110.395          estimate D2E/DX2                !
 ! A11   A(1,7,8)              110.355          estimate D2E/DX2                !
 ! A12   A(1,7,9)              109.1766         estimate D2E/DX2                !
 ! A13   A(1,7,10)             105.1675         estimate D2E/DX2                !
 ! A14   A(8,7,9)              109.23           estimate D2E/DX2                !
 ! A15   A(8,7,10)             111.461          estimate D2E/DX2                !
 ! A16   A(9,7,10)             111.377          estimate D2E/DX2                !
 ! A17   A(7,10,11)            110.5548         estimate D2E/DX2                !
 ! A18   A(1,12,13)            114.7331         estimate D2E/DX2                !
 ! A19   A(1,12,14)            112.0701         estimate D2E/DX2                !
 ! A20   A(13,12,14)           114.4813         estimate D2E/DX2                !
 ! D1    D(2,1,3,4)           -102.1713         estimate D2E/DX2                !
 ! D2    D(2,1,3,5)             75.8158         estimate D2E/DX2                !
 ! D3    D(7,1,3,4)             13.5479         estimate D2E/DX2                !
 ! D4    D(7,1,3,5)           -168.465          estimate D2E/DX2                !
 ! D5    D(12,1,3,4)           134.3183         estimate D2E/DX2                !
 ! D6    D(12,1,3,5)           -47.6946         estimate D2E/DX2                !
 ! D7    D(2,1,7,8)             58.4197         estimate D2E/DX2                !
 ! D8    D(2,1,7,9)            178.4835         estimate D2E/DX2                !
 ! D9    D(2,1,7,10)           -61.9046         estimate D2E/DX2                !
 ! D10   D(3,1,7,8)            -56.8436         estimate D2E/DX2                !
 ! D11   D(3,1,7,9)             63.2201         estimate D2E/DX2                !
 ! D12   D(3,1,7,10)          -177.1679         estimate D2E/DX2                !
 ! D13   D(12,1,7,8)          -178.0101         estimate D2E/DX2                !
 ! D14   D(12,1,7,9)           -57.9464         estimate D2E/DX2                !
 ! D15   D(12,1,7,10)           61.6656         estimate D2E/DX2                !
 ! D16   D(2,1,12,13)          -63.7446         estimate D2E/DX2                !
 ! D17   D(2,1,12,14)           69.0284         estimate D2E/DX2                !
 ! D18   D(3,1,12,13)           55.3404         estimate D2E/DX2                !
 ! D19   D(3,1,12,14)         -171.8866         estimate D2E/DX2                !
 ! D20   D(7,1,12,13)          176.7126         estimate D2E/DX2                !
 ! D21   D(7,1,12,14)          -50.5143         estimate D2E/DX2                !
 ! D22   D(1,3,5,6)            179.6061         estimate D2E/DX2                !
 ! D23   D(4,3,5,6)             -2.3039         estimate D2E/DX2                !
 ! D24   D(1,7,10,11)         -171.5767         estimate D2E/DX2                !
 ! D25   D(8,7,10,11)           68.8322         estimate D2E/DX2                !
 ! D26   D(9,7,10,11)          -53.439          estimate D2E/DX2                !
 --------------------------------------------------------------------------------
 Trust Radius=3.00D-01 FncErr=1.00D-07 GrdErr=1.00D-06
 Number of steps in this run=     69 maximum allowed number of steps=    100.
 GradGradGradGradGradGradGradGradGradGradGradGradGradGradGradGradGradGrad

                          Input orientation:                          
 ---------------------------------------------------------------------
 Center     Atomic      Atomic             Coordinates (Angstroms)
 Number     Number       Type             X           Y           Z
 ---------------------------------------------------------------------
      1          6           0        0.207284    0.257796    0.311038
      2          1           0        0.299911    0.362173    1.412181
      3          6           0       -1.175068   -0.301146    0.052128
      4          8           0       -1.453722   -1.470747   -0.223397
      5          8           0       -2.145083    0.666577    0.204123
      6          1           0       -3.034452    0.290346    0.026931
      7          6           0        1.274111   -0.737122   -0.134609
      8          1           0        1.135760   -1.697520    0.374026
      9          1           0        1.196172   -0.887631   -1.217708
     10          8           0        2.545538   -0.120466    0.226282
     11          1           0        3.291027   -0.630829   -0.143125
     12          7           0        0.382745    1.511692   -0.413297
     13          1           0       -0.317365    2.215341   -0.217285
     14          1           0        1.337902    1.846200   -0.369352
 ---------------------------------------------------------------------
                    Distance matrix (angstroms):
                    1          2          3          4          5
     1  C    0.000000
     2  H    1.109951   0.000000
     3  C    1.513389   2.113125   0.000000
     4  O    2.456099   3.018268   1.233503   0.000000
     5  O    2.390013   2.744096   1.378593   2.286680   0.000000
     6  H    3.254325   3.611378   1.951360   2.379668   0.981796
     7  C    1.525314   2.133090   2.494679   2.826157   3.711603
     8  H    2.165478   2.453313   2.719082   2.667163   4.047438
     9  H    2.151039   3.046573   2.753040   2.889743   3.949829
    10  O    2.370168   2.584983   3.729059   4.244944   4.756244
    11  H    3.241202   3.514513   4.482501   4.819186   5.599566
    12  N    1.458665   2.158848   2.435115   3.507651   2.735935
    13  H    2.094365   2.543702   2.672255   3.857277   2.432449
    14  H    2.065007   2.540398   3.332230   4.337811   3.721770
                    6          7          8          9         10
     6  H    0.000000
     7  C    4.432325   0.000000
     8  H    4.632791   1.095543   0.000000
     9  H    4.564530   1.096280   1.786949   0.000000
    10  O    5.598642   1.458435   2.120472   2.120009   0.000000
    11  H    6.394464   2.019733   2.459766   2.368352   0.976056
    12  N    3.655506   2.435029   3.389093   2.658099   2.784003
    13  H    3.338833   3.355096   4.215650   3.594451   3.721419
    14  H    4.657811   2.594750   3.626489   2.865943   2.383472
                   11         12         13         14
    11  H    0.000000
    12  N    3.622360   0.000000
    13  H    4.596376   1.011779   0.000000
    14  H    3.162523   1.012991   1.702733   0.000000
 Stoichiometry    C3H7NO3
 Framework group  C1[X(C3H7NO3)]
 Deg. of freedom    36
 Full point group                 C1      NOp   1
 Largest Abelian subgroup         C1      NOp   1
 Largest concise Abelian subgroup C1      NOp   1
                         Standard orientation:                         
 ---------------------------------------------------------------------
 Center     Atomic      Atomic             Coordinates (Angstroms)
 Number     Number       Type             X           Y           Z
 ---------------------------------------------------------------------
      1          6           0        0.207284    0.257796    0.311038
      2          1           0        0.299911    0.362173    1.412181
      3          6           0       -1.175068   -0.301146    0.052128
      4          8           0       -1.453722   -1.470747   -0.223397
      5          8           0       -2.145083    0.666577    0.204123
      6          1           0       -3.034452    0.290346    0.026931
      7          6           0        1.274111   -0.737122   -0.134609
      8          1           0        1.135760   -1.697520    0.374026
      9          1           0        1.196172   -0.887631   -1.217708
     10          8           0        2.545538   -0.120466    0.226282
     11          1           0        3.291027   -0.630829   -0.143125
     12          7           0        0.382745    1.511692   -0.413297
     13          1           0       -0.317365    2.215341   -0.217285
     14          1           0        1.337902    1.846200   -0.369352
 ---------------------------------------------------------------------
 Rotational constants (GHZ):      4.8195252      1.7765108      1.3678048
 Standard basis: 6-311++G(d,p) (5D, 7F)
 There are   210 symmetry adapted cartesian basis functions of A   symmetry.
 There are   203 symmetry adapted basis functions of A   symmetry.
   203 basis functions,   315 primitive gaussians,   210 cartesian basis functions
    28 alpha electrons       28 beta electrons
       nuclear repulsion energy       319.2594216864 Hartrees.
 NAtoms=   14 NActive=   14 NUniq=   14 SFac= 1.00D+00 NAtFMM=   60 NAOKFM=F Big=F
 Integral buffers will be    131072 words long.
 Raffenetti 2 integral format.
 Two-electron integral symmetry is turned on.
 One-electron integrals computed using PRISM.
 NBasis=   203 RedAO= T EigKep=  2.05D-05  NBF=   203
 NBsUse=   203 1.00D-06 EigRej= -1.00D+00 NBFU=   203
 ExpMin= 3.60D-02 ExpMax= 8.59D+03 ExpMxC= 1.30D+03 IAcc=3 IRadAn=         5 AccDes= 0.00D+00
 Harris functional with IExCor=  402 and IRadAn=       5 diagonalized for initial guess.
 HarFok:  IExCor=  402 AccDes= 0.00D+00 IRadAn=         5 IDoV= 1 UseB2=F ITyADJ=14
 ICtDFT=  3500011 ScaDFX=  1.000000  1.000000  1.000000  1.000000
 FoFCou: FMM=F IPFlag=           0 FMFlag=      100000 FMFlg1=           0
         NFxFlg=           0 DoJE=T BraDBF=F KetDBF=T FulRan=T
         wScrn=  0.000000 ICntrl=     500 IOpCl=  0 I1Cent=   200000004 NGrid=           0
         NMat0=    1 NMatS0=      1 NMatT0=    0 NMatD0=    1 NMtDS0=    0 NMtDT0=    0
 Petite list used in FoFCou.
 Requested convergence on RMS density matrix=1.00D-08 within 128 cycles.
 Requested convergence on MAX density matrix=1.00D-06.
 Requested convergence on             energy=1.00D-06.
 No special actions if energy rises.
 SCF Done:  E(RB3LYP) =  -399.087847317     A.U. after   13 cycles
            NFock= 13  Conv=0.69D-08     -V/T= 2.0043

 **********************************************************************

            Population analysis using the SCF density.

 **********************************************************************

 Orbital symmetries:
       Occupied  (A) (A) (A) (A) (A) (A) (A) (A) (A) (A) (A) (A)
                 (A) (A) (A) (A) (A) (A) (A) (A) (A) (A) (A) (A)
                 (A) (A) (A) (A)
       Virtual   (A) (A) (A) (A) (A) (A) (A) (A) (A) (A) (A) (A)
                 (A) (A) (A) (A) (A) (A) (A) (A) (A) (A) (A) (A)
                 (A) (A) (A) (A) (A) (A) (A) (A) (A) (A) (A) (A)
                 (A) (A) (A) (A) (A) (A) (A) (A) (A) (A) (A) (A)
                 (A) (A) (A) (A) (A) (A) (A) (A) (A) (A) (A) (A)
                 (A) (A) (A) (A) (A) (A) (A) (A) (A) (A) (A) (A)
                 (A) (A) (A) (A) (A) (A) (A) (A) (A) (A) (A) (A)
                 (A) (A) (A) (A) (A) (A) (A) (A) (A) (A) (A) (A)
                 (A) (A) (A) (A) (A) (A) (A) (A) (A) (A) (A) (A)
                 (A) (A) (A) (A) (A) (A) (A) (A) (A) (A) (A) (A)
                 (A) (A) (A) (A) (A) (A) (A) (A) (A) (A) (A) (A)
                 (A) (A) (A) (A) (A) (A) (A) (A) (A) (A) (A) (A)
                 (A) (A) (A) (A) (A) (A) (A) (A) (A) (A) (A) (A)
                 (A) (A) (A) (A) (A) (A) (A) (A) (A) (A) (A) (A)
                 (A) (A) (A) (A) (A) (A) (A)
 The electronic state is 1-A.
 Alpha  occ. eigenvalues --  -19.18686 -19.13993 -19.13349 -14.30170 -10.32692
 Alpha  occ. eigenvalues --  -10.23213 -10.23188  -1.11331  -1.02981  -1.02708
 Alpha  occ. eigenvalues --   -0.89990  -0.75785  -0.68394  -0.59509  -0.54766
 Alpha  occ. eigenvalues --   -0.51689  -0.50502  -0.48938  -0.47014  -0.44642
 Alpha  occ. eigenvalues --   -0.41543  -0.40915  -0.40441  -0.35831  -0.34039
 Alpha  occ. eigenvalues --   -0.30272  -0.29518  -0.24741
 Alpha virt. eigenvalues --   -0.03020  -0.01574  -0.01011   0.01372   0.01647
 Alpha virt. eigenvalues --    0.02675   0.04409   0.05344   0.07643   0.07908
 Alpha virt. eigenvalues --    0.08377   0.08862   0.09614   0.10584   0.11224
 Alpha virt. eigenvalues --    0.11869   0.12389   0.12898   0.13731   0.13952
 Alpha virt. eigenvalues --    0.15836   0.16381   0.17232   0.18334   0.18970
 Alpha virt. eigenvalues --    0.19621   0.20112   0.21357   0.22422   0.23362
 Alpha virt. eigenvalues --    0.23516   0.25504   0.25570   0.25912   0.26723
 Alpha virt. eigenvalues --    0.28007   0.28932   0.29666   0.30614   0.31334
 Alpha virt. eigenvalues --    0.31770   0.33232   0.34254   0.35491   0.36943
 Alpha virt. eigenvalues --    0.37970   0.38329   0.39943   0.44975   0.47800
 Alpha virt. eigenvalues --    0.50333   0.52511   0.53685   0.57228   0.58513
 Alpha virt. eigenvalues --    0.60034   0.60279   0.61131   0.64273   0.65720
 Alpha virt. eigenvalues --    0.68452   0.69542   0.70539   0.73860   0.75413
 Alpha virt. eigenvalues --    0.80360   0.81929   0.86599   0.89569   0.92395
 Alpha virt. eigenvalues --    1.00663   1.03403   1.07474   1.08065   1.09153
 Alpha virt. eigenvalues --    1.12551   1.13749   1.15518   1.17644   1.20221
 Alpha virt. eigenvalues --    1.21989   1.23607   1.26188   1.28941   1.32913
 Alpha virt. eigenvalues --    1.39112   1.40733   1.42674   1.45116   1.47648
 Alpha virt. eigenvalues --    1.51017   1.54233   1.54465   1.57236   1.59381
 Alpha virt. eigenvalues --    1.61662   1.61955   1.65162   1.66840   1.69195
 Alpha virt. eigenvalues --    1.70628   1.72804   1.78849   1.81451   1.83461
 Alpha virt. eigenvalues --    1.84804   1.89371   1.93835   1.98227   2.03842
 Alpha virt. eigenvalues --    2.05353   2.06216   2.07634   2.15859   2.19041
 Alpha virt. eigenvalues --    2.25766   2.30236   2.44631   2.45258   2.48767
 Alpha virt. eigenvalues --    2.53067   2.55536   2.57814   2.59623   2.63924
 Alpha virt. eigenvalues --    2.66728   2.67658   2.74082   2.80934   2.82800
 Alpha virt. eigenvalues --    2.84570   2.87189   2.89942   2.92821   2.95862
 Alpha virt. eigenvalues --    3.02473   3.04200   3.08274   3.09878   3.12878
 Alpha virt. eigenvalues --    3.14977   3.16802   3.20443   3.21553   3.33327
 Alpha virt. eigenvalues --    3.33856   3.51384   3.56953   3.65048   3.79328
 Alpha virt. eigenvalues --    3.80015   3.86105   3.91983   3.99454   4.04415
 Alpha virt. eigenvalues --    4.11640   4.27377   4.77398   4.85359   4.96012
 Alpha virt. eigenvalues --    5.03272   5.05115   5.15652   5.30623   5.35403
 Alpha virt. eigenvalues --    5.54931   5.61703   5.81003  23.72797  23.79823
 Alpha virt. eigenvalues --   23.82795  35.60955  49.83869  49.89846  49.96571
          Condensed to atoms (all electrons):
               1          2          3          4          5          6
     1  C    7.255435   0.496835  -0.838617  -0.097691  -0.323299  -0.033477
     2  H    0.496835   0.621061  -0.079029  -0.005026  -0.004743   0.002742
     3  C   -0.838617  -0.079029   5.957098   0.450213   0.316311   0.035984
     4  O   -0.097691  -0.005026   0.450213   8.048449  -0.118541  -0.004748
     5  O   -0.323299  -0.004743   0.316311  -0.118541   8.075149   0.241844
     6  H   -0.033477   0.002742   0.035984  -0.004748   0.241844   0.457556
     7  C   -0.298173  -0.119595   0.174421   0.019635   0.031995  -0.000820
     8  H   -0.097025  -0.035939   0.014816   0.002895  -0.001272  -0.000250
     9  H    0.045510   0.026761  -0.021834  -0.006871  -0.001436  -0.000204
    10  O   -0.148398  -0.005603   0.064723   0.001456  -0.001558  -0.000095
    11  H   -0.033645   0.002936  -0.005183   0.000183  -0.000060   0.000106
    12  N    0.181824  -0.116627  -0.058099  -0.002365  -0.000403   0.001665
    13  H   -0.039227   0.003055  -0.008696  -0.000332   0.006130  -0.000907
    14  H   -0.040842  -0.000533   0.000313  -0.000017  -0.000761  -0.000708
               7          8          9         10         11         12
     1  C   -0.298173  -0.097025   0.045510  -0.148398  -0.033645   0.181824
     2  H   -0.119595  -0.035939   0.026761  -0.005603   0.002936  -0.116627
     3  C    0.174421   0.014816  -0.021834   0.064723  -0.005183  -0.058099
     4  O    0.019635   0.002895  -0.006871   0.001456   0.000183  -0.002365
     5  O    0.031995  -0.001272  -0.001436  -0.001558  -0.000060  -0.000403
     6  H   -0.000820  -0.000250  -0.000204  -0.000095   0.000106   0.001665
     7  C    5.718176   0.421879   0.313442   0.215498   0.054047  -0.081083
     8  H    0.421879   0.643570  -0.087078  -0.054646  -0.002664   0.016313
     9  H    0.313442  -0.087078   0.616196  -0.056371  -0.012460  -0.015160
    10  O    0.215498  -0.054646  -0.056371   8.105349   0.203390  -0.013099
    11  H    0.054047  -0.002664  -0.012460   0.203390   0.531620   0.004399
    12  N   -0.081083   0.016313  -0.015160  -0.013099   0.004399   6.663792
    13  H    0.004528  -0.002469   0.001869   0.000670  -0.000424   0.387150
    14  H    0.001213   0.002581   0.000056   0.008888  -0.001186   0.381942
              13         14
     1  C   -0.039227  -0.040842
     2  H    0.003055  -0.000533
     3  C   -0.008696   0.000313
     4  O   -0.000332  -0.000017
     5  O    0.006130  -0.000761
     6  H   -0.000907  -0.000708
     7  C    0.004528   0.001213
     8  H   -0.002469   0.002581
     9  H    0.001869   0.000056
    10  O    0.000670   0.008888
    11  H   -0.000424  -0.001186
    12  N    0.387150   0.381942
    13  H    0.440028  -0.043640
    14  H   -0.043640   0.431938
 Mulliken charges:
               1
     1  C   -0.029210
     2  H    0.213704
     3  C   -0.002422
     4  O   -0.287239
     5  O   -0.219357
     6  H    0.301311
     7  C   -0.455161
     8  H    0.179288
     9  H    0.197579
    10  O   -0.320204
    11  H    0.258940
    12  N   -0.350250
    13  H    0.252264
    14  H    0.260757
 Sum of Mulliken charges =   0.00000
 Mulliken charges with hydrogens summed into heavy atoms:
               1
     1  C    0.184494
     3  C   -0.002422
     4  O   -0.287239
     5  O    0.081955
     7  C   -0.078295
    10  O   -0.061264
    12  N    0.162771
 Electronic spatial extent (au):  <R**2>=            840.9681
 Charge=              0.0000 electrons
 Dipole moment (field-independent basis, Debye):
    X=              0.3706    Y=              0.5918    Z=              0.3082  Tot=              0.7633
 Quadrupole moment (field-independent basis, Debye-Ang):
   XX=            -33.1536   YY=            -43.9032   ZZ=            -44.2333
   XY=             -5.9777   XZ=             -2.9019   YZ=              0.2890
 Traceless Quadrupole moment (field-independent basis, Debye-Ang):
   XX=              7.2764   YY=             -3.4731   ZZ=             -3.8033
   XY=             -5.9777   XZ=             -2.9019   YZ=              0.2890
 Octapole moment (field-independent basis, Debye-Ang**2):
  XXX=            -10.1643  YYY=             14.2145  ZZZ=              2.7438  XYY=             12.7726
  XXY=             -5.5472  XXZ=            -10.2816  XZZ=             -1.8317  YZZ=             -3.5919
  YYZ=              1.7726  XYZ=              3.0015
 Hexadecapole moment (field-independent basis, Debye-Ang**3):
 XXXX=           -461.4926 YYYY=           -265.9167 ZZZZ=            -78.3705 XXXY=            -47.6442
 XXXZ=            -23.9079 YYYX=            -12.3106 YYYZ=             -4.1955 ZZZX=             -0.7011
 ZZZY=              6.1333 XXYY=           -159.8528 XXZZ=           -130.2563 YYZZ=            -64.2206
 XXYZ=             -1.4249 YYXZ=             -2.4139 ZZXY=             -0.8550
 N-N= 3.192594216864D+02 E-N=-1.575294459276D+03  KE= 3.973982381478D+02
 Calling FoFJK, ICntrl=      2127 FMM=F ISym2X=0 I1Cent= 0 IOpClX= 0 NMat=1 NMatS=1 NMatT=0.
 ***** Axes restored to original set *****
 -------------------------------------------------------------------
 Center     Atomic                   Forces (Hartrees/Bohr)
 Number     Number              X              Y              Z
 -------------------------------------------------------------------
      1        6           0.003496953    0.004091350    0.000756006
      2        1          -0.001325168    0.000173466   -0.002425033
      3        6          -0.029978834   -0.030920935   -0.007395836
      4        8           0.011011444    0.042431660    0.009951157
      5        8           0.003929008   -0.011700899   -0.002784049
      6        1           0.014324196   -0.000210131    0.001420296
      7        6           0.010811675    0.003709443    0.002107584
      8        1           0.001356261    0.002041860   -0.000182240
      9        1           0.001872952    0.000587726    0.001359749
     10        8          -0.001032754   -0.011524552   -0.007245439
     11        1          -0.013270864    0.005053732    0.004033696
     12        7          -0.001908313   -0.004810828   -0.007294060
     13        1           0.004277742   -0.000379650    0.003452988
     14        1          -0.003564299    0.001457757    0.004245183
 -------------------------------------------------------------------
 Cartesian Forces:  Max     0.042431660 RMS     0.010942659

 GradGradGradGradGradGradGradGradGradGradGradGradGradGradGradGradGradGrad
 Berny optimization.
 FormGI is forming the generalized inverse of G from B-inverse, IUseBI=4.
 Internal  Forces:  Max     0.044943375 RMS     0.007574529
 Search for a local minimum.
 Step number   1 out of a maximum of   69
 All quantities printed in internal units (Hartrees-Bohrs-Radians)
 Mixed Optimization -- RFO/linear search
 Second derivative matrix not updated -- first step.
 ITU=  0
     Eigenvalues ---    0.00431   0.00589   0.00913   0.00916   0.00919
     Eigenvalues ---    0.01975   0.03011   0.04843   0.05353   0.05632
     Eigenvalues ---    0.06009   0.06261   0.10579   0.13321   0.16000
     Eigenvalues ---    0.16000   0.16000   0.16000   0.17056   0.18238
     Eigenvalues ---    0.21972   0.24991   0.25000   0.29860   0.31012
     Eigenvalues ---    0.32605   0.34097   0.34180   0.37132   0.37161
     Eigenvalues ---    0.45475   0.45676   0.49360   0.51038   0.52158
     Eigenvalues ---    0.89642
 RFO step:  Lambda=-7.09951248D-03 EMin= 4.31091206D-03
 Linear search not attempted -- first point.
 Iteration  1 RMS(Cart)=  0.03817022 RMS(Int)=  0.00149578
 Iteration  2 RMS(Cart)=  0.00135572 RMS(Int)=  0.00089389
 Iteration  3 RMS(Cart)=  0.00000260 RMS(Int)=  0.00089389
 Iteration  4 RMS(Cart)=  0.00000001 RMS(Int)=  0.00089389
 Variable       Old X    -DE/DX   Delta X   Delta X   Delta X     New X
                                 (Linear)    (Quad)   (Total)
    R1        2.09750  -0.00250   0.00000  -0.00750  -0.00750   2.09000
    R2        2.85989   0.00060   0.00000   0.00188   0.00188   2.86177
    R3        2.88243  -0.00012   0.00000  -0.00039  -0.00039   2.88203
    R4        2.75648  -0.00355   0.00000  -0.00938  -0.00938   2.74709
    R5        2.33098  -0.04494   0.00000  -0.04974  -0.04974   2.28124
    R6        2.60516  -0.02136   0.00000  -0.04265  -0.04265   2.56251
    R7        1.85533  -0.01315   0.00000  -0.02541  -0.02541   1.82991
    R8        2.07028  -0.00205   0.00000  -0.00587  -0.00587   2.06441
    R9        2.07167  -0.00156   0.00000  -0.00447  -0.00447   2.06720
   R10        2.75604  -0.01600   0.00000  -0.04225  -0.04225   2.71380
   R11        1.84448  -0.01430   0.00000  -0.02706  -0.02706   1.81742
   R12        1.91199  -0.00255   0.00000  -0.00551  -0.00551   1.90648
   R13        1.91428  -0.00270   0.00000  -0.00584  -0.00584   1.90844
    A1        1.85530  -0.00056   0.00000  -0.01231  -0.01231   1.84299
    A2        1.86797   0.00046   0.00000   0.00415   0.00414   1.87211
    A3        1.98423  -0.00068   0.00000  -0.00581  -0.00584   1.97840
    A4        1.92620  -0.00087   0.00000  -0.00200  -0.00204   1.92415
    A5        1.92027   0.00056   0.00000   0.00516   0.00513   1.92540
    A6        1.90868   0.00102   0.00000   0.01014   0.01012   1.91880
    A7        2.20776  -0.00102   0.00000  -0.00393  -0.00393   2.20383
    A8        1.94398  -0.00001   0.00000  -0.00002  -0.00003   1.94396
    A9        2.13090   0.00103   0.00000   0.00402   0.00402   2.13492
   A10        1.92676  -0.01086   0.00000  -0.06501  -0.06501   1.86175
   A11        1.92606  -0.00035   0.00000   0.00065   0.00067   1.92673
   A12        1.90549   0.00077   0.00000   0.01057   0.01057   1.91606
   A13        1.83552   0.00255   0.00000   0.01021   0.01022   1.84574
   A14        1.90642   0.00047   0.00000   0.00492   0.00481   1.91123
   A15        1.94536  -0.00159   0.00000  -0.01371  -0.01373   1.93163
   A16        1.94390  -0.00176   0.00000  -0.01207  -0.01215   1.93174
   A17        1.92955  -0.00672   0.00000  -0.04021  -0.04021   1.88933
   A18        2.00247  -0.00184   0.00000  -0.03672  -0.03940   1.96307
   A19        1.95599  -0.00145   0.00000  -0.03503  -0.03782   1.91817
   A20        1.99808  -0.00132   0.00000  -0.04659  -0.05140   1.94668
    D1       -1.78323  -0.00025   0.00000  -0.00486  -0.00487  -1.78810
    D2        1.32324  -0.00020   0.00000  -0.00282  -0.00284   1.32040
    D3        0.23646  -0.00046   0.00000  -0.00777  -0.00775   0.22870
    D4       -2.94027  -0.00042   0.00000  -0.00574  -0.00572  -2.94599
    D5        2.34430   0.00061   0.00000   0.00693   0.00693   2.35122
    D6       -0.83243   0.00065   0.00000   0.00896   0.00896  -0.82347
    D7        1.01962  -0.00069   0.00000  -0.00486  -0.00488   1.01473
    D8        3.11512   0.00015   0.00000   0.00827   0.00824   3.12336
    D9       -1.08044  -0.00012   0.00000   0.00512   0.00512  -1.07531
   D10       -0.99211   0.00017   0.00000   0.00844   0.00843  -0.98367
   D11        1.10340   0.00101   0.00000   0.02156   0.02156   1.12496
   D12       -3.09216   0.00075   0.00000   0.01842   0.01844  -3.07372
   D13       -3.10686  -0.00063   0.00000  -0.00325  -0.00325  -3.11011
   D14       -1.01135   0.00021   0.00000   0.00987   0.00988  -1.00148
   D15        1.07627  -0.00005   0.00000   0.00673   0.00676   1.08303
   D16       -1.11255   0.00305   0.00000   0.07263   0.07139  -1.04117
   D17        1.20477  -0.00215   0.00000  -0.06705  -0.06584   1.13893
   D18        0.96587   0.00228   0.00000   0.05671   0.05547   1.02134
   D19       -2.99999  -0.00292   0.00000  -0.08297  -0.08176  -3.08175
   D20        3.08422   0.00220   0.00000   0.06401   0.06282  -3.13615
   D21       -0.88164  -0.00299   0.00000  -0.07567  -0.07441  -0.95605
   D22        3.13472   0.00012   0.00000   0.00356   0.00355   3.13827
   D23       -0.04021   0.00012   0.00000   0.00531   0.00531  -0.03490
   D24       -2.99458  -0.00048   0.00000  -0.00835  -0.00833  -3.00291
   D25        1.20135  -0.00075   0.00000  -0.00799  -0.00790   1.19345
   D26       -0.93269   0.00103   0.00000   0.00402   0.00391  -0.92877
         Item               Value     Threshold  Converged?
 Maximum Force            0.044943     0.000450     NO 
 RMS     Force            0.007575     0.000300     NO 
 Maximum Displacement     0.119977     0.001800     NO 
 RMS     Displacement     0.038098     0.001200     NO 
 Predicted change in Energy=-3.659632D-03
 GradGradGradGradGradGradGradGradGradGradGradGradGradGradGradGradGradGrad

                          Input orientation:                          
 ---------------------------------------------------------------------
 Center     Atomic      Atomic             Coordinates (Angstroms)
 Number     Number       Type             X           Y           Z
 ---------------------------------------------------------------------
      1          6           0        0.207949    0.275633    0.291042
      2          1           0        0.293780    0.396722    1.387017
      3          6           0       -1.175378   -0.292046    0.051246
      4          8           0       -1.441710   -1.442695   -0.198472
      5          8           0       -2.131288    0.659535    0.190974
      6          1           0       -2.980843    0.226857    0.021436
      7          6           0        1.272305   -0.728831   -0.138086
      8          1           0        1.132787   -1.677939    0.384553
      9          1           0        1.211606   -0.894024   -1.217750
     10          8           0        2.532137   -0.136402    0.214298
     11          1           0        3.234422   -0.681599   -0.152438
     12          7           0        0.376783    1.520052   -0.441187
     13          1           0       -0.306681    2.215564   -0.182445
     14          1           0        1.318891    1.863838   -0.322252
 ---------------------------------------------------------------------
                    Distance matrix (angstroms):
                    1          2          3          4          5
     1  C    0.000000
     2  H    1.105979   0.000000
     3  C    1.514383   2.101693   0.000000
     4  O    2.431800   2.984821   1.207180   0.000000
     5  O    2.372641   2.716716   1.356022   2.246454   0.000000
     6  H    3.200541   3.552017   1.878790   2.281379   0.968348
     7  C    1.525107   2.133148   2.493548   2.806978   3.690567
     8  H    2.163449   2.452159   2.712825   2.650150   4.019384
     9  H    2.156821   3.048481   2.769552   2.894832   3.946263
    10  O    2.361675   2.582582   3.714361   4.203361   4.730919
    11  H    3.205075   3.489996   4.431656   4.737890   5.541427
    12  N    1.453699   2.147344   2.436266   3.484781   2.725901
    13  H    2.062127   2.476278   2.664086   3.830327   2.426903
    14  H    2.032908   2.474849   3.317938   4.309222   3.690187
                    6          7          8          9         10
     6  H    0.000000
     7  C    4.362116   0.000000
     8  H    4.547753   1.092439   0.000000
     9  H    4.513156   1.093913   1.785527   0.000000
    10  O    5.528300   1.436080   2.088900   2.090109   0.000000
    11  H    6.283713   1.962738   2.387032   2.296040   0.961738
    12  N    3.627675   2.439529   3.388293   2.669783   2.796256
    13  H    3.338812   3.341351   4.189621   3.612006   3.707834
    14  H    4.613625   2.599619   3.616406   2.901591   2.400169
                   11         12         13         14
    11  H    0.000000
    12  N    3.618942   0.000000
    13  H    4.575354   1.008865   0.000000
    14  H    3.190195   1.009901   1.669054   0.000000
 Stoichiometry    C3H7NO3
 Framework group  C1[X(C3H7NO3)]
 Deg. of freedom    36
 Full point group                 C1      NOp   1
 Largest Abelian subgroup         C1      NOp   1
 Largest concise Abelian subgroup C1      NOp   1
                         Standard orientation:                         
 ---------------------------------------------------------------------
 Center     Atomic      Atomic             Coordinates (Angstroms)
 Number     Number       Type             X           Y           Z
 ---------------------------------------------------------------------
      1          6           0        0.204925    0.268584    0.299929
      2          1           0        0.287035    0.377459    1.397469
      3          6           0       -1.174763   -0.303401    0.049623
      4          8           0       -1.434427   -1.452447   -0.214103
      5          8           0       -2.135978    0.641573    0.197554
      6          1           0       -2.982799    0.206514    0.020594
      7          6           0        1.275674   -0.725372   -0.137678
      8          1           0        1.139599   -1.681152    0.373586
      9          1           0        1.218877   -0.878407   -1.219343
     10          8           0        2.531422   -0.130573    0.225138
     11          1           0        3.237553   -0.667881   -0.145832
     12          7           0        0.369377    1.522221   -0.417422
     13          1           0       -0.318407    2.211175   -0.152653
     14          1           0        1.309352    1.869455   -0.291820
 ---------------------------------------------------------------------
 Rotational constants (GHZ):      4.8774576      1.8000393      1.3844949
 Standard basis: 6-311++G(d,p) (5D, 7F)
 There are   210 symmetry adapted cartesian basis functions of A   symmetry.
 There are   203 symmetry adapted basis functions of A   symmetry.
   203 basis functions,   315 primitive gaussians,   210 cartesian basis functions
    28 alpha electrons       28 beta electrons
       nuclear repulsion energy       321.7638689683 Hartrees.
 NAtoms=   14 NActive=   14 NUniq=   14 SFac= 1.00D+00 NAtFMM=   60 NAOKFM=F Big=F
 Integral buffers will be    131072 words long.
 Raffenetti 2 integral format.
 Two-electron integral symmetry is turned on.
 One-electron integrals computed using PRISM.
 NBasis=   203 RedAO= T EigKep=  2.11D-05  NBF=   203
 NBsUse=   203 1.00D-06 EigRej= -1.00D+00 NBFU=   203
 Initial guess from the checkpoint file:  "Ser-R-opt-6-311gdp.chk"
 B after Tr=     0.000000    0.000000    0.000000
         Rot=    0.999997   -0.001639    0.000238   -0.001761 Ang=  -0.28 deg.
 ExpMin= 3.60D-02 ExpMax= 8.59D+03 ExpMxC= 1.30D+03 IAcc=3 IRadAn=         5 AccDes= 0.00D+00
 Harris functional with IExCor=  402 and IRadAn=       5 diagonalized for initial guess.
 HarFok:  IExCor=  402 AccDes= 0.00D+00 IRadAn=         5 IDoV= 1 UseB2=F ITyADJ=14
 ICtDFT=  3500011 ScaDFX=  1.000000  1.000000  1.000000  1.000000
 FoFCou: FMM=F IPFlag=           0 FMFlag=      100000 FMFlg1=           0
         NFxFlg=           0 DoJE=T BraDBF=F KetDBF=T FulRan=T
         wScrn=  0.000000 ICntrl=     500 IOpCl=  0 I1Cent=   200000004 NGrid=           0
         NMat0=    1 NMatS0=      1 NMatT0=    0 NMatD0=    1 NMtDS0=    0 NMtDT0=    0
 Petite list used in FoFCou.
 Requested convergence on RMS density matrix=1.00D-08 within 128 cycles.
 Requested convergence on MAX density matrix=1.00D-06.
 Requested convergence on             energy=1.00D-06.
 No special actions if energy rises.
 SCF Done:  E(RB3LYP) =  -399.091721901     A.U. after   11 cycles
            NFock= 11  Conv=0.42D-08     -V/T= 2.0035
 Calling FoFJK, ICntrl=      2127 FMM=F ISym2X=0 I1Cent= 0 IOpClX= 0 NMat=1 NMatS=1 NMatT=0.
 ***** Axes restored to original set *****
 -------------------------------------------------------------------
 Center     Atomic                   Forces (Hartrees/Bohr)
 Number     Number              X              Y              Z
 -------------------------------------------------------------------
      1        6           0.001210795   -0.003088791    0.001274380
      2        1           0.000159272   -0.000123220   -0.000050012
      3        6          -0.004239324   -0.003035402   -0.000506164
      4        8           0.001247076    0.003086738    0.000754400
      5        8           0.000933551   -0.001304360   -0.000293202
      6        1          -0.001366117    0.000487213    0.000113951
      7        6           0.003226941    0.003099699    0.002212460
      8        1          -0.001255696   -0.000428195   -0.000066558
      9        1          -0.000921507   -0.000026426   -0.000467577
     10        8          -0.000487715   -0.002079261   -0.001285543
     11        1           0.000447514    0.000912636    0.000558502
     12        7          -0.000488311   -0.003049674   -0.006330337
     13        1           0.000183814    0.002736309    0.002250205
     14        1           0.001349707    0.002812736    0.001835494
 -------------------------------------------------------------------
 Cartesian Forces:  Max     0.006330337 RMS     0.001994937

 GradGradGradGradGradGradGradGradGradGradGradGradGradGradGradGradGradGrad
 Berny optimization.
 Using GEDIIS/GDIIS optimizer.
 FormGI is forming the generalized inverse of G from B-inverse, IUseBI=4.
 Internal  Forces:  Max     0.003403762 RMS     0.001140947
 Search for a local minimum.
 Step number   2 out of a maximum of   69
 All quantities printed in internal units (Hartrees-Bohrs-Radians)
 Mixed Optimization -- RFO/linear search
 Update second derivatives using D2CorX and points    1    2
 DE= -3.87D-03 DEPred=-3.66D-03 R= 1.06D+00
 TightC=F SS=  1.41D+00  RLast= 2.24D-01 DXNew= 5.0454D-01 6.7349D-01
 Trust test= 1.06D+00 RLast= 2.24D-01 DXMaxT set to 5.05D-01
 ITU=  1  0
 Use linear search instead of GDIIS.
     Eigenvalues ---    0.00431   0.00589   0.00915   0.00916   0.00919
     Eigenvalues ---    0.01974   0.03306   0.04734   0.05330   0.05582
     Eigenvalues ---    0.05969   0.06353   0.10789   0.13370   0.15973
     Eigenvalues ---    0.16000   0.16000   0.17137   0.17216   0.18443
     Eigenvalues ---    0.21840   0.24954   0.25006   0.29856   0.30856
     Eigenvalues ---    0.32613   0.34110   0.34211   0.36491   0.38120
     Eigenvalues ---    0.45511   0.45707   0.49803   0.51647   0.52887
     Eigenvalues ---    0.87146
 RFO step:  Lambda=-5.03623124D-04 EMin= 4.30982097D-03
 Quartic linear search produced a step of  0.06046.
 Iteration  1 RMS(Cart)=  0.01337451 RMS(Int)=  0.00027995
 Iteration  2 RMS(Cart)=  0.00022681 RMS(Int)=  0.00020075
 Iteration  3 RMS(Cart)=  0.00000009 RMS(Int)=  0.00020075
 Variable       Old X    -DE/DX   Delta X   Delta X   Delta X     New X
                                 (Linear)    (Quad)   (Total)
    R1        2.09000  -0.00005  -0.00045  -0.00022  -0.00068   2.08932
    R2        2.86177   0.00340   0.00011   0.01158   0.01169   2.87346
    R3        2.88203  -0.00054  -0.00002  -0.00189  -0.00192   2.88012
    R4        2.74709   0.00339  -0.00057   0.00955   0.00898   2.75608
    R5        2.28124  -0.00337  -0.00301  -0.00448  -0.00749   2.27375
    R6        2.56251  -0.00029  -0.00258  -0.00101  -0.00359   2.55892
    R7        1.82991   0.00096  -0.00154   0.00175   0.00021   1.83013
    R8        2.06441   0.00050  -0.00035   0.00149   0.00114   2.06555
    R9        2.06720   0.00052  -0.00027   0.00157   0.00129   2.06849
   R10        2.71380  -0.00069  -0.00255  -0.00232  -0.00488   2.70892
   R11        1.81742  -0.00040  -0.00164  -0.00107  -0.00270   1.81472
   R12        1.90648   0.00234  -0.00033   0.00535   0.00502   1.91150
   R13        1.90844   0.00243  -0.00035   0.00558   0.00523   1.91367
    A1        1.84299  -0.00032  -0.00074  -0.00255  -0.00329   1.83970
    A2        1.87211  -0.00015   0.00025  -0.00468  -0.00443   1.86769
    A3        1.97840   0.00011  -0.00035  -0.00138  -0.00174   1.97665
    A4        1.92415   0.00057  -0.00012   0.00518   0.00505   1.92920
    A5        1.92540   0.00038   0.00031   0.00518   0.00548   1.93088
    A6        1.91880  -0.00056   0.00061  -0.00176  -0.00118   1.91762
    A7        2.20383  -0.00090  -0.00024  -0.00393  -0.00419   2.19964
    A8        1.94396   0.00061   0.00000   0.00245   0.00243   1.94639
    A9        2.13492   0.00029   0.00024   0.00115   0.00137   2.13629
   A10        1.86175   0.00199  -0.00393   0.01279   0.00886   1.87060
   A11        1.92673  -0.00113   0.00004  -0.00913  -0.00915   1.91757
   A12        1.91606  -0.00105   0.00064  -0.00940  -0.00881   1.90725
   A13        1.84574   0.00158   0.00062   0.00950   0.01013   1.85587
   A14        1.91123   0.00026   0.00029  -0.00402  -0.00385   1.90739
   A15        1.93163   0.00026  -0.00083   0.00801   0.00720   1.93883
   A16        1.93174   0.00007  -0.00073   0.00522   0.00451   1.93625
   A17        1.88933   0.00198  -0.00243   0.01283   0.01040   1.89973
   A18        1.96307  -0.00032  -0.00238  -0.01344  -0.01639   1.94668
   A19        1.91817   0.00060  -0.00229  -0.00774  -0.01061   1.90756
   A20        1.94668  -0.00181  -0.00311  -0.03165  -0.03585   1.91083
    D1       -1.78810   0.00012  -0.00029   0.00602   0.00571  -1.78239
    D2        1.32040   0.00002  -0.00017  -0.00531  -0.00548   1.31491
    D3        0.22870   0.00004  -0.00047   0.00167   0.00119   0.22989
    D4       -2.94599  -0.00005  -0.00035  -0.00966  -0.01001  -2.95600
    D5        2.35122  -0.00004   0.00042   0.00632   0.00674   2.35797
    D6       -0.82347  -0.00013   0.00054  -0.00501  -0.00445  -0.82792
    D7        1.01473   0.00068  -0.00030   0.02270   0.02235   1.03709
    D8        3.12336  -0.00040   0.00050   0.00577   0.00630   3.12967
    D9       -1.07531   0.00004   0.00031   0.01244   0.01275  -1.06257
   D10       -0.98367   0.00086   0.00051   0.02563   0.02610  -0.95757
   D11        1.12496  -0.00023   0.00130   0.00870   0.01005   1.13501
   D12       -3.07372   0.00022   0.00112   0.01538   0.01649  -3.05722
   D13       -3.11011   0.00038  -0.00020   0.01691   0.01667  -3.09344
   D14       -1.00148  -0.00070   0.00060  -0.00002   0.00062  -1.00086
   D15        1.08303  -0.00026   0.00041   0.00665   0.00707   1.09010
   D16       -1.04117   0.00094   0.00432   0.02842   0.03245  -1.00872
   D17        1.13893  -0.00120  -0.00398  -0.02858  -0.03227   1.10666
   D18        1.02134   0.00086   0.00335   0.02784   0.03091   1.05225
   D19       -3.08175  -0.00128  -0.00494  -0.02916  -0.03381  -3.11556
   D20       -3.13615   0.00146   0.00380   0.03657   0.04008  -3.09607
   D21       -0.95605  -0.00069  -0.00450  -0.02043  -0.02464  -0.98069
   D22        3.13827   0.00016   0.00021   0.01067   0.01090  -3.13402
   D23       -0.03490   0.00005   0.00032  -0.00026   0.00005  -0.03485
   D24       -3.00291   0.00002  -0.00050   0.00248   0.00198  -3.00093
   D25        1.19345   0.00029  -0.00048   0.00345   0.00296   1.19641
   D26       -0.92877  -0.00027   0.00024  -0.00040  -0.00015  -0.92893
         Item               Value     Threshold  Converged?
 Maximum Force            0.003404     0.000450     NO 
 RMS     Force            0.001141     0.000300     NO 
 Maximum Displacement     0.037779     0.001800     NO 
 RMS     Displacement     0.013349     0.001200     NO 
 Predicted change in Energy=-2.734504D-04
 GradGradGradGradGradGradGradGradGradGradGradGradGradGradGradGradGradGrad

                          Input orientation:                          
 ---------------------------------------------------------------------
 Center     Atomic      Atomic             Coordinates (Angstroms)
 Number     Number       Type             X           Y           Z
 ---------------------------------------------------------------------
      1          6           0        0.207942    0.277410    0.278288
      2          1           0        0.294509    0.404394    1.373176
      3          6           0       -1.181234   -0.295897    0.046670
      4          8           0       -1.441776   -1.446875   -0.188059
      5          8           0       -2.139294    0.650294    0.189811
      6          1           0       -2.992660    0.218703    0.036805
      7          6           0        1.276725   -0.725315   -0.140163
      8          1           0        1.118445   -1.674784    0.377710
      9          1           0        1.215904   -0.888429   -1.220829
     10          8           0        2.537045   -0.145116    0.220227
     11          1           0        3.242705   -0.687755   -0.140019
     12          7           0        0.379809    1.522697   -0.461178
     13          1           0       -0.291467    2.221943   -0.172010
     14          1           0        1.318106    1.873393   -0.312493
 ---------------------------------------------------------------------
                    Distance matrix (angstroms):
                    1          2          3          4          5
     1  C    0.000000
     2  H    1.105621   0.000000
     3  C    1.520571   2.104243   0.000000
     4  O    2.431503   2.979821   1.203217   0.000000
     5  O    2.378316   2.717391   1.354122   2.242194   0.000000
     6  H    3.210236   3.553287   1.883129   2.286910   0.968461
     7  C    1.524092   2.128657   2.502173   2.813039   3.697346
     8  H    2.156377   2.448019   2.701747   2.631875   4.006763
     9  H    2.150005   3.041253   2.775593   2.905467   3.951573
    10  O    2.367830   2.580740   3.725379   4.206220   4.743600
    11  H    3.211901   3.489184   4.445181   4.745833   5.555634
    12  N    1.458454   2.150054   2.449908   3.494442   2.744221
    13  H    2.057519   2.456512   2.679370   3.844957   2.452643
    14  H    2.031907   2.459103   3.328891   4.319330   3.701607
                    6          7          8          9         10
     6  H    0.000000
     7  C    4.376087   0.000000
     8  H    4.539019   1.093040   0.000000
     9  H    4.529835   1.094598   1.784147   0.000000
    10  O    5.544695   1.433498   2.092155   2.091547   0.000000
    11  H    6.303389   1.966338   2.398906   2.305719   0.960308
    12  N    3.649923   2.441530   3.387211   2.662640   2.810619
    13  H    3.369425   3.338648   4.180254   3.612008   3.709083
    14  H    4.630628   2.604744   3.620194   2.909155   2.417432
                   11         12         13         14
    11  H    0.000000
    12  N    3.631173   0.000000
    13  H    4.577962   1.011521   0.000000
    14  H    3.208319   1.012668   1.652860   0.000000
 Stoichiometry    C3H7NO3
 Framework group  C1[X(C3H7NO3)]
 Deg. of freedom    36
 Full point group                 C1      NOp   1
 Largest Abelian subgroup         C1      NOp   1
 Largest concise Abelian subgroup C1      NOp   1
                         Standard orientation:                         
 ---------------------------------------------------------------------
 Center     Atomic      Atomic             Coordinates (Angstroms)
 Number     Number       Type             X           Y           Z
 ---------------------------------------------------------------------
      1          6           0        0.205403    0.270444    0.291250
      2          1           0        0.287848    0.377241    1.388608
      3          6           0       -1.180897   -0.303395    0.044225
      4          8           0       -1.436464   -1.450707   -0.212856
      5          8           0       -2.142865    0.636523    0.201754
      6          1           0       -2.994140    0.204820    0.037803
      7          6           0        1.279219   -0.720455   -0.142219
      8          1           0        1.122664   -1.680001    0.357280
      9          1           0        1.222603   -0.863550   -1.225945
     10          8           0        2.536208   -0.142594    0.233244
     11          1           0        3.245037   -0.675877   -0.134671
     12          7           0        0.375208    1.529946   -0.424228
     13          1           0       -0.299570    2.221258   -0.124334
     14          1           0        1.311721    1.881152   -0.265817
 ---------------------------------------------------------------------
 Rotational constants (GHZ):      4.8653643      1.7908780      1.3785455
 Standard basis: 6-311++G(d,p) (5D, 7F)
 There are   210 symmetry adapted cartesian basis functions of A   symmetry.
 There are   203 symmetry adapted basis functions of A   symmetry.
   203 basis functions,   315 primitive gaussians,   210 cartesian basis functions
    28 alpha electrons       28 beta electrons
       nuclear repulsion energy       321.3847515755 Hartrees.
 NAtoms=   14 NActive=   14 NUniq=   14 SFac= 1.00D+00 NAtFMM=   60 NAOKFM=F Big=F
 Integral buffers will be    131072 words long.
 Raffenetti 2 integral format.
 Two-electron integral symmetry is turned on.
 One-electron integrals computed using PRISM.
 NBasis=   203 RedAO= T EigKep=  2.16D-05  NBF=   203
 NBsUse=   203 1.00D-06 EigRej= -1.00D+00 NBFU=   203
 Initial guess from the checkpoint file:  "Ser-R-opt-6-311gdp.chk"
 B after Tr=     0.000000    0.000000    0.000000
         Rot=    0.999999   -0.001304    0.000220    0.000529 Ang=  -0.16 deg.
 ExpMin= 3.60D-02 ExpMax= 8.59D+03 ExpMxC= 1.30D+03 IAcc=3 IRadAn=         5 AccDes= 0.00D+00
 Harris functional with IExCor=  402 and IRadAn=       5 diagonalized for initial guess.
 HarFok:  IExCor=  402 AccDes= 0.00D+00 IRadAn=         5 IDoV= 1 UseB2=F ITyADJ=14
 ICtDFT=  3500011 ScaDFX=  1.000000  1.000000  1.000000  1.000000
 FoFCou: FMM=F IPFlag=           0 FMFlag=      100000 FMFlg1=           0
         NFxFlg=           0 DoJE=T BraDBF=F KetDBF=T FulRan=T
         wScrn=  0.000000 ICntrl=     500 IOpCl=  0 I1Cent=   200000004 NGrid=           0
         NMat0=    1 NMatS0=      1 NMatT0=    0 NMatD0=    1 NMtDS0=    0 NMtDT0=    0
 Petite list used in FoFCou.
 Requested convergence on RMS density matrix=1.00D-08 within 128 cycles.
 Requested convergence on MAX density matrix=1.00D-06.
 Requested convergence on             energy=1.00D-06.
 No special actions if energy rises.
 SCF Done:  E(RB3LYP) =  -399.092034808     A.U. after   10 cycles
            NFock= 10  Conv=0.90D-08     -V/T= 2.0035
 Calling FoFJK, ICntrl=      2127 FMM=F ISym2X=0 I1Cent= 0 IOpClX= 0 NMat=1 NMatS=1 NMatT=0.
 ***** Axes restored to original set *****
 -------------------------------------------------------------------
 Center     Atomic                   Forces (Hartrees/Bohr)
 Number     Number              X              Y              Z
 -------------------------------------------------------------------
      1        6           0.000710493   -0.001381728    0.001261756
      2        1          -0.000239203    0.000303899   -0.000023120
      3        6           0.000188997    0.001650886    0.001296413
      4        8          -0.000039429   -0.002937426   -0.000944339
      5        8           0.000738082    0.001092718   -0.000147089
      6        1          -0.000712561   -0.000048704   -0.000051167
      7        6           0.000848865    0.000646455    0.000243862
      8        1          -0.000163033   -0.000346681   -0.000092600
      9        1          -0.000021462   -0.000181580   -0.000330256
     10        8          -0.001821530    0.000184194    0.000230588
     11        1           0.000677657   -0.000414020   -0.000311456
     12        7          -0.000707444   -0.000713548   -0.002704496
     13        1          -0.000326799    0.001316643    0.000881111
     14        1           0.000867369    0.000828891    0.000690793
 -------------------------------------------------------------------
 Cartesian Forces:  Max     0.002937426 RMS     0.000962123

 GradGradGradGradGradGradGradGradGradGradGradGradGradGradGradGradGradGrad
 Berny optimization.
 Using GEDIIS/GDIIS optimizer.
 FormGI is forming the generalized inverse of G from B-inverse, IUseBI=4.
 Internal  Forces:  Max     0.003003022 RMS     0.000636477
 Search for a local minimum.
 Step number   3 out of a maximum of   69
 All quantities printed in internal units (Hartrees-Bohrs-Radians)
 Mixed Optimization -- En-DIIS/RFO-DIIS
 Update second derivatives using D2CorX and points    1    2    3
 DE= -3.13D-04 DEPred=-2.73D-04 R= 1.14D+00
 TightC=F SS=  1.41D+00  RLast= 1.07D-01 DXNew= 8.4853D-01 3.2239D-01
 Trust test= 1.14D+00 RLast= 1.07D-01 DXMaxT set to 5.05D-01
 ITU=  1  1  0
 Use linear search instead of GDIIS.
     Eigenvalues ---    0.00419   0.00589   0.00912   0.00918   0.00939
     Eigenvalues ---    0.01973   0.02722   0.04756   0.05361   0.05527
     Eigenvalues ---    0.06031   0.06434   0.10801   0.13411   0.15962
     Eigenvalues ---    0.15999   0.16060   0.16891   0.17216   0.18555
     Eigenvalues ---    0.22515   0.24735   0.25787   0.29818   0.31320
     Eigenvalues ---    0.32615   0.34074   0.34173   0.35338   0.38047
     Eigenvalues ---    0.44775   0.45587   0.49942   0.51551   0.53341
     Eigenvalues ---    0.97996
 RFO step:  Lambda=-1.35812053D-04 EMin= 4.18691225D-03
 Quartic linear search produced a step of  0.16876.
 Iteration  1 RMS(Cart)=  0.01204596 RMS(Int)=  0.00020508
 Iteration  2 RMS(Cart)=  0.00023466 RMS(Int)=  0.00010424
 Iteration  3 RMS(Cart)=  0.00000004 RMS(Int)=  0.00010424
 Variable       Old X    -DE/DX   Delta X   Delta X   Delta X     New X
                                 (Linear)    (Quad)   (Total)
    R1        2.08932  -0.00001  -0.00011  -0.00028  -0.00039   2.08893
    R2        2.87346  -0.00009   0.00197   0.00042   0.00239   2.87586
    R3        2.88012  -0.00019  -0.00032  -0.00085  -0.00118   2.87894
    R4        2.75608   0.00178   0.00152   0.00575   0.00726   2.76334
    R5        2.27375   0.00300  -0.00126   0.00195   0.00068   2.27443
    R6        2.55892   0.00069  -0.00061   0.00016  -0.00045   2.55847
    R7        1.83013   0.00066   0.00004   0.00076   0.00080   1.83092
    R8        2.06555   0.00028   0.00019   0.00083   0.00103   2.06657
    R9        2.06849   0.00036   0.00022   0.00114   0.00136   2.06985
   R10        2.70892  -0.00112  -0.00082  -0.00494  -0.00576   2.70316
   R11        1.81472   0.00085  -0.00046   0.00092   0.00047   1.81519
   R12        1.91150   0.00138   0.00085   0.00360   0.00445   1.91594
   R13        1.91367   0.00119   0.00088   0.00314   0.00402   1.91769
    A1        1.83970   0.00000  -0.00055  -0.00111  -0.00167   1.83803
    A2        1.86769   0.00021  -0.00075   0.00426   0.00352   1.87120
    A3        1.97665  -0.00011  -0.00029  -0.00141  -0.00171   1.97494
    A4        1.92920  -0.00007   0.00085  -0.00049   0.00036   1.92956
    A5        1.93088  -0.00014   0.00092  -0.00188  -0.00096   1.92992
    A6        1.91762   0.00012  -0.00020   0.00074   0.00054   1.91816
    A7        2.19964  -0.00014  -0.00071  -0.00042  -0.00146   2.19818
    A8        1.94639  -0.00106   0.00041  -0.00407  -0.00400   1.94239
    A9        2.13629   0.00122   0.00023   0.00643   0.00632   2.14261
   A10        1.87060   0.00052   0.00149   0.00236   0.00385   1.87446
   A11        1.91757   0.00020  -0.00154   0.00030  -0.00126   1.91632
   A12        1.90725   0.00021  -0.00149   0.00083  -0.00066   1.90658
   A13        1.85587  -0.00073   0.00171  -0.00277  -0.00106   1.85481
   A14        1.90739  -0.00020  -0.00065  -0.00155  -0.00223   1.90516
   A15        1.93883   0.00027   0.00122   0.00159   0.00280   1.94163
   A16        1.93625   0.00026   0.00076   0.00161   0.00238   1.93862
   A17        1.89973   0.00014   0.00175   0.00050   0.00226   1.90199
   A18        1.94668   0.00002  -0.00277  -0.00545  -0.00841   1.93827
   A19        1.90756  -0.00012  -0.00179  -0.00621  -0.00819   1.89937
   A20        1.91083  -0.00048  -0.00605  -0.01380  -0.02023   1.89060
    D1       -1.78239  -0.00030   0.00096  -0.01875  -0.01776  -1.80015
    D2        1.31491   0.00011  -0.00093   0.03042   0.02947   1.34438
    D3        0.22989  -0.00009   0.00020  -0.01461  -0.01438   0.21551
    D4       -2.95600   0.00032  -0.00169   0.03457   0.03285  -2.92315
    D5        2.35797  -0.00009   0.00114  -0.01527  -0.01410   2.34386
    D6       -0.82792   0.00032  -0.00075   0.03390   0.03312  -0.79480
    D7        1.03709   0.00006   0.00377   0.01604   0.01980   1.05689
    D8        3.12967   0.00006   0.00106   0.01483   0.01590  -3.13762
    D9       -1.06257   0.00007   0.00215   0.01561   0.01776  -1.04480
   D10       -0.95757  -0.00001   0.00440   0.01526   0.01966  -0.93791
   D11        1.13501  -0.00001   0.00170   0.01406   0.01576   1.15077
   D12       -3.05722  -0.00001   0.00278   0.01484   0.01762  -3.03960
   D13       -3.09344   0.00013   0.00281   0.01746   0.02027  -3.07317
   D14       -1.00086   0.00013   0.00010   0.01625   0.01637  -0.98449
   D15        1.09010   0.00014   0.00119   0.01703   0.01823   1.10832
   D16       -1.00872   0.00052   0.00548   0.01975   0.02512  -0.98359
   D17        1.10666  -0.00014  -0.00545  -0.00529  -0.01063   1.09603
   D18        1.05225   0.00034   0.00522   0.01611   0.02123   1.07347
   D19       -3.11556  -0.00032  -0.00571  -0.00892  -0.01453  -3.13008
   D20       -3.09607   0.00024   0.00676   0.01474   0.02140  -3.07466
   D21       -0.98069  -0.00042  -0.00416  -0.01030  -0.01435  -0.99504
   D22       -3.13402  -0.00016   0.00184  -0.02231  -0.02055   3.12862
   D23       -0.03485   0.00019   0.00001   0.02460   0.02469  -0.01015
   D24       -3.00093   0.00001   0.00033   0.00225   0.00258  -2.99835
   D25        1.19641   0.00008   0.00050   0.00269   0.00319   1.19959
   D26       -0.92893  -0.00003  -0.00003   0.00247   0.00244  -0.92649
         Item               Value     Threshold  Converged?
 Maximum Force            0.003003     0.000450     NO 
 RMS     Force            0.000636     0.000300     NO 
 Maximum Displacement     0.038196     0.001800     NO 
 RMS     Displacement     0.012089     0.001200     NO 
 Predicted change in Energy=-7.625523D-05
 GradGradGradGradGradGradGradGradGradGradGradGradGradGradGradGradGradGrad

                          Input orientation:                          
 ---------------------------------------------------------------------
 Center     Atomic      Atomic             Coordinates (Angstroms)
 Number     Number       Type             X           Y           Z
 ---------------------------------------------------------------------
      1          6           0        0.210294    0.275618    0.281412
      2          1           0        0.304650    0.411261    1.374407
      3          6           0       -1.180779   -0.303074    0.066882
      4          8           0       -1.437898   -1.454170   -0.172845
      5          8           0       -2.133104    0.653121    0.175377
      6          1           0       -2.989523    0.228218    0.018099
      7          6           0        1.277407   -0.725699   -0.142373
      8          1           0        1.114196   -1.679096    0.367843
      9          1           0        1.216059   -0.882123   -1.224728
     10          8           0        2.534861   -0.150417    0.223749
     11          1           0        3.242363   -0.688670   -0.140106
     12          7           0        0.370195    1.520775   -0.468474
     13          1           0       -0.292000    2.221934   -0.155719
     14          1           0        1.308039    1.876988   -0.315587
 ---------------------------------------------------------------------
                    Distance matrix (angstroms):
                    1          2          3          4          5
     1  C    0.000000
     2  H    1.105413   0.000000
     3  C    1.521838   2.103900   0.000000
     4  O    2.432088   2.985011   1.203578   0.000000
     5  O    2.375977   2.727419   1.353885   2.246162   0.000000
     6  H    3.210983   3.567163   1.885791   2.296613   0.968882
     7  C    1.523470   2.130623   2.503014   2.811490   3.692383
     8  H    2.155322   2.457260   2.692754   2.618419   4.002654
     9  H    2.149509   3.042862   2.783592   2.911560   3.941340
    10  O    2.363988   2.571640   3.722081   4.199984   4.736867
    11  H    3.209513   3.483354   4.444740   4.742563   5.549377
    12  N    1.462298   2.152098   2.453274   3.493836   2.726513
    13  H    2.057068   2.444548   2.686102   3.850599   2.441406
    14  H    2.031216   2.451780   3.330641   4.319393   3.685154
                    6          7          8          9         10
     6  H    0.000000
     7  C    4.375203   0.000000
     8  H    4.538797   1.093583   0.000000
     9  H    4.523759   1.095320   1.783767   0.000000
    10  O    5.541162   1.430449   2.091867   2.091105   0.000000
    11  H    6.300962   1.965306   2.401677   2.306456   0.960556
    12  N    3.632515   2.444591   3.390006   2.657316   2.820964
    13  H    3.358831   3.339425   4.179658   3.612782   3.709877
    14  H    4.615066   2.608624   3.626345   2.906491   2.430297
                   11         12         13         14
    11  H    0.000000
    12  N    3.638520   0.000000
    13  H    4.578601   1.013874   0.000000
    14  H    3.217919   1.014798   1.644589   0.000000
 Stoichiometry    C3H7NO3
 Framework group  C1[X(C3H7NO3)]
 Deg. of freedom    36
 Full point group                 C1      NOp   1
 Largest Abelian subgroup         C1      NOp   1
 Largest concise Abelian subgroup C1      NOp   1
                         Standard orientation:                         
 ---------------------------------------------------------------------
 Center     Atomic      Atomic             Coordinates (Angstroms)
 Number     Number       Type             X           Y           Z
 ---------------------------------------------------------------------
      1          6           0        0.207069    0.269407    0.294405
      2          1           0        0.297417    0.378102    1.390745
      3          6           0       -1.180154   -0.311258    0.061098
      4          8           0       -1.430221   -1.457355   -0.208209
      5          8           0       -2.138043    0.636736    0.190555
      6          1           0       -2.991639    0.211274    0.020005
      7          6           0        1.280933   -0.715163   -0.151015
      8          1           0        1.121447   -1.681928    0.334631
      9          1           0        1.223675   -0.844719   -1.237137
     10          8           0        2.534106   -0.142434    0.233334
     11          1           0        3.245640   -0.667546   -0.141690
     12          7           0        0.362355    1.533831   -0.423531
     13          1           0       -0.304616    2.223323   -0.095367
     14          1           0        1.297766    1.891178   -0.258838
 ---------------------------------------------------------------------
 Rotational constants (GHZ):      4.8454933      1.7968972      1.3802994
 Standard basis: 6-311++G(d,p) (5D, 7F)
 There are   210 symmetry adapted cartesian basis functions of A   symmetry.
 There are   203 symmetry adapted basis functions of A   symmetry.
   203 basis functions,   315 primitive gaussians,   210 cartesian basis functions
    28 alpha electrons       28 beta electrons
       nuclear repulsion energy       321.4036180166 Hartrees.
 NAtoms=   14 NActive=   14 NUniq=   14 SFac= 1.00D+00 NAtFMM=   60 NAOKFM=F Big=F
 Integral buffers will be    131072 words long.
 Raffenetti 2 integral format.
 Two-electron integral symmetry is turned on.
 One-electron integrals computed using PRISM.
 NBasis=   203 RedAO= T EigKep=  2.19D-05  NBF=   203
 NBsUse=   203 1.00D-06 EigRej= -1.00D+00 NBFU=   203
 Initial guess from the checkpoint file:  "Ser-R-opt-6-311gdp.chk"
 B after Tr=     0.000000    0.000000    0.000000
         Rot=    0.999999   -0.000584   -0.000315   -0.001102 Ang=  -0.15 deg.
 ExpMin= 3.60D-02 ExpMax= 8.59D+03 ExpMxC= 1.30D+03 IAcc=3 IRadAn=         5 AccDes= 0.00D+00
 Harris functional with IExCor=  402 and IRadAn=       5 diagonalized for initial guess.
 HarFok:  IExCor=  402 AccDes= 0.00D+00 IRadAn=         5 IDoV= 1 UseB2=F ITyADJ=14
 ICtDFT=  3500011 ScaDFX=  1.000000  1.000000  1.000000  1.000000
 FoFCou: FMM=F IPFlag=           0 FMFlag=      100000 FMFlg1=           0
         NFxFlg=           0 DoJE=T BraDBF=F KetDBF=T FulRan=T
         wScrn=  0.000000 ICntrl=     500 IOpCl=  0 I1Cent=   200000004 NGrid=           0
         NMat0=    1 NMatS0=      1 NMatT0=    0 NMatD0=    1 NMtDS0=    0 NMtDT0=    0
 Petite list used in FoFCou.
 Requested convergence on RMS density matrix=1.00D-08 within 128 cycles.
 Requested convergence on MAX density matrix=1.00D-06.
 Requested convergence on             energy=1.00D-06.
 No special actions if energy rises.
 SCF Done:  E(RB3LYP) =  -399.092002335     A.U. after   10 cycles
            NFock= 10  Conv=0.81D-08     -V/T= 2.0035
 Calling FoFJK, ICntrl=      2127 FMM=F ISym2X=0 I1Cent= 0 IOpClX= 0 NMat=1 NMatS=1 NMatT=0.
 ***** Axes restored to original set *****
 -------------------------------------------------------------------
 Center     Atomic                   Forces (Hartrees/Bohr)
 Number     Number              X              Y              Z
 -------------------------------------------------------------------
      1        6          -0.000528661   -0.000959921    0.002189396
      2        1           0.000479619    0.000270832   -0.000081898
      3        6           0.001874086    0.003081082   -0.005246213
      4        8          -0.000954905   -0.002215934    0.001606192
      5        8          -0.000462313   -0.000356645    0.001705038
      6        1          -0.000248551   -0.000053226   -0.000025399
      7        6          -0.000588271   -0.000124396    0.000107268
      8        1           0.000074105   -0.000106014   -0.000106578
      9        1           0.000014295   -0.000030051    0.000000901
     10        8          -0.000028900    0.000540276    0.000335898
     11        1           0.000465567   -0.000311273   -0.000231720
     12        7          -0.000159845    0.000742994    0.000018638
     13        1          -0.000200163   -0.000122921   -0.000203602
     14        1           0.000263937   -0.000354802   -0.000067921
 -------------------------------------------------------------------
 Cartesian Forces:  Max     0.005246213 RMS     0.001201168

 GradGradGradGradGradGradGradGradGradGradGradGradGradGradGradGradGradGrad
 Berny optimization.
 Using GEDIIS/GDIIS optimizer.
 FormGI is forming the generalized inverse of G from B-inverse, IUseBI=4.
 Internal  Forces:  Max     0.002003822 RMS     0.000502091
 Search for a local minimum.
 Step number   4 out of a maximum of   69
 All quantities printed in internal units (Hartrees-Bohrs-Radians)
 Mixed Optimization -- En-DIIS/RFO-DIIS
 Swapping is turned off.
 Update second derivatives using D2CorX and points    1    2    3    4
 DE=  3.25D-05 DEPred=-7.63D-05 R=-4.26D-01
 Trust test=-4.26D-01 RLast= 1.03D-01 DXMaxT set to 2.52D-01
 ITU= -1  1  1  0
     Eigenvalues ---    0.00357   0.00587   0.00890   0.00918   0.01285
     Eigenvalues ---    0.01981   0.03990   0.04791   0.05507   0.05665
     Eigenvalues ---    0.06045   0.06507   0.10817   0.13416   0.15953
     Eigenvalues ---    0.16011   0.16169   0.16905   0.17274   0.18627
     Eigenvalues ---    0.22529   0.24796   0.26036   0.29647   0.30494
     Eigenvalues ---    0.32631   0.33948   0.34151   0.34807   0.38625
     Eigenvalues ---    0.44366   0.45594   0.49638   0.51555   0.52454
     Eigenvalues ---    0.91634
 En-DIIS/RFO-DIIS IScMMF=        0 using points:     4    3
 RFO step:  Lambda=-5.05572988D-05.
 DidBck=T Rises=F RFO-DIIS coefs:    0.40998    0.59002
 Iteration  1 RMS(Cart)=  0.01682319 RMS(Int)=  0.00024222
 Iteration  2 RMS(Cart)=  0.00031512 RMS(Int)=  0.00010143
 Iteration  3 RMS(Cart)=  0.00000005 RMS(Int)=  0.00010143
 Variable       Old X    -DE/DX   Delta X   Delta X   Delta X     New X
                                 (Linear)    (Quad)   (Total)
    R1        2.08893  -0.00001   0.00023  -0.00078  -0.00055   2.08838
    R2        2.87586  -0.00009  -0.00141   0.00397   0.00255   2.87841
    R3        2.87894  -0.00005   0.00069  -0.00176  -0.00106   2.87788
    R4        2.76334   0.00035  -0.00429   0.01022   0.00594   2.76928
    R5        2.27443   0.00200  -0.00040  -0.00017  -0.00057   2.27386
    R6        2.55847   0.00034   0.00026  -0.00178  -0.00151   2.55696
    R7        1.83092   0.00025  -0.00047   0.00053   0.00006   1.83099
    R8        2.06657   0.00003  -0.00061   0.00129   0.00068   2.06725
    R9        2.06985   0.00000  -0.00080   0.00174   0.00094   2.07079
   R10        2.70316   0.00050   0.00340  -0.00843  -0.00503   2.69812
   R11        1.81519   0.00061  -0.00028   0.00012  -0.00016   1.81503
   R12        1.91594  -0.00002  -0.00262   0.00597   0.00334   1.91929
   R13        1.91769   0.00011  -0.00237   0.00554   0.00317   1.92086
    A1        1.83803   0.00036   0.00099  -0.00030   0.00069   1.83872
    A2        1.87120  -0.00012  -0.00207   0.00385   0.00177   1.87298
    A3        1.97494  -0.00006   0.00101  -0.00299  -0.00198   1.97296
    A4        1.92956  -0.00002  -0.00021   0.00062   0.00041   1.92997
    A5        1.92992  -0.00017   0.00057  -0.00131  -0.00075   1.92918
    A6        1.91816   0.00004  -0.00032   0.00029  -0.00003   1.91813
    A7        2.19818   0.00021   0.00086  -0.00228  -0.00185   2.19633
    A8        1.94239   0.00045   0.00236  -0.00451  -0.00259   1.93981
    A9        2.14261  -0.00066  -0.00373   0.00689   0.00272   2.14533
   A10        1.87446   0.00011  -0.00227   0.00414   0.00186   1.87632
   A11        1.91632   0.00020   0.00074  -0.00160  -0.00086   1.91546
   A12        1.90658   0.00000   0.00039  -0.00142  -0.00103   1.90555
   A13        1.85481  -0.00012   0.00063  -0.00044   0.00018   1.85499
   A14        1.90516  -0.00009   0.00131  -0.00336  -0.00205   1.90311
   A15        1.94163   0.00000  -0.00165   0.00394   0.00228   1.94392
   A16        1.93862   0.00001  -0.00140   0.00286   0.00146   1.94008
   A17        1.90199   0.00005  -0.00133   0.00275   0.00142   1.90340
   A18        1.93827   0.00012   0.00496  -0.01247  -0.00753   1.93075
   A19        1.89937  -0.00039   0.00483  -0.01303  -0.00822   1.89115
   A20        1.89060   0.00031   0.01194  -0.02887  -0.01698   1.87362
    D1       -1.80015   0.00096   0.01048   0.02028   0.03071  -1.76943
    D2        1.34438  -0.00110  -0.01739  -0.01665  -0.03399   1.31039
    D3        0.21551   0.00099   0.00848   0.02493   0.03336   0.24887
    D4       -2.92315  -0.00107  -0.01938  -0.01201  -0.03134  -2.95449
    D5        2.34386   0.00091   0.00832   0.02482   0.03309   2.37696
    D6       -0.79480  -0.00115  -0.01954  -0.01211  -0.03161  -0.82641
    D7        1.05689   0.00017  -0.01168   0.02940   0.01772   1.07461
    D8       -3.13762   0.00018  -0.00938   0.02345   0.01407  -3.12355
    D9       -1.04480   0.00012  -0.01048   0.02583   0.01535  -1.02945
   D10       -0.93791  -0.00017  -0.01160   0.02732   0.01572  -0.92219
   D11        1.15077  -0.00016  -0.00930   0.02136   0.01206   1.16283
   D12       -3.03960  -0.00022  -0.01040   0.02374   0.01335  -3.02626
   D13       -3.07317   0.00003  -0.01196   0.02837   0.01641  -3.05676
   D14       -0.98449   0.00005  -0.00966   0.02241   0.01275  -0.97174
   D15        1.10832  -0.00001  -0.01075   0.02479   0.01404   1.12236
   D16       -0.98359  -0.00025  -0.01482   0.03412   0.01929  -0.96430
   D17        1.09603  -0.00004   0.00627  -0.01717  -0.01089   1.08515
   D18        1.07347   0.00004  -0.01252   0.03091   0.01837   1.09185
   D19       -3.13008   0.00025   0.00857  -0.02039  -0.01181   3.14129
   D20       -3.07466  -0.00008  -0.01263   0.03100   0.01836  -3.05630
   D21       -0.99504   0.00013   0.00847  -0.02029  -0.01182  -1.00685
   D22        3.12862   0.00100   0.01213   0.02134   0.03358  -3.12099
   D23       -0.01015  -0.00098  -0.01457  -0.01420  -0.02889  -0.03904
   D24       -2.99835   0.00009  -0.00152   0.00433   0.00281  -2.99554
   D25        1.19959  -0.00008  -0.00188   0.00434   0.00246   1.20205
   D26       -0.92649   0.00002  -0.00144   0.00391   0.00247  -0.92401
         Item               Value     Threshold  Converged?
 Maximum Force            0.002004     0.000450     NO 
 RMS     Force            0.000502     0.000300     NO 
 Maximum Displacement     0.065484     0.001800     NO 
 RMS     Displacement     0.016823     0.001200     NO 
 Predicted change in Energy=-1.223607D-04
 GradGradGradGradGradGradGradGradGradGradGradGradGradGradGradGradGradGrad

                          Input orientation:                          
 ---------------------------------------------------------------------
 Center     Atomic      Atomic             Coordinates (Angstroms)
 Number     Number       Type             X           Y           Z
 ---------------------------------------------------------------------
      1          6           0        0.209372    0.277061    0.267985
      2          1           0        0.296525    0.416871    1.360757
      3          6           0       -1.181599   -0.302333    0.045253
      4          8           0       -1.437844   -1.459488   -0.162607
      5          8           0       -2.134420    0.648033    0.185875
      6          1           0       -2.993897    0.220978    0.052752
      7          6           0        1.279103   -0.724049   -0.147588
      8          1           0        1.102807   -1.681672    0.350997
      9          1           0        1.231959   -0.871786   -1.232375
     10          8           0        2.530527   -0.157333    0.241443
     11          1           0        3.242447   -0.692832   -0.117611
     12          7           0        0.373499    1.523688   -0.484675
     13          1           0       -0.283284    2.226917   -0.159659
     14          1           0        1.309566    1.880610   -0.312611
 ---------------------------------------------------------------------
                    Distance matrix (angstroms):
                    1          2          3          4          5
     1  C    0.000000
     2  H    1.105122   0.000000
[...]
 ! R10   R(7,10)                 1.4315         -DE/DX =    0.0                 !
 ! R11   R(10,11)                0.9612         -DE/DX =    0.0                 !
 ! R12   R(12,13)                1.0138         -DE/DX =    0.0                 !
 ! R13   R(12,14)                1.0148         -DE/DX =    0.0                 !
 ! A1    A(2,1,3)              105.5614         -DE/DX =    0.0                 !
 ! A2    A(2,1,7)              107.2857         -DE/DX =    0.0                 !
 ! A3    A(2,1,12)             113.0677         -DE/DX =    0.0                 !
 ! A4    A(3,1,7)              110.607          -DE/DX =    0.0                 !
 ! A5    A(3,1,12)             110.3963         -DE/DX =    0.0                 !
 ! A6    A(7,1,12)             109.8169         -DE/DX =    0.0                 !
 ! A7    A(1,3,4)              126.0291         -DE/DX =    0.0                 !
 ! A8    A(1,3,5)              111.3102         -DE/DX =    0.0                 !
 ! A9    A(4,3,5)              122.628          -DE/DX =    0.0                 !
 ! A10   A(3,5,6)              107.3995         -DE/DX =    0.0                 !
 ! A11   A(1,7,8)              109.9137         -DE/DX =    0.0                 !
 ! A12   A(1,7,9)              109.2586         -DE/DX =    0.0                 !
 ! A13   A(1,7,10)             106.2313         -DE/DX =    0.0                 !
 ! A14   A(8,7,9)              109.1158         -DE/DX =    0.0                 !
 ! A15   A(8,7,10)             111.231          -DE/DX =    0.0                 !
 ! A16   A(9,7,10)             111.0424         -DE/DX =    0.0                 !
 ! A17   A(7,10,11)            108.9698         -DE/DX =    0.0                 !
 ! A18   A(1,12,13)            111.0881         -DE/DX =    0.0                 !
 ! A19   A(1,12,14)            108.7556         -DE/DX =    0.0                 !
 ! A20   A(13,12,14)           108.5634         -DE/DX =    0.0                 !
 ! D1    D(2,1,3,4)           -103.1998         -DE/DX =    0.0                 !
 ! D2    D(2,1,3,5)             74.7551         -DE/DX =    0.0                 !
 ! D3    D(7,1,3,4)             12.5371         -DE/DX =    0.0                 !
 ! D4    D(7,1,3,5)           -169.508          -DE/DX =    0.0                 !
 ! D5    D(12,1,3,4)           134.288          -DE/DX =    0.0                 !
 ! D6    D(12,1,3,5)           -47.7571         -DE/DX =    0.0                 !
 ! D7    D(2,1,7,8)             60.6405         -DE/DX =    0.0                 !
 ! D8    D(2,1,7,9)           -179.6553         -DE/DX =    0.0                 !
 ! D9    D(2,1,7,10)           -59.7979         -DE/DX =    0.0                 !
 ! D10   D(3,1,7,8)            -54.016          -DE/DX =    0.0                 !
 ! D11   D(3,1,7,9)             65.6881         -DE/DX =    0.0                 !
 ! D12   D(3,1,7,10)          -174.4544         -DE/DX =    0.0                 !
 ! D13   D(12,1,7,8)          -176.1074         -DE/DX =    0.0                 !
 ! D14   D(12,1,7,9)           -56.4033         -DE/DX =    0.0                 !
 ! D15   D(12,1,7,10)           63.4542         -DE/DX =    0.0                 !
 ! D16   D(2,1,12,13)          -56.1164         -DE/DX =    0.0                 !
 ! D17   D(2,1,12,14)           63.3087         -DE/DX =    0.0                 !
 ! D18   D(3,1,12,13)           61.8814         -DE/DX =    0.0                 !
 ! D19   D(3,1,12,14)         -178.6934         -DE/DX =    0.0                 !
 ! D20   D(7,1,12,13)         -175.9019         -DE/DX =    0.0                 !
 ! D21   D(7,1,12,14)          -56.4767         -DE/DX =    0.0                 !
 ! D22   D(1,3,5,6)           -179.8076         -DE/DX =    0.0                 !
 ! D23   D(4,3,5,6)             -1.7714         -DE/DX =    0.0                 !
 ! D24   D(1,7,10,11)         -171.5459         -DE/DX =    0.0                 !
 ! D25   D(8,7,10,11)           68.8717         -DE/DX =    0.0                 !
 ! D26   D(9,7,10,11)          -52.8562         -DE/DX =    0.0                 !
 --------------------------------------------------------------------------------
 GradGradGradGradGradGradGradGradGradGradGradGradGradGradGradGradGradGrad

                          Input orientation:                          
 ---------------------------------------------------------------------
 Center     Atomic      Atomic             Coordinates (Angstroms)
 Number     Number       Type             X           Y           Z
 ---------------------------------------------------------------------
      1          6           0        0.208074    0.275282    0.276858
      2          1           0        0.296427    0.413430    1.369559
      3          6           0       -1.181283   -0.299647    0.049350
      4          8           0       -1.440861   -1.450952   -0.193096
      5          8           0       -2.136645    0.649006    0.196330
      6          1           0       -2.993702    0.223353    0.043149
      7          6           0        1.277519   -0.725803   -0.140729
      8          1           0        1.113580   -1.679907    0.367975
      9          1           0        1.222670   -0.882482   -1.223344
     10          8           0        2.533293   -0.148619    0.232107
     11          1           0        3.243646   -0.684664   -0.131039
     12          7           0        0.373975    1.520668   -0.473899
     13          1           0       -0.286328    2.224485   -0.163403
     14          1           0        1.314395    1.870514   -0.321879
 ---------------------------------------------------------------------
                    Distance matrix (angstroms):
                    1          2          3          4          5
     1  C    0.000000
     2  H    1.104937   0.000000
     3  C    1.520729   2.105958   0.000000
     4  O    2.433049   2.989312   1.204850   0.000000
     5  O    2.375682   2.711421   1.354349   2.246239   0.000000
     6  H    3.210714   3.552526   1.886379   2.295740   0.969118
     7  C    1.523240   2.131047   2.502688   2.813925   3.695974
     8  H    2.156619   2.460278   2.696857   2.625336   4.002157
     9  H    2.149518   3.043100   2.781805   2.911866   3.955493
    10  O    2.363966   2.571626   3.722134   4.203661   4.737700
    11  H    3.209762   3.484782   4.445310   4.747174   5.552782
    12  N    1.463607   2.151819   2.450748   3.493280   2.740842
    13  H    2.058557   2.443255   2.686532   3.852618   2.456668
    14  H    2.031550   2.453632   3.328035   4.317425   3.697337
                    6          7          8          9         10
     6  H    0.000000
     7  C    4.379273   0.000000
     8  H    4.538466   1.093604   0.000000
     9  H    4.539236   1.095268   1.783279   0.000000
    10  O    5.542719   1.431473   2.092579   2.091560   0.000000
    11  H    6.305501   1.966582   2.403478   2.305777   0.961156
    12  N    3.645766   2.444181   3.391083   2.656516   2.819151
    13  H    3.372991   3.339211   4.181672   3.613003   3.706523
    14  H    4.626670   2.602890   3.622390   2.898282   2.422707
                   11         12         13         14
    11  H    0.000000
    12  N    3.635389   0.000000
    13  H    4.574376   1.013788   0.000000
    14  H    3.207392   1.014836   1.647035   0.000000
 Stoichiometry    C3H7NO3
 Framework group  C1[X(C3H7NO3)]
 Deg. of freedom    36
 Full point group                 C1      NOp   1
 Largest Abelian subgroup         C1      NOp   1
 Largest concise Abelian subgroup C1      NOp   1
                         Standard orientation:                         
 ---------------------------------------------------------------------
 Center     Atomic      Atomic             Coordinates (Angstroms)
 Number     Number       Type             X           Y           Z
 ---------------------------------------------------------------------
      1          6           0        0.206215    0.270059    0.289550
      2          1           0        0.291241    0.387024    1.384985
      3          6           0       -1.180191   -0.305910    0.047155
      4          8           0       -1.434425   -1.453262   -0.218576
      5          8           0       -2.139809    0.635782    0.210285
      6          1           0       -2.994720    0.209754    0.046526
      7          6           0        1.280813   -0.718263   -0.144868
      8          1           0        1.119510   -1.682855    0.344534
      9          1           0        1.229341   -0.853818   -1.230496
     10          8           0        2.533260   -0.143443    0.242524
     11          1           0        3.246724   -0.669348   -0.129248
     12          7           0        0.368895    1.530648   -0.436120
     13          1           0       -0.295075    2.225531   -0.113555
     14          1           0        1.307483    1.881245   -0.274795
 ---------------------------------------------------------------------
 Rotational constants (GHZ):      4.8452353      1.7925312      1.3801818

 **********************************************************************

            Population analysis using the SCF density.

 **********************************************************************

 Orbital symmetries:
       Occupied  (A) (A) (A) (A) (A) (A) (A) (A) (A) (A) (A) (A)
                 (A) (A) (A) (A) (A) (A) (A) (A) (A) (A) (A) (A)
                 (A) (A) (A) (A)
       Virtual   (A) (A) (A) (A) (A) (A) (A) (A) (A) (A) (A) (A)
                 (A) (A) (A) (A) (A) (A) (A) (A) (A) (A) (A) (A)
                 (A) (A) (A) (A) (A) (A) (A) (A) (A) (A) (A) (A)
                 (A) (A) (A) (A) (A) (A) (A) (A) (A) (A) (A) (A)
                 (A) (A) (A) (A) (A) (A) (A) (A) (A) (A) (A) (A)
                 (A) (A) (A) (A) (A) (A) (A) (A) (A) (A) (A) (A)
                 (A) (A) (A) (A) (A) (A) (A) (A) (A) (A) (A) (A)
                 (A) (A) (A) (A) (A) (A) (A) (A) (A) (A) (A) (A)
                 (A) (A) (A) (A) (A) (A) (A) (A) (A) (A) (A) (A)
                 (A) (A) (A) (A) (A) (A) (A) (A) (A) (A) (A) (A)
                 (A) (A) (A) (A) (A) (A) (A) (A) (A) (A) (A) (A)
                 (A) (A) (A) (A) (A) (A) (A) (A) (A) (A) (A) (A)
                 (A) (A) (A) (A) (A) (A) (A) (A) (A) (A) (A) (A)
                 (A) (A) (A) (A) (A) (A) (A) (A) (A) (A) (A) (A)
                 (A) (A) (A) (A) (A) (A) (A)
 The electronic state is 1-A.
 Alpha  occ. eigenvalues --  -19.18653 -19.13871 -19.13120 -14.30428 -10.32075
 Alpha  occ. eigenvalues --  -10.22853 -10.22765  -1.12884  -1.04098  -1.03857
 Alpha  occ. eigenvalues --   -0.90313  -0.75774  -0.68416  -0.59545  -0.54993
 Alpha  occ. eigenvalues --   -0.51827  -0.50640  -0.49035  -0.47211  -0.45285
 Alpha  occ. eigenvalues --   -0.41659  -0.41434  -0.40550  -0.35714  -0.34420
 Alpha  occ. eigenvalues --   -0.30365  -0.29377  -0.25567
 Alpha virt. eigenvalues --   -0.02447  -0.01144  -0.00864   0.01301   0.01765
 Alpha virt. eigenvalues --    0.02848   0.04466   0.05313   0.07731   0.07907
 Alpha virt. eigenvalues --    0.08273   0.08993   0.09686   0.10641   0.11049
 Alpha virt. eigenvalues --    0.11974   0.12511   0.12878   0.13668   0.14332
 Alpha virt. eigenvalues --    0.16214   0.16865   0.17331   0.18499   0.19563
 Alpha virt. eigenvalues --    0.19690   0.20813   0.21611   0.22803   0.23508
 Alpha virt. eigenvalues --    0.23583   0.25334   0.25604   0.26074   0.26518
 Alpha virt. eigenvalues --    0.27956   0.29274   0.29719   0.30782   0.31422
 Alpha virt. eigenvalues --    0.31919   0.33226   0.34338   0.35754   0.37554
 Alpha virt. eigenvalues --    0.37957   0.38911   0.39664   0.45806   0.47645
 Alpha virt. eigenvalues --    0.51176   0.52722   0.54208   0.57188   0.58913
 Alpha virt. eigenvalues --    0.59640   0.60169   0.62360   0.65073   0.66391
 Alpha virt. eigenvalues --    0.68640   0.69927   0.70434   0.74542   0.75685
 Alpha virt. eigenvalues --    0.80549   0.82488   0.87480   0.90134   0.92841
 Alpha virt. eigenvalues --    1.01024   1.03471   1.06526   1.08251   1.08635
 Alpha virt. eigenvalues --    1.12701   1.13667   1.15156   1.17428   1.20079
 Alpha virt. eigenvalues --    1.21924   1.23956   1.26078   1.28257   1.32783
 Alpha virt. eigenvalues --    1.37935   1.39893   1.43079   1.45457   1.47088
 Alpha virt. eigenvalues --    1.51056   1.54752   1.54860   1.57877   1.58896
 Alpha virt. eigenvalues --    1.59804   1.61833   1.65792   1.67236   1.69153
 Alpha virt. eigenvalues --    1.70670   1.73506   1.79056   1.80570   1.83369
 Alpha virt. eigenvalues --    1.86941   1.91313   1.95970   1.99169   2.03605
 Alpha virt. eigenvalues --    2.04935   2.08070   2.08714   2.15663   2.17559
 Alpha virt. eigenvalues --    2.27373   2.34638   2.45160   2.45622   2.50040
 Alpha virt. eigenvalues --    2.54057   2.56432   2.57987   2.60196   2.64290
 Alpha virt. eigenvalues --    2.67123   2.70111   2.73884   2.80684   2.82942
 Alpha virt. eigenvalues --    2.84401   2.86709   2.91324   2.94372   2.97836
 Alpha virt. eigenvalues --    3.00680   3.05181   3.10347   3.11384   3.14646
 Alpha virt. eigenvalues --    3.17270   3.18550   3.21809   3.23438   3.36126
 Alpha virt. eigenvalues --    3.36830   3.53456   3.60230   3.67793   3.78634
 Alpha virt. eigenvalues --    3.81009   3.87192   3.92658   4.01240   4.05283
 Alpha virt. eigenvalues --    4.18835   4.28826   4.74522   4.84033   4.96117
 Alpha virt. eigenvalues --    5.03386   5.05349   5.16508   5.34630   5.39413
 Alpha virt. eigenvalues --    5.58456   5.65512   5.83310  23.78976  23.80163
 Alpha virt. eigenvalues --   23.84122  35.60256  49.84697  49.90803  49.99466
          Condensed to atoms (all electrons):
               1          2          3          4          5          6
     1  C    7.215957   0.489345  -0.758381  -0.110968  -0.340157  -0.026506
     2  H    0.489345   0.644524  -0.087678  -0.002526  -0.002081   0.002894
     3  C   -0.758381  -0.087678   5.923834   0.453096   0.313064   0.032143
     4  O   -0.110968  -0.002526   0.453096   8.065014  -0.127022  -0.001412
     5  O   -0.340157  -0.002081   0.313064  -0.127022   8.084239   0.246806
     6  H   -0.026506   0.002894   0.032143  -0.001412   0.246806   0.453302
     7  C   -0.262725  -0.118205   0.152213   0.022713   0.032818  -0.001899
     8  H   -0.094764  -0.035427   0.012704   0.003015  -0.001387  -0.000094
     9  H    0.032338   0.024351  -0.017490  -0.006764  -0.001005  -0.000114
    10  O   -0.137605  -0.005374   0.065691   0.001528  -0.001568  -0.000089
    11  H   -0.031594   0.003344  -0.005189   0.000283  -0.000073   0.000117
    12  N    0.189420  -0.122593  -0.080903  -0.005600  -0.007748   0.001366
    13  H   -0.044988   0.000883  -0.006533  -0.000579   0.008417  -0.001326
    14  H   -0.047482  -0.002038   0.001072  -0.000139  -0.001771  -0.000716
               7          8          9         10         11         12
     1  C   -0.262725  -0.094764   0.032338  -0.137605  -0.031594   0.189420
     2  H   -0.118205  -0.035427   0.024351  -0.005374   0.003344  -0.122593
     3  C    0.152213   0.012704  -0.017490   0.065691  -0.005189  -0.080903
     4  O    0.022713   0.003015  -0.006764   0.001528   0.000283  -0.005600
     5  O    0.032818  -0.001387  -0.001005  -0.001568  -0.000073  -0.007748
     6  H   -0.001899  -0.000094  -0.000114  -0.000089   0.000117   0.001366
     7  C    5.689088   0.421929   0.332077   0.201593   0.050666  -0.078246
     8  H    0.421929   0.653176  -0.088381  -0.058842  -0.002442   0.014449
     9  H    0.332077  -0.088381   0.614838  -0.056454  -0.012830  -0.017813
    10  O    0.201593  -0.058842  -0.056454   8.100354   0.208403  -0.020387
    11  H    0.050666  -0.002442  -0.012830   0.208403   0.527513   0.005060
    12  N   -0.078246   0.014449  -0.017813  -0.020387   0.005060   6.658416
    13  H    0.006219  -0.002268   0.001380   0.000952  -0.000419   0.390746
    14  H    0.001224   0.002976   0.000367   0.008979  -0.001586   0.388088
              13         14
     1  C   -0.044988  -0.047482
     2  H    0.000883  -0.002038
     3  C   -0.006533   0.001072
     4  O   -0.000579  -0.000139
     5  O    0.008417  -0.001771
     6  H   -0.001326  -0.000716
     7  C    0.006219   0.001224
     8  H   -0.002268   0.002976
     9  H    0.001380   0.000367
    10  O    0.000952   0.008979
    11  H   -0.000419  -0.001586
    12  N    0.390746   0.388088
    13  H    0.456550  -0.053675
    14  H   -0.053675   0.451452
 Mulliken charges:
               1
     1  C   -0.071889
     2  H    0.210583
     3  C    0.002358
     4  O   -0.290638
     5  O   -0.202532
     6  H    0.295528
     7  C   -0.449464
     8  H    0.175357
     9  H    0.195499
    10  O   -0.307181
    11  H    0.258746
    12  N   -0.314255
    13  H    0.244641
    14  H    0.253247
 Sum of Mulliken charges =   0.00000
 Mulliken charges with hydrogens summed into heavy atoms:
               1
     1  C    0.138694
     3  C    0.002358
     4  O   -0.290638
     5  O    0.092996
     7  C   -0.078608
    10  O   -0.048435
    12  N    0.183633
 Electronic spatial extent (au):  <R**2>=            834.2997
 Charge=              0.0000 electrons
 Dipole moment (field-independent basis, Debye):
    X=              0.3349    Y=              0.4595    Z=              0.5936  Tot=              0.8220
 Quadrupole moment (field-independent basis, Debye-Ang):
   XX=            -33.5364   YY=            -43.7393   ZZ=            -44.3038
   XY=             -5.4713   XZ=             -2.8598   YZ=              1.1590
 Traceless Quadrupole moment (field-independent basis, Debye-Ang):
   XX=              6.9901   YY=             -3.2128   ZZ=             -3.7773
   XY=             -5.4713   XZ=             -2.8598   YZ=              1.1590
 Octapole moment (field-independent basis, Debye-Ang**2):
  XXX=            -10.3682  YYY=             13.8029  ZZZ=              3.0571  XYY=             12.9915
  XXY=             -7.5407  XXZ=             -9.6315  XZZ=             -2.1512  YZZ=             -4.1533
  YYZ=              3.7554  XYZ=              3.3049
 Hexadecapole moment (field-independent basis, Debye-Ang**3):
 XXXX=           -468.5230 YYYY=           -263.8476 ZZZZ=            -78.2728 XXXY=            -43.5920
 XXXZ=            -23.7002 YYYX=            -11.3874 YYYZ=              0.4718 ZZZX=             -0.6698
 ZZZY=              6.9275 XXYY=           -157.5084 XXZZ=           -128.6018 YYZZ=            -65.0847
 XXYZ=             -0.2976 YYXZ=             -1.8320 ZZXY=             -0.9709
 N-N= 3.212760206988D+02 E-N=-1.579467129561D+03  KE= 3.976832412797D+02
 1\1\GINC-BREEZE\FOpt\RB3LYP\6-311++G(d,p)\C3H7N1O3\SKY\28-Mar-2016\0\\
 # opt b3lyp/6-311++g(d,p) geom=connectivity\\Ser-R-opt-6-311++g(d,p)\\
 0,1\C,0.2080742297,0.2752820595,0.2768576943\H,0.2964274234,0.41343011
 5,1.3695587021\C,-1.181283198,-0.2996470675,0.0493497109\O,-1.44086107
 46,-1.450952213,-0.1930964444\O,-2.1366453099,0.6490056158,0.196330069
 3\H,-2.9937015309,0.223352701,0.043149209\C,1.2775187461,-0.7258027855
 ,-0.1407292996\H,1.1135799328,-1.6799067634,0.3679745862\H,1.222669868
 2,-0.8824816415,-1.2233442361\O,2.533292561,-0.148618972,0.2321065587\
 H,3.243646389,-0.6846637324,-0.1310389282\N,0.373975067,1.5206676276,-
 0.4738994677\H,-0.2863279037,2.2244851448,-0.163403332\H,1.3143947999,
 1.8705139117,-0.3218788226\\Version=ES64L-G09RevD.01\State=1-A\HF=-399
 .092095\RMSD=9.455e-09\RMSF=4.581e-06\Dipole=0.1331025,0.1848185,0.229
 6105\Quadrupole=5.1527316,-2.3210304,-2.8317012,-4.1375452,-2.0623937,
 0.8715825\PG=C01 [X(C3H7N1O3)]\\@


 NOTHING RESEMBLES A NEW PHENOMENON AS MUCH AS A MISTAKE.

                               -- ENRICO FERMI (?)
 Job cpu time:       0 days  0 hours 23 minutes 28.0 seconds.
 File lengths (MBytes):  RWF=     27 Int=      0 D2E=      0 Chk=      4 Scr=      1
 Normal termination of Gaussian 09 at Mon Mar 28 03:32:32 2016.
