 Entering Link 1 = c:\G03W04\l1.exe PID=      3244.
  
 Copyright (c) 1988,1990,1992,1993,1995,1998,2003,2004,2007, Gaussian, Inc.
                  All Rights Reserved.
  
 This is the Gaussian(R) 03 program.  It is based on the
 the Gaussian(R) 98 system (copyright 1998, Gaussian, Inc.),
 the Gaussian(R) 94 system (copyright 1995, Gaussian, Inc.),
 the Gaussian 92(TM) system (copyright 1992, Gaussian, Inc.),
 the Gaussian 90(TM) system (copyright 1990, Gaussian, Inc.),
 the Gaussian 88(TM) system (copyright 1988, Gaussian, Inc.),
 the Gaussian 86(TM) system (copyright 1986, Carnegie Mellon
 University), and the Gaussian 82(TM) system (copyright 1983,
 Carnegie Mellon University). Gaussian is a federally registered
 trademark of Gaussian, Inc.
  
 This software contains proprietary and confidential information,
 including trade secrets, belonging to Gaussian, Inc.
  
 This software is provided under written license and may be
 used, copied, transmitted, or stored only in accord with that
 written license.
  
 The following legend is applicable only to US Government
 contracts under FAR:
  
                    RESTRICTED RIGHTS LEGEND
  
 Use, reproduction and disclosure by the US Government is
 subject to restrictions as set forth in subparagraphs (a)
 and (c) of the Commercial Computer Software - Restricted
 Rights clause in FAR 52.227-19.
  
 Gaussian, Inc.
 340 Quinnipiac St., Bldg. 40, Wallingford CT 06492
  
  
 ---------------------------------------------------------------
 Warning -- This program may not be used in any manner that
 competes with the business of Gaussian, Inc. or will provide
 assistance to any competitor of Gaussian, Inc.  The licensee
 of this program is prohibited from giving any competitor of
 Gaussian, Inc. access to this program.  By using this program,
 the user acknowledges that Gaussian, Inc. is engaged in the
 business of creating and licensing software in the field of
 computational chemistry and represents and warrants to the
 licensee that it is not a competitor of Gaussian, Inc. and that
 it will not use this program in any manner prohibited above.
 ---------------------------------------------------------------
  

 Cite this work as:
 Gaussian 03, Revision E.01,
 M. J. Frisch, G. W. Trucks, H. B. Schlegel, G. E. Scuseria, 
 M. A. Robb, J. R. Cheeseman, J. A. Montgomery, Jr., T. Vreven, 
 K. N. Kudin, J. C. Burant, J. M. Millam, S. S. Iyengar, J. Tomasi, 
 V. Barone, B. Mennucci, M. Cossi, G. Scalmani, N. Rega, 
 G. A. Petersson, H. Nakatsuji, M. Hada, M. Ehara, K. Toyota, 
 R. Fukuda, J. Hasegawa, M. Ishida, T. Nakajima, Y. Honda, O. Kitao, 
 H. Nakai, M. Klene, X. Li, J. E. Knox, H. P. Hratchian, J. B. Cross, 
 V. Bakken, C. Adamo, J. Jaramillo, R. Gomperts, R. E. Stratmann, 
 O. Yazyev, A. J. Austin, R. Cammi, C. Pomelli, J. W. Ochterski, 
 P. Y. Ayala, K. Morokuma, G. A. Voth, P. Salvador, J. J. Dannenberg, 
 V. G. Zakrzewski, S. Dapprich, A. D. Daniels, M. C. Strain, 
 O. Farkas, D. K. Malick, A. D. Rabuck, K. Raghavachari, 
 J. B. Foresman, J. V. Ortiz, Q. Cui, A. G. Baboul, S. Clifford, 
 J. Cioslowski, B. B. Stefanov, G. Liu, A. Liashenko, P. Piskorz, 
 I. Komaromi, R. L. Martin, D. J. Fox, T. Keith, M. A. Al-Laham, 
 C. Y. Peng, A. Nanayakkara, M. Challacombe, P. M. W. Gill, 
 B. Johnson, W. Chen, M. W. Wong, C. Gonzalez, and J. A. Pople, 
 Gaussian, Inc., Wallingford CT, 2004.
 
 ******************************************
 Gaussian 03:  IA32W-G03RevE.01 11-Sep-2007
                01-Apr-2016 
 ******************************************
 %chk=E:\YangJ\Amiano\phe\ts1\s\Phe-S-opt-freq-ts1-6-31g.chk
 -----------------------------------------------
 # opt=(calcfc,ts) freq rb3lyp/6-31g iop(1/11=1)
 -----------------------------------------------
 1/5=1,10=4,11=1,14=-1,18=20,26=3,38=1/1,3;
 2/9=110,17=6,18=5,40=1/2;
 3/5=1,6=6,11=2,16=1,25=1,30=1,74=-5/1,2,3;
 4/7=1/1;
 5/5=2,38=5/2;
 8/6=4,10=90,11=11/1;
 11/6=1,8=1,9=11,15=111,16=1/1,2,10;
 10/6=1,7=6/2;
 6/7=2,8=2,9=2,10=2,28=1/1;
 7/10=1,18=20,25=1/1,2,3,16;
 1/5=1,10=4,11=1,14=-1,18=20/3(3);
 2/9=110/2;
 6/7=2,8=2,9=2,10=2,19=2,28=1/1;
 99//99;
 2/9=110/2;
 3/5=1,6=6,11=2,16=1,25=1,30=1,74=-5/1,2,3;
 4/5=5,7=1,16=3/1;
 5/5=2,38=5/2;
 7//1,2,3,16;
 1/5=1,11=1,14=-1,18=20/3(-5);
 2/9=110/2;
 6/7=2,8=2,9=2,10=2,19=2,28=1/1;
 99/9=1/99;
 ------------------------
 Phe-S-opt-freq-ts1-6-31g
 ------------------------
 Symbolic Z-matrix:
 Charge =  0 Multiplicity = 1
 N                     0.00584   0.05877  -0.27592 
 H                     0.00584   0.05877   0.74003 
 C                     1.37761   0.05877  -0.78365 
 H                     1.34411  -0.05071  -1.86943 
 C                     2.199     1.33151  -0.42366 
 C                     2.05788  -1.17453  -0.20236 
 H                     1.62818   2.18934  -0.79479 
 H                     2.23248   1.41143   0.66664 
 C                     3.59889   1.36161  -0.99504 
 O                     2.13022  -1.40985   0.97914 
 C                     4.70255   0.99999  -0.21434 
 C                     3.81822   1.72845  -2.32838 
 H                     4.55297   0.71838   0.82302 
 C                     5.98913   1.00042  -0.75163 
 C                     5.10177   1.72942  -2.86897 
 H                     2.9767    2.02254  -2.94852 
 H                     6.83214   0.72137  -0.12911 
 C                     6.19272   1.36386  -2.08116 
 H                     5.2513    2.01999  -3.90299 
 H                     7.19297   1.36722  -2.49936 
 H                    -0.49654   0.88069  -0.59388 
 O                     2.58437  -1.97814  -1.1468 
 H                     2.72789  -2.71233   0.26756 
 

 GradGradGradGradGradGradGradGradGradGradGradGradGradGradGradGradGradGrad
 Berny optimization.
 Initialization pass.
                           ----------------------------
                           !    Initial Parameters    !
                           ! (Angstroms and Degrees)  !
 --------------------------                            --------------------------
 ! Name  Definition              Value          Derivative Info.                !
 --------------------------------------------------------------------------------
 ! R1    R(1,2)                  1.0159         calculate D2E/DX2 analytically  !
 ! R2    R(1,3)                  1.4627         calculate D2E/DX2 analytically  !
 ! R3    R(1,21)                 1.0144         calculate D2E/DX2 analytically  !
 ! R4    R(3,4)                  1.0918         calculate D2E/DX2 analytically  !
 ! R5    R(3,5)                  1.557          calculate D2E/DX2 analytically  !
 ! R6    R(3,6)                  1.5237         calculate D2E/DX2 analytically  !
 ! R7    R(5,7)                  1.0952         calculate D2E/DX2 analytically  !
 ! R8    R(5,8)                  1.0937         calculate D2E/DX2 analytically  !
 ! R9    R(5,9)                  1.5123         calculate D2E/DX2 analytically  !
 ! R10   R(6,10)                 1.2069         calculate D2E/DX2 analytically  !
 ! R11   R(6,22)                 1.3472         calculate D2E/DX2 analytically  !
 ! R12   R(6,23)                 1.742          calculate D2E/DX2 analytically  !
 ! R13   R(9,11)                 1.3994         calculate D2E/DX2 analytically  !
 ! R14   R(9,12)                 1.4002         calculate D2E/DX2 analytically  !
 ! R15   R(10,23)                1.6            calculate D2E/DX2 analytically  !
 ! R16   R(11,13)                1.0853         calculate D2E/DX2 analytically  !
 ! R17   R(11,14)                1.3943         calculate D2E/DX2 analytically  !
 ! R18   R(12,15)                1.3927         calculate D2E/DX2 analytically  !
 ! R19   R(12,16)                1.0859         calculate D2E/DX2 analytically  !
 ! R20   R(14,17)                1.0845         calculate D2E/DX2 analytically  !
 ! R21   R(14,18)                1.3933         calculate D2E/DX2 analytically  !
 ! R22   R(15,18)                1.3944         calculate D2E/DX2 analytically  !
 ! R23   R(15,19)                1.0844         calculate D2E/DX2 analytically  !
 ! R24   R(18,20)                1.0842         calculate D2E/DX2 analytically  !
 ! R25   R(22,23)                1.6            calculate D2E/DX2 analytically  !
 ! A1    A(2,1,3)              110.3112         calculate D2E/DX2 analytically  !
 ! A2    A(2,1,21)             108.2669         calculate D2E/DX2 analytically  !
 ! A3    A(3,1,21)             110.8329         calculate D2E/DX2 analytically  !
 ! A4    A(1,3,4)              108.4472         calculate D2E/DX2 analytically  !
 ! A5    A(1,3,5)              114.4873         calculate D2E/DX2 analytically  !
 ! A6    A(1,3,6)              106.6346         calculate D2E/DX2 analytically  !
 ! A7    A(4,3,5)              109.1532         calculate D2E/DX2 analytically  !
 ! A8    A(4,3,6)              108.176          calculate D2E/DX2 analytically  !
 ! A9    A(5,3,6)              109.7497         calculate D2E/DX2 analytically  !
 ! A10   A(3,5,7)              106.6767         calculate D2E/DX2 analytically  !
 ! A11   A(3,5,8)              107.8407         calculate D2E/DX2 analytically  !
 ! A12   A(3,5,9)              114.6613         calculate D2E/DX2 analytically  !
 ! A13   A(7,5,8)              107.2491         calculate D2E/DX2 analytically  !
 ! A14   A(7,5,9)              109.8061         calculate D2E/DX2 analytically  !
 ! A15   A(8,5,9)              110.2938         calculate D2E/DX2 analytically  !
 ! A16   A(3,6,10)             123.9218         calculate D2E/DX2 analytically  !
 ! A17   A(3,6,22)             112.9446         calculate D2E/DX2 analytically  !
 ! A18   A(3,6,23)             171.5535         calculate D2E/DX2 analytically  !
 ! A19   A(10,6,22)            123.1317         calculate D2E/DX2 analytically  !
 ! A20   A(5,9,11)             120.9385         calculate D2E/DX2 analytically  !
 ! A21   A(5,9,12)             120.664          calculate D2E/DX2 analytically  !
 ! A22   A(11,9,12)            118.3864         calculate D2E/DX2 analytically  !
 ! A23   A(9,11,13)            119.4463         calculate D2E/DX2 analytically  !
 ! A24   A(9,11,14)            120.8433         calculate D2E/DX2 analytically  !
 ! A25   A(13,11,14)           119.7102         calculate D2E/DX2 analytically  !
 ! A26   A(9,12,15)            120.9419         calculate D2E/DX2 analytically  !
 ! A27   A(9,12,16)            119.5628         calculate D2E/DX2 analytically  !
 ! A28   A(15,12,16)           119.4942         calculate D2E/DX2 analytically  !
 ! A29   A(11,14,17)           119.7378         calculate D2E/DX2 analytically  !
 ! A30   A(11,14,18)           120.1754         calculate D2E/DX2 analytically  !
 ! A31   A(17,14,18)           120.0862         calculate D2E/DX2 analytically  !
 ! A32   A(12,15,18)           120.1023         calculate D2E/DX2 analytically  !
 ! A33   A(12,15,19)           119.8259         calculate D2E/DX2 analytically  !
 ! A34   A(18,15,19)           120.0711         calculate D2E/DX2 analytically  !
 ! A35   A(14,18,15)           119.5502         calculate D2E/DX2 analytically  !
 ! A36   A(14,18,20)           120.2463         calculate D2E/DX2 analytically  !
 ! A37   A(15,18,20)           120.2028         calculate D2E/DX2 analytically  !
 ! A38   A(10,23,22)            89.203          calculate D2E/DX2 analytically  !
 ! D1    D(2,1,3,4)            173.9323         calculate D2E/DX2 analytically  !
 ! D2    D(2,1,3,5)            -63.9284         calculate D2E/DX2 analytically  !
 ! D3    D(2,1,3,6)             57.646          calculate D2E/DX2 analytically  !
 ! D4    D(21,1,3,4)           -66.1702         calculate D2E/DX2 analytically  !
 ! D5    D(21,1,3,5)            55.969          calculate D2E/DX2 analytically  !
 ! D6    D(21,1,3,6)           177.5434         calculate D2E/DX2 analytically  !
 ! D7    D(1,3,5,7)            -55.7916         calculate D2E/DX2 analytically  !
 ! D8    D(1,3,5,8)             59.1441         calculate D2E/DX2 analytically  !
 ! D9    D(1,3,5,9)           -177.5783         calculate D2E/DX2 analytically  !
 ! D10   D(4,3,5,7)             65.9622         calculate D2E/DX2 analytically  !
 ! D11   D(4,3,5,8)           -179.102          calculate D2E/DX2 analytically  !
 ! D12   D(4,3,5,9)            -55.8245         calculate D2E/DX2 analytically  !
 ! D13   D(6,3,5,7)           -175.6424         calculate D2E/DX2 analytically  !
 ! D14   D(6,3,5,8)            -60.7067         calculate D2E/DX2 analytically  !
 ! D15   D(6,3,5,9)             62.5708         calculate D2E/DX2 analytically  !
 ! D16   D(1,3,6,10)           -56.1076         calculate D2E/DX2 analytically  !
 ! D17   D(1,3,6,22)           124.3809         calculate D2E/DX2 analytically  !
 ! D18   D(1,3,6,23)            83.4333         calculate D2E/DX2 analytically  !
 ! D19   D(4,3,6,10)          -172.5749         calculate D2E/DX2 analytically  !
 ! D20   D(4,3,6,22)             7.9136         calculate D2E/DX2 analytically  !
 ! D21   D(4,3,6,23)           -33.034          calculate D2E/DX2 analytically  !
 ! D22   D(5,3,6,10)            68.4267         calculate D2E/DX2 analytically  !
 ! D23   D(5,3,6,22)          -111.0847         calculate D2E/DX2 analytically  !
 ! D24   D(5,3,6,23)          -152.0323         calculate D2E/DX2 analytically  !
 ! D25   D(3,5,9,11)           -98.8031         calculate D2E/DX2 analytically  !
 ! D26   D(3,5,9,12)            79.968          calculate D2E/DX2 analytically  !
 ! D27   D(7,5,9,11)           141.1321         calculate D2E/DX2 analytically  !
 ! D28   D(7,5,9,12)           -40.0969         calculate D2E/DX2 analytically  !
 ! D29   D(8,5,9,11)            23.1492         calculate D2E/DX2 analytically  !
 ! D30   D(8,5,9,12)          -158.0797         calculate D2E/DX2 analytically  !
 ! D31   D(5,9,11,13)           -1.5663         calculate D2E/DX2 analytically  !
 ! D32   D(5,9,11,14)          178.5893         calculate D2E/DX2 analytically  !
 ! D33   D(12,9,11,13)         179.6353         calculate D2E/DX2 analytically  !
 ! D34   D(12,9,11,14)          -0.2091         calculate D2E/DX2 analytically  !
 ! D35   D(5,9,12,15)         -178.5558         calculate D2E/DX2 analytically  !
 ! D36   D(5,9,12,16)            1.8355         calculate D2E/DX2 analytically  !
 ! D37   D(11,9,12,15)           0.2461         calculate D2E/DX2 analytically  !
 ! D38   D(11,9,12,16)        -179.3626         calculate D2E/DX2 analytically  !
 ! D39   D(9,11,14,17)         179.7207         calculate D2E/DX2 analytically  !
 ! D40   D(9,11,14,18)           0.0237         calculate D2E/DX2 analytically  !
 ! D41   D(13,11,14,17)         -0.1232         calculate D2E/DX2 analytically  !
 ! D42   D(13,11,14,18)       -179.8203         calculate D2E/DX2 analytically  !
 ! D43   D(9,12,15,18)          -0.0975         calculate D2E/DX2 analytically  !
 ! D44   D(9,12,15,19)        -179.7949         calculate D2E/DX2 analytically  !
 ! D45   D(16,12,15,18)        179.5115         calculate D2E/DX2 analytically  !
 ! D46   D(16,12,15,19)         -0.186          calculate D2E/DX2 analytically  !
 ! D47   D(11,14,18,15)          0.1294         calculate D2E/DX2 analytically  !
 ! D48   D(11,14,18,20)        179.8324         calculate D2E/DX2 analytically  !
 ! D49   D(17,14,18,15)       -179.5666         calculate D2E/DX2 analytically  !
 ! D50   D(17,14,18,20)          0.1365         calculate D2E/DX2 analytically  !
 ! D51   D(12,15,18,14)         -0.0929         calculate D2E/DX2 analytically  !
 ! D52   D(12,15,18,20)       -179.7961         calculate D2E/DX2 analytically  !
 ! D53   D(19,15,18,14)        179.6037         calculate D2E/DX2 analytically  !
 ! D54   D(19,15,18,20)         -0.0994         calculate D2E/DX2 analytically  !
 --------------------------------------------------------------------------------
 Trust Radius=3.00D-01 FncErr=1.00D-07 GrdErr=1.00D-06
 Number of steps in this run= 127 maximum allowed number of steps= 138.
 Search for a saddle point of order  1.
 GradGradGradGradGradGradGradGradGradGradGradGradGradGradGradGradGradGrad

                          Input orientation:                          
 ---------------------------------------------------------------------
 Center     Atomic     Atomic              Coordinates (Angstroms)
 Number     Number      Type              X           Y           Z
 ---------------------------------------------------------------------
    1          7             0        0.005845    0.058767   -0.275918
    2          1             0        0.005845    0.058767    0.740028
    3          6             0        1.377614    0.058767   -0.783655
    4          1             0        1.344115   -0.050709   -1.869428
    5          6             0        2.198996    1.331509   -0.423661
    6          6             0        2.057878   -1.174529   -0.202357
    7          1             0        1.628178    2.189339   -0.794786
    8          1             0        2.232482    1.411428    0.666636
    9          6             0        3.598893    1.361614   -0.995040
   10          8             0        2.130220   -1.409849    0.979143
   11          6             0        4.702551    0.999985   -0.214343
   12          6             0        3.818224    1.728449   -2.328381
   13          1             0        4.552968    0.718382    0.823021
   14          6             0        5.989126    1.000420   -0.751627
   15          6             0        5.101769    1.729420   -2.868970
   16          1             0        2.976701    2.022540   -2.948517
   17          1             0        6.832140    0.721371   -0.129109
   18          6             0        6.192719    1.363863   -2.081155
   19          1             0        5.251296    2.019986   -3.902992
   20          1             0        7.192966    1.367218   -2.499359
   21          1             0       -0.496538    0.880695   -0.593884
   22          8             0        2.584374   -1.978137   -1.146797
   23          1             0        2.727887   -2.712328    0.267564
 ---------------------------------------------------------------------
                    Distance matrix (angstroms):
                    1          2          3          4          5
     1  N    0.000000
     2  H    1.015946   0.000000
     3  C    1.462719   2.050210   0.000000
     4  H    2.083801   2.934657   1.091793   0.000000
     5  C    2.540002   2.789974   1.556964   2.175223   0.000000
     6  C    2.395260   2.572926   1.523708   2.133438   2.519745
     7  H    2.727733   3.086577   2.145284   2.500673   1.095189
     8  H    2.770562   2.606337   2.159592   3.059194   1.093735
     9  C    3.889029   4.197365   2.583830   2.800578   1.512315
    10  O    2.871407   2.593642   2.414685   3.252627   3.080200
    11  C    4.790484   4.884236   3.502173   3.888748   2.534070
    12  C    4.640547   5.170803   3.336255   3.081762   2.531288
    13  H    4.724308   4.595466   3.619306   4.258818   2.733372
    14  C    6.075580   6.237901   4.706781   4.891880   3.818674
    15  C    5.956798   6.464085   4.583553   4.276437   3.816276
    16  H    4.452547   5.127159   3.331683   2.850988   2.730796
    17  H    6.859949   6.913230   5.533474   5.808893   4.682420
    18  C    6.575681   6.923855   5.154806   5.055176   4.324137
    19  H    6.672091   7.274529   5.346219   4.867157   4.679346
    20  H    7.636128   7.991270   6.202742   6.051148   5.408285
    21  H    1.014424   1.645380   2.055243   2.425393   2.738267
    22  O    3.399444   3.789182   2.395228   2.403209   3.409574
    23  H    3.922225   3.913017   3.256879   3.683174   4.136439
                    6          7          8          9         10
     6  C    0.000000
     7  H    3.442561   0.000000
     8  H    2.733644   1.762408   0.000000
     9  C    3.071660   2.146846   2.151913   0.000000
    10  O    1.206876   4.043887   2.840374   3.706131   0.000000
    11  C    3.423880   3.347125   2.654552   1.399401   3.721370
    12  C    4.005756   2.713049   3.403704   1.400168   4.861891
    13  H    3.295450   3.651768   2.426813   2.151593   3.228537
    14  C    4.526236   4.520316   4.036430   2.429593   4.867866
    15  C    4.980865   4.071805   4.564475   2.430129   5.787321
    16  H    4.313569   2.546545   3.741209   2.154070   5.284348
    17  H    5.137449   5.447868   4.718712   3.407878   5.279997
    18  C    5.202906   4.813646   4.820383   2.812042   5.793341
    19  H    5.839310   4.776673   5.510451   3.408822   6.733507
    20  H    6.172992   5.877782   5.884886   3.896199   6.741178
    21  H    3.301860   2.503463   3.052562   4.143038   3.823723
    22  O    1.347201   4.290230   3.860248   3.493739   2.246959
    23  H    1.741999   5.134616   4.172534   4.353139   1.600000
                   11         12         13         14         15
    11  C    0.000000
    12  C    2.404548   0.000000
    13  H    1.085265   3.389900   0.000000
    14  C    1.394256   2.780108   2.149794   0.000000
    15  C    2.781814   1.392741   3.867063   2.408731   0.000000
    16  H    3.391147   1.085918   4.290681   3.865975   2.146663
    17  H    2.149428   3.864543   2.470058   1.084467   3.393697
    18  C    2.416194   2.415010   3.397010   1.393265   1.394437
    19  H    3.866219   2.148974   4.951468   3.393377   1.084430
    20  H    3.399754   3.398324   4.292877   2.153681   2.154276
    21  H    5.214288   4.726979   5.247044   6.488687   6.102245
    22  O    3.771651   4.081336   3.876437   4.540958   4.800952
    23  H    4.232351   5.258161   3.925458   5.045684   5.933151
                   16         17         18         19         20
    16  H    0.000000
    17  H    4.950405   0.000000
    18  C    3.395430   2.152240   0.000000
    19  H    2.466741   4.292744   2.153105   0.000000
    20  H    4.290464   2.483022   1.084159   2.483218   0.000000
    21  H    4.348735   7.345128   6.869613   6.729470   7.937003
    22  O    4.405171   5.134837   5.006211   5.540222   5.853200
    23  H    5.729228   5.365867   5.842677   6.793814   6.650977
                   21         22         23
    21  H    0.000000
    22  O    4.239180   0.000000
    23  H    4.903959   1.600015   0.000000
 Stoichiometry    C9H11NO2
 Framework group  C1[X(C9H11NO2)]
 Deg. of freedom    63
 Full point group                 C1
 Largest Abelian subgroup         C1      NOp   1
 Largest concise Abelian subgroup C1      NOp   1
                         Standard orientation:                         
 ---------------------------------------------------------------------
 Center     Atomic     Atomic              Coordinates (Angstroms)
 Number     Number      Type              X           Y           Z
 ---------------------------------------------------------------------
    1          7             0       -3.014388   -1.270082   -0.093174
    2          1             0       -3.369871   -0.846776   -0.945576
    3          6             0       -1.691853   -0.733441    0.226931
    4          1             0       -1.386473   -1.124495    1.199469
    5          6             0       -0.590795   -1.061058   -0.824010
    6          6             0       -1.852220    0.776722    0.350934
    7          1             0       -0.572370   -2.150893   -0.930580
    8          1             0       -0.910344   -0.646630   -1.784423
    9          6             0        0.790293   -0.557486   -0.468893
   10          8             0       -2.305373    1.479603   -0.519216
   11          6             0        1.284376    0.632759   -1.014347
   12          6             0        1.595958   -1.260195    0.435305
   13          1             0        0.676747    1.188201   -1.721505
   14          6             0        2.546331    1.110306   -0.663110
   15          6             0        2.856770   -0.786067    0.789261
   16          1             0        1.235736   -2.191448    0.862183
   17          1             0        2.913364    2.032426   -1.100203
   18          6             0        3.336086    0.403069    0.240932
   19          1             0        3.466995   -1.346666    1.488791
   20          1             0        4.318648    0.771938    0.512790
   21          1             0       -2.972722   -2.274332   -0.230293
   22          8             0       -1.424245    1.254804    1.535512
   23          1             0       -2.111727    2.456336    0.733179
 ---------------------------------------------------------------------
 Rotational constants (GHZ):      1.7416598      0.5885919      0.5297657
 Standard basis: 6-31G (6D, 7F)
 There are   130 symmetry adapted basis functions of A   symmetry.
 Integral buffers will be    262144 words long.
 Raffenetti 2 integral format.
 Two-electron integral symmetry is turned on.
   130 basis functions,   308 primitive gaussians,   130 cartesian basis functions
    44 alpha electrons       44 beta electrons
       nuclear repulsion energy       680.6604312511 Hartrees.
 NAtoms=   23 NActive=   23 NUniq=   23 SFac= 7.50D-01 NAtFMM=   80 NAOKFM=F Big=F
 One-electron integrals computed using PRISM.
 NBasis=   130 RedAO= T  NBF=   130
 NBsUse=   130 1.00D-06 NBFU=   130
 Harris functional with IExCor=  402 diagonalized for initial guess.
 ExpMin= 1.61D-01 ExpMax= 5.48D+03 ExpMxC= 8.25D+02 IAcc=1 IRadAn=         1 AccDes= 1.00D-06
 HarFok:  IExCor= 402 AccDes= 1.00D-06 IRadAn=         1 IDoV=1
 ScaDFX=  1.000000  1.000000  1.000000  1.000000
 Initial guess orbital symmetries:
       Occupied  (A) (A) (A) (A) (A) (A) (A) (A) (A) (A) (A) (A)
                 (A) (A) (A) (A) (A) (A) (A) (A) (A) (A) (A) (A)
                 (A) (A) (A) (A) (A) (A) (A) (A) (A) (A) (A) (A)
                 (A) (A) (A) (A) (A) (A) (A) (A)
       Virtual   (A) (A) (A) (A) (A) (A) (A) (A) (A) (A) (A) (A)
                 (A) (A) (A) (A) (A) (A) (A) (A) (A) (A) (A) (A)
                 (A) (A) (A) (A) (A) (A) (A) (A) (A) (A) (A) (A)
                 (A) (A) (A) (A) (A) (A) (A) (A) (A) (A) (A) (A)
                 (A) (A) (A) (A) (A) (A) (A) (A) (A) (A) (A) (A)
                 (A) (A) (A) (A) (A) (A) (A) (A) (A) (A) (A) (A)
                 (A) (A) (A) (A) (A) (A) (A) (A) (A) (A) (A) (A)
                 (A) (A)
 The electronic state of the initial guess is 1-A.
 Requested convergence on RMS density matrix=1.00D-08 within 128 cycles.
 Requested convergence on MAX density matrix=1.00D-06.
 Requested convergence on             energy=1.00D-06.
 No special actions if energy rises.
 Integral accuracy reduced to 1.0D-05 until final iterations.
 Initial convergence to 1.0D-05 achieved.  Increase integral accuracy.
 SCF Done:  E(RB+HF-LYP) =  -554.532446097     A.U. after   17 cycles
             Convg  =    0.5025D-08             -V/T =  2.0054
             S**2   =   0.0000
 Range of M.O.s used for correlation:     1   130
 NBasis=   130 NAE=    44 NBE=    44 NFC=     0 NFV=     0
 NROrb=    130 NOA=    44 NOB=    44 NVA=    86 NVB=    86

 **** Warning!!: The largest alpha MO coefficient is  0.12566112D+02

 Symmetrizing basis deriv contribution to polar:
 IMax=3 JMax=2 DiffMx= 0.00D+00
 G2DrvN: will do   24 centers at a time, making    1 passes doing MaxLOS=1.
 FoFDir/FoFCou used for L=0 through L=1.
 DoAtom=TTTTTTTTTTTTTTTTTTTTTTT
          Differentiating once with respect to electric field.
                with respect to dipole field.
          Differentiating once with respect to nuclear coordinates.
 Integrals replicated using symmetry in FoFDir.
 MinBra= 0 MaxBra= 1 Meth= 1.
 IRaf=       0 NMat=  72 IRICut=      72 DoRegI=T DoRafI=T ISym2E= 2 JSym2E=2.
          There are  72 degrees of freedom in the 1st order CPHF.
    69 vectors were produced by pass  0.
 AX will form  69 AO Fock derivatives at one time.
    69 vectors were produced by pass  1.
    69 vectors were produced by pass  2.
    69 vectors were produced by pass  3.
    24 vectors were produced by pass  4.
     3 vectors were produced by pass  5.
 Inv2:  IOpt= 1 Iter= 1 AM= 2.88D-15 Conv= 1.00D-12.
 Inverted reduced A of dimension  303 with in-core refinement.
 Isotropic polarizability for W=    0.000000      100.69 Bohr**3.
 End of Minotr Frequency-dependent properties file   721 does not exist.

 **********************************************************************

            Population analysis using the SCF density.

 **********************************************************************

 Orbital symmetries:
       Occupied  (A) (A) (A) (A) (A) (A) (A) (A) (A) (A) (A) (A)
                 (A) (A) (A) (A) (A) (A) (A) (A) (A) (A) (A) (A)
                 (A) (A) (A) (A) (A) (A) (A) (A) (A) (A) (A) (A)
                 (A) (A) (A) (A) (A) (A) (A) (A)
       Virtual   (A) (A) (A) (A) (A) (A) (A) (A) (A) (A) (A) (A)
                 (A) (A) (A) (A) (A) (A) (A) (A) (A) (A) (A) (A)
                 (A) (A) (A) (A) (A) (A) (A) (A) (A) (A) (A) (A)
                 (A) (A) (A) (A) (A) (A) (A) (A) (A) (A) (A) (A)
                 (A) (A) (A) (A) (A) (A) (A) (A) (A) (A) (A) (A)
                 (A) (A) (A) (A) (A) (A) (A) (A) (A) (A) (A) (A)
                 (A) (A) (A) (A) (A) (A) (A) (A) (A) (A) (A) (A)
                 (A) (A)
 The electronic state is 1-A.
 Alpha  occ. eigenvalues --  -19.20005 -19.18529 -14.32647 -10.33775 -10.24297
 Alpha  occ. eigenvalues --  -10.19861 -10.19812 -10.18788 -10.18737 -10.18728
 Alpha  occ. eigenvalues --  -10.18651 -10.18620  -1.15019  -1.01218  -0.91603
 Alpha  occ. eigenvalues --   -0.86373  -0.79087  -0.74994  -0.73052  -0.67097
 Alpha  occ. eigenvalues --   -0.61180  -0.59230  -0.55992  -0.52196  -0.51786
 Alpha  occ. eigenvalues --   -0.49840  -0.47748  -0.46989  -0.46594  -0.45747
 Alpha  occ. eigenvalues --   -0.43480  -0.42510  -0.41971  -0.41143  -0.38124
 Alpha  occ. eigenvalues --   -0.36421  -0.35322  -0.34376  -0.34027  -0.31454
 Alpha  occ. eigenvalues --   -0.30866  -0.25759  -0.25295  -0.23429
 Alpha virt. eigenvalues --   -0.07152  -0.01295  -0.00264   0.00183   0.07310
 Alpha virt. eigenvalues --    0.09197   0.11277   0.12734   0.14326   0.14652
 Alpha virt. eigenvalues --    0.16444   0.16752   0.18193   0.18891   0.19520
 Alpha virt. eigenvalues --    0.20319   0.22526   0.24180   0.25367   0.30461
 Alpha virt. eigenvalues --    0.30856   0.32436   0.33706   0.35010   0.37451
 Alpha virt. eigenvalues --    0.47253   0.50040   0.53179   0.54322   0.55908
 Alpha virt. eigenvalues --    0.56370   0.57785   0.58450   0.59609   0.60508
 Alpha virt. eigenvalues --    0.61838   0.61904   0.62519   0.64382   0.64858
 Alpha virt. eigenvalues --    0.65450   0.66387   0.66861   0.69275   0.72208
 Alpha virt. eigenvalues --    0.74222   0.76078   0.77900   0.79082   0.81485
 Alpha virt. eigenvalues --    0.82969   0.84100   0.85678   0.86025   0.86999
 Alpha virt. eigenvalues --    0.89480   0.89658   0.92013   0.93353   0.94222
 Alpha virt. eigenvalues --    0.95360   0.96664   0.98328   0.99632   1.01647
 Alpha virt. eigenvalues --    1.02382   1.04114   1.05077   1.06131   1.10279
 Alpha virt. eigenvalues --    1.12132   1.14770   1.16898   1.17811   1.21043
 Alpha virt. eigenvalues --    1.23620   1.33444   1.39079   1.44157   1.49694
 Alpha virt. eigenvalues --    1.53090   1.56411   1.62624   1.87465   1.91836
 Alpha virt. eigenvalues --    2.01713
          Condensed to atoms (all electrons):
              1          2          3          4          5          6
     1  N    6.907444   0.316059   0.266881  -0.043913  -0.074824  -0.052193
     2  H    0.316059   0.468122  -0.044945   0.006177  -0.001735  -0.010547
     3  C    0.266881  -0.044945   5.376899   0.378103   0.251200   0.160889
     4  H   -0.043913   0.006177   0.378103   0.559613  -0.055631  -0.034163
     5  C   -0.074824  -0.001735   0.251200  -0.055631   5.429281  -0.054254
     6  C   -0.052193  -0.010547   0.160889  -0.034163  -0.054254   4.858760
     7  H   -0.001434  -0.000628  -0.042863  -0.003797   0.361338   0.006633
     8  H    0.001450   0.005459  -0.037604   0.005616   0.351115  -0.009926
     9  C    0.008222   0.000140  -0.039801  -0.000033   0.227467   0.003588
    10  O   -0.000876   0.008557  -0.105020   0.003032   0.003023   0.321931
    11  C   -0.000029  -0.000010  -0.007012   0.000111  -0.039106   0.006023
    12  C    0.000061   0.000009  -0.001685   0.004280  -0.053187  -0.001177
    13  H   -0.000003   0.000002  -0.000218   0.000006  -0.007809   0.000391
    14  C    0.000000   0.000000  -0.000064   0.000014   0.006712  -0.000109
    15  C    0.000000   0.000000   0.000119  -0.000118   0.006264  -0.000015
    16  H   -0.000014   0.000001  -0.000030   0.001251  -0.007166   0.000103
    17  H    0.000000   0.000000   0.000000   0.000000  -0.000182   0.000001
    18  C    0.000000   0.000000   0.000014  -0.000002   0.000330  -0.000002
    19  H    0.000000   0.000000  -0.000001   0.000001  -0.000179   0.000000
    20  H    0.000000   0.000000   0.000000   0.000000   0.000003   0.000000
    21  H    0.323567  -0.035711  -0.046927  -0.003981  -0.001965   0.008284
    22  O    0.001425   0.000205  -0.082043   0.000091  -0.000607   0.266738
    23  H   -0.001094  -0.000061   0.021863  -0.000239  -0.001065   0.013534
              7          8          9         10         11         12
     1  N   -0.001434   0.001450   0.008222  -0.000876  -0.000029   0.000061
     2  H   -0.000628   0.005459   0.000140   0.008557  -0.000010   0.000009
     3  C   -0.042863  -0.037604  -0.039801  -0.105020  -0.007012  -0.001685
     4  H   -0.003797   0.005616  -0.000033   0.003032   0.000111   0.004280
     5  C    0.361338   0.351115   0.227467   0.003023  -0.039106  -0.053187
     6  C    0.006633  -0.009926   0.003588   0.321931   0.006023  -0.001177
     7  H    0.599622  -0.033928  -0.031781   0.000018   0.003252  -0.005129
     8  H   -0.033928   0.593772  -0.030230   0.003521  -0.003908   0.004174
     9  C   -0.031781  -0.030230   4.870499  -0.002407   0.533452   0.530371
    10  O    0.000018   0.003521  -0.002407   8.289612   0.000280  -0.000021
    11  C    0.003252  -0.003908   0.533452   0.000280   4.973602  -0.058033
    12  C   -0.005129   0.004174   0.530371  -0.000021  -0.058033   4.975054
    13  H    0.000144   0.004690  -0.040774   0.001456   0.351865   0.005183
    14  C   -0.000241   0.000335  -0.040288   0.000026   0.513805  -0.041903
    15  C    0.000202  -0.000225  -0.036126   0.000000  -0.041847   0.519693
    16  H    0.003566   0.000109  -0.044207   0.000000   0.005176   0.352244
    17  H    0.000003  -0.000005   0.004098  -0.000001  -0.032010   0.000836
    18  C    0.000017   0.000008  -0.032616   0.000000  -0.054379  -0.054129
    19  H   -0.000004   0.000002   0.004033   0.000000   0.000820  -0.032649
    20  H    0.000000   0.000000   0.000546   0.000000   0.004898   0.004931
    21  H    0.005690  -0.000571   0.000173   0.000037   0.000004  -0.000009
    22  O   -0.000121   0.000120   0.002677  -0.141100  -0.000734   0.000003
    23  H    0.000018   0.000004   0.000135   0.041159   0.000099   0.000014
             13         14         15         16         17         18
     1  N   -0.000003   0.000000   0.000000  -0.000014   0.000000   0.000000
     2  H    0.000002   0.000000   0.000000   0.000001   0.000000   0.000000
     3  C   -0.000218  -0.000064   0.000119  -0.000030   0.000000   0.000014
     4  H    0.000006   0.000014  -0.000118   0.001251   0.000000  -0.000002
     5  C   -0.007809   0.006712   0.006264  -0.007166  -0.000182   0.000330
     6  C    0.000391  -0.000109  -0.000015   0.000103   0.000001  -0.000002
     7  H    0.000144  -0.000241   0.000202   0.003566   0.000003   0.000017
     8  H    0.004690   0.000335  -0.000225   0.000109  -0.000005   0.000008
     9  C   -0.040774  -0.040288  -0.036126  -0.044207   0.004098  -0.032616
    10  O    0.001456   0.000026   0.000000   0.000000  -0.000001   0.000000
    11  C    0.351865   0.513805  -0.041847   0.005176  -0.032010  -0.054379
    12  C    0.005183  -0.041903   0.519693   0.352244   0.000836  -0.054129
    13  H    0.587162  -0.034001   0.000436  -0.000186  -0.004418   0.004582
    14  C   -0.034001   4.900403  -0.045388   0.000430   0.351335   0.543244
    15  C    0.000436  -0.045388   4.893802  -0.034591   0.004473   0.540530
    16  H   -0.000186   0.000430  -0.034591   0.603394   0.000014   0.004752
    17  H   -0.004418   0.351335   0.004473   0.000014   0.589587  -0.036017
    18  C    0.004582   0.543244   0.540530   0.004752  -0.036017   4.884908
    19  H    0.000013   0.004488   0.351652  -0.004607  -0.000188  -0.035735
    20  H   -0.000173  -0.035998  -0.035941  -0.000180  -0.004586   0.354097
    21  H    0.000000   0.000000   0.000000   0.000008   0.000000   0.000000
    22  O   -0.000119  -0.000073  -0.000009  -0.000005   0.000000   0.000003
    23  H    0.000026  -0.000014   0.000000   0.000000   0.000000  -0.000001
             19         20         21         22         23
     1  N    0.000000   0.000000   0.323567   0.001425  -0.001094
     2  H    0.000000   0.000000  -0.035711   0.000205  -0.000061
     3  C   -0.000001   0.000000  -0.046927  -0.082043   0.021863
     4  H    0.000001   0.000000  -0.003981   0.000091  -0.000239
     5  C   -0.000179   0.000003  -0.001965  -0.000607  -0.001065
     6  C    0.000000   0.000000   0.008284   0.266738   0.013534
     7  H   -0.000004   0.000000   0.005690  -0.000121   0.000018
     8  H    0.000002   0.000000  -0.000571   0.000120   0.000004
     9  C    0.004033   0.000546   0.000173   0.002677   0.000135
    10  O    0.000000   0.000000   0.000037  -0.141100   0.041159
    11  C    0.000820   0.004898   0.000004  -0.000734   0.000099
    12  C   -0.032649   0.004931  -0.000009   0.000003   0.000014
    13  H    0.000013  -0.000173   0.000000  -0.000119   0.000026
    14  C    0.004488  -0.035998   0.000000  -0.000073  -0.000014
    15  C    0.351652  -0.035941   0.000000  -0.000009   0.000000
    16  H   -0.004607  -0.000180   0.000008  -0.000005   0.000000
    17  H   -0.000188  -0.004586   0.000000   0.000000   0.000000
    18  C   -0.035735   0.354097   0.000000   0.000003  -0.000001
    19  H    0.589978  -0.004534   0.000000   0.000000   0.000000
    20  H   -0.004534   0.590139   0.000000   0.000000   0.000000
    21  H    0.000000   0.000000   0.468939  -0.000141   0.000037
    22  O    0.000000   0.000000  -0.000141   8.334611   0.090180
    23  H    0.000000   0.000000   0.000037   0.090180   0.534411
 Mulliken atomic charges:
              1
     1  N   -0.650728
     2  H    0.288905
     3  C   -0.047754
     4  H    0.183581
     5  C   -0.339025
     6  C    0.515510
     7  H    0.139424
     8  H    0.146020
     9  C    0.112861
    10  O   -0.423227
    11  C   -0.156319
    12  C   -0.148932
    13  H    0.131745
    14  C   -0.122714
    15  C   -0.122911
    16  H    0.119940
    17  H    0.127061
    18  C   -0.119604
    19  H    0.126909
    20  H    0.126799
    21  H    0.282567
    22  O   -0.471103
    23  H    0.300993
 Sum of Mulliken charges=   0.00000
 Atomic charges with hydrogens summed into heavy atoms:
              1
     1  N   -0.079256
     2  H    0.000000
     3  C    0.135827
     4  H    0.000000
     5  C   -0.053580
     6  C    0.515510
     7  H    0.000000
     8  H    0.000000
     9  C    0.112861
    10  O   -0.122234
    11  C   -0.024574
    12  C   -0.028992
    13  H    0.000000
    14  C    0.004347
    15  C    0.003998
    16  H    0.000000
    17  H    0.000000
    18  C    0.007195
    19  H    0.000000
    20  H    0.000000
    21  H    0.000000
    22  O   -0.471103
    23  H    0.000000
 Sum of Mulliken charges=   0.00000
 APT atomic charges:
              1
     1  N   -0.550386
     2  H    0.170814
     3  C    0.404403
     4  H    0.003658
     5  C    0.017326
     6  C    0.599921
     7  H   -0.043366
     8  H   -0.018329
     9  C    0.053320
    10  O   -0.539072
    11  C   -0.073272
    12  C   -0.055541
    13  H    0.031228
    14  C    0.005333
    15  C   -0.000919
    16  H    0.019507
    17  H    0.017061
    18  C   -0.036139
    19  H    0.016798
    20  H    0.020093
    21  H    0.166023
    22  O   -0.475875
    23  H    0.267414
 Sum of APT charges=   0.00000
 APT Atomic charges with hydrogens summed into heavy atoms:
              1
     1  N   -0.213549
     2  H    0.000000
     3  C    0.408061
     4  H    0.000000
     5  C   -0.044369
     6  C    0.599921
     7  H    0.000000
     8  H    0.000000
     9  C    0.053320
    10  O   -0.271657
    11  C   -0.042044
    12  C   -0.036033
    13  H    0.000000
    14  C    0.022394
    15  C    0.015879
    16  H    0.000000
    17  H    0.000000
    18  C   -0.016046
    19  H    0.000000
    20  H    0.000000
    21  H    0.000000
    22  O   -0.475875
    23  H    0.000000
 Sum of APT charges=   0.00000
 Electronic spatial extent (au):  <R**2>=  2235.1873
 Charge=     0.0000 electrons
 Dipole moment (field-independent basis, Debye):
    X=     0.8008    Y=    -1.5730    Z=    -1.6817  Tot=     2.4380
 Quadrupole moment (field-independent basis, Debye-Ang):
   XX=   -71.2103   YY=   -63.0835   ZZ=   -74.5120
   XY=     3.5018   XZ=     5.5925   YZ=    -0.9103
 Traceless Quadrupole moment (field-independent basis, Debye-Ang):
   XX=    -1.6084   YY=     6.5185   ZZ=    -4.9101
   XY=     3.5018   XZ=     5.5925   YZ=    -0.9103
 Octapole moment (field-independent basis, Debye-Ang**2):
  XXX=    15.1608  YYY=     5.0839  ZZZ=    -6.1901  XYY=   -16.9635
  XXY=     6.8674  XXZ=    -1.5894  XZZ=    -4.1433  YZZ=    -4.4880
  YYZ=     2.8504  XYZ=   -16.4063
 Hexadecapole moment (field-independent basis, Debye-Ang**3):
 XXXX= -2041.1472 YYYY=  -505.7982 ZZZZ=  -337.6512 XXXY=    13.4222
 XXXZ=    86.4995 YYYX=     2.5023 YYYZ=     9.4411 ZZZX=    19.4669
 ZZZY=   -11.0884 XXYY=  -392.9807 XXZZ=  -396.5177 YYZZ=  -150.6058
 XXYZ=    21.3725 YYXZ=    -5.2256 ZZXY=     6.0211
 N-N= 6.806604312511D+02 E-N=-2.654109643581D+03  KE= 5.515356211976D+02
  Exact polarizability: 118.753   9.808 105.618  19.155 -13.391  77.690
 Approx polarizability: 165.816  14.509 167.715  46.134 -36.804 142.604
 ***** Axes restored to original set *****
 -------------------------------------------------------------------
 Center     Atomic                   Forces (Hartrees/Bohr)
 Number     Number              X              Y              Z
 -------------------------------------------------------------------
    1          7           0.001513603    0.008274402    0.005957592
    2          1          -0.002569720   -0.004139620    0.004684663
    3          6           0.004107625    0.000624868    0.002138619
    4          1           0.001085117   -0.001079920    0.000697732
    5          6           0.000420073    0.001490586   -0.000200251
    6          6          -0.007219860    0.036139268   -0.144277604
    7          1          -0.001403888    0.001886582   -0.000637324
    8          1           0.000016241    0.000388626    0.002557408
    9          6          -0.002866108   -0.000142898    0.001285550
   10          8           0.013590644   -0.047140713    0.080911121
   11          6          -0.000107979   -0.001459112    0.004570372
   12          6          -0.003771484    0.001519586   -0.003247526
   13          1          -0.000191751   -0.000294439    0.001029671
   14          6           0.003372192   -0.001184757    0.003134252
   15          6           0.000449878    0.001301645   -0.004367075
   16          1          -0.000865442    0.000159160   -0.000442643
   17          1           0.000609140   -0.000344161    0.000481135
   18          6           0.004198587    0.000092834   -0.001751786
   19          1           0.000047416    0.000146881   -0.000846243
   20          1           0.000800759   -0.000047117   -0.000332728
   21          1          -0.005975900   -0.000100387   -0.005084352
   22          8          -0.007591209   -0.017386070    0.081186876
   23          1           0.002352067    0.021294757   -0.027447458
 -------------------------------------------------------------------
 Cartesian Forces:  Max     0.144277604 RMS     0.023978618

 GradGradGradGradGradGradGradGradGradGradGradGradGradGradGradGradGradGrad
 Berny optimization.
 Internal  Forces:  Max     0.086962598 RMS     0.011223364
 Search for a saddle point.
 Step number   1 out of a maximum of 127
 All quantities printed in internal units (Hartrees-Bohrs-Radians)
 Swaping is turned off.
 Second derivative matrix not updated -- analytic derivatives used.
     Eigenvalues ---   -0.07726   0.00029   0.00172   0.00225   0.00330
     Eigenvalues ---    0.00482   0.01678   0.01782   0.01852   0.02057
     Eigenvalues ---    0.02192   0.02484   0.02638   0.02820   0.02941
     Eigenvalues ---    0.03029   0.03104   0.04121   0.04622   0.04720
     Eigenvalues ---    0.04939   0.05224   0.08236   0.08449   0.11503
     Eigenvalues ---    0.11980   0.12192   0.12653   0.13071   0.13517
     Eigenvalues ---    0.14214   0.14888   0.15797   0.16484   0.18420
     Eigenvalues ---    0.18795   0.19024   0.20297   0.20673   0.20703
     Eigenvalues ---    0.21043   0.26067   0.29246   0.31659   0.31963
     Eigenvalues ---    0.33815   0.34271   0.34477   0.35490   0.36047
     Eigenvalues ---    0.36385   0.36495   0.36548   0.36739   0.38044
     Eigenvalues ---    0.42954   0.43248   0.45404   0.46091   0.49492
     Eigenvalues ---    0.49723   0.53072   0.817051000.000001000.00000
     Eigenvalues --- 1000.000001000.000001000.000001000.000001000.00000
     Eigenvalues --- 1000.000001000.000001000.000001000.000001000.00000
     Eigenvalues --- 1000.000001000.000001000.000001000.000001000.00000
     Eigenvalues --- 1000.000001000.000001000.000001000.000001000.00000
     Eigenvalues --- 1000.000001000.000001000.000001000.000001000.00000
     Eigenvalues --- 1000.000001000.000001000.000001000.000001000.00000
     Eigenvalues --- 1000.000001000.000001000.000001000.000001000.00000
     Eigenvalues --- 1000.000001000.000001000.000001000.000001000.00000
     Eigenvalues --- 1000.000001000.000001000.000001000.000001000.00000
     Eigenvalues --- 1000.000001000.000001000.000001000.000001000.00000
     Eigenvalues --- 1000.000001000.00000
 Eigenvectors required to have negative eigenvalues:
                          R1        R2        R3        R4        R5
         1              0.00040   0.00536   0.00080  -0.00482   0.00523
                          R6        R7        R8        R9        R10
         1             -0.00046   0.00010   0.00047  -0.00027   0.06100
                          R11       R12       R13       R14       R15
         1             -0.10349  -0.00653  -0.00043  -0.00049  -0.64009
                          R16       R17       R18       R19       R20
         1              0.00032  -0.00023  -0.00023  -0.00010   0.00005
                          R21       R22       R23       R24       R25
         1             -0.00015  -0.00006  -0.00006  -0.00002   0.66209
                          A1        A2        A3        A4        A5
         1              0.00566  -0.00458   0.00148   0.00087  -0.01069
                          A6        A7        A8        A9        A10
         1              0.02296   0.00606  -0.01720  -0.00258  -0.00549
                          A11       A12       A13       A14       A15
         1              0.00106   0.00721  -0.00037  -0.00085  -0.00204
                          A16       A17       A18       A19       A20
         1              0.03510  -0.04235   0.32303   0.00651   0.00000
                          A21       A22       A23       A24       A25
         1             -0.00002   0.00005   0.00025   0.00029  -0.00053
                          A26       A27       A28       A29       A30
         1             -0.00015   0.00021  -0.00005   0.00025  -0.00029
                          A31       A32       A33       A34       A35
         1              0.00003   0.00015  -0.00009  -0.00006  -0.00005
                          A36       A37       A38       D1        D2
         1             -0.00002   0.00006  -0.02214  -0.00027   0.00094
                          D3        D4        D5        D6        D7
         1              0.00742  -0.00135  -0.00014   0.00634   0.00687
                          D8        D9        D10       D11       D12
         1              0.00423   0.00735   0.00517   0.00253   0.00564
                          D13       D14       D15       D16       D17
         1             -0.01364  -0.01628  -0.01316  -0.01540   0.07911
                          D18       D19       D20       D21       D22
         1             -0.05147  -0.01969   0.07482  -0.05576  -0.01534
                          D23       D24       D25       D26       D27
         1              0.07917  -0.05141  -0.00426  -0.00319  -0.00144
                          D28       D29       D30       D31       D32
         1             -0.00036   0.00077   0.00184   0.00014   0.00061
                          D33       D34       D35       D36       D37
         1             -0.00091  -0.00044  -0.00047  -0.00110   0.00058
                          D38       D39       D40       D41       D42
         1             -0.00005   0.00003   0.00005   0.00050   0.00052
                          D43       D44       D45       D46       D47
         1             -0.00034  -0.00047   0.00030   0.00016   0.00020
                          D48       D49       D50       D51       D52
         1              0.00015   0.00023   0.00017  -0.00006  -0.00001
                          D53       D54
         1              0.00008   0.00013
 RFO step:  Lambda0=8.970866424D-04 Lambda=-4.88887366D-02.
 Linear search not attempted -- option 19 set.
 Maximum step size (   0.300) exceeded in Quadratic search.
    -- Step size scaled by   0.499
 Iteration  1 RMS(Cart)=  0.02592148 RMS(Int)=  0.00180176
 Iteration  2 RMS(Cart)=  0.00110846 RMS(Int)=  0.00009711
 Iteration  3 RMS(Cart)=  0.00000309 RMS(Int)=  0.00009517
 Iteration  4 RMS(Cart)=  0.00000000 RMS(Int)=  0.00009517
 Variable       Old X    -DE/DX   Delta X   Delta X   Delta X     New X
                                 (Linear)    (Quad)   (Total)
    R1        1.91986   0.00469   0.00000   0.00216   0.00216   1.92202
    R2        2.76414   0.00853   0.00000   0.00712   0.00712   2.77126
    R3        1.91698   0.00447   0.00000   0.00224   0.00224   1.91923
    R4        2.06319  -0.00062   0.00000   0.00042   0.00042   2.06361
    R5        2.94224   0.00352   0.00000   0.00648   0.00648   2.94871
    R6        2.87939   0.00257   0.00000  -0.02206  -0.02206   2.85733
    R7        2.06961   0.00243   0.00000   0.00243   0.00243   2.07204
    R8        2.06686   0.00258   0.00000   0.00252   0.00252   2.06938
    R9        2.85786   0.00174   0.00000   0.00224   0.00224   2.86010
   R10        2.28067   0.08696   0.00000   0.06679   0.06663   2.34730
   R11        2.54584  -0.04151   0.00000  -0.05524  -0.05544   2.49040
   R12        3.29190   0.01808   0.00000  -0.05064  -0.05091   3.24100
   R13        2.64448   0.00580   0.00000   0.00508   0.00508   2.64956
   R14        2.64593   0.00562   0.00000   0.00486   0.00486   2.65080
   R15        3.02356  -0.01076   0.00000  -0.17512  -0.17487   2.84869
   R16        2.05085   0.00109   0.00000   0.00116   0.00116   2.05201
   R17        2.63476   0.00494   0.00000   0.00421   0.00421   2.63897
   R18        2.63190   0.00523   0.00000   0.00459   0.00459   2.63649
   R19        2.05209   0.00097   0.00000   0.00106   0.00106   2.05315
   R20        2.04934   0.00084   0.00000   0.00090   0.00090   2.05025
   R21        2.63289   0.00582   0.00000   0.00502   0.00502   2.63791
   R22        2.63510   0.00586   0.00000   0.00493   0.00493   2.64004
   R23        2.04928   0.00085   0.00000   0.00094   0.00094   2.05022
   R24        2.04876   0.00087   0.00000   0.00097   0.00097   2.04973
   R25        3.02359  -0.04150   0.00000  -0.13492  -0.13456   2.88903
    A1        1.92529   0.00490   0.00000   0.01445   0.01425   1.93954
    A2        1.88961  -0.00006   0.00000   0.01313   0.01275   1.90236
    A3        1.93440   0.00458   0.00000   0.01300   0.01280   1.94720
    A4        1.89276   0.00086   0.00000   0.00189   0.00190   1.89466
    A5        1.99818  -0.00177   0.00000  -0.00324  -0.00325   1.99493
    A6        1.86112   0.00050   0.00000   0.00442   0.00442   1.86555
    A7        1.90508   0.00045   0.00000   0.00183   0.00184   1.90692
    A8        1.88803  -0.00180   0.00000  -0.00821  -0.00821   1.87982
    A9        1.91549   0.00170   0.00000   0.00287   0.00287   1.91836
   A10        1.86186   0.00012   0.00000  -0.00131  -0.00131   1.86055
   A11        1.88218   0.00022   0.00000  -0.00092  -0.00092   1.88126
   A12        2.00122  -0.00056   0.00000  -0.00095  -0.00095   2.00027
   A13        1.87185  -0.00018   0.00000   0.00033   0.00032   1.87217
   A14        1.91648   0.00038   0.00000   0.00251   0.00251   1.91898
   A15        1.92499   0.00004   0.00000   0.00033   0.00033   1.92532
   A16        2.16284   0.00716   0.00000   0.00594   0.00600   2.16884
   A17        1.97125   0.02883   0.00000   0.09247   0.09280   2.06406
   A18        2.99417   0.01705   0.00000   0.07901   0.07882   3.07299
   A19        2.14905  -0.03592   0.00000  -0.09832  -0.09877   2.05028
   A20        2.11078  -0.00042   0.00000  -0.00141  -0.00141   2.10937
   A21        2.10598  -0.00026   0.00000  -0.00004  -0.00004   2.10594
   A22        2.06623   0.00068   0.00000   0.00144   0.00144   2.06767
   A23        2.08473   0.00009   0.00000  -0.00016  -0.00016   2.08457
   A24        2.10911  -0.00027   0.00000  -0.00073  -0.00073   2.10839
   A25        2.08934   0.00017   0.00000   0.00089   0.00089   2.09023
   A26        2.11083  -0.00050   0.00000  -0.00107  -0.00107   2.10976
   A27        2.08676   0.00008   0.00000   0.00003   0.00003   2.08679
   A28        2.08557   0.00043   0.00000   0.00105   0.00105   2.08662
   A29        2.08982   0.00005   0.00000   0.00018   0.00018   2.09000
   A30        2.09746  -0.00018   0.00000  -0.00030  -0.00030   2.09716
   A31        2.09590   0.00014   0.00000   0.00012   0.00012   2.09602
   A32        2.09618  -0.00005   0.00000  -0.00005  -0.00005   2.09613
   A33        2.09136  -0.00004   0.00000   0.00003   0.00003   2.09139
   A34        2.09564   0.00008   0.00000   0.00003   0.00003   2.09566
   A35        2.08654   0.00032   0.00000   0.00072   0.00072   2.08726
   A36        2.09869  -0.00018   0.00000  -0.00038  -0.00038   2.09831
   A37        2.09794  -0.00014   0.00000  -0.00033  -0.00033   2.09760
   A38        1.55689   0.01565   0.00000   0.05274   0.05304   1.60993
    D1        3.03569  -0.00297   0.00000  -0.01623  -0.01632   3.01937
    D2       -1.11576  -0.00295   0.00000  -0.01465  -0.01475  -1.13051
    D3        1.00611  -0.00156   0.00000  -0.00989  -0.00999   0.99612
    D4       -1.15489   0.00311   0.00000   0.01799   0.01809  -1.13680
    D5        0.97684   0.00313   0.00000   0.01957   0.01966   0.99651
    D6        3.09872   0.00452   0.00000   0.02433   0.02442   3.12314
    D7       -0.97375   0.00016   0.00000   0.00094   0.00094  -0.97281
    D8        1.03226   0.00011   0.00000   0.00023   0.00023   1.03249
    D9       -3.09933  -0.00006   0.00000  -0.00069  -0.00070  -3.10002
   D10        1.15126   0.00039   0.00000   0.00253   0.00253   1.15378
   D11       -3.12592   0.00034   0.00000   0.00181   0.00181  -3.12411
   D12       -0.97432   0.00018   0.00000   0.00089   0.00089  -0.97343
   D13       -3.06554  -0.00053   0.00000  -0.00467  -0.00467  -3.07021
   D14       -1.05953  -0.00058   0.00000  -0.00538  -0.00538  -1.06491
   D15        1.09207  -0.00074   0.00000  -0.00630  -0.00630   1.08577
   D16       -0.97926   0.00448   0.00000   0.00786   0.00786  -0.97141
   D17        2.17086  -0.00435   0.00000  -0.00339  -0.00340   2.16745
   D18        1.45619   0.00103   0.00000  -0.00677  -0.00678   1.44941
   D19       -3.01200   0.00412   0.00000   0.00747   0.00747  -3.00453
   D20        0.13812  -0.00472   0.00000  -0.00378  -0.00379   0.13433
   D21       -0.57655   0.00066   0.00000  -0.00717  -0.00716  -0.58371
   D22        1.19427   0.00367   0.00000   0.00847   0.00848   1.20275
   D23       -1.93879  -0.00517   0.00000  -0.00278  -0.00278  -1.94157
   D24       -2.65346   0.00021   0.00000  -0.00616  -0.00615  -2.65962
   D25       -1.72444   0.00012   0.00000   0.00152   0.00152  -1.72291
   D26        1.39570   0.00006   0.00000   0.00099   0.00099   1.39670
   D27        2.46322   0.00007   0.00000   0.00201   0.00201   2.46523
   D28       -0.69982   0.00000   0.00000   0.00148   0.00148  -0.69834
   D29        0.40403   0.00003   0.00000  -0.00011  -0.00011   0.40392
   D30       -2.75901  -0.00003   0.00000  -0.00065  -0.00065  -2.75966
   D31       -0.02734  -0.00002   0.00000   0.00003   0.00003  -0.02730
   D32        3.11697  -0.00005   0.00000  -0.00036  -0.00036   3.11661
   D33        3.13523   0.00005   0.00000   0.00057   0.00057   3.13580
   D34       -0.00365   0.00002   0.00000   0.00018   0.00018  -0.00347
   D35       -3.11639   0.00006   0.00000   0.00038   0.00038  -3.11601
   D36        0.03204  -0.00001   0.00000   0.00016   0.00016   0.03220
   D37        0.00429  -0.00001   0.00000  -0.00018  -0.00018   0.00412
   D38       -3.13047  -0.00008   0.00000  -0.00039  -0.00039  -3.13086
   D39        3.13672   0.00008   0.00000   0.00053   0.00053   3.13725
   D40        0.00041  -0.00001   0.00000  -0.00003  -0.00003   0.00038
   D41       -0.00215   0.00004   0.00000   0.00014   0.00014  -0.00201
   D42       -3.13846  -0.00004   0.00000  -0.00042  -0.00042  -3.13888
   D43       -0.00170   0.00000   0.00000   0.00003   0.00003  -0.00167
   D44       -3.13801  -0.00007   0.00000  -0.00037  -0.00037  -3.13838
   D45        3.13307   0.00006   0.00000   0.00024   0.00024   3.13331
   D46       -0.00325  -0.00001   0.00000  -0.00015  -0.00015  -0.00340
   D47        0.00226  -0.00001   0.00000  -0.00012  -0.00012   0.00214
   D48        3.13867   0.00006   0.00000   0.00038   0.00038   3.13905
   D49       -3.13403  -0.00010   0.00000  -0.00069  -0.00069  -3.13471
   D50        0.00238  -0.00002   0.00000  -0.00018  -0.00018   0.00220
   D51       -0.00162   0.00002   0.00000   0.00013   0.00013  -0.00150
   D52       -3.13803  -0.00006   0.00000  -0.00038  -0.00038  -3.13841
   D53        3.13468   0.00009   0.00000   0.00052   0.00052   3.13520
   D54       -0.00173   0.00001   0.00000   0.00002   0.00002  -0.00172
         Item               Value     Threshold  Converged?
 Maximum Force            0.086963     0.000450     NO 
 RMS     Force            0.011223     0.000300     NO 
 Maximum Displacement     0.151011     0.001800     NO 
 RMS     Displacement     0.025854     0.001200     NO 
 Predicted change in Energy=-2.010357D-02
 GradGradGradGradGradGradGradGradGradGradGradGradGradGradGradGradGradGrad

                          Input orientation:                          
 ---------------------------------------------------------------------
 Center     Atomic     Atomic              Coordinates (Angstroms)
 Number     Number      Type              X           Y           Z
 ---------------------------------------------------------------------
    1          7             0       -0.000557    0.064456   -0.280873
    2          1             0       -0.012275    0.042812    0.735918
    3          6             0        1.373286    0.061528   -0.793842
    4          1             0        1.338288   -0.041114   -1.880458
    5          6             0        2.199810    1.332098   -0.423262
    6          6             0        2.047481   -1.171973   -0.236906
    7          1             0        1.628229    2.194534   -0.786248
    8          1             0        2.234685    1.401677    0.669036
    9          6             0        3.600171    1.362334   -0.996629
   10          8             0        2.124150   -1.440907    0.973340
   11          6             0        4.704392    0.988257   -0.217773
   12          6             0        3.819441    1.740853   -2.329418
   13          1             0        4.553321    0.697608    0.817519
   14          6             0        5.992617    0.988180   -0.756884
   15          6             0        5.105009    1.741193   -2.871470
   16          1             0        2.977749    2.043669   -2.946097
   17          1             0        6.835355    0.699488   -0.137568
   18          6             0        6.196716    1.363439   -2.085838
   19          1             0        5.255405    2.039984   -3.903542
   20          1             0        7.197124    1.366037   -2.504989
   21          1             0       -0.516535    0.878869   -0.600187
   22          8             0        2.588884   -2.023641   -1.084438
   23          1             0        2.763501   -2.632416    0.307021
 ---------------------------------------------------------------------
                    Distance matrix (angstroms):
                    1          2          3          4          5
     1  N    0.000000
     2  H    1.017089   0.000000
     3  C    1.466489   2.064048   0.000000
     4  H    2.088617   2.945587   1.092013   0.000000
     5  C    2.543385   2.810565   1.560391   2.179759   0.000000
     6  C    2.392728   2.581605   1.512033   2.117323   2.515612
     7  H    2.728659   3.104537   2.148201   2.505890   1.096476
     8  H    2.772507   2.626750   2.162874   3.063510   1.095067
     9  C    3.893846   4.218130   2.586936   2.804806   1.513498
    10  O    2.890250   2.611916   2.438041   3.274319   3.105765
    11  C    4.795199   4.904114   3.505274   3.892914   2.536411
    12  C    4.647497   5.192463   3.340928   3.087571   2.534505
    13  H    4.727065   4.613034   3.621285   4.261599   2.735165
    14  C    6.082597   6.259465   4.711504   4.897411   3.822952
    15  C    5.965689   6.487244   4.589506   4.283329   3.821160
    16  H    4.459934   5.147903   3.336972   2.858276   2.734267
    17  H    6.866840   6.934279   5.538220   5.814112   4.687226
    18  C    6.584182   6.946793   5.160398   5.061549   4.329018
    19  H    6.682184   7.298064   5.353071   4.875207   4.685095
    20  H    7.645091   8.014352   6.208611   6.057728   5.413676
    21  H    1.015610   1.654825   2.068084   2.434302   2.759574
    22  O    3.422144   3.788134   2.431061   2.475490   3.442312
    23  H    3.906245   3.878882   3.225203   3.678470   4.070433
                    6          7          8          9         10
     6  C    0.000000
     7  H    3.436702   0.000000
     8  H    2.734859   1.764727   0.000000
     9  C    3.067693   2.150668   2.154191   0.000000
    10  O    1.242135   4.069216   2.860962   3.730627   0.000000
    11  C    3.424345   3.352766   2.656463   1.402089   3.738615
    12  C    4.000376   2.718200   3.408404   1.402741   4.889358
    13  H    3.299452   3.656366   2.427721   2.154411   3.240124
    14  C    4.527774   4.528137   4.040579   2.433365   4.884586
    15  C    4.977544   4.079419   4.570472   2.433742   5.813248
    16  H    4.306445   2.551256   3.746129   2.156862   5.313463
    17  H    5.141592   5.456198   4.723329   3.412296   5.292529
    18  C    5.202213   4.821900   4.825814   2.815746   5.814528
    19  H    5.835381   4.785166   5.517305   3.413086   6.760573
    20  H    6.172886   5.886685   5.890798   3.900415   6.761122
    21  H    3.303347   2.523015   3.074649   4.163913   3.851047
    22  O    1.317864   4.336447   3.864315   3.534860   2.188609
    23  H    1.715061   5.077748   4.084680   4.284571   1.507463
                   11         12         13         14         15
    11  C    0.000000
    12  C    2.410100   0.000000
    13  H    1.085877   3.395607   0.000000
    14  C    1.396483   2.786049   2.152847   0.000000
    15  C    2.787385   1.395172   3.873251   2.413784   0.000000
    16  H    3.396902   1.086479   4.296407   3.872485   2.149953
    17  H    2.151935   3.870966   2.473838   1.084944   3.399039
    18  C    2.420219   2.419340   3.401994   1.395921   1.397047
    19  H    3.872291   2.151590   4.958156   3.398710   1.084927
    20  H    3.404084   3.402948   4.298320   2.156266   2.156849
    21  H    5.236056   4.746993   5.267464   6.511955   6.124057
    22  O    3.781271   4.151585   3.857674   4.556726   4.868094
    23  H    4.141466   5.214528   3.814856   4.966669   5.891853
                   16         17         18         19         20
    16  H    0.000000
    17  H    4.957397   0.000000
    18  C    3.400663   2.155098   0.000000
    19  H    2.470715   4.298340   2.155882   0.000000
    20  H    4.296148   2.485930   1.084670   2.486047   0.000000
    21  H    4.366928   7.368614   6.892728   6.750972   7.960285
    22  O    4.489989   5.132690   5.048917   5.618783   5.894383
    23  H    5.700391   5.280079   5.786156   6.765335   6.599397
                   21         22         23
    21  H    0.000000
    22  O    4.278164   0.000000
    23  H    4.889865   1.528809   0.000000
 Stoichiometry    C9H11NO2
 Framework group  C1[X(C9H11NO2)]
 Deg. of freedom    63
 Full point group                 C1
 Largest Abelian subgroup         C1      NOp   1
 Largest concise Abelian subgroup C1      NOp   1
                         Standard orientation:                         
 ---------------------------------------------------------------------
 Center     Atomic     Atomic              Coordinates (Angstroms)
 Number     Number      Type              X           Y           Z
 ---------------------------------------------------------------------
    1          7             0       -3.008561   -1.293808   -0.086276
    2          1             0       -3.383761   -0.869144   -0.930879
    3          6             0       -1.685751   -0.749191    0.236454
    4          1             0       -1.378238   -1.137154    1.209806
    5          6             0       -0.582887   -1.073565   -0.818672
    6          6             0       -1.847574    0.748341    0.368564
    7          1             0       -0.562459   -2.164664   -0.925191
    8          1             0       -0.906654   -0.659196   -1.779217
    9          6             0        0.797373   -0.563325   -0.464820
   10          8             0       -2.322832    1.481035   -0.514719
   11          6             0        1.284117    0.632426   -1.011732
   12          6             0        1.609003   -1.264132    0.439508
   13          1             0        0.671140    1.184874   -1.717558
   14          6             0        2.545988    1.117421   -0.661552
   15          6             0        2.869869   -0.782098    0.792160
   16          1             0        1.253609   -2.197898    0.866373
   17          1             0        2.907379    2.042518   -1.098238
   18          6             0        3.342241    0.412258    0.242505
   19          1             0        3.484643   -1.339547    1.490995
   20          1             0        4.323492    0.786754    0.513446
   21          1             0       -2.977683   -2.301557   -0.208562
   22          8             0       -1.464496    1.320668    1.492157
   23          1             0       -2.067202    2.429230    0.628969
 ---------------------------------------------------------------------
 Rotational constants (GHZ):      1.7298156      0.5873221      0.5250956
 Standard basis: 6-31G (6D, 7F)
 There are   130 symmetry adapted basis functions of A   symmetry.
 Integral buffers will be    262144 words long.
 Raffenetti 2 integral format.
 Two-electron integral symmetry is turned on.
   130 basis functions,   308 primitive gaussians,   130 cartesian basis functions
    44 alpha electrons       44 beta electrons
       nuclear repulsion energy       679.5945710287 Hartrees.
 NAtoms=   23 NActive=   23 NUniq=   23 SFac= 7.50D-01 NAtFMM=   80 NAOKFM=F Big=F
 One-electron integrals computed using PRISM.
 NBasis=   130 RedAO= T  NBF=   130
 NBsUse=   130 1.00D-06 NBFU=   130
 Initial guess read from the read-write file:
 Initial guess orbital symmetries:
       Occupied  (A) (A) (A) (A) (A) (A) (A) (A) (A) (A) (A) (A)
                 (A) (A) (A) (A) (A) (A) (A) (A) (A) (A) (A) (A)
                 (A) (A) (A) (A) (A) (A) (A) (A) (A) (A) (A) (A)
                 (A) (A) (A) (A) (A) (A) (A) (A)
       Virtual   (A) (A) (A) (A) (A) (A) (A) (A) (A) (A) (A) (A)
                 (A) (A) (A) (A) (A) (A) (A) (A) (A) (A) (A) (A)
                 (A) (A) (A) (A) (A) (A) (A) (A) (A) (A) (A) (A)
                 (A) (A) (A) (A) (A) (A) (A) (A) (A) (A) (A) (A)
                 (A) (A) (A) (A) (A) (A) (A) (A) (A) (A) (A) (A)
                 (A) (A) (A) (A) (A) (A) (A) (A) (A) (A) (A) (A)
                 (A) (A) (A) (A) (A) (A) (A) (A) (A) (A) (A) (A)
                 (A) (A)
 Harris functional with IExCor=  402 diagonalized for initial guess.
 ExpMin= 1.61D-01 ExpMax= 5.48D+03 ExpMxC= 8.25D+02 IAcc=1 IRadAn=         1 AccDes= 1.00D-06
 HarFok:  IExCor= 402 AccDes= 1.00D-06 IRadAn=         1 IDoV=1
 ScaDFX=  1.000000  1.000000  1.000000  1.000000
 Requested convergence on RMS density matrix=1.00D-08 within 128 cycles.
 Requested convergence on MAX density matrix=1.00D-06.
 Requested convergence on             energy=1.00D-06.
 No special actions if energy rises.
 Integral accuracy reduced to 1.0D-05 until final iterations.
 Initial convergence to 1.0D-05 achieved.  Increase integral accuracy.
 SCF Done:  E(RB+HF-LYP) =  -554.552371591     A.U. after   14 cycles
             Convg  =    0.5460D-08             -V/T =  2.0056
             S**2   =   0.0000
 ***** Axes restored to original set *****
 -------------------------------------------------------------------
 Center     Atomic                   Forces (Hartrees/Bohr)
 Number     Number              X              Y              Z
 -------------------------------------------------------------------
    1          7           0.001850273    0.007464931    0.005129612
    2          1          -0.001568923   -0.003611753    0.002403409
    3          6           0.001775057    0.000038149    0.002526178
    4          1           0.000723978   -0.000526802    0.000280068
    5          6           0.000504223    0.001057378   -0.000092574
    6          6          -0.005015783    0.018838588   -0.083988181
    7          1          -0.000858951    0.000946257   -0.000432054
    8          1          -0.000066969    0.000168746    0.001416968
    9          6          -0.001468115   -0.000097680    0.000765756
   10          8           0.011376698   -0.032354238    0.047931587
   11          6          -0.000042519   -0.000898940    0.002519433
   12          6          -0.002081836    0.000880968   -0.001803477
   13          1          -0.000132335   -0.000186595    0.000566360
   14          6           0.001848344   -0.000628543    0.001704756
   15          6           0.000263256    0.000742979   -0.002354693
   16          1          -0.000492036    0.000086182   -0.000231094
   17          1           0.000332427   -0.000223965    0.000250076
   18          6           0.002264784    0.000080608   -0.000946156
   19          1           0.000024760    0.000063262   -0.000475238
   20          1           0.000440744   -0.000037129   -0.000190450
   21          1          -0.003864241   -0.001115851   -0.004132000
   22          8          -0.001293645   -0.011777637    0.047573564
   23          1          -0.004519191    0.021091082   -0.018421852
 -------------------------------------------------------------------
 Cartesian Forces:  Max     0.083988181 RMS     0.014401176

 GradGradGradGradGradGradGradGradGradGradGradGradGradGradGradGradGradGrad
 Berny optimization.
 Internal  Forces:  Max     0.052419454 RMS     0.006735258
 Search for a saddle point.
 Step number   2 out of a maximum of 127
 All quantities printed in internal units (Hartrees-Bohrs-Radians)
 Swaping is turned off.
 Update second derivatives using D2CorX and points  1  2
     Eigenvalues ---   -0.07802   0.00030   0.00172   0.00225   0.00330
     Eigenvalues ---    0.00483   0.01678   0.01782   0.01852   0.02192
     Eigenvalues ---    0.02399   0.02484   0.02638   0.02820   0.02908
     Eigenvalues ---    0.03029   0.03104   0.04120   0.04621   0.04721
     Eigenvalues ---    0.04939   0.05224   0.08234   0.08410   0.11503
     Eigenvalues ---    0.11980   0.12192   0.12653   0.13071   0.13517
     Eigenvalues ---    0.14214   0.14884   0.16082   0.16781   0.18473
     Eigenvalues ---    0.18833   0.19028   0.20299   0.20673   0.20704
     Eigenvalues ---    0.21046   0.26066   0.29298   0.31659   0.31963
     Eigenvalues ---    0.33816   0.34284   0.34484   0.35922   0.36048
     Eigenvalues ---    0.36385   0.36495   0.36548   0.36739   0.38035
     Eigenvalues ---    0.42954   0.43248   0.45403   0.46091   0.49492
     Eigenvalues ---    0.49723   0.53069   0.814681000.000001000.00000
     Eigenvalues --- 1000.000001000.000001000.000001000.000001000.00000
     Eigenvalues --- 1000.000001000.000001000.000001000.000001000.00000
     Eigenvalues --- 1000.000001000.000001000.000001000.000001000.00000
     Eigenvalues --- 1000.000001000.000001000.000001000.000001000.00000
     Eigenvalues --- 1000.000001000.000001000.000001000.000001000.00000
     Eigenvalues --- 1000.000001000.000001000.000001000.000001000.00000
     Eigenvalues --- 1000.000001000.000001000.000001000.000001000.00000
     Eigenvalues --- 1000.000001000.000001000.000001000.000001000.00000
     Eigenvalues --- 1000.000001000.000001000.000001000.000001000.00000
     Eigenvalues --- 1000.000001000.000001000.000001000.000001000.00000
     Eigenvalues --- 1000.000001000.00000
 Eigenvectors required to have negative eigenvalues:
                          R1        R2        R3        R4        R5
         1              0.00029   0.00518   0.00067  -0.00473   0.00550
                          R6        R7        R8        R9        R10
         1             -0.00077   0.00013   0.00051  -0.00025   0.06557
                          R11       R12       R13       R14       R15
         1             -0.09990  -0.01081  -0.00032  -0.00040  -0.64811
                          R16       R17       R18       R19       R20
         1              0.00035  -0.00015  -0.00015  -0.00008   0.00007
                          R21       R22       R23       R24       R25
         1             -0.00005   0.00002  -0.00004  -0.00001   0.65270
                          A1        A2        A3        A4        A5
         1              0.00675  -0.00327   0.00256   0.00097  -0.01058
                          A6        A7        A8        A9        A10
         1              0.02303   0.00598  -0.01715  -0.00279  -0.00566
                          A11       A12       A13       A14       A15
         1              0.00093   0.00714  -0.00031  -0.00065  -0.00193
                          A16       A17       A18       A19       A20
         1              0.03552  -0.04266   0.32512   0.00736  -0.00001
                          A21       A22       A23       A24       A25
         1             -0.00008   0.00011   0.00024   0.00024  -0.00048
                          A26       A27       A28       A29       A30
         1             -0.00019   0.00019   0.00000   0.00026  -0.00029
                          A31       A32       A33       A34       A35
         1              0.00003   0.00014  -0.00008  -0.00006  -0.00001
                          A36       A37       A38       D1        D2
         1             -0.00003   0.00005  -0.01562  -0.00157  -0.00033
                          D3        D4        D5        D6        D7
         1              0.00598   0.00078   0.00202   0.00833   0.00680
                          D8        D9        D10       D11       D12
         1              0.00410   0.00719   0.00522   0.00252   0.00560
                          D13       D14       D15       D16       D17
         1             -0.01370  -0.01640  -0.01331  -0.01711   0.08056
                          D18       D19       D20       D21       D22
         1             -0.05156  -0.02139   0.07628  -0.05584  -0.01689
                          D23       D24       D25       D26       D27
         1              0.08078  -0.05134  -0.00409  -0.00309  -0.00117
                          D28       D29       D30       D31       D32
         1             -0.00016   0.00079   0.00180   0.00014   0.00057
                          D33       D34       D35       D36       D37
         1             -0.00084  -0.00041  -0.00043  -0.00107   0.00055
                          D38       D39       D40       D41       D42
         1             -0.00009   0.00008   0.00004   0.00050   0.00047
                          D43       D44       D45       D46       D47
         1             -0.00033  -0.00050   0.00031   0.00014   0.00019
                          D48       D49       D50       D51       D52
         1              0.00019   0.00016   0.00015  -0.00005  -0.00005
                          D53       D54
         1              0.00012   0.00013
 RFO step:  Lambda0=1.288229791D-04 Lambda=-2.59712191D-02.
 Linear search not attempted -- option 19 set.
 Maximum step size (   0.300) exceeded in Quadratic search.
    -- Step size scaled by   0.522
 Iteration  1 RMS(Cart)=  0.02152576 RMS(Int)=  0.00146475
 Iteration  2 RMS(Cart)=  0.00071430 RMS(Int)=  0.00030467
 Iteration  3 RMS(Cart)=  0.00000278 RMS(Int)=  0.00029548
 Iteration  4 RMS(Cart)=  0.00000001 RMS(Int)=  0.00029548
 Variable       Old X    -DE/DX   Delta X   Delta X   Delta X     New X
                                 (Linear)    (Quad)   (Total)
    R1        1.92202   0.00250   0.00000  -0.00019  -0.00019   1.92183
    R2        2.77126   0.00455   0.00000   0.00217   0.00217   2.77343
    R3        1.91923   0.00237   0.00000  -0.00025  -0.00025   1.91898
    R4        2.06361  -0.00025   0.00000   0.00091   0.00091   2.06451
    R5        2.94871   0.00203   0.00000   0.00554   0.00554   2.95425
    R6        2.85733   0.00112   0.00000  -0.02013  -0.02013   2.83720
    R7        2.07204   0.00134   0.00000   0.00129   0.00129   2.07333
    R8        2.06938   0.00142   0.00000   0.00144   0.00144   2.07082
    R9        2.86010   0.00096   0.00000   0.00124   0.00124   2.86134
   R10        2.34730   0.05242   0.00000   0.04959   0.04857   2.39586
   R11        2.49040  -0.02039   0.00000  -0.02029  -0.02131   2.46909
   R12        3.24100   0.00633   0.00000  -0.10021  -0.09990   3.14110
   R13        2.64956   0.00319   0.00000   0.00315   0.00315   2.65271
   R14        2.65080   0.00307   0.00000   0.00295   0.00295   2.65375
   R15        2.84869  -0.01058   0.00000  -0.16320  -0.16245   2.68624
   R16        2.05201   0.00061   0.00000   0.00071   0.00071   2.05273
   R17        2.63897   0.00270   0.00000   0.00252   0.00252   2.64149
   R18        2.63649   0.00286   0.00000   0.00278   0.00278   2.63927
   R19        2.05315   0.00054   0.00000   0.00066   0.00066   2.05380
   R20        2.05025   0.00046   0.00000   0.00054   0.00054   2.05078
   R21        2.63791   0.00319   0.00000   0.00305   0.00305   2.64096
   R22        2.64004   0.00320   0.00000   0.00295   0.00295   2.64298
   R23        2.05022   0.00047   0.00000   0.00058   0.00058   2.05079
   R24        2.04973   0.00048   0.00000   0.00059   0.00059   2.05032
   R25        2.88903  -0.02656   0.00000  -0.15971  -0.15899   2.73004
    A1        1.93954   0.00315   0.00000   0.01506   0.01476   1.95430
    A2        1.90236   0.00048   0.00000   0.01804   0.01753   1.91989
    A3        1.94720   0.00294   0.00000   0.01396   0.01367   1.96086
    A4        1.89466   0.00048   0.00000   0.00150   0.00150   1.89616
    A5        1.99493  -0.00090   0.00000  -0.00133  -0.00134   1.99359
[...]
 ,-0.00001213,0.00106745,-0.00088253,-0.00010266,0.00002078,0.00002146,
 0.00002024,0.00252527,0.00542290,0.00289002,0.00026805,-0.00021553,0.0
 0041807,-0.00033719,-0.00015060,0.00015731,-0.00020712,-0.00015311,0.0
 0046897,0.00885769,0.01235239,-0.01393476,-0.00050246,-0.00026475,-0.0
 0015034,0.02303339,-0.07867170,0.01723976,-0.00962872,-0.00933918,0.00
 789291,-0.01186793,0.00392130,0.00503375,-0.10510965,0.24990181,0.0001
 2870,-0.00007597,-0.00014665,0.00003788,0.00007567,-0.00002144,0.00058
 626,0.00039832,-0.00050530,-0.00018775,-0.00030955,-0.00017048,-0.0023
 4853,0.00378079,-0.00063189,0.00026220,0.00016384,-0.00056971,-0.00105
 601,0.00041246,0.00045037,-0.00003025,-0.00004914,-0.00006875,0.006147
 98,-0.02130278,0.05426881,0.00038954,0.00026169,0.00030607,0.05331748,
 0.02765479,-0.15483855,0.03064289,0.00748436,-0.04019784,0.02934406,-0
 .00149430,-0.00688730,-0.00530245,-0.20396476,0.62230076,0.00012569,-0
 .00009249,-0.00028954,0.00007816,0.00002759,-0.00001663,-0.00065317,0.
 00001006,-0.00067109,-0.00031854,-0.00033953,-0.00022886,0.00364773,0.
 00140281,0.00049079,0.00067601,0.00054409,0.00028330,-0.00030655,0.000
 44862,-0.00041043,-0.00013292,-0.00047122,-0.00056833,0.01364229,-0.03
 237516,0.07343217,-0.00025338,-0.00019414,-0.00010253,-0.06388821,0.01
 302447,-0.00462727,-0.30919869,0.02320716,0.05440230,-0.00095603,0.000
 30656,-0.00030582,0.04599684,0.01854017,-0.05916825,0.66631635,0.00017
 583,0.00029965,0.00018980,0.00002129,0.00000898,-0.00000950,0.00093557
 ,-0.00012934,-0.00057820,0.00010910,0.00001224,0.00002957,0.00171596,0
 .00431389,0.00471981,-0.00009134,-0.00018992,0.00012686,-0.00039297,0.
 00024602,-0.00028366,-0.00117118,0.00003748,0.00052287,-0.01643257,0.0
 1267556,-0.00410549,-0.00000580,0.00000586,-0.00003314,0.01293100,-0.0
 0976517,-0.00134027,-0.00068445,-0.07787359,0.02775262,0.00017691,-0.0
 0029637,-0.00041509,0.00222827,-0.00325820,0.02875232,-0.08039982,0.25
 039288,0.00016487,0.00006638,0.00029503,-0.00008897,-0.00004227,0.0000
 2079,0.00026887,-0.00011238,-0.00062695,0.00019555,0.00025128,0.000107
 17,-0.00058173,0.00389910,-0.00314471,-0.00014242,-0.00004433,-0.00035
 749,-0.00023647,-0.00012498,0.00013893,0.00072872,0.00010490,-0.000259
 27,0.03461809,0.00347280,-0.01486837,0.00020006,0.00004822,0.00022385,
 -0.00498839,-0.00137141,-0.00228214,0.10966593,0.01707538,-0.15465788,
 -0.00022117,-0.00040797,0.00063358,-0.02125391,0.02148610,-0.03118256,
 -0.04761459,-0.21531537,0.66141849,0.00011059,0.00007704,0.00004249,-0
 .00002586,-0.00000932,0.00000643,0.00006764,-0.00020323,-0.00000245,0.
 00001265,0.00002157,-0.00004130,0.00054041,-0.00118842,0.00032476,-0.0
 0005179,-0.00003767,-0.00006991,0.00058535,0.00006357,-0.00018984,0.00
 013133,-0.00001532,-0.00007488,0.00522556,-0.00256353,0.00546551,0.000
 05960,0.00004803,0.00003795,0.00120363,0.00023119,0.00205872,-0.219146
 64,0.08352483,-0.10860608,0.00027313,-0.00011606,0.00016207,0.00015197
 ,-0.00040700,0.00072874,-0.01854561,0.01234721,-0.01879851,0.23280298,
 -0.00014638,-0.00011821,-0.00037623,0.00006194,0.00004896,-0.00003110,
 -0.00035653,0.00006383,0.00091027,-0.00031285,-0.00036878,-0.00015010,
 -0.00085106,-0.00265169,-0.00209142,0.00016085,-0.00006317,0.00010670,
 -0.00000716,0.00000338,0.00041254,0.00023748,0.00020452,-0.00026501,0.
 01110284,-0.00087983,0.00520940,-0.00017002,0.00002517,-0.00017074,-0.
 00037823,0.00489623,0.00371631,0.08378416,-0.08247920,0.06355021,0.000
 51066,0.00015388,0.00042152,-0.00039671,-0.00023295,-0.00015321,-0.001
 58951,0.00327207,0.00091108,-0.09148909,0.07593054,0.00000376,-0.00014
 343,0.00008438,-0.00001894,0.00002120,-0.00000533,0.00015783,0.0001061
 6,-0.00008996,0.00002623,0.00013771,0.00009670,-0.00218370,-0.00075557
 ,0.00045080,-0.00037360,0.00011380,-0.00014312,0.00111228,-0.00064043,
 -0.00007194,0.00020080,-0.00029544,0.00023973,-0.02448835,0.01183483,-
 0.01219266,0.00020964,-0.00008802,0.00012006,0.00273914,0.00382864,-0.
 00350250,-0.10852870,0.06275538,-0.13278929,-0.00125042,0.00061521,-0.
 00057885,0.00090875,-0.00012522,-0.00044522,0.01299171,-0.00529428,0.0
 0961256,0.11571466,-0.07186276,0.13798973,-0.00014217,-0.00019438,-0.0
 0000358,0.00000918,0.00004350,-0.00001462,0.00000145,0.00031644,0.0000
 7380,0.00001054,0.00000491,-0.00000013,-0.00049157,0.00063106,-0.00100
 694,-0.00013808,0.00026692,-0.00014026,-0.00039601,-0.00003711,0.00010
 170,0.00001817,-0.00002750,0.00003170,-0.00293549,0.00011993,0.0039989
 9,0.00011474,-0.00016323,0.00010628,-0.01841481,0.01213124,-0.01861496
 ,0.00008632,-0.00046949,0.00091697,0.00089254,-0.00094915,0.00000254,-
 0.22337681,0.08288095,-0.11210218,0.00121566,0.00029075,0.00191799,-0.
 00006483,-0.00014452,-0.00022263,0.23547067,0.00006691,-0.00001138,-0.
 00001470,-0.00000321,0.00001345,-0.00000052,-0.00002263,0.00002946,-0.
 00002570,0.00000446,-0.00000863,-0.00001671,-0.00022263,0.00014476,0.0
 0019567,-0.00002790,0.00001198,0.00007302,-0.00008041,-0.00004808,0.00
 002195,0.00001847,-0.00000206,-0.00005355,0.00085005,0.00632472,0.0022
 1634,-0.00000796,-0.00003643,-0.00003450,-0.00144880,0.00345025,0.0007
 6570,-0.00043581,-0.00019447,-0.00013008,-0.00058585,-0.00319853,-0.00
 190402,0.08291692,-0.08135994,0.06276530,-0.00008508,0.00537138,0.0040
 5241,-0.00016061,-0.00110408,-0.00049685,-0.09046882,0.07430374,0.0000
 0845,-0.00000115,-0.00000855,0.00000326,0.00000162,0.00000003,-0.00000
 552,0.00001649,-0.00002597,0.00001320,0.00000724,-0.00000574,0.0003583
 4,-0.00022300,0.00040130,0.00001755,0.00007770,0.00009603,0.00009811,-
 0.00003265,-0.00003177,-0.00003719,-0.00000013,-0.00000724,0.00333491,
 0.00230746,0.00068949,-0.00006438,-0.00007475,-0.00005715,0.01301701,-
 0.00515706,0.00983953,0.00091702,-0.00016015,-0.00043557,-0.00075913,-
 0.00164186,0.00014949,-0.11205587,0.06274672,-0.13615721,0.00276965,0.
 00392043,-0.00328517,-0.00022395,-0.00046799,-0.00013878,0.11907765,-0
 .07119145,0.14059593,-0.00018609,-0.00013511,0.00007395,-0.00002400,0.
 00000798,-0.00000424,0.00019431,0.00042123,0.00047104,0.00011177,0.000
 18826,0.00005266,-0.00073649,-0.00040703,-0.00065529,-0.00041752,0.000
 14538,-0.00001325,0.00010837,-0.00023170,0.00014968,0.00003040,0.00015
 017,0.00009864,-0.00770026,0.00923845,-0.02132584,0.00008597,-0.000190
 86,-0.00001197,0.01400615,-0.01635398,0.03559963,-0.05575187,0.0099288
 8,0.00637525,-0.00472207,0.00138960,0.00241036,-0.13486006,-0.01389671
 ,0.06236905,-0.25297873,0.08174831,-0.10718882,-0.00320034,0.00065384,
 0.00317194,0.00717142,0.01015191,-0.02542112,0.72950191,-0.00003161,-0
 .00004389,-0.00016626,0.00003381,0.00000847,-0.00000595,-0.00025587,0.
 00017765,-0.00010346,-0.00013642,-0.00019040,-0.00011000,0.00035111,-0
 .00085916,0.00018667,0.00025348,0.00017823,-0.00006913,0.00003128,0.00
 025853,-0.00012675,0.00007990,-0.00009330,-0.00022570,0.00859741,-0.01
 882909,0.02192133,0.00001562,0.00002763,0.00005023,-0.03211130,0.01352
 189,0.00379361,0.02615376,0.01266851,-0.02073523,0.00151942,0.00625823
 ,0.00178752,0.00979577,-0.10649214,0.08764072,0.05758746,-0.10755030,0
 .06843931,0.00024728,0.00626695,0.00231209,-0.00337796,-0.00053846,0.0
 1116820,-0.08406261,0.23816509,0.00000912,0.00008461,0.00028897,-0.000
 06214,-0.00002608,0.00001231,0.00015012,-0.00048728,0.00029742,0.00020
 008,0.00027552,0.00019743,-0.00041444,0.00033738,-0.00107051,-0.000560
 33,-0.00061339,-0.00021350,0.00015559,-0.00042295,-0.00001293,0.000144
 86,0.00010923,0.00044216,-0.02099553,0.02157195,-0.04879038,0.00024010
 ,0.00028277,0.00007397,0.07304734,-0.00344384,-0.01617566,-0.03147436,
 -0.01289469,0.05394124,0.00162623,0.00176022,0.00227912,0.00705716,0.0
 9809465,-0.29965446,-0.05193646,0.05799416,-0.17844894,0.00424119,0.00
 211146,0.00076044,0.00636280,0.00518344,-0.01125718,-0.06553207,-0.188
 22118,0.60931340,-0.00009793,-0.00005774,-0.00005952,0.00002677,0.0000
 2467,-0.00001088,0.00003455,0.00016881,0.00013167,-0.00001024,-0.00002
 549,-0.00001228,0.00024730,-0.00045808,0.00123824,-0.00003446,0.000105
 65,0.00000789,0.00001533,0.00000837,-0.00004871,-0.00038789,-0.0000460
 5,0.00018537,-0.00464305,0.00155466,0.00138394,0.00001157,-0.00006765,
 -0.00001246,-0.00105232,0.00023889,-0.00022147,-0.00093817,-0.01211946
 ,0.02981449,0.00011933,-0.00025115,-0.00004872,-0.00344432,0.00271856,
 -0.00166324,-0.06625762,-0.01200614,0.04018904,0.00087151,-0.00060655,
 -0.00080274,0.00022020,0.00049333,-0.00115695,0.00720886,0.01030796,-0
 .02537430,0.06725333,-0.00002589,-0.00002668,-0.00000443,0.00000472,0.
 00001567,-0.00000006,0.00003503,0.00002265,0.00003145,-0.00001915,0.00
 000417,0.00001418,0.00000967,0.00019103,0.00008820,0.00000304,0.000047
 21,0.00007550,0.00000278,-0.00003588,0.00001340,-0.00011878,-0.0000525
 9,0.00000145,0.00138423,0.00651905,0.00168051,-0.00005092,-0.00005228,
 -0.00005814,0.00030548,-0.00028730,-0.00045334,0.00171697,0.00331426,-
 0.00079245,-0.00022295,-0.00106462,-0.00043312,0.00305686,0.00525480,0
 .00282110,-0.01193195,-0.08081978,0.10287407,-0.00103332,-0.00316939,-
 0.00174270,-0.00010444,0.00002185,0.00061730,-0.00352486,-0.00061512,0
 .01113337,0.01111869,0.07387250,0.00013430,0.00005040,0.00003963,-0.00
 002293,-0.00000850,0.00001119,-0.00003187,-0.00015707,-0.00010753,-0.0
 0001943,-0.00000868,0.00001106,-0.00035444,0.00032107,-0.00036531,-0.0
 0000524,-0.00013179,-0.00001989,0.00004308,-0.00002057,0.00002584,0.00
 013557,0.00001042,-0.00008598,0.00247519,0.00184017,0.00233920,0.00003
 666,0.00009160,0.00001416,-0.00021364,-0.00043543,0.00071841,-0.001933
 52,0.00516245,-0.00775044,-0.00004789,-0.00044185,-0.00029847,-0.00258
 787,0.00292476,0.00144323,0.04026760,0.10275064,-0.29327828,0.00004220
 ,-0.00188382,0.00019284,0.00025996,0.00033260,-0.00064645,0.00629230,0
 .00521325,-0.01123609,-0.04375434,-0.11398968,0.30881363,-0.00008639,-
 0.00005059,0.00000675,0.00001124,0.00000751,-0.00000462,0.00003989,0.0
 0008596,0.00000735,0.00001720,0.00002916,0.00000746,-0.00002399,-0.000
 18443,-0.00001426,0.00000039,0.00014176,0.00004529,0.00003332,-0.00002
 721,-0.00002581,-0.00001212,-0.00002662,0.00002969,0.00064444,0.000051
 13,-0.00072966,-0.00004431,-0.00010544,-0.00001852,0.00189826,0.000705
 29,0.00078209,-0.00112225,0.00291483,-0.00306545,-0.00016543,0.0001043
 3,-0.00003656,-0.00086306,0.00166088,-0.00205574,-0.01806820,-0.001605
 55,0.01314276,-0.00101395,0.00000509,0.00056512,0.00075412,-0.00095297
 ,0.00009525,-0.29794680,0.00508196,0.10303680,0.00085630,-0.00063062,-
 0.00071109,0.31507454,-0.00003666,-0.00004590,-0.00003574,0.00000203,0
 .00000485,0.00000066,-0.00010693,0.00005589,0.00005668,-0.00001843,-0.
 00001736,-0.00000640,-0.00040233,-0.00090871,-0.00037289,0.00001890,0.
 00007065,0.00003273,0.00006957,-0.00002573,0.00008241,0.00005196,0.000
 05544,-0.00012378,0.00025271,-0.00072756,0.00016967,-0.00001292,-0.000
 02308,-0.00003926,0.00101962,0.00519165,0.00447903,0.00249822,0.005076
 21,0.00387548,-0.00047066,0.00021522,0.00026506,-0.01196764,0.00351289
 ,0.00492927,0.01214527,0.00320819,-0.00524041,0.00062678,0.00019789,-0
 .00015000,-0.00056896,-0.00316268,-0.00188553,0.00506537,-0.04239475,0
 .00722618,-0.00102466,-0.00309983,-0.00169858,-0.00712909,0.03285730,0
 .00003291,-0.00002540,0.00000738,-0.00001204,0.00000235,0.00000415,-0.
 00007537,0.00000157,0.00001267,0.00000638,0.00001341,0.00000623,-0.000
 13601,-0.00046334,-0.00002691,-0.00007874,-0.00004464,-0.00012592,0.00
 011855,-0.00003853,0.00004272,-0.00003948,0.00002940,-0.00000172,-0.00
 064820,0.00021203,-0.00080959,0.00012615,0.00009262,0.00004744,-0.0001
 4262,0.00468637,-0.00349494,-0.00219997,0.00367338,-0.00035514,0.00133
 928,-0.00004224,-0.00043234,0.02978920,-0.00100870,-0.00749686,-0.0186
 3666,0.00071280,0.00983134,-0.00081220,0.00011913,0.00035753,-0.000814
 31,-0.00171772,0.00030334,0.10304757,0.00721873,-0.10074029,0.00020209
 ,-0.00186306,0.00019820,-0.11105720,-0.01155967,0.10263828,-0.21703862
 ,-0.16292202,-0.09375292,0.00501400,0.00321358,0.00549327,-0.02098661,
 -0.02277032,-0.01406225,0.00123654,-0.00000563,0.00015694,-0.00422931,
 0.00272917,0.00302193,-0.00161078,-0.00170402,-0.00093107,0.00021557,0
 .00017872,0.00015499,0.00008139,0.00025762,-0.00016278,-0.00000580,-0.
 00124901,-0.00049286,0.00041018,0.00062632,0.00044332,-0.00009296,-0.0
 0007067,0.00015744,-0.00015839,0.00000254,-0.00010159,-0.00005278,-0.0
 0008492,-0.00006950,0.00000748,0.00012191,0.00002497,-0.00003097,0.000
 10302,0.00005544,0.00000775,-0.00006194,-0.00001200,-0.00002931,-0.000
 00044,0.00000047,-0.00003376,-0.00002170,0.00003571,-0.00001633,0.0000
 0469,0.00001399,-0.00000730,-0.00002085,-0.00001013,0.23701614,-0.1952
 1388,-0.17922670,-0.13591202,-0.00082659,-0.00505069,0.00819576,0.0154
 6345,-0.00364774,0.00225050,-0.00054697,0.00046781,0.00048841,-0.00254
 924,0.00006697,0.00107223,0.00298030,0.00308411,-0.00051578,-0.0000007
 3,0.00036431,-0.00013692,0.00033714,0.00002738,0.00005729,0.00002466,-
 0.00022171,-0.00072114,-0.00015882,-0.00078388,0.00059965,-0.00021617,
 -0.00000874,0.00019290,-0.00027946,0.00010953,0.00000279,0.00002729,-0
 .00001363,-0.00000760,-0.00003905,0.00005488,0.00001354,0.00008479,-0.
 00000941,0.00005895,0.00003280,-0.00005771,0.00001908,-0.00003797,0.00
 001038,0.00000818,-0.00004609,0.00001063,-0.00002777,-0.00003600,-0.00
 001489,0.00003160,-0.00001493,-0.00000616,0.00000831,0.18183119,0.1852
 7425,-0.08625283,-0.10962951,-0.12018740,-0.02795431,-0.02684172,-0.01
 174447,0.01059250,0.01110791,0.00723158,0.00001518,0.00042285,0.000227
 58,0.00377446,-0.00032882,-0.00110738,-0.00084509,0.00032610,-0.000300
 74,-0.00003836,-0.00022139,-0.00018665,0.00006836,0.00004410,0.0002898
 6,0.00044699,0.00094617,0.00079553,0.00003857,0.00008789,-0.00024685,0
 .00020904,-0.00002711,-0.00016288,0.00012689,-0.00011499,0.00002181,-0
 .00001998,0.00001553,-0.00000394,-0.00004053,-0.00007232,-0.00002941,-
 0.00001313,-0.00006989,-0.00002144,-0.00002827,0.00008311,-0.00000332,
 0.00003023,-0.00000699,0.00000226,0.00006798,0.00001143,-0.00003750,0.
 00002380,0.00001675,-0.00003151,0.00001496,0.00001257,-0.00000633,0.09
 999000,0.12437780,0.12559250,0.00165238,-0.00013951,-0.00029452,-0.000
 29367,0.00019538,0.00004793,0.00825160,0.01678863,0.00640613,0.0001975
 4,-0.00115220,0.00102238,-0.00389818,0.00159936,-0.00230748,-0.0776736
 1,0.01700343,-0.01564051,0.00097169,0.00102087,0.00058688,0.00017449,0
 .00024762,0.00032988,-0.00089149,-0.00024765,0.00039321,0.04840795,-0.
 03810904,-0.03035064,0.00011320,-0.00035768,-0.00021449,0.00016133,-0.
 00006308,-0.00026603,0.00002524,0.00015591,0.00008040,0.00018866,-0.00
 010311,-0.00007614,-0.00009557,-0.00000574,-0.00000337,0.00002532,-0.0
 0003033,0.00010654,0.00009687,0.00004234,0.00002924,0.00018898,-0.0000
 6652,0.00000024,0.00001785,0.00001083,-0.00000019,0.00001763,0.0000162
 4,0.00001034,0.00072770,-0.00094014,0.00004946,0.05411769,0.00237516,-
 0.00347800,0.00088062,0.00000190,-0.00015049,0.00059701,0.00025241,-0.
 01766612,-0.01993194,-0.00077978,0.00231683,-0.00046512,0.00342673,-0.
 00178515,0.00207514,0.03250157,-0.33930455,-0.10585734,-0.00082059,-0.
 00126233,-0.00022236,0.00001932,0.00035048,0.00003605,0.00101060,-0.00
 000232,-0.00042334,-0.01578994,0.02963884,-0.06535097,-0.00027094,0.00
 006492,-0.00021806,-0.00037048,0.00005689,0.00017154,0.00035129,0.0001
 1510,0.00004399,0.00000377,0.00004850,0.00028625,0.00004242,0.00004792
 ,0.00000419,0.00003295,0.00001870,-0.00011385,-0.00013611,-0.00002027,
 -0.00006822,-0.00021888,0.00006084,0.00007201,-0.00005800,-0.00005204,
 0.00008454,-0.00010382,-0.00005259,0.00003912,-0.00004863,-0.00054446,
 -0.00017998,-0.00701891,0.38203988,-0.00184567,0.00107649,0.00187510,-
 0.00140747,0.00063782,0.00002400,0.00231949,0.01007182,0.01108568,0.00
 158415,-0.00257276,0.00306391,-0.00091156,0.00189959,-0.00143849,-0.00
 734083,-0.14773892,-0.20006794,0.00014165,0.00066289,0.00071022,0.0001
 2374,0.00140445,0.00106975,-0.00007519,0.00015827,0.00030241,-0.013759
 86,-0.13791981,-0.10249533,-0.00039776,0.00038243,-0.00139554,0.000061
 19,0.00016614,0.00015296,0.00087718,0.00046185,0.00045132,0.00012429,-
 0.00018793,0.00035632,-0.00014037,-0.00004597,0.00023456,0.00004139,-0
 .00014834,0.00006306,0.00004300,-0.00004653,-0.00006491,-0.00008017,0.
 00003756,0.00014745,-0.00003307,-0.00006227,0.00003246,-0.00003997,-0.
 00003872,0.00006852,0.00053129,-0.00036694,-0.00017096,0.00814043,0.24
 485085,0.26459221,0.00180725,-0.00298180,0.00056433,0.00009255,0.00026
 298,0.00023305,0.00844889,0.00256631,-0.00441412,-0.00039947,0.0007526
 4,-0.00047896,-0.00065645,0.00037473,-0.00044933,0.01171382,0.04684820
 ,-0.00392261,0.00008082,0.00026511,0.00019773,0.00002357,-0.00009868,0
 .00009056,-0.00000202,-0.00017862,-0.00008523,-0.04040377,0.00872789,0
 .00267046,-0.00013991,0.00006400,0.00016787,-0.00001977,0.00000164,-0.
 00001671,0.00007035,-0.00014449,-0.00010666,0.00000375,0.00005500,0.00
 001079,-0.00001454,0.00001236,-0.00002899,-0.00002041,0.00002401,-0.00
 002734,-0.00007281,-0.00004126,-0.00001598,-0.00005015,0.00000774,0.00
 004229,-0.00000060,0.00000990,-0.00001841,0.00000645,-0.00000756,-0.00
 000954,-0.00042386,0.00012441,-0.00025594,-0.03248358,-0.01440204,0.01
 204413,0.05243986,0.00108651,-0.00023852,-0.00122584,0.00074451,-0.000
 47242,-0.00000061,-0.00283748,0.00129114,-0.00542818,-0.00058750,0.001
 37384,-0.00060581,0.00062317,-0.00026299,0.00055679,0.04918207,-0.0507
 6687,0.09697974,-0.00005949,-0.00022037,-0.00041550,-0.00010454,-0.000
 76893,-0.00041075,0.00007512,0.00000583,-0.00010521,-0.01663838,0.0179
 1490,-0.01144115,0.00020116,0.00008666,0.00058906,-0.00001137,-0.00004
 079,0.00005232,-0.00038389,-0.00029362,-0.00034108,-0.00020301,0.00011
 988,-0.00009068,0.00010745,-0.00000002,-0.00008505,-0.00002968,0.00004
 290,-0.00003557,-0.00000607,0.00000302,0.00003261,-0.00002156,0.000003
 95,-0.00009976,0.00001737,0.00002721,-0.00003752,0.00004337,0.00001818
 ,-0.00004591,-0.00010860,0.00011547,0.00004052,0.01115330,-0.05044056,
 0.02731802,-0.04224247,0.08250210,-0.00076175,0.00000840,-0.00063205,0
 .00084483,-0.00052589,0.00014397,-0.00203228,-0.00640384,-0.00605597,-
 0.00116337,0.00228037,-0.00194916,0.00043996,-0.00129896,0.00082833,-0
 .00524094,0.09630304,0.08603554,-0.00016863,-0.00035342,-0.00040864,-0
 .00006344,-0.00093074,-0.00047298,-0.00015215,0.00004024,-0.00010668,-
 0.01702292,0.07229634,-0.03864869,0.00021215,-0.00024503,0.00052519,0.
 00000998,-0.00007404,-0.00004875,-0.00031615,-0.00009291,-0.00017431,-
 0.00002957,0.00005873,-0.00012192,0.00009243,0.00001900,-0.00010310,-0
 .00001870,0.00004899,-0.00000686,-0.00000400,0.00003290,0.00004430,0.0
 0005272,-0.00001700,-0.00011646,0.00002214,0.00003197,-0.00001990,0.00
 002539,0.00002124,-0.00002775,-0.00048465,0.00031118,0.00007965,0.0319
 5031,-0.05631014,0.02140325,-0.00619140,-0.10520043,-0.06016701||-0.00
 001460,0.00001273,0.00000328,-0.00000043,-0.00000232,-0.00000780,-0.00
 003078,-0.00007487,-0.00006185,-0.00000137,0.00000212,-0.00000570,0.00
 001046,0.00000352,-0.00000138,0.00001898,0.00013318,0.00005452,-0.0000
 0176,-0.00000024,0.00000027,0.00000049,-0.00000351,-0.00000350,-0.0000
 0087,0.00000705,-0.00000122,0.00003617,0.00000055,0.00006613,-0.000003
 68,-0.00000117,0.00000231,0.00000251,-0.00000446,-0.00000206,-0.000006
 45,-0.00000066,0.00000476,0.00000031,-0.00000080,0.00000639,0.00000291
 ,-0.00000339,0.00000188,0.00000367,-0.00000101,-0.00000090,-0.00000126
 ,0.00000026,0.00000684,0.00000099,-0.00000049,0.00000438,0.00000580,-0
 .00000268,0.00000248,0.00000314,-0.00000200,0.00000703,0.00000868,0.00
 000055,-0.00000663,0.00000813,-0.00003294,-0.00005684,-0.00004105,-0.0
 0002940,-0.00001239|||@


 SIC AS THE CAWSE OF EWERY THING IS, SIC WILBE THE EFFECT.
 -- PROVERBS AND REASONS OF THE YEAR 1585
           AS REPRINTED IN PAISLEY MAGAZINE 1828.
 Job cpu time:  0 days  0 hours 10 minutes 54.0 seconds.
 File lengths (MBytes):  RWF=     52 Int=      0 D2E=      0 Chk=      8 Scr=      1
 Normal termination of Gaussian 03 at Fri Apr 01 17:27:28 2016.
