 Entering Link 1 = c:\G03W06\l1.exe PID=       888.
  
 Copyright (c) 1988,1990,1992,1993,1995,1998,2003,2004,2007, Gaussian, Inc.
                  All Rights Reserved.
  
 This is the Gaussian(R) 03 program.  It is based on the
 the Gaussian(R) 98 system (copyright 1998, Gaussian, Inc.),
 the Gaussian(R) 94 system (copyright 1995, Gaussian, Inc.),
 the Gaussian 92(TM) system (copyright 1992, Gaussian, Inc.),
 the Gaussian 90(TM) system (copyright 1990, Gaussian, Inc.),
 the Gaussian 88(TM) system (copyright 1988, Gaussian, Inc.),
 the Gaussian 86(TM) system (copyright 1986, Carnegie Mellon
 University), and the Gaussian 82(TM) system (copyright 1983,
 Carnegie Mellon University). Gaussian is a federally registered
 trademark of Gaussian, Inc.
  
 This software contains proprietary and confidential information,
 including trade secrets, belonging to Gaussian, Inc.
  
 This software is provided under written license and may be
 used, copied, transmitted, or stored only in accord with that
 written license.
  
 The following legend is applicable only to US Government
 contracts under FAR:
  
                    RESTRICTED RIGHTS LEGEND
  
 Use, reproduction and disclosure by the US Government is
 subject to restrictions as set forth in subparagraphs (a)
 and (c) of the Commercial Computer Software - Restricted
 Rights clause in FAR 52.227-19.
  
 Gaussian, Inc.
 340 Quinnipiac St., Bldg. 40, Wallingford CT 06492
  
  
 ---------------------------------------------------------------
 Warning -- This program may not be used in any manner that
 competes with the business of Gaussian, Inc. or will provide
 assistance to any competitor of Gaussian, Inc.  The licensee
 of this program is prohibited from giving any competitor of
 Gaussian, Inc. access to this program.  By using this program,
 the user acknowledges that Gaussian, Inc. is engaged in the
 business of creating and licensing software in the field of
 computational chemistry and represents and warrants to the
 licensee that it is not a competitor of Gaussian, Inc. and that
 it will not use this program in any manner prohibited above.
 ---------------------------------------------------------------
  

 Cite this work as:
 Gaussian 03, Revision E.01,
 M. J. Frisch, G. W. Trucks, H. B. Schlegel, G. E. Scuseria, 
 M. A. Robb, J. R. Cheeseman, J. A. Montgomery, Jr., T. Vreven, 
 K. N. Kudin, J. C. Burant, J. M. Millam, S. S. Iyengar, J. Tomasi, 
 V. Barone, B. Mennucci, M. Cossi, G. Scalmani, N. Rega, 
 G. A. Petersson, H. Nakatsuji, M. Hada, M. Ehara, K. Toyota, 
 R. Fukuda, J. Hasegawa, M. Ishida, T. Nakajima, Y. Honda, O. Kitao, 
 H. Nakai, M. Klene, X. Li, J. E. Knox, H. P. Hratchian, J. B. Cross, 
 V. Bakken, C. Adamo, J. Jaramillo, R. Gomperts, R. E. Stratmann, 
 O. Yazyev, A. J. Austin, R. Cammi, C. Pomelli, J. W. Ochterski, 
 P. Y. Ayala, K. Morokuma, G. A. Voth, P. Salvador, J. J. Dannenberg, 
 V. G. Zakrzewski, S. Dapprich, A. D. Daniels, M. C. Strain, 
 O. Farkas, D. K. Malick, A. D. Rabuck, K. Raghavachari, 
 J. B. Foresman, J. V. Ortiz, Q. Cui, A. G. Baboul, S. Clifford, 
 J. Cioslowski, B. B. Stefanov, G. Liu, A. Liashenko, P. Piskorz, 
 I. Komaromi, R. L. Martin, D. J. Fox, T. Keith, M. A. Al-Laham, 
 C. Y. Peng, A. Nanayakkara, M. Challacombe, P. M. W. Gill, 
 B. Johnson, W. Chen, M. W. Wong, C. Gonzalez, and J. A. Pople, 
 Gaussian, Inc., Wallingford CT, 2004.
 
 ******************************************
 Gaussian 03:  IA32W-G03RevE.01 11-Sep-2007
                30-Mar-2016 
 ******************************************
 %chk=E:\YangJ\Amiano\Phe\opt-rs\s\Phe-S-opt-freq-6-311gdp.chk
 ------------------------------
 # opt freq b3lyp/6-311++g(d,p)
 ------------------------------
 1/14=-1,18=20,26=3,38=1/1,3;
 2/9=110,17=6,18=5,40=1/2;
 3/5=4,6=6,7=1111,11=2,16=1,25=1,30=1,74=-5/1,2,3;
 4//1;
 5/5=2,38=5/2;
 6/7=2,8=2,9=2,10=2,28=1/1;
 7//1,2,3,16;
 1/14=-1,18=20/3(3);
 2/9=110/2;
 6/7=2,8=2,9=2,10=2,19=2,28=1/1;
 99//99;
 2/9=110/2;
 3/5=4,6=6,7=1111,11=2,16=1,25=1,30=1,74=-5/1,2,3;
 4/5=5,16=3/1;
 5/5=2,38=5/2;
 7//1,2,3,16;
 1/14=-1,18=20/3(-5);
 2/9=110/2;
 6/7=2,8=2,9=2,10=2,19=2,28=1/1;
 99/9=1/99;
 ----------------------------
 Phe-S-opt-freq-6-311++g(d,p)
 ----------------------------
 Symbolic Z-matrix:
 Charge =  0 Multiplicity = 1
 N                    -3.028    -1.25234  -0.07174 
 H                    -3.37911  -0.85245  -0.93716 
 C                    -1.70307  -0.71411   0.23549 
 H                    -1.40214  -1.07791   1.21992 
 C                    -0.60161  -1.07911  -0.80264 
 C                    -1.85486   0.79997   0.31429 
 H                    -0.58933  -2.17171  -0.87681 
 H                    -0.91659  -0.6915   -1.77568 
 C                     0.78161  -0.57323  -0.45929 
 O                    -2.30196   1.47935  -0.57739 
 C                     1.28387   0.59744  -1.0386 
 C                     1.58114  -1.25346   0.46726 
 H                     0.68107   1.13518  -1.76336 
 C                     2.54781   1.07789  -0.69865 
 C                     2.84391  -0.77635   0.81003 
 H                     1.21452  -2.16955   0.92069 
 H                     2.92121   1.9845   -1.162 
 C                     3.3314    0.39321   0.22785 
 H                     3.44929  -1.31948   1.52733 
 H                     4.3155    0.76429   0.49101 
 H                    -2.99191  -2.26044  -0.17893 
 O                    -1.42673   1.31049   1.4852 
 H                    -1.53811   2.27314   1.44018 
 

 GradGradGradGradGradGradGradGradGradGradGradGradGradGradGradGradGradGrad
 Berny optimization.
 Initialization pass.
                           ----------------------------
                           !    Initial Parameters    !
                           ! (Angstroms and Degrees)  !
 --------------------------                            --------------------------
 ! Name  Definition              Value          Derivative Info.                !
 --------------------------------------------------------------------------------
 ! R1    R(1,2)                  1.0159         estimate D2E/DX2                !
 ! R2    R(1,3)                  1.4627         estimate D2E/DX2                !
 ! R3    R(1,21)                 1.0144         estimate D2E/DX2                !
 ! R4    R(3,4)                  1.0918         estimate D2E/DX2                !
 ! R5    R(3,5)                  1.557          estimate D2E/DX2                !
 ! R6    R(3,6)                  1.5237         estimate D2E/DX2                !
 ! R7    R(5,7)                  1.0952         estimate D2E/DX2                !
 ! R8    R(5,8)                  1.0937         estimate D2E/DX2                !
 ! R9    R(5,9)                  1.5123         estimate D2E/DX2                !
 ! R10   R(6,10)                 1.2069         estimate D2E/DX2                !
 ! R11   R(6,22)                 1.3472         estimate D2E/DX2                !
 ! R12   R(9,11)                 1.3994         estimate D2E/DX2                !
 ! R13   R(9,12)                 1.4002         estimate D2E/DX2                !
 ! R14   R(11,13)                1.0853         estimate D2E/DX2                !
 ! R15   R(11,14)                1.3943         estimate D2E/DX2                !
 ! R16   R(12,15)                1.3927         estimate D2E/DX2                !
 ! R17   R(12,16)                1.0859         estimate D2E/DX2                !
 ! R18   R(14,17)                1.0845         estimate D2E/DX2                !
 ! R19   R(14,18)                1.3933         estimate D2E/DX2                !
 ! R20   R(15,18)                1.3944         estimate D2E/DX2                !
 ! R21   R(15,19)                1.0844         estimate D2E/DX2                !
 ! R22   R(18,20)                1.0842         estimate D2E/DX2                !
 ! R23   R(22,23)                0.9701         estimate D2E/DX2                !
 ! A1    A(2,1,3)              110.3112         estimate D2E/DX2                !
 ! A2    A(2,1,21)             108.2669         estimate D2E/DX2                !
 ! A3    A(3,1,21)             110.8329         estimate D2E/DX2                !
 ! A4    A(1,3,4)              108.4472         estimate D2E/DX2                !
 ! A5    A(1,3,5)              114.4873         estimate D2E/DX2                !
 ! A6    A(1,3,6)              106.6346         estimate D2E/DX2                !
 ! A7    A(4,3,5)              109.1532         estimate D2E/DX2                !
 ! A8    A(4,3,6)              108.176          estimate D2E/DX2                !
 ! A9    A(5,3,6)              109.7497         estimate D2E/DX2                !
 ! A10   A(3,5,7)              106.6767         estimate D2E/DX2                !
 ! A11   A(3,5,8)              107.8407         estimate D2E/DX2                !
 ! A12   A(3,5,9)              114.6613         estimate D2E/DX2                !
 ! A13   A(7,5,8)              107.2491         estimate D2E/DX2                !
 ! A14   A(7,5,9)              109.8061         estimate D2E/DX2                !
 ! A15   A(8,5,9)              110.2938         estimate D2E/DX2                !
 ! A16   A(3,6,10)             123.9218         estimate D2E/DX2                !
 ! A17   A(3,6,22)             112.9446         estimate D2E/DX2                !
 ! A18   A(10,6,22)            123.1317         estimate D2E/DX2                !
 ! A19   A(5,9,11)             120.9385         estimate D2E/DX2                !
 ! A20   A(5,9,12)             120.664          estimate D2E/DX2                !
 ! A21   A(11,9,12)            118.3864         estimate D2E/DX2                !
 ! A22   A(9,11,13)            119.4463         estimate D2E/DX2                !
 ! A23   A(9,11,14)            120.8433         estimate D2E/DX2                !
 ! A24   A(13,11,14)           119.7102         estimate D2E/DX2                !
 ! A25   A(9,12,15)            120.9419         estimate D2E/DX2                !
 ! A26   A(9,12,16)            119.5628         estimate D2E/DX2                !
 ! A27   A(15,12,16)           119.4942         estimate D2E/DX2                !
 ! A28   A(11,14,17)           119.7378         estimate D2E/DX2                !
 ! A29   A(11,14,18)           120.1754         estimate D2E/DX2                !
 ! A30   A(17,14,18)           120.0862         estimate D2E/DX2                !
 ! A31   A(12,15,18)           120.1023         estimate D2E/DX2                !
 ! A32   A(12,15,19)           119.8259         estimate D2E/DX2                !
 ! A33   A(18,15,19)           120.0711         estimate D2E/DX2                !
 ! A34   A(14,18,15)           119.5502         estimate D2E/DX2                !
 ! A35   A(14,18,20)           120.2463         estimate D2E/DX2                !
 ! A36   A(15,18,20)           120.2028         estimate D2E/DX2                !
 ! A37   A(6,22,23)            107.4098         estimate D2E/DX2                !
 ! D1    D(2,1,3,4)            173.9323         estimate D2E/DX2                !
 ! D2    D(2,1,3,5)            -63.9284         estimate D2E/DX2                !
 ! D3    D(2,1,3,6)             57.646          estimate D2E/DX2                !
 ! D4    D(21,1,3,4)           -66.1702         estimate D2E/DX2                !
 ! D5    D(21,1,3,5)            55.969          estimate D2E/DX2                !
 ! D6    D(21,1,3,6)           177.5434         estimate D2E/DX2                !
 ! D7    D(1,3,5,7)            -55.7916         estimate D2E/DX2                !
 ! D8    D(1,3,5,8)             59.1441         estimate D2E/DX2                !
 ! D9    D(1,3,5,9)           -177.5783         estimate D2E/DX2                !
 ! D10   D(4,3,5,7)             65.9622         estimate D2E/DX2                !
 ! D11   D(4,3,5,8)           -179.102          estimate D2E/DX2                !
 ! D12   D(4,3,5,9)            -55.8245         estimate D2E/DX2                !
 ! D13   D(6,3,5,7)           -175.6424         estimate D2E/DX2                !
 ! D14   D(6,3,5,8)            -60.7067         estimate D2E/DX2                !
 ! D15   D(6,3,5,9)             62.5708         estimate D2E/DX2                !
 ! D16   D(1,3,6,10)           -56.1076         estimate D2E/DX2                !
 ! D17   D(1,3,6,22)           124.3809         estimate D2E/DX2                !
 ! D18   D(4,3,6,10)          -172.5749         estimate D2E/DX2                !
 ! D19   D(4,3,6,22)             7.9136         estimate D2E/DX2                !
 ! D20   D(5,3,6,10)            68.4267         estimate D2E/DX2                !
 ! D21   D(5,3,6,22)          -111.0847         estimate D2E/DX2                !
 ! D22   D(3,5,9,11)           -98.8031         estimate D2E/DX2                !
 ! D23   D(3,5,9,12)            79.968          estimate D2E/DX2                !
 ! D24   D(7,5,9,11)           141.1321         estimate D2E/DX2                !
 ! D25   D(7,5,9,12)           -40.0969         estimate D2E/DX2                !
 ! D26   D(8,5,9,11)            23.1492         estimate D2E/DX2                !
 ! D27   D(8,5,9,12)          -158.0797         estimate D2E/DX2                !
 ! D28   D(3,6,22,23)          178.5826         estimate D2E/DX2                !
 ! D29   D(10,6,22,23)          -0.9333         estimate D2E/DX2                !
 ! D30   D(5,9,11,13)           -1.5663         estimate D2E/DX2                !
 ! D31   D(5,9,11,14)          178.5893         estimate D2E/DX2                !
 ! D32   D(12,9,11,13)         179.6353         estimate D2E/DX2                !
 ! D33   D(12,9,11,14)          -0.2091         estimate D2E/DX2                !
 ! D34   D(5,9,12,15)         -178.5558         estimate D2E/DX2                !
 ! D35   D(5,9,12,16)            1.8355         estimate D2E/DX2                !
 ! D36   D(11,9,12,15)           0.2461         estimate D2E/DX2                !
 ! D37   D(11,9,12,16)        -179.3626         estimate D2E/DX2                !
 ! D38   D(9,11,14,17)         179.7207         estimate D2E/DX2                !
 ! D39   D(9,11,14,18)           0.0237         estimate D2E/DX2                !
 ! D40   D(13,11,14,17)         -0.1232         estimate D2E/DX2                !
 ! D41   D(13,11,14,18)       -179.8203         estimate D2E/DX2                !
 ! D42   D(9,12,15,18)          -0.0975         estimate D2E/DX2                !
 ! D43   D(9,12,15,19)        -179.7949         estimate D2E/DX2                !
 ! D44   D(16,12,15,18)        179.5115         estimate D2E/DX2                !
 ! D45   D(16,12,15,19)         -0.186          estimate D2E/DX2                !
 ! D46   D(11,14,18,15)          0.1294         estimate D2E/DX2                !
 ! D47   D(11,14,18,20)        179.8324         estimate D2E/DX2                !
 ! D48   D(17,14,18,15)       -179.5666         estimate D2E/DX2                !
 ! D49   D(17,14,18,20)          0.1365         estimate D2E/DX2                !
 ! D50   D(12,15,18,14)         -0.0929         estimate D2E/DX2                !
 ! D51   D(12,15,18,20)       -179.7961         estimate D2E/DX2                !
 ! D52   D(19,15,18,14)        179.6037         estimate D2E/DX2                !
 ! D53   D(19,15,18,20)         -0.0994         estimate D2E/DX2                !
 --------------------------------------------------------------------------------
 Trust Radius=3.00D-01 FncErr=1.00D-07 GrdErr=1.00D-06
 Number of steps in this run= 123 maximum allowed number of steps= 138.
 GradGradGradGradGradGradGradGradGradGradGradGradGradGradGradGradGradGrad

                          Input orientation:                          
 ---------------------------------------------------------------------
 Center     Atomic     Atomic              Coordinates (Angstroms)
 Number     Number      Type              X           Y           Z
 ---------------------------------------------------------------------
    1          7             0       -3.028003   -1.252341   -0.071738
    2          1             0       -3.379105   -0.852448   -0.937162
    3          6             0       -1.703065   -0.714105    0.235489
    4          1             0       -1.402143   -1.077909    1.219920
    5          6             0       -0.601609   -1.079106   -0.802637
    6          6             0       -1.854863    0.799973    0.314293
    7          1             0       -0.589327   -2.171711   -0.876814
    8          1             0       -0.916589   -0.691498   -1.775675
    9          6             0        0.781610   -0.573225   -0.459293
   10          8             0       -2.301957    1.479353   -0.577391
   11          6             0        1.283865    0.597444   -1.038600
   12          6             0        1.581135   -1.253462    0.467264
   13          1             0        0.681072    1.135179   -1.763364
   14          6             0        2.547810    1.077887   -0.698648
   15          6             0        2.843910   -0.776350    0.810032
   16          1             0        1.214519   -2.169548    0.920692
   17          1             0        2.921206    1.984501   -1.161999
   18          6             0        3.331398    0.393211    0.227849
   19          1             0        3.449286   -1.319480    1.527331
   20          1             0        4.315496    0.764288    0.491009
   21          1             0       -2.991912   -2.260440   -0.178931
   22          8             0       -1.426733    1.310487    1.485203
   23          1             0       -1.538110    2.273144    1.440177
 ---------------------------------------------------------------------
                    Distance matrix (angstroms):
                    1          2          3          4          5
     1  N    0.000000
     2  H    1.015946   0.000000
     3  C    1.462719   2.050210   0.000000
     4  H    2.083801   2.934657   1.091793   0.000000
     5  C    2.540002   2.789974   1.556964   2.175223   0.000000
     6  C    2.395260   2.572926   1.523708   2.133438   2.519745
     7  H    2.727733   3.086577   2.145284   2.500673   1.095189
     8  H    2.770562   2.606337   2.159592   3.059194   1.093735
     9  C    3.889029   4.197365   2.583830   2.800578   1.512315
    10  O    2.871407   2.593642   2.414685   3.252627   3.080200
    11  C    4.790484   4.884236   3.502173   3.888748   2.534070
    12  C    4.640547   5.170803   3.336255   3.081762   2.531288
    13  H    4.724308   4.595466   3.619306   4.258818   2.733372
    14  C    6.075580   6.237901   4.706781   4.891880   3.818674
    15  C    5.956798   6.464085   4.583553   4.276437   3.816276
    16  H    4.452547   5.127159   3.331683   2.850988   2.730796
    17  H    6.859949   6.913230   5.533474   5.808893   4.682420
    18  C    6.575681   6.923855   5.154806   5.055176   4.324137
    19  H    6.672091   7.274529   5.346219   4.867157   4.679346
    20  H    7.636128   7.991270   6.202742   6.051148   5.408285
    21  H    1.014424   1.645380   2.055243   2.425393   2.738267
    22  O    3.399444   3.789181   2.395228   2.403209   3.409574
    23  H    4.115181   4.337088   3.225235   3.361035   4.140631
                    6          7          8          9         10
     6  C    0.000000
     7  H    3.442561   0.000000
     8  H    2.733644   1.762408   0.000000
     9  C    3.071660   2.146846   2.151913   0.000000
    10  O    1.206876   4.043887   2.840374   3.706131   0.000000
    11  C    3.423880   3.347124   2.654552   1.399401   3.721370
    12  C    4.005756   2.713049   3.403704   1.400168   4.861891
    13  H    3.295450   3.651768   2.426813   2.151593   3.228537
    14  C    4.526236   4.520316   4.036430   2.429593   4.867866
    15  C    4.980865   4.071805   4.564475   2.430129   5.787321
    16  H    4.313569   2.546545   3.741209   2.154070   5.284348
    17  H    5.137449   5.447868   4.718712   3.407878   5.279997
    18  C    5.202906   4.813646   4.820383   2.812042   5.793341
    19  H    5.839310   4.776673   5.510451   3.408822   6.733507
    20  H    6.172992   5.877782   5.884886   3.896199   6.741178
    21  H    3.301860   2.503463   3.052562   4.143038   3.823723
    22  O    1.347201   4.290230   3.860248   3.493739   2.246959
    23  H    1.881005   5.101507   4.417816   4.134115   2.298727
                   11         12         13         14         15
    11  C    0.000000
    12  C    2.404548   0.000000
    13  H    1.085265   3.389900   0.000000
    14  C    1.394256   2.780108   2.149794   0.000000
    15  C    2.781814   1.392741   3.867063   2.408731   0.000000
    16  H    3.391147   1.085918   4.290681   3.865975   2.146663
    17  H    2.149428   3.864543   2.470058   1.084467   3.393697
    18  C    2.416194   2.415010   3.397010   1.393265   1.394437
    19  H    3.866219   2.148974   4.951468   3.393377   1.084430
    20  H    3.399754   3.398324   4.292877   2.153681   2.154276
    21  H    5.214288   4.726979   5.247044   6.488687   6.102245
    22  O    3.771651   4.081336   3.876437   4.540958   4.800952
    23  H    4.112888   4.807619   4.059853   4.764237   5.375741
                   16         17         18         19         20
    16  H    0.000000
    17  H    4.950405   0.000000
    18  C    3.395430   2.152240   0.000000
    19  H    2.466741   4.292744   2.153105   0.000000
    20  H    4.290464   2.483022   1.084159   2.483218   0.000000
    21  H    4.348735   7.345128   6.869613   6.729470   7.937003
    22  O    4.405171   5.134837   5.006211   5.540222   5.853200
    23  H    5.252080   5.171086   5.358731   6.147248   6.119009
                   21         22         23
    21  H    0.000000
    22  O    4.239180   0.000000
    23  H    5.028761   0.970124   0.000000
 Stoichiometry    C9H11NO2
 Framework group  C1[X(C9H11NO2)]
 Deg. of freedom    63
 Full point group                 C1
 Largest Abelian subgroup         C1      NOp   1
 Largest concise Abelian subgroup C1      NOp   1
                         Standard orientation:                         
 ---------------------------------------------------------------------
 Center     Atomic     Atomic              Coordinates (Angstroms)
 Number     Number      Type              X           Y           Z
 ---------------------------------------------------------------------
    1          7             0       -3.028003   -1.252341   -0.071738
    2          1             0       -3.379105   -0.852448   -0.937162
    3          6             0       -1.703065   -0.714105    0.235489
    4          1             0       -1.402143   -1.077909    1.219920
    5          6             0       -0.601609   -1.079106   -0.802637
    6          6             0       -1.854863    0.799973    0.314293
    7          1             0       -0.589327   -2.171711   -0.876814
    8          1             0       -0.916589   -0.691498   -1.775675
    9          6             0        0.781610   -0.573225   -0.459293
   10          8             0       -2.301957    1.479353   -0.577391
   11          6             0        1.283865    0.597444   -1.038600
   12          6             0        1.581135   -1.253462    0.467264
   13          1             0        0.681072    1.135179   -1.763364
   14          6             0        2.547810    1.077887   -0.698648
   15          6             0        2.843910   -0.776350    0.810032
   16          1             0        1.214519   -2.169548    0.920692
   17          1             0        2.921206    1.984501   -1.161999
   18          6             0        3.331398    0.393211    0.227849
   19          1             0        3.449286   -1.319480    1.527331
   20          1             0        4.315496    0.764288    0.491009
   21          1             0       -2.991912   -2.260440   -0.178931
   22          8             0       -1.426733    1.310487    1.485203
   23          1             0       -1.538110    2.273144    1.440177
 ---------------------------------------------------------------------
 Rotational constants (GHZ):      1.7375274      0.5889404      0.5314752
 Standard basis: 6-311++G(d,p) (5D, 7F)
 There are   341 symmetry adapted basis functions of A   symmetry.
 Integral buffers will be    262144 words long.
 Raffenetti 2 integral format.
 Two-electron integral symmetry is turned on.
   341 basis functions,   531 primitive gaussians,   353 cartesian basis functions
    44 alpha electrons       44 beta electrons
       nuclear repulsion energy       681.6769304992 Hartrees.
 NAtoms=   23 NActive=   23 NUniq=   23 SFac= 7.50D-01 NAtFMM=   80 NAOKFM=F Big=F
 One-electron integrals computed using PRISM.
 NBasis=   341 RedAO= T  NBF=   341
 NBsUse=   340 1.00D-06 NBFU=   340
 Harris functional with IExCor=  402 diagonalized for initial guess.
 ExpMin= 3.60D-02 ExpMax= 8.59D+03 ExpMxC= 1.30D+03 IAcc=3 IRadAn=         5 AccDes= 0.00D+00
 HarFok:  IExCor= 402 AccDes= 0.00D+00 IRadAn=         5 IDoV=1
 ScaDFX=  1.000000  1.000000  1.000000  1.000000
 Initial guess orbital symmetries:
       Occupied  (A) (A) (A) (A) (A) (A) (A) (A) (A) (A) (A) (A)
                 (A) (A) (A) (A) (A) (A) (A) (A) (A) (A) (A) (A)
                 (A) (A) (A) (A) (A) (A) (A) (A) (A) (A) (A) (A)
                 (A) (A) (A) (A) (A) (A) (A) (A)
       Virtual   (A) (A) (A) (A) (A) (A) (A) (A) (A) (A) (A) (A)
                 (A) (A) (A) (A) (A) (A) (A) (A) (A) (A) (A) (A)
                 (A) (A) (A) (A) (A) (A) (A) (A) (A) (A) (A) (A)
                 (A) (A) (A) (A) (A) (A) (A) (A) (A) (A) (A) (A)
                 (A) (A) (A) (A) (A) (A) (A) (A) (A) (A) (A) (A)
                 (A) (A) (A) (A) (A) (A) (A) (A) (A) (A) (A) (A)
                 (A) (A) (A) (A) (A) (A) (A) (A) (A) (A) (A) (A)
                 (A) (A) (A) (A) (A) (A) (A) (A) (A) (A) (A) (A)
                 (A) (A) (A) (A) (A) (A) (A) (A) (A) (A) (A) (A)
                 (A) (A) (A) (A) (A) (A) (A) (A) (A) (A) (A) (A)
                 (A) (A) (A) (A) (A) (A) (A) (A) (A) (A) (A) (A)
                 (A) (A) (A) (A) (A) (A) (A) (A) (A) (A) (A) (A)
                 (A) (A) (A) (A) (A) (A) (A) (A) (A) (A) (A) (A)
                 (A) (A) (A) (A) (A) (A) (A) (A) (A) (A) (A) (A)
                 (A) (A) (A) (A) (A) (A) (A) (A) (A) (A) (A) (A)
                 (A) (A) (A) (A) (A) (A) (A) (A) (A) (A) (A) (A)
                 (A) (A) (A) (A) (A) (A) (A) (A) (A) (A) (A) (A)
                 (A) (A) (A) (A) (A) (A) (A) (A) (A) (A) (A) (A)
                 (A) (A) (A) (A) (A) (A) (A) (A) (A) (A) (A) (A)
                 (A) (A) (A) (A) (A) (A) (A) (A) (A) (A) (A) (A)
                 (A) (A) (A) (A) (A) (A) (A) (A) (A) (A) (A) (A)
                 (A) (A) (A) (A) (A) (A) (A) (A) (A) (A) (A) (A)
                 (A) (A) (A) (A) (A) (A) (A) (A) (A) (A) (A) (A)
                 (A) (A) (A) (A) (A) (A) (A) (A) (A) (A) (A) (A)
                 (A) (A) (A) (A) (A) (A) (A) (A)
 The electronic state of the initial guess is 1-A.
 Requested convergence on RMS density matrix=1.00D-08 within 128 cycles.
 Requested convergence on MAX density matrix=1.00D-06.
 Requested convergence on             energy=1.00D-06.
 No special actions if energy rises.
 SCF Done:  E(RB+HF-LYP) =  -554.958795217     A.U. after   14 cycles
             Convg  =    0.7778D-08             -V/T =  2.0041
             S**2   =   0.0000

 **********************************************************************

            Population analysis using the SCF density.

 **********************************************************************

 Orbital symmetries:
       Occupied  (A) (A) (A) (A) (A) (A) (A) (A) (A) (A) (A) (A)
                 (A) (A) (A) (A) (A) (A) (A) (A) (A) (A) (A) (A)
                 (A) (A) (A) (A) (A) (A) (A) (A) (A) (A) (A) (A)
                 (A) (A) (A) (A) (A) (A) (A) (A)
       Virtual   (A) (A) (A) (A) (A) (A) (A) (A) (A) (A) (A) (A)
                 (A) (A) (A) (A) (A) (A) (A) (A) (A) (A) (A) (A)
                 (A) (A) (A) (A) (A) (A) (A) (A) (A) (A) (A) (A)
                 (A) (A) (A) (A) (A) (A) (A) (A) (A) (A) (A) (A)
                 (A) (A) (A) (A) (A) (A) (A) (A) (A) (A) (A) (A)
                 (A) (A) (A) (A) (A) (A) (A) (A) (A) (A) (A) (A)
                 (A) (A) (A) (A) (A) (A) (A) (A) (A) (A) (A) (A)
                 (A) (A) (A) (A) (A) (A) (A) (A) (A) (A) (A) (A)
                 (A) (A) (A) (A) (A) (A) (A) (A) (A) (A) (A) (A)
                 (A) (A) (A) (A) (A) (A) (A) (A) (A) (A) (A) (A)
                 (A) (A) (A) (A) (A) (A) (A) (A) (A) (A) (A) (A)
                 (A) (A) (A) (A) (A) (A) (A) (A) (A) (A) (A) (A)
                 (A) (A) (A) (A) (A) (A) (A) (A) (A) (A) (A) (A)
                 (A) (A) (A) (A) (A) (A) (A) (A) (A) (A) (A) (A)
                 (A) (A) (A) (A) (A) (A) (A) (A) (A) (A) (A) (A)
                 (A) (A) (A) (A) (A) (A) (A) (A) (A) (A) (A) (A)
                 (A) (A) (A) (A) (A) (A) (A) (A) (A) (A) (A) (A)
                 (A) (A) (A) (A) (A) (A) (A) (A) (A) (A) (A) (A)
                 (A) (A) (A) (A) (A) (A) (A) (A) (A) (A) (A) (A)
                 (A) (A) (A) (A) (A) (A) (A) (A) (A) (A) (A) (A)
                 (A) (A) (A) (A) (A) (A) (A) (A) (A) (A) (A) (A)
                 (A) (A) (A) (A) (A) (A) (A) (A) (A) (A) (A) (A)
                 (A) (A) (A) (A) (A) (A) (A) (A) (A) (A) (A) (A)
                 (A) (A) (A) (A) (A) (A) (A) (A) (A) (A) (A) (A)
                 (A) (A) (A) (A) (A) (A) (A) (A)
 The electronic state is 1-A.
 Alpha  occ. eigenvalues --  -19.18348 -19.12606 -14.30937 -10.31543 -10.22753
 Alpha  occ. eigenvalues --  -10.19123 -10.18836 -10.18185 -10.18122 -10.18096
 Alpha  occ. eigenvalues --  -10.17996 -10.17958  -1.12501  -1.03560  -0.90829
 Alpha  occ. eigenvalues --   -0.86717  -0.79232  -0.75458  -0.73526  -0.68474
 Alpha  occ. eigenvalues --   -0.61655  -0.61046  -0.58615  -0.54260  -0.52270
 Alpha  occ. eigenvalues --   -0.49896  -0.48894  -0.47213  -0.46653  -0.45477
 Alpha  occ. eigenvalues --   -0.43865  -0.42959  -0.42242  -0.41383  -0.39736
 Alpha  occ. eigenvalues --   -0.37926  -0.36993  -0.35414  -0.34950  -0.33680
 Alpha  occ. eigenvalues --   -0.29588  -0.26982  -0.26286  -0.24721
 Alpha virt. eigenvalues --   -0.02457  -0.02235  -0.01372  -0.01129  -0.00508
 Alpha virt. eigenvalues --    0.00006   0.00783   0.01987   0.02306   0.03216
 Alpha virt. eigenvalues --    0.04302   0.05119   0.05302   0.05986   0.06903
 Alpha virt. eigenvalues --    0.07244   0.08300   0.08938   0.09279   0.09567
 Alpha virt. eigenvalues --    0.09790   0.10287   0.10827   0.11116   0.11689
 Alpha virt. eigenvalues --    0.11709   0.11893   0.12263   0.12858   0.13209
 Alpha virt. eigenvalues --    0.13355   0.14161   0.14589   0.15107   0.15268
 Alpha virt. eigenvalues --    0.15795   0.16201   0.16714   0.17481   0.17666
 Alpha virt. eigenvalues --    0.18017   0.18552   0.18924   0.19189   0.19835
 Alpha virt. eigenvalues --    0.20256   0.20620   0.21554   0.22279   0.22787
 Alpha virt. eigenvalues --    0.23223   0.23768   0.24258   0.24728   0.24962
 Alpha virt. eigenvalues --    0.25957   0.26160   0.26867   0.27448   0.28192
 Alpha virt. eigenvalues --    0.28225   0.28703   0.29116   0.29796   0.30022
 Alpha virt. eigenvalues --    0.30539   0.30764   0.31166   0.31922   0.33010
 Alpha virt. eigenvalues --    0.33631   0.34363   0.35181   0.35892   0.36185
 Alpha virt. eigenvalues --    0.36761   0.37584   0.38044   0.38513   0.38806
 Alpha virt. eigenvalues --    0.40381   0.44125   0.47409   0.48693   0.50577
 Alpha virt. eigenvalues --    0.52645   0.52925   0.54569   0.55343   0.55546
 Alpha virt. eigenvalues --    0.56304   0.56356   0.57276   0.57428   0.58000
 Alpha virt. eigenvalues --    0.59030   0.59161   0.60653   0.61683   0.62209
 Alpha virt. eigenvalues --    0.64841   0.67047   0.67644   0.69155   0.69502
 Alpha virt. eigenvalues --    0.70302   0.71104   0.71811   0.72354   0.73474
 Alpha virt. eigenvalues --    0.73962   0.74853   0.75443   0.76374   0.78192
 Alpha virt. eigenvalues --    0.78385   0.79098   0.82301   0.84083   0.85135
 Alpha virt. eigenvalues --    0.85323   0.86763   0.88038   0.88599   0.89999
 Alpha virt. eigenvalues --    0.91473   0.91629   0.93127   0.94446   0.94974
 Alpha virt. eigenvalues --    0.99022   1.01696   1.02571   1.03777   1.05756
 Alpha virt. eigenvalues --    1.06721   1.08241   1.10787   1.11960   1.14243
 Alpha virt. eigenvalues --    1.14674   1.16061   1.17075   1.20094   1.22105
 Alpha virt. eigenvalues --    1.24227   1.25116   1.27235   1.30386   1.31536
 Alpha virt. eigenvalues --    1.33680   1.35994   1.40820   1.46169   1.47999
 Alpha virt. eigenvalues --    1.48853   1.50333   1.51587   1.52330   1.54132
 Alpha virt. eigenvalues --    1.55757   1.56759   1.57198   1.58192   1.59409
 Alpha virt. eigenvalues --    1.60697   1.62361   1.62888   1.64331   1.65618
 Alpha virt. eigenvalues --    1.66859   1.67402   1.70066   1.71164   1.72168
 Alpha virt. eigenvalues --    1.73890   1.74381   1.76476   1.78179   1.79687
 Alpha virt. eigenvalues --    1.81486   1.83927   1.84756   1.86058   1.88190
 Alpha virt. eigenvalues --    1.89689   1.92224   1.92911   1.94119   1.95113
 Alpha virt. eigenvalues --    1.95310   1.95673   1.96512   1.98808   2.01875
 Alpha virt. eigenvalues --    2.05115   2.06508   2.08276   2.09149   2.09800
 Alpha virt. eigenvalues --    2.13558   2.20189   2.21424   2.24796   2.27237
 Alpha virt. eigenvalues --    2.32512   2.34361   2.37778   2.40253   2.43553
 Alpha virt. eigenvalues --    2.45476   2.46048   2.47883   2.54592   2.56478
 Alpha virt. eigenvalues --    2.57790   2.60291   2.62159   2.63614   2.64604
 Alpha virt. eigenvalues --    2.66265   2.67995   2.70432   2.71078   2.71770
 Alpha virt. eigenvalues --    2.72643   2.73744   2.74963   2.76015   2.78973
 Alpha virt. eigenvalues --    2.80718   2.81252   2.82573   2.85091   2.86432
 Alpha virt. eigenvalues --    2.87656   2.89640   2.90100   2.92221   2.93044
 Alpha virt. eigenvalues --    2.95753   2.96372   2.97819   3.00707   3.02649
 Alpha virt. eigenvalues --    3.05863   3.09052   3.10676   3.15528   3.17496
 Alpha virt. eigenvalues --    3.18100   3.19213   3.25985   3.31248   3.36442
 Alpha virt. eigenvalues --    3.38306   3.38587   3.49646   3.54711   3.57120
 Alpha virt. eigenvalues --    3.61781   3.62666   3.66726   3.70907   3.79994
 Alpha virt. eigenvalues --    3.84632   3.99803   4.03845   4.05610   4.10727
 Alpha virt. eigenvalues --    4.11309   4.15679   4.15823   4.21753   4.33651
 Alpha virt. eigenvalues --    4.73834   4.84313   4.85353   5.00942   5.08655
 Alpha virt. eigenvalues --    5.18358   5.41240   5.60254   5.85696  23.61899
 Alpha virt. eigenvalues --   23.79462  23.82071  23.91155  23.97028  23.98003
 Alpha virt. eigenvalues --   24.08360  24.09604  24.18983  35.60481  49.87942
 Alpha virt. eigenvalues --   50.01751
          Condensed to atoms (all electrons):
              1          2          3          4          5          6
     1  N    6.747223   0.372556  -0.278770  -0.033450   0.275817   0.011554
     2  H    0.372556   0.432816   0.017481   0.006273   0.007453  -0.029043
     3  C   -0.278770   0.017481  10.045176   0.606104  -1.528750  -1.854733
     4  H   -0.033450   0.006273   0.606104   0.577985   0.079152  -0.322465
     5  C    0.275817   0.007453  -1.528750   0.079152  10.446461   0.056316
     6  C    0.011554  -0.029043  -1.854733  -0.322465   0.056316   7.192250
     7  H   -0.011261  -0.004052  -0.086832  -0.022994   0.349209   0.023932
     8  H   -0.000466   0.003265   0.028537   0.023738   0.517452  -0.111455
     9  C   -0.145901   0.001024  -0.623003  -0.182521  -2.508903   0.448861
    10  O   -0.037121   0.003165  -0.047299   0.007268   0.004989   0.532721
    11  C   -0.107929   0.000786   0.141130   0.000269  -0.503613   0.182405
    12  C    0.101813  -0.006125   0.057628   0.024602  -0.709610  -0.164170
    13  H   -0.006034   0.000116   0.007654  -0.002454  -0.042817   0.001254
    14  C    0.003131  -0.002003   0.133848   0.016281   0.042853  -0.048218
    15  C    0.014135   0.000274  -0.044006   0.004883  -0.075579   0.033070
    16  H   -0.006631   0.000153   0.004457  -0.010115  -0.015263   0.011373
    17  H    0.000599  -0.000080   0.000663   0.001038   0.013638  -0.004146
    18  C   -0.003994   0.000696  -0.015795  -0.021536   0.006270   0.074114
    19  H    0.000059  -0.000047  -0.000862   0.001768   0.008180  -0.002612
    20  H   -0.000160   0.000024   0.000912  -0.000628  -0.007441   0.000957
    21  H    0.395965  -0.055219  -0.052597  -0.010985  -0.012965   0.021789
    22  O   -0.031896   0.001038  -0.002597   0.008497  -0.132000   0.176450
    23  H   -0.001690  -0.000088  -0.032007   0.003426   0.010925   0.041738
              7          8          9         10         11         12
     1  N   -0.011261  -0.000466  -0.145901  -0.037121  -0.107929   0.101813
     2  H   -0.004052   0.003265   0.001024   0.003165   0.000786  -0.006125
     3  C   -0.086832   0.028537  -0.623003  -0.047299   0.141130   0.057628
     4  H   -0.022994   0.023738  -0.182521   0.007268   0.000269   0.024602
     5  C    0.349209   0.517452  -2.508903   0.004989  -0.503613  -0.709610
     6  C    0.023932  -0.111455   0.448861   0.532721   0.182405  -0.164170
     7  H    0.578604  -0.043114   0.021121  -0.004014  -0.010438   0.042264
     8  H   -0.043114   0.542358  -0.214759   0.007101   0.063459  -0.018758
     9  C    0.021121  -0.214759  10.036169   0.036038  -0.600215  -0.067799
    10  O   -0.004014   0.007101   0.036038   7.971269  -0.076628   0.015620
    11  C   -0.010438   0.063459  -0.600215  -0.076628   9.690010  -3.351139
    12  C    0.042264  -0.018758  -0.067799   0.015620  -3.351139   9.646769
    13  H    0.005425  -0.007933   0.004525  -0.001536   0.436488  -0.013642
    14  C   -0.011954   0.036006  -0.904100  -0.007816   0.341236   0.454897
    15  C    0.010288  -0.016555  -0.501531  -0.001812   0.735380  -0.060086
    16  H   -0.004058   0.003492   0.010832   0.000290  -0.016158   0.405429
    17  H    0.000037   0.002552   0.002066  -0.000156  -0.080291   0.006492
    18  C   -0.004289  -0.018108   0.205022  -0.000330  -0.514642  -0.070195
    19  H    0.000515   0.000699   0.017803  -0.000030   0.028196  -0.094526
    20  H   -0.000021  -0.000705   0.044965   0.000024  -0.013176   0.003675
    21  H    0.006709   0.000220  -0.018449   0.002023  -0.002572   0.010339
    22  O   -0.008387   0.006953   0.004506  -0.155564   0.008163   0.027904
    23  H    0.000830  -0.001441  -0.022428  -0.002040   0.019396  -0.011375
             13         14         15         16         17         18
     1  N   -0.006034   0.003131   0.014135  -0.006631   0.000599  -0.003994
     2  H    0.000116  -0.002003   0.000274   0.000153  -0.000080   0.000696
     3  C    0.007654   0.133848  -0.044006   0.004457   0.000663  -0.015795
     4  H   -0.002454   0.016281   0.004883  -0.010115   0.001038  -0.021536
     5  C   -0.042817   0.042853  -0.075579  -0.015263   0.013638   0.006270
     6  C    0.001254  -0.048218   0.033070   0.011373  -0.004146   0.074114
     7  H    0.005425  -0.011954   0.010288  -0.004058   0.000037  -0.004289
     8  H   -0.007933   0.036006  -0.016555   0.003492   0.002552  -0.018108
     9  C    0.004525  -0.904100  -0.501531   0.010832   0.002066   0.205022
    10  O   -0.001536  -0.007816  -0.001812   0.000290  -0.000156  -0.000330
    11  C    0.436488   0.341236   0.735380  -0.016158  -0.080291  -0.514642
    12  C   -0.013642   0.454897  -0.060086   0.405429   0.006492  -0.070195
    13  H    0.528628  -0.095154   0.014387  -0.002544  -0.017542   0.017015
    14  C   -0.095154   5.831264  -0.023460  -0.000586   0.426814   0.243420
    15  C    0.014387  -0.023460   5.674323  -0.101237   0.012546   0.231640
    16  H   -0.002544  -0.000586  -0.101237   0.566144   0.000191   0.026321
    17  H   -0.017542   0.426814   0.012546   0.000191   0.542438  -0.066800
    18  C    0.017015   0.243420   0.231640   0.026321  -0.066800   5.809094
    19  H    0.000607   0.010777   0.424541  -0.018525   0.000166  -0.078876
    20  H    0.000861  -0.086323  -0.094654   0.000858  -0.017820   0.481775
    21  H   -0.000342   0.001101   0.001339  -0.000482   0.000037  -0.000344
    22  O   -0.002645   0.015469   0.007810   0.002553   0.000678  -0.000810
    23  H    0.000908   0.000814   0.003088  -0.000874  -0.000022  -0.001379
             19         20         21         22         23
     1  N    0.000059  -0.000160   0.395965  -0.031896  -0.001690
     2  H   -0.000047   0.000024  -0.055219   0.001038  -0.000088
     3  C   -0.000862   0.000912  -0.052597  -0.002597  -0.032007
     4  H    0.001768  -0.000628  -0.010985   0.008497   0.003426
     5  C    0.008180  -0.007441  -0.012965  -0.132000   0.010925
     6  C   -0.002612   0.000957   0.021789   0.176450   0.041738
     7  H    0.000515  -0.000021   0.006709  -0.008387   0.000830
     8  H    0.000699  -0.000705   0.000220   0.006953  -0.001441
     9  C    0.017803   0.044965  -0.018449   0.004506  -0.022428
    10  O   -0.000030   0.000024   0.002023  -0.155564  -0.002040
    11  C    0.028196  -0.013176  -0.002572   0.008163   0.019396
    12  C   -0.094526   0.003675   0.010339   0.027904  -0.011375
    13  H    0.000607   0.000861  -0.000342  -0.002645   0.000908
    14  C    0.010777  -0.086323   0.001101   0.015469   0.000814
    15  C    0.424541  -0.094654   0.001339   0.007810   0.003088
    16  H   -0.018525   0.000858  -0.000482   0.002553  -0.000874
    17  H    0.000166  -0.017820   0.000037   0.000678  -0.000022
    18  C   -0.078876   0.481775  -0.000344  -0.000810  -0.001379
    19  H    0.546372  -0.017613   0.000014  -0.000142   0.000178
    20  H   -0.017613   0.557268  -0.000016  -0.000426  -0.000136
    21  H    0.000014  -0.000016   0.482426  -0.000169   0.000029
    22  O   -0.000142  -0.000426  -0.000169   7.920779   0.248853
    23  H    0.000178  -0.000136   0.000029   0.248853   0.460418
 Mulliken atomic charges:
              1
     1  N   -0.257550
     2  H    0.249536
     3  C   -0.476340
     4  H    0.245863
     5  C   -0.281773
     6  C   -0.271942
     7  H    0.172481
     8  H    0.197464
     9  C    0.956676
    10  O   -0.246162
    11  C   -0.370118
    12  C   -0.230008
    13  H    0.174776
    14  C   -0.378296
    15  C   -0.248786
    16  H    0.144379
    17  H    0.176903
    18  C   -0.298270
    19  H    0.173357
    20  H    0.147800
    21  H    0.232148
    22  O   -0.095017
    23  H    0.282878
 Sum of Mulliken charges=   0.00000
 Atomic charges with hydrogens summed into heavy atoms:
              1
     1  N    0.224135
     2  H    0.000000
     3  C   -0.230477
     4  H    0.000000
     5  C    0.088172
     6  C   -0.271942
     7  H    0.000000
     8  H    0.000000
     9  C    0.956676
    10  O   -0.246162
    11  C   -0.195342
    12  C   -0.085629
    13  H    0.000000
    14  C   -0.201393
    15  C   -0.075429
    16  H    0.000000
    17  H    0.000000
    18  C   -0.150470
    19  H    0.000000
    20  H    0.000000
    21  H    0.000000
    22  O    0.187861
    23  H    0.000000
 Sum of Mulliken charges=   0.00000
 Electronic spatial extent (au):  <R**2>=  2233.1347
 Charge=     0.0000 electrons
 Dipole moment (field-independent basis, Debye):
    X=     1.4412    Y=    -1.0655    Z=     0.1874  Tot=     1.8021
 Quadrupole moment (field-independent basis, Debye-Ang):
   XX=   -76.1030   YY=   -64.1129   ZZ=   -72.7449
   XY=     5.0464   XZ=     2.8518   YZ=     2.1183
 Traceless Quadrupole moment (field-independent basis, Debye-Ang):
   XX=    -5.1161   YY=     6.8740   ZZ=    -1.7580
   XY=     5.0464   XZ=     2.8518   YZ=     2.1183
 Octapole moment (field-independent basis, Debye-Ang**2):
  XXX=    20.6549  YYY=     9.0341  ZZZ=     0.5235  XYY=   -12.9987
  XXY=     1.8272  XXZ=     3.2547  XZZ=    -8.6104  YZZ=     4.3142
  YYZ=    13.0930  XYZ=   -20.4801
 Hexadecapole moment (field-independent basis, Debye-Ang**3):
 XXXX= -2113.6245 YYYY=  -515.9718 ZZZZ=  -352.8609 XXXY=    33.9178
 XXXZ=    84.1213 YYYX=    10.3121 YYYZ=    29.9184 ZZZX=     8.8552
 ZZZY=     3.2092 XXYY=  -423.9591 XXZZ=  -405.5973 YYZZ=  -137.8831
 XXYZ=    20.5685 YYXZ=   -19.0742 ZZXY=    -7.4499
 N-N= 6.816769304992D+02 E-N=-2.657932763928D+03  KE= 5.526791365470D+02
 ***** Axes restored to original set *****
 -------------------------------------------------------------------
 Center     Atomic                   Forces (Hartrees/Bohr)
 Number     Number              X              Y              Z
 -------------------------------------------------------------------
    1          7          -0.000018925    0.000013571    0.000008831
    2          1          -0.000006602   -0.000000257   -0.000014982
    3          6           0.000005539    0.000039897    0.000052430
    4          1          -0.000004826   -0.000003447   -0.000004966
    5          6           0.000026248    0.000011035   -0.000015015
    6          6           0.000015442   -0.000078063   -0.000044350
    7          1          -0.000007417   -0.000002840    0.000004960
    8          1          -0.000009936    0.000001775   -0.000001012
    9          6          -0.000017922   -0.000018063    0.000000417
   10          8          -0.000009674    0.000020293   -0.000000773
   11          6           0.000000764    0.000013009   -0.000003047
   12          6          -0.000004886   -0.000003605    0.000000917
   13          1          -0.000001537   -0.000001113   -0.000002780
   14          6          -0.000001787    0.000002820   -0.000008928
   15          6           0.000008388    0.000000008   -0.000003360
   16          1          -0.000001705   -0.000000188    0.000000549
   17          1           0.000001152   -0.000002066   -0.000003977
   18          6           0.000004911   -0.000004418   -0.000000028
   19          1           0.000000507   -0.000002860   -0.000002737
   20          1           0.000001798   -0.000002192   -0.000004877
   21          1           0.000004347   -0.000014274    0.000003257
   22          8           0.000009408    0.000013381    0.000036817
   23          1           0.000006714    0.000017598    0.000002653
 -------------------------------------------------------------------
 Cartesian Forces:  Max     0.000078063 RMS     0.000016478

 GradGradGradGradGradGradGradGradGradGradGradGradGradGradGradGradGradGrad
 Berny optimization.
 Internal  Forces:  Max     0.000045860 RMS     0.000008180
 Search for a local minimum.
 Step number   1 out of a maximum of 123
 All quantities printed in internal units (Hartrees-Bohrs-Radians)
 Second derivative matrix not updated -- first step.
     Eigenvalues ---    0.00230   0.00452   0.00603   0.00862   0.00930
     Eigenvalues ---    0.01486   0.02101   0.02129   0.02137   0.02156
     Eigenvalues ---    0.02168   0.02172   0.02172   0.02176   0.02390
     Eigenvalues ---    0.03863   0.04149   0.04424   0.04902   0.05424
     Eigenvalues ---    0.06808   0.09535   0.13011   0.16000   0.16000
     Eigenvalues ---    0.16000   0.16000   0.16000   0.16000   0.16000
     Eigenvalues ---    0.16000   0.17432   0.18184   0.22000   0.22000
     Eigenvalues ---    0.22015   0.23470   0.24994   0.24999   0.25000
     Eigenvalues ---    0.27068   0.30012   0.31119   0.34220   0.34385
     Eigenvalues ---    0.34606   0.35289   0.35366   0.35460   0.35464
     Eigenvalues ---    0.35496   0.36626   0.42065   0.42081   0.44991
     Eigenvalues ---    0.45240   0.45867   0.46194   0.46637   0.46762
     Eigenvalues ---    0.53352   0.55621   1.014421000.000001000.00000
     Eigenvalues --- 1000.000001000.000001000.000001000.000001000.00000
     Eigenvalues --- 1000.000001000.000001000.000001000.000001000.00000
     Eigenvalues --- 1000.000001000.000001000.000001000.000001000.00000
     Eigenvalues --- 1000.000001000.000001000.000001000.000001000.00000
     Eigenvalues --- 1000.000001000.000001000.000001000.000001000.00000
     Eigenvalues --- 1000.000001000.000001000.000001000.000001000.00000
     Eigenvalues --- 1000.000001000.000001000.000001000.000001000.00000
     Eigenvalues --- 1000.000001000.000001000.000001000.000001000.00000
     Eigenvalues --- 1000.000001000.000001000.000001000.000001000.00000
     Eigenvalues --- 1000.000001000.000001000.00000
 RFO step:  Lambda=-4.07100710D-08.
 Linear search not attempted -- first point.
 Iteration  1 RMS(Cart)=  0.00031940 RMS(Int)=  0.00000004
 Iteration  2 RMS(Cart)=  0.00000005 RMS(Int)=  0.00000000
 Variable       Old X    -DE/DX   Delta X   Delta X   Delta X     New X
                                 (Linear)    (Quad)   (Total)
    R1        1.91986   0.00002   0.00000   0.00004   0.00004   1.91990
    R2        2.76414   0.00002   0.00000   0.00006   0.00006   2.76420
    R3        1.91698   0.00002   0.00000   0.00004   0.00004   1.91702
    R4        2.06319  -0.00001   0.00000  -0.00002  -0.00002   2.06317
    R5        2.94224   0.00001   0.00000   0.00004   0.00004   2.94228
    R6        2.87939  -0.00003   0.00000  -0.00012  -0.00012   2.87927
    R7        2.06961   0.00000   0.00000   0.00001   0.00001   2.06962
    R8        2.06686   0.00000   0.00000   0.00001   0.00001   2.06687
    R9        2.85786  -0.00001   0.00000  -0.00004  -0.00004   2.85782
   R10        2.28067   0.00002   0.00000   0.00002   0.00002   2.28068
   R11        2.54584   0.00005   0.00000   0.00008   0.00008   2.54592
   R12        2.64448   0.00002   0.00000   0.00003   0.00003   2.64452
   R13        2.64593   0.00000   0.00000   0.00001   0.00001   2.64594
   R14        2.05085   0.00000   0.00000   0.00000   0.00000   2.05086
   R15        2.63476   0.00000   0.00000   0.00001   0.00001   2.63477
   R16        2.63190   0.00001   0.00000   0.00002   0.00002   2.63192
   R17        2.05209   0.00000   0.00000   0.00000   0.00000   2.05209
   R18        2.04934   0.00000   0.00000   0.00000   0.00000   2.04935
   R19        2.63289   0.00001   0.00000   0.00002   0.00002   2.63291
   R20        2.63510   0.00000   0.00000   0.00001   0.00001   2.63511
   R21        2.04928   0.00000   0.00000   0.00000   0.00000   2.04928
   R22        2.04876   0.00000   0.00000   0.00000   0.00000   2.04877
   R23        1.83327   0.00002   0.00000   0.00003   0.00003   1.83330
    A1        1.92529   0.00001   0.00000   0.00002   0.00002   1.92531
    A2        1.88961   0.00000   0.00000  -0.00006  -0.00006   1.88956
    A3        1.93440  -0.00001   0.00000  -0.00009  -0.00009   1.93430
    A4        1.89276   0.00000   0.00000   0.00002   0.00002   1.89278
    A5        1.99818  -0.00001   0.00000  -0.00010  -0.00010   1.99808
    A6        1.86112   0.00002   0.00000   0.00005   0.00005   1.86118
    A7        1.90508   0.00001   0.00000   0.00007   0.00007   1.90515
    A8        1.88803   0.00000   0.00000   0.00008   0.00008   1.88811
    A9        1.91549  -0.00001   0.00000  -0.00011  -0.00011   1.91538
   A10        1.86186   0.00000   0.00000  -0.00004  -0.00004   1.86182
   A11        1.88218   0.00000   0.00000  -0.00005  -0.00005   1.88212
   A12        2.00122   0.00000   0.00000   0.00000   0.00000   2.00122
   A13        1.87185   0.00000   0.00000   0.00001   0.00001   1.87186
   A14        1.91648   0.00000   0.00000   0.00005   0.00005   1.91653
   A15        1.92499   0.00000   0.00000   0.00003   0.00003   1.92502
   A16        2.16284   0.00001   0.00000   0.00005   0.00005   2.16289
   A17        1.97125   0.00001   0.00000   0.00002   0.00002   1.97128
   A18        2.14905  -0.00002   0.00000  -0.00007  -0.00007   2.14899
   A19        2.11078   0.00000   0.00000  -0.00001  -0.00001   2.11077
   A20        2.10598   0.00000   0.00000   0.00001   0.00001   2.10600
   A21        2.06623   0.00000   0.00000   0.00000   0.00000   2.06623
   A22        2.08473   0.00000   0.00000   0.00000   0.00000   2.08473
   A23        2.10911   0.00000   0.00000   0.00000   0.00000   2.10912
   A24        2.08934   0.00000   0.00000   0.00000   0.00000   2.08934
   A25        2.11083   0.00000   0.00000   0.00000   0.00000   2.11083
   A26        2.08676   0.00000   0.00000   0.00000   0.00000   2.08676
   A27        2.08557   0.00000   0.00000   0.00001   0.00001   2.08557
   A28        2.08982   0.00000   0.00000   0.00001   0.00001   2.08982
   A29        2.09746   0.00000   0.00000   0.00000   0.00000   2.09745
   A30        2.09590   0.00000   0.00000   0.00000   0.00000   2.09590
   A31        2.09618   0.00000   0.00000   0.00000   0.00000   2.09619
   A32        2.09136   0.00000   0.00000  -0.00001  -0.00001   2.09135
   A33        2.09564   0.00000   0.00000   0.00001   0.00001   2.09564
   A34        2.08654   0.00000   0.00000   0.00000   0.00000   2.08655
   A35        2.09869   0.00000   0.00000   0.00000   0.00000   2.09869
   A36        2.09794   0.00000   0.00000   0.00000   0.00000   2.09794
   A37        1.87465   0.00001   0.00000   0.00005   0.00005   1.87470
    D1        3.03569   0.00001   0.00000   0.00041   0.00041   3.03610
    D2       -1.11576   0.00001   0.00000   0.00045   0.00045  -1.11531
    D3        1.00611   0.00000   0.00000   0.00029   0.00029   1.00640
    D4       -1.15489   0.00000   0.00000   0.00029   0.00029  -1.15460
    D5        0.97684   0.00001   0.00000   0.00033   0.00033   0.97717
    D6        3.09872  -0.00001   0.00000   0.00017   0.00017   3.09888
    D7       -0.97375   0.00000   0.00000  -0.00043  -0.00043  -0.97418
    D8        1.03226   0.00000   0.00000  -0.00047  -0.00047   1.03179
    D9       -3.09933   0.00000   0.00000  -0.00046  -0.00046  -3.09979
   D10        1.15126   0.00000   0.00000  -0.00043  -0.00043   1.15083
   D11       -3.12592   0.00000   0.00000  -0.00046  -0.00046  -3.12638
   D12       -0.97432   0.00000   0.00000  -0.00046  -0.00046  -0.97478
   D13       -3.06554   0.00000   0.00000  -0.00035  -0.00035  -3.06589
   D14       -1.05953   0.00000   0.00000  -0.00039  -0.00039  -1.05992
   D15        1.09207   0.00000   0.00000  -0.00038  -0.00038   1.09168
   D16       -0.97926   0.00001   0.00000   0.00045   0.00045  -0.97882
   D17        2.17086   0.00001   0.00000   0.00015   0.00015   2.17100
   D18       -3.01200   0.00000   0.00000   0.00036   0.00036  -3.01164
   D19        0.13812   0.00000   0.00000   0.00006   0.00006   0.13818
   D20        1.19427   0.00000   0.00000   0.00029   0.00029   1.19456
   D21       -1.93879  -0.00001   0.00000  -0.00001  -0.00001  -1.93880
   D22       -1.72444   0.00000   0.00000   0.00004   0.00004  -1.72440
   D23        1.39570   0.00000   0.00000   0.00000   0.00000   1.39571
   D24        2.46322   0.00000   0.00000   0.00006   0.00006   2.46328
   D25       -0.69982   0.00000   0.00000   0.00002   0.00002  -0.69980
   D26        0.40403   0.00000   0.00000   0.00000   0.00000   0.40403
   D27       -2.75901   0.00000   0.00000  -0.00004  -0.00004  -2.75905
   D28        3.11685   0.00000   0.00000   0.00001   0.00001   3.11686
   D29       -0.01629   0.00000   0.00000  -0.00029  -0.00029  -0.01658
   D30       -0.02734   0.00000   0.00000  -0.00003  -0.00003  -0.02737
   D31        3.11697   0.00000   0.00000   0.00004   0.00004   3.11701
   D32        3.13523   0.00000   0.00000   0.00001   0.00001   3.13523
   D33       -0.00365   0.00000   0.00000   0.00008   0.00008  -0.00357
   D34       -3.11639   0.00000   0.00000  -0.00005  -0.00005  -3.11643
   D35        0.03204   0.00000   0.00000  -0.00003  -0.00003   0.03201
   D36        0.00429   0.00000   0.00000  -0.00008  -0.00008   0.00421
   D37       -3.13047   0.00000   0.00000  -0.00007  -0.00007  -3.13053
   D38        3.13672   0.00000   0.00000  -0.00004  -0.00004   3.13668
   D39        0.00041   0.00000   0.00000  -0.00003  -0.00003   0.00038
   D40       -0.00215   0.00000   0.00000   0.00003   0.00003  -0.00212
   D41       -3.13846   0.00000   0.00000   0.00004   0.00004  -3.13842
   D42       -0.00170   0.00000   0.00000   0.00005   0.00005  -0.00166
   D43       -3.13801   0.00000   0.00000   0.00002   0.00002  -3.13799
   D44        3.13307   0.00000   0.00000   0.00003   0.00003   3.13310
   D45       -0.00325   0.00000   0.00000   0.00000   0.00000  -0.00324
   D46        0.00226   0.00000   0.00000  -0.00001  -0.00001   0.00225
   D47        3.13867   0.00000   0.00000   0.00001   0.00001   3.13867
   D48       -3.13403   0.00000   0.00000   0.00000   0.00000  -3.13403
   D49        0.00238   0.00000   0.00000   0.00001   0.00001   0.00240
   D50       -0.00162   0.00000   0.00000   0.00000   0.00000  -0.00162
   D51       -3.13803   0.00000   0.00000  -0.00001  -0.00001  -3.13805
   D52        3.13468   0.00000   0.00000   0.00003   0.00003   3.13470
   D53       -0.00173   0.00000   0.00000   0.00001   0.00001  -0.00172
         Item               Value     Threshold  Converged?
 Maximum Force            0.000046     0.000450     YES
 RMS     Force            0.000008     0.000300     YES
 Maximum Displacement     0.001193     0.001800     YES
 RMS     Displacement     0.000319     0.001200     YES
 Predicted change in Energy=-2.035507D-08
 Optimization completed.
    -- Stationary point found.
                           ----------------------------
                           !   Optimized Parameters   !
                           ! (Angstroms and Degrees)  !
 --------------------------                            --------------------------
 ! Name  Definition              Value          Derivative Info.                !
 --------------------------------------------------------------------------------
 ! R1    R(1,2)                  1.0159         -DE/DX =    0.0                 !
 ! R2    R(1,3)                  1.4627         -DE/DX =    0.0                 !
 ! R3    R(1,21)                 1.0144         -DE/DX =    0.0                 !
 ! R4    R(3,4)                  1.0918         -DE/DX =    0.0                 !
 ! R5    R(3,5)                  1.557          -DE/DX =    0.0                 !
 ! R6    R(3,6)                  1.5237         -DE/DX =    0.0                 !
 ! R7    R(5,7)                  1.0952         -DE/DX =    0.0                 !
 ! R8    R(5,8)                  1.0937         -DE/DX =    0.0                 !
 ! R9    R(5,9)                  1.5123         -DE/DX =    0.0                 !
 ! R10   R(6,10)                 1.2069         -DE/DX =    0.0                 !
 ! R11   R(6,22)                 1.3472         -DE/DX =    0.0                 !
 ! R12   R(9,11)                 1.3994         -DE/DX =    0.0                 !
 ! R13   R(9,12)                 1.4002         -DE/DX =    0.0                 !
 ! R14   R(11,13)                1.0853         -DE/DX =    0.0                 !
 ! R15   R(11,14)                1.3943         -DE/DX =    0.0                 !
 ! R16   R(12,15)                1.3927         -DE/DX =    0.0                 !
 ! R17   R(12,16)                1.0859         -DE/DX =    0.0                 !
 ! R18   R(14,17)                1.0845         -DE/DX =    0.0                 !
 ! R19   R(14,18)                1.3933         -DE/DX =    0.0                 !
 ! R20   R(15,18)                1.3944         -DE/DX =    0.0                 !
 ! R21   R(15,19)                1.0844         -DE/DX =    0.0                 !
 ! R22   R(18,20)                1.0842         -DE/DX =    0.0                 !
 ! R23   R(22,23)                0.9701         -DE/DX =    0.0                 !
 ! A1    A(2,1,3)              110.3112         -DE/DX =    0.0                 !
 ! A2    A(2,1,21)             108.2669         -DE/DX =    0.0                 !
 ! A3    A(3,1,21)             110.8329         -DE/DX =    0.0                 !
 ! A4    A(1,3,4)              108.4472         -DE/DX =    0.0                 !
 ! A5    A(1,3,5)              114.4873         -DE/DX =    0.0                 !
 ! A6    A(1,3,6)              106.6346         -DE/DX =    0.0                 !
 ! A7    A(4,3,5)              109.1532         -DE/DX =    0.0                 !
 ! A8    A(4,3,6)              108.176          -DE/DX =    0.0                 !
 ! A9    A(5,3,6)              109.7497         -DE/DX =    0.0                 !
 ! A10   A(3,5,7)              106.6767         -DE/DX =    0.0                 !
 ! A11   A(3,5,8)              107.8407         -DE/DX =    0.0                 !
 ! A12   A(3,5,9)              114.6613         -DE/DX =    0.0                 !
 ! A13   A(7,5,8)              107.2491         -DE/DX =    0.0                 !
 ! A14   A(7,5,9)              109.8061         -DE/DX =    0.0                 !
 ! A15   A(8,5,9)              110.2938         -DE/DX =    0.0                 !
 ! A16   A(3,6,10)             123.9218         -DE/DX =    0.0                 !
 ! A17   A(3,6,22)             112.9446         -DE/DX =    0.0                 !
 ! A18   A(10,6,22)            123.1317         -DE/DX =    0.0                 !
 ! A19   A(5,9,11)             120.9385         -DE/DX =    0.0                 !
 ! A20   A(5,9,12)             120.664          -DE/DX =    0.0                 !
 ! A21   A(11,9,12)            118.3864         -DE/DX =    0.0                 !
 ! A22   A(9,11,13)            119.4463         -DE/DX =    0.0                 !
 ! A23   A(9,11,14)            120.8433         -DE/DX =    0.0                 !
 ! A24   A(13,11,14)           119.7102         -DE/DX =    0.0                 !
 ! A25   A(9,12,15)            120.9419         -DE/DX =    0.0                 !
 ! A26   A(9,12,16)            119.5628         -DE/DX =    0.0                 !
 ! A27   A(15,12,16)           119.4942         -DE/DX =    0.0                 !
 ! A28   A(11,14,17)           119.7378         -DE/DX =    0.0                 !
 ! A29   A(11,14,18)           120.1754         -DE/DX =    0.0                 !
 ! A30   A(17,14,18)           120.0862         -DE/DX =    0.0                 !
 ! A31   A(12,15,18)           120.1023         -DE/DX =    0.0                 !
 ! A32   A(12,15,19)           119.8259         -DE/DX =    0.0                 !
 ! A33   A(18,15,19)           120.0711         -DE/DX =    0.0                 !
 ! A34   A(14,18,15)           119.5502         -DE/DX =    0.0                 !
 ! A35   A(14,18,20)           120.2463         -DE/DX =    0.0                 !
 ! A36   A(15,18,20)           120.2028         -DE/DX =    0.0                 !
 ! A37   A(6,22,23)            107.4098         -DE/DX =    0.0                 !
 ! D1    D(2,1,3,4)            173.9323         -DE/DX =    0.0                 !
 ! D2    D(2,1,3,5)            -63.9284         -DE/DX =    0.0                 !
 ! D3    D(2,1,3,6)             57.646          -DE/DX =    0.0                 !
 ! D4    D(21,1,3,4)           -66.1702         -DE/DX =    0.0                 !
 ! D5    D(21,1,3,5)            55.969          -DE/DX =    0.0                 !
 ! D6    D(21,1,3,6)           177.5434         -DE/DX =    0.0                 !
 ! D7    D(1,3,5,7)            -55.7916         -DE/DX =    0.0                 !
 ! D8    D(1,3,5,8)             59.1441         -DE/DX =    0.0                 !
 ! D9    D(1,3,5,9)           -177.5783         -DE/DX =    0.0                 !
 ! D10   D(4,3,5,7)             65.9622         -DE/DX =    0.0                 !
 ! D11   D(4,3,5,8)           -179.102          -DE/DX =    0.0                 !
 ! D12   D(4,3,5,9)            -55.8245         -DE/DX =    0.0                 !
 ! D13   D(6,3,5,7)           -175.6424         -DE/DX =    0.0                 !
 ! D14   D(6,3,5,8)            -60.7067         -DE/DX =    0.0                 !
 ! D15   D(6,3,5,9)             62.5708         -DE/DX =    0.0                 !
 ! D16   D(1,3,6,10)           -56.1076         -DE/DX =    0.0                 !
 ! D17   D(1,3,6,22)           124.3809         -DE/DX =    0.0                 !
 ! D18   D(4,3,6,10)          -172.5749         -DE/DX =    0.0                 !
 ! D19   D(4,3,6,22)             7.9136         -DE/DX =    0.0                 !
 ! D20   D(5,3,6,10)            68.4267         -DE/DX =    0.0                 !
 ! D21   D(5,3,6,22)          -111.0847         -DE/DX =    0.0                 !
 ! D22   D(3,5,9,11)           -98.8031         -DE/DX =    0.0                 !
 ! D23   D(3,5,9,12)            79.968          -DE/DX =    0.0                 !
 ! D24   D(7,5,9,11)           141.1321         -DE/DX =    0.0                 !
 ! D25   D(7,5,9,12)           -40.0969         -DE/DX =    0.0                 !
 ! D26   D(8,5,9,11)            23.1492         -DE/DX =    0.0                 !
 ! D27   D(8,5,9,12)          -158.0797         -DE/DX =    0.0                 !
 ! D28   D(3,6,22,23)          178.5826         -DE/DX =    0.0                 !
 ! D29   D(10,6,22,23)          -0.9333         -DE/DX =    0.0                 !
 ! D30   D(5,9,11,13)           -1.5663         -DE/DX =    0.0                 !
 ! D31   D(5,9,11,14)          178.5893         -DE/DX =    0.0                 !
 ! D32   D(12,9,11,13)         179.6353         -DE/DX =    0.0                 !
 ! D33   D(12,9,11,14)          -0.2091         -DE/DX =    0.0                 !
 ! D34   D(5,9,12,15)         -178.5558         -DE/DX =    0.0                 !
 ! D35   D(5,9,12,16)            1.8355         -DE/DX =    0.0                 !
 ! D36   D(11,9,12,15)           0.2461         -DE/DX =    0.0                 !
 ! D37   D(11,9,12,16)        -179.3626         -DE/DX =    0.0                 !
 ! D38   D(9,11,14,17)         179.7207         -DE/DX =    0.0                 !
 ! D39   D(9,11,14,18)           0.0237         -DE/DX =    0.0                 !
 ! D40   D(13,11,14,17)         -0.1232         -DE/DX =    0.0                 !
 ! D41   D(13,11,14,18)       -179.8203         -DE/DX =    0.0                 !
 ! D42   D(9,12,15,18)          -0.0975         -DE/DX =    0.0                 !
 ! D43   D(9,12,15,19)        -179.7949         -DE/DX =    0.0                 !
 ! D44   D(16,12,15,18)        179.5115         -DE/DX =    0.0                 !
 ! D45   D(16,12,15,19)         -0.186          -DE/DX =    0.0                 !
 ! D46   D(11,14,18,15)          0.1294         -DE/DX =    0.0                 !
 ! D47   D(11,14,18,20)        179.8324         -DE/DX =    0.0                 !
 ! D48   D(17,14,18,15)       -179.5666         -DE/DX =    0.0                 !
 ! D49   D(17,14,18,20)          0.1365         -DE/DX =    0.0                 !
 ! D50   D(12,15,18,14)         -0.0929         -DE/DX =    0.0                 !
 ! D51   D(12,15,18,20)       -179.7961         -DE/DX =    0.0                 !
 ! D52   D(19,15,18,14)        179.6037         -DE/DX =    0.0                 !
 ! D53   D(19,15,18,20)         -0.0994         -DE/DX =    0.0                 !
 --------------------------------------------------------------------------------
 GradGradGradGradGradGradGradGradGradGradGradGradGradGradGradGradGradGrad

                          Input orientation:                          
 ---------------------------------------------------------------------
 Center     Atomic     Atomic              Coordinates (Angstroms)
 Number     Number      Type              X           Y           Z
 ---------------------------------------------------------------------
    1          7             0       -3.028003   -1.252341   -0.071738
    2          1             0       -3.379105   -0.852448   -0.937162
    3          6             0       -1.703065   -0.714105    0.235489
    4          1             0       -1.402143   -1.077909    1.219920
    5          6             0       -0.601609   -1.079106   -0.802637
    6          6             0       -1.854863    0.799973    0.314293
    7          1             0       -0.589327   -2.171711   -0.876814
    8          1             0       -0.916589   -0.691498   -1.775675
    9          6             0        0.781610   -0.573225   -0.459293
   10          8             0       -2.301957    1.479353   -0.577391
   11          6             0        1.283865    0.597444   -1.038600
   12          6             0        1.581135   -1.253462    0.467264
   13          1             0        0.681072    1.135179   -1.763364
   14          6             0        2.547810    1.077887   -0.698648
   15          6             0        2.843910   -0.776350    0.810032
   16          1             0        1.214519   -2.169548    0.920692
   17          1             0        2.921206    1.984501   -1.161999
   18          6             0        3.331398    0.393211    0.227849
   19          1             0        3.449286   -1.319480    1.527331
   20          1             0        4.315496    0.764288    0.491009
   21          1             0       -2.991912   -2.260440   -0.178931
   22          8             0       -1.426733    1.310487    1.485203
   23          1             0       -1.538110    2.273144    1.440177
 ---------------------------------------------------------------------
                    Distance matrix (angstroms):
                    1          2          3          4          5
     1  N    0.000000
     2  H    1.015946   0.000000
     3  C    1.462719   2.050210   0.000000
     4  H    2.083801   2.934657   1.091793   0.000000
     5  C    2.540002   2.789974   1.556964   2.175223   0.000000
     6  C    2.395260   2.572926   1.523708   2.133438   2.519745
     7  H    2.727733   3.086577   2.145284   2.500673   1.095189
     8  H    2.770562   2.606337   2.159592   3.059194   1.093735
     9  C    3.889029   4.197365   2.583830   2.800578   1.512315
    10  O    2.871407   2.593642   2.414685   3.252627   3.080200
    11  C    4.790484   4.884236   3.502173   3.888748   2.534070
    12  C    4.640547   5.170803   3.336255   3.081762   2.531288
    13  H    4.724308   4.595466   3.619306   4.258818   2.733372
    14  C    6.075580   6.237901   4.706781   4.891880   3.818674
    15  C    5.956798   6.464085   4.583553   4.276437   3.816276
    16  H    4.452547   5.127159   3.331683   2.850988   2.730796
    17  H    6.859949   6.913230   5.533474   5.808893   4.682420
    18  C    6.575681   6.923855   5.154806   5.055176   4.324137
    19  H    6.672091   7.274529   5.346219   4.867157   4.679346
    20  H    7.636128   7.991270   6.202742   6.051148   5.408285
    21  H    1.014424   1.645380   2.055243   2.425393   2.738267
    22  O    3.399444   3.789181   2.395228   2.403209   3.409574
    23  H    4.115181   4.337088   3.225235   3.361035   4.140631
                    6          7          8          9         10
     6  C    0.000000
     7  H    3.442561   0.000000
     8  H    2.733644   1.762408   0.000000
     9  C    3.071660   2.146846   2.151913   0.000000
    10  O    1.206876   4.043887   2.840374   3.706131   0.000000
    11  C    3.423880   3.347124   2.654552   1.399401   3.721370
    12  C    4.005756   2.713049   3.403704   1.400168   4.861891
    13  H    3.295450   3.651768   2.426813   2.151593   3.228537
    14  C    4.526236   4.520316   4.036430   2.429593   4.867866
    15  C    4.980865   4.071805   4.564475   2.430129   5.787321
    16  H    4.313569   2.546545   3.741209   2.154070   5.284348
    17  H    5.137449   5.447868   4.718712   3.407878   5.279997
    18  C    5.202906   4.813646   4.820383   2.812042   5.793341
    19  H    5.839310   4.776673   5.510451   3.408822   6.733507
    20  H    6.172992   5.877782   5.884886   3.896199   6.741178
    21  H    3.301860   2.503463   3.052562   4.143038   3.823723
    22  O    1.347201   4.290230   3.860248   3.493739   2.246959
    23  H    1.881005   5.101507   4.417816   4.134115   2.298727
                   11         12         13         14         15
    11  C    0.000000
    12  C    2.404548   0.000000
    13  H    1.085265   3.389900   0.000000
    14  C    1.394256   2.780108   2.149794   0.000000
    15  C    2.781814   1.392741   3.867063   2.408731   0.000000
    16  H    3.391147   1.085918   4.290681   3.865975   2.146663
    17  H    2.149428   3.864543   2.470058   1.084467   3.393697
    18  C    2.416194   2.415010   3.397010   1.393265   1.394437
    19  H    3.866219   2.148974   4.951468   3.393377   1.084430
    20  H    3.399754   3.398324   4.292877   2.153681   2.154276
    21  H    5.214288   4.726979   5.247044   6.488687   6.102245
    22  O    3.771651   4.081336   3.876437   4.540958   4.800952
    23  H    4.112888   4.807619   4.059853   4.764237   5.375741
                   16         17         18         19         20
    16  H    0.000000
    17  H    4.950405   0.000000
    18  C    3.395430   2.152240   0.000000
    19  H    2.466741   4.292744   2.153105   0.000000
    20  H    4.290464   2.483022   1.084159   2.483218   0.000000
    21  H    4.348735   7.345128   6.869613   6.729470   7.937003
    22  O    4.405171   5.134837   5.006211   5.540222   5.853200
    23  H    5.252080   5.171086   5.358731   6.147248   6.119009
                   21         22         23
    21  H    0.000000
    22  O    4.239180   0.000000
    23  H    5.028761   0.970124   0.000000
 Stoichiometry    C9H11NO2
 Framework group  C1[X(C9H11NO2)]
 Deg. of freedom    63
 Full point group                 C1
 Largest Abelian subgroup         C1      NOp   1
 Largest concise Abelian subgroup C1      NOp   1
                         Standard orientation:                         
 ---------------------------------------------------------------------
 Center     Atomic     Atomic              Coordinates (Angstroms)
 Number     Number      Type              X           Y           Z
 ---------------------------------------------------------------------
    1          7             0       -3.028003   -1.252341   -0.071738
    2          1             0       -3.379105   -0.852448   -0.937162
    3          6             0       -1.703065   -0.714105    0.235489
    4          1             0       -1.402143   -1.077909    1.219920
    5          6             0       -0.601609   -1.079106   -0.802637
    6          6             0       -1.854863    0.799973    0.314293
    7          1             0       -0.589327   -2.171711   -0.876814
    8          1             0       -0.916589   -0.691498   -1.775675
    9          6             0        0.781610   -0.573225   -0.459293
   10          8             0       -2.301957    1.479353   -0.577391
   11          6             0        1.283865    0.597444   -1.038600
   12          6             0        1.581135   -1.253462    0.467264
   13          1             0        0.681072    1.135179   -1.763364
   14          6             0        2.547810    1.077887   -0.698648
   15          6             0        2.843910   -0.776350    0.810032
   16          1             0        1.214519   -2.169548    0.920692
   17          1             0        2.921206    1.984501   -1.161999
   18          6             0        3.331398    0.393211    0.227849
   19          1             0        3.449286   -1.319480    1.527331
   20          1             0        4.315496    0.764288    0.491009
   21          1             0       -2.991912   -2.260440   -0.178931
   22          8             0       -1.426733    1.310487    1.485203
   23          1             0       -1.538110    2.273144    1.440177
 ---------------------------------------------------------------------
 Rotational constants (GHZ):      1.7375274      0.5889404      0.5314752

 **********************************************************************

            Population analysis using the SCF density.

 **********************************************************************

 Orbital symmetries:
       Occupied  (A) (A) (A) (A) (A) (A) (A) (A) (A) (A) (A) (A)
                 (A) (A) (A) (A) (A) (A) (A) (A) (A) (A) (A) (A)
                 (A) (A) (A) (A) (A) (A) (A) (A) (A) (A) (A) (A)
                 (A) (A) (A) (A) (A) (A) (A) (A)
       Virtual   (A) (A) (A) (A) (A) (A) (A) (A) (A) (A) (A) (A)
                 (A) (A) (A) (A) (A) (A) (A) (A) (A) (A) (A) (A)
                 (A) (A) (A) (A) (A) (A) (A) (A) (A) (A) (A) (A)
                 (A) (A) (A) (A) (A) (A) (A) (A) (A) (A) (A) (A)
                 (A) (A) (A) (A) (A) (A) (A) (A) (A) (A) (A) (A)
                 (A) (A) (A) (A) (A) (A) (A) (A) (A) (A) (A) (A)
                 (A) (A) (A) (A) (A) (A) (A) (A) (A) (A) (A) (A)
                 (A) (A) (A) (A) (A) (A) (A) (A) (A) (A) (A) (A)
                 (A) (A) (A) (A) (A) (A) (A) (A) (A) (A) (A) (A)
                 (A) (A) (A) (A) (A) (A) (A) (A) (A) (A) (A) (A)
                 (A) (A) (A) (A) (A) (A) (A) (A) (A) (A) (A) (A)
                 (A) (A) (A) (A) (A) (A) (A) (A) (A) (A) (A) (A)
                 (A) (A) (A) (A) (A) (A) (A) (A) (A) (A) (A) (A)
                 (A) (A) (A) (A) (A) (A) (A) (A) (A) (A) (A) (A)
                 (A) (A) (A) (A) (A) (A) (A) (A) (A) (A) (A) (A)
                 (A) (A) (A) (A) (A) (A) (A) (A) (A) (A) (A) (A)
                 (A) (A) (A) (A) (A) (A) (A) (A) (A) (A) (A) (A)
                 (A) (A) (A) (A) (A) (A) (A) (A) (A) (A) (A) (A)
                 (A) (A) (A) (A) (A) (A) (A) (A) (A) (A) (A) (A)
                 (A) (A) (A) (A) (A) (A) (A) (A) (A) (A) (A) (A)
                 (A) (A) (A) (A) (A) (A) (A) (A) (A) (A) (A) (A)
                 (A) (A) (A) (A) (A) (A) (A) (A) (A) (A) (A) (A)
                 (A) (A) (A) (A) (A) (A) (A) (A) (A) (A) (A) (A)
                 (A) (A) (A) (A) (A) (A) (A) (A) (A) (A) (A) (A)
                 (A) (A) (A) (A) (A) (A) (A) (A)
 The electronic state is 1-A.
 Alpha  occ. eigenvalues --  -19.18348 -19.12606 -14.30937 -10.31543 -10.22753
 Alpha  occ. eigenvalues --  -10.19123 -10.18836 -10.18185 -10.18122 -10.18096
 Alpha  occ. eigenvalues --  -10.17996 -10.17958  -1.12501  -1.03560  -0.90829
 Alpha  occ. eigenvalues --   -0.86717  -0.79232  -0.75458  -0.73526  -0.68474
 Alpha  occ. eigenvalues --   -0.61655  -0.61046  -0.58615  -0.54260  -0.52270
 Alpha  occ. eigenvalues --   -0.49896  -0.48894  -0.47213  -0.46653  -0.45477
 Alpha  occ. eigenvalues --   -0.43865  -0.42959  -0.42242  -0.41383  -0.39736
 Alpha  occ. eigenvalues --   -0.37926  -0.36993  -0.35414  -0.34950  -0.33680
 Alpha  occ. eigenvalues --   -0.29588  -0.26982  -0.26286  -0.24721
 Alpha virt. eigenvalues --   -0.02457  -0.02235  -0.01372  -0.01129  -0.00508
 Alpha virt. eigenvalues --    0.00006   0.00783   0.01987   0.02306   0.03216
 Alpha virt. eigenvalues --    0.04302   0.05119   0.05302   0.05986   0.06903
 Alpha virt. eigenvalues --    0.07244   0.08300   0.08938   0.09279   0.09567
 Alpha virt. eigenvalues --    0.09790   0.10287   0.10827   0.11116   0.11689
 Alpha virt. eigenvalues --    0.11709   0.11893   0.12263   0.12858   0.13209
 Alpha virt. eigenvalues --    0.13355   0.14161   0.14589   0.15107   0.15268
 Alpha virt. eigenvalues --    0.15795   0.16201   0.16714   0.17481   0.17666
 Alpha virt. eigenvalues --    0.18017   0.18552   0.18924   0.19189   0.19835
 Alpha virt. eigenvalues --    0.20256   0.20620   0.21554   0.22279   0.22787
 Alpha virt. eigenvalues --    0.23223   0.23768   0.24258   0.24728   0.24962
 Alpha virt. eigenvalues --    0.25957   0.26160   0.26867   0.27448   0.28192
 Alpha virt. eigenvalues --    0.28225   0.28703   0.29116   0.29796   0.30022
 Alpha virt. eigenvalues --    0.30539   0.30764   0.31166   0.31922   0.33010
 Alpha virt. eigenvalues --    0.33631   0.34363   0.35181   0.35892   0.36185
 Alpha virt. eigenvalues --    0.36761   0.37584   0.38044   0.38513   0.38806
 Alpha virt. eigenvalues --    0.40381   0.44125   0.47409   0.48693   0.50577
 Alpha virt. eigenvalues --    0.52645   0.52925   0.54569   0.55343   0.55546
 Alpha virt. eigenvalues --    0.56304   0.56356   0.57276   0.57428   0.58000
 Alpha virt. eigenvalues --    0.59030   0.59161   0.60653   0.61683   0.62209
 Alpha virt. eigenvalues --    0.64841   0.67047   0.67644   0.69155   0.69502
[...]
 -0.00041669,-0.00085861,-0.00030986,0.00004304,0.00003138,-0.00007900,
 -0.00148952,-0.00089296,0.00480173,-0.00018577,-0.00074138,0.00026687,
 -0.00024715,-0.00003585,-0.00003965,0.00007091,0.00001665,-0.00009554,
 -0.03017566,-0.00873010,-0.00486497,0.00027833,0.00037053,-0.00032103,
 -0.10092827,-0.13325639,-0.00368656,0.00630766,-0.00297105,0.00127172,
 0.01581143,0.00890759,0.00454044,0.13427704,0.55882332,-0.00022612,0.0
 0011819,0.00003065,-0.00005861,-0.00001629,0.00002453,-0.00102470,-0.0
 0029539,-0.00034387,0.00022382,-0.00001776,-0.00014249,-0.00151926,0.0
 0526917,0.00252646,-0.00044349,-0.00015314,-0.00029271,0.00116856,0.00
 079728,0.00027027,0.00015466,-0.00020660,0.00013831,0.01421990,-0.0244
 5032,0.03162803,0.00004030,0.00000843,0.00017772,-0.04693939,0.0222522
 2,-0.10426938,-0.02843541,0.00089428,-0.02248498,-0.01935962,-0.008161
 37,-0.00148929,0.14448244,-0.23743513,0.38735678,0.00019560,-0.0002256
 5,0.00013752,0.00012544,0.00003593,-0.00004205,0.00020269,-0.00042207,
 0.00084478,-0.00044183,0.00001913,0.00038217,0.00338008,0.00218149,-0.
 00405513,0.00017954,0.00035476,-0.00078039,0.00004417,-0.00107829,0.00
 030899,-0.00062175,-0.00018079,0.00040054,-0.03314771,0.03906205,-0.05
 000692,-0.00002812,-0.00032539,0.00041307,-0.03716662,-0.03184260,0.00
 568959,-0.28687667,-0.10178021,-0.04838752,-0.00051588,-0.00062533,0.0
 0066984,0.05333111,0.00648820,0.01999498,0.59688845,-0.00021657,-0.000
 25530,0.00011137,0.00004510,0.00000621,-0.00004167,-0.00033462,-0.0005
 1313,0.00027267,-0.00022069,-0.00003346,0.00013948,0.00096303,0.000328
 27,0.00494525,0.00034137,-0.00012319,-0.00019066,0.00008182,-0.0000309
 1,-0.00001521,0.00121282,0.00057416,0.00068775,0.00390311,0.04719611,-
 0.02794303,-0.00000133,0.00000739,0.00002923,-0.03233786,-0.03379572,0
 .00205146,-0.05400967,-0.13270463,0.02216090,-0.00047495,-0.00071020,-
 0.00049867,0.04133070,-0.02515837,0.04639257,0.09082615,0.52635095,-0.
 00039332,-0.00016029,0.00044846,0.00010831,0.00000443,0.00001158,-0.00
 043211,-0.00019242,-0.00089146,-0.00021483,0.00002178,0.00023743,-0.00
 289887,0.00450493,0.00119354,-0.00009058,0.00008422,-0.00050590,0.0003
 5117,0.00026200,-0.00008257,-0.00044533,-0.00006831,0.00000016,-0.0239
 2857,-0.00791255,-0.00029516,0.00004701,-0.00019843,0.00030886,0.00648
 217,0.00253226,-0.00443572,-0.08313887,-0.00399990,-0.10393365,0.00059
 215,-0.00055248,-0.00027647,-0.00518882,0.02744988,-0.01497905,0.18525
 345,-0.23345532,0.40296446,-0.00000392,-0.00012460,0.00010466,0.000023
 96,0.00001173,0.00000821,-0.00017106,0.00015581,-0.00031718,-0.0001949
 1,0.00013244,0.00014749,-0.00001297,0.00140728,0.00118065,0.00006421,0
 .00023686,-0.00000101,0.00019473,0.00001855,-0.00020406,0.00020213,-0.
 00011364,0.00014072,0.00911398,0.01462145,-0.00734609,0.00001652,-0.00
 018140,0.00007401,-0.00062382,0.00068733,-0.00447902,-0.08546646,-0.08
 112111,0.03071596,0.00042691,0.00080314,-0.00044867,-0.00087342,0.0004
 4022,-0.00026551,-0.00549766,-0.02511624,0.01347846,0.08677625,0.00022
 749,0.00013080,-0.00037925,-0.00007763,-0.00004081,-0.00003072,0.00034
 202,0.00011838,0.00080841,0.00034455,-0.00004286,-0.00036503,0.0000880
 4,-0.00032376,-0.00219605,-0.00003270,-0.00026719,0.00017770,0.0004942
 3,0.00012837,0.00033404,-0.00017309,0.00019117,-0.00003788,-0.00775508
 ,-0.01036569,0.00536614,-0.00002572,0.00027780,-0.00019371,0.00141113,
 0.00208175,0.00399263,-0.08129376,-0.24489126,0.10459527,-0.00038821,-
 0.00050021,0.00039195,0.00052618,0.00016337,-0.00057420,-0.00164447,-0
 .00571603,0.00562080,0.09036761,0.25728462,0.00019838,0.00007731,-0.00
 012056,-0.00005048,0.00002714,0.00000906,-0.00016239,-0.00009140,0.000
 21962,0.00010242,-0.00000708,0.00007187,0.00254526,-0.00035936,-0.0011
 7899,0.00018089,0.00036308,0.00011820,-0.00050924,-0.00094509,-0.00012
 921,-0.00007140,-0.00034855,-0.00001382,0.00753618,0.01751367,-0.00508
 188,-0.00004293,-0.00016516,-0.00001600,-0.00482853,0.00398062,0.00122
 470,0.03111813,0.10433096,-0.09340019,0.00043419,0.00095982,-0.0002464
 0,-0.00040468,-0.00058590,-0.00079163,-0.00332695,-0.00716691,0.006414
 99,-0.03086860,-0.11661263,0.09100814,-0.00022815,0.00004630,0.0001023
 2,0.00002809,-0.00003082,-0.00000579,0.00005296,-0.00012329,-0.0001809
 6,0.00000055,0.00001146,0.00000866,0.00000653,-0.00102360,0.00063565,-
 0.00000014,-0.00033547,-0.00002141,-0.00037485,-0.00015252,-0.00003020
 ,0.00002719,0.00004011,-0.00000722,-0.00341385,-0.00239863,-0.00391197
 ,0.00000869,0.00019606,-0.00003657,-0.00530622,-0.02469867,0.01351139,
 -0.00096383,0.00052681,-0.00041327,0.00016782,0.00140345,0.00128693,-0
 .08790376,-0.08414462,0.03380153,-0.00035116,0.00057415,-0.00450952,-0
 .00010805,0.00017945,0.00039829,0.08797806,-0.00015534,0.00001162,0.00
 003915,0.00001475,-0.00000983,0.00000118,0.00001661,-0.00002076,-0.000
 10031,0.00000412,-0.00000236,-0.00000291,0.00025067,-0.00026083,0.0004
 1639,0.00006842,-0.00015654,0.00002088,-0.00010150,-0.00007824,0.00000
 592,-0.00001252,0.00001417,-0.00003381,-0.00319444,0.00306710,0.001439
 46,-0.00003409,0.00009053,-0.00004052,-0.00162854,-0.00528789,0.005391
 83,0.00045299,0.00024788,-0.00062455,0.00083679,-0.00062097,-0.0020595
 4,-0.08411766,-0.24476741,0.10727617,0.00119454,0.00214134,0.00437719,
 0.00019610,-0.00037693,-0.00042176,0.09254665,0.25588589,0.00001335,0.
 00000684,-0.00002376,-0.00001584,0.00001145,0.00001012,-0.00007422,0.0
 0003451,-0.00001175,0.00000336,-0.00001194,-0.00000797,0.00000934,-0.0
 0026136,0.00029135,0.00006062,0.00008914,0.00016202,0.00000928,-0.0000
 4850,-0.00001332,0.00001242,0.00000894,-0.00004061,-0.00376894,0.00149
 098,0.00418360,-0.00000637,-0.00002759,-0.00008565,-0.00343859,-0.0070
 3098,0.00655529,-0.00042619,-0.00061321,-0.00075157,0.00166378,-0.0017
 4990,-0.00184158,0.03379178,0.10742218,-0.09728228,-0.00496575,0.00406
 382,0.00153899,0.00038863,-0.00040271,-0.00058262,-0.03391161,-0.11915
 216,0.09457006,-0.00056707,-0.00007131,0.00021207,0.00007455,-0.000052
 60,-0.00001393,0.00052446,-0.00019545,-0.00081574,-0.00000842,-0.00001
 449,0.00011730,-0.00119725,0.00024913,0.00090854,-0.00005611,-0.000743
 00,-0.00045676,-0.00009536,0.00000591,-0.00013098,0.00008081,-0.000092
 37,0.00007877,-0.00086477,0.00850607,-0.00328945,0.00001343,0.00026191
 ,0.00014463,-0.03278967,0.00392844,-0.02510253,-0.00944313,-0.03085098
 ,0.01307380,-0.00309936,-0.00381428,-0.00291014,-0.18259362,0.06578194
 ,-0.11315682,-0.14261825,-0.09720411,0.02715495,-0.00359236,-0.0033100
 8,-0.00355933,0.00996424,-0.00721077,0.00898059,0.63912320,-0.00010112
 ,0.00025538,-0.00009852,-0.00007742,-0.00003142,0.00004022,-0.00025550
 ,0.00050732,-0.00050976,0.00036438,-0.00007618,-0.00030285,-0.00032312
 ,-0.00158171,0.00026417,-0.00045199,-0.00041668,0.00008577,-0.00028473
 ,0.00052489,-0.00006598,-0.00012332,-0.00004940,-0.00037240,0.00927501
 ,-0.04319732,0.03150889,0.00003927,0.00022316,-0.00004043,0.03840259,0
 .04701321,-0.00715455,-0.06585924,-0.00943018,-0.02388672,-0.00441316,
 0.00208678,0.00137721,0.01851213,-0.15855612,0.08001689,-0.04933747,-0
 .25108860,0.10929397,-0.00247579,0.00303088,0.00169028,0.01585804,-0.0
 0883008,0.01746271,0.13854382,0.51237480,-0.00012058,-0.00017934,0.000
 09647,0.00009134,-0.00000169,-0.00003242,0.00052252,-0.00034230,0.0001
 7717,-0.00023905,0.00004167,0.00023348,-0.00000102,0.00037475,-0.00083
 360,0.00023194,-0.00010293,-0.00056194,-0.00003731,-0.00042769,-0.0001
 2534,0.00000357,-0.00008948,0.00027666,-0.00308644,0.03134879,-0.03114
 578,-0.00006051,-0.00004003,0.00025036,-0.05033124,-0.02662118,-0.0006
 3053,0.03801643,-0.00439601,0.03202152,-0.00239652,0.00175503,0.004657
 98,-0.07846063,0.10552062,-0.18284187,-0.00711138,0.08385554,-0.127380
 42,-0.00414219,0.00126709,0.00426541,-0.00803795,0.00503019,-0.0045962
 5,0.17461896,-0.20077680,0.37347597,-0.00019599,0.00000029,0.00013030,
 0.00004485,-0.00001944,-0.00000550,0.00007722,-0.00002166,-0.00021800,
 -0.00002144,0.00000654,0.00002634,-0.00023715,0.00089039,-0.00092821,-
 0.00003605,-0.00019281,-0.00016570,0.00003032,-0.00002466,0.00002735,-
 0.00045222,-0.00009896,-0.00007093,-0.00291763,-0.00438975,-0.00228903
 ,-0.00000251,0.00006305,0.00007570,-0.00056012,-0.00064991,0.00065138,
 -0.01133172,0.01615170,-0.01943808,-0.00015233,0.00031532,0.00026125,0
 .00124009,-0.00355233,-0.00056684,-0.14113374,0.07209900,-0.10843948,0
 .00016298,0.00081986,0.00171515,0.00031953,-0.00040730,0.00038818,0.00
 970968,-0.00662212,0.00822714,0.14538711,-0.00000861,-0.00001953,0.000
 01080,0.00000688,-0.00000074,0.00000199,0.00001332,-0.00002608,-0.0000
 1008,-0.00000298,0.00001047,0.00002134,-0.00019919,0.00041837,-0.00028
 447,0.00003480,0.00001953,0.00008625,0.00003665,-0.00003790,0.00000516
 ,-0.00007367,-0.00005254,-0.00007790,-0.00396415,0.00216851,0.00169714
 ,-0.00000051,0.00001169,-0.00005041,-0.00067603,-0.00069910,-0.0005498
 9,-0.00711648,0.00874806,-0.00779511,0.00030355,-0.00026831,-0.0004057
 8,-0.00418442,-0.00185222,0.00420753,0.07210864,-0.12185456,0.10014778
 ,0.00141096,-0.00056671,-0.00179842,0.00077651,-0.00050872,0.00092689,
 0.01669210,-0.00836859,0.01737028,-0.07589977,0.12330512,-0.00012212,-
 0.00002543,0.00004125,0.00002093,-0.00000692,-0.00000150,0.00006217,-0
 .00002344,-0.00007889,0.00001746,0.00000266,0.00000571,0.00009085,0.00
 045446,-0.00006598,0.00005813,-0.00007507,0.00001545,-0.00001401,-0.00
 005977,0.00001112,-0.00004199,-0.00004622,-0.00006786,-0.00304500,0.00
 154315,0.00473032,-0.00003599,0.00004593,-0.00002323,0.00057593,-0.000
 58141,-0.00019340,-0.00260844,0.00461947,-0.00153977,0.00027139,-0.000
 41510,-0.00061682,-0.00006998,0.00450229,0.00380291,-0.10854534,0.1000
 1489,-0.16710912,0.00131179,-0.00208288,-0.00191996,-0.00046498,0.0002
 5826,-0.00028382,-0.00846796,0.00498384,-0.00489296,0.11943614,-0.1113
 3401,0.16998188,-0.00012003,-0.00000646,0.00003908,0.00002143,-0.00000
 934,-0.00000700,0.00005913,-0.00002977,-0.00001959,-0.00000663,0.00000
 344,-0.00000242,-0.00024173,0.00018028,0.00026936,0.00000924,-0.000110
 16,-0.00015812,0.00001623,0.00003335,-0.00000135,0.00002538,0.00000086
 ,0.00002541,0.00043355,0.00054391,0.00033121,-0.00003540,0.00003703,0.
 00007054,0.00108786,0.00117958,-0.00418379,0.00224675,-0.00296434,-0.0
 0044575,-0.00062354,-0.00045859,-0.00013473,-0.01173791,-0.00787426,-0
 .00222432,-0.00601066,-0.00134394,-0.00386121,-0.00037431,-0.00006789,
 -0.00027159,0.00005911,0.00126129,0.00128771,-0.28278025,-0.09088403,-
 0.06766633,-0.00000358,0.00077014,0.00157023,0.29794464,0.00001049,0.0
 0001529,-0.00002559,-0.00000331,-0.00000310,-0.00000252,0.00004001,0.0
 0005663,0.00003956,0.00003821,-0.00001041,-0.00004198,0.00034224,-0.00
 016332,-0.00044332,0.00000970,-0.00003662,0.00007742,0.00001182,-0.000
 03153,0.00007412,-0.00009735,0.00004601,-0.00007008,0.00044018,-0.0010
 0706,0.00032861,-0.00000823,0.00004141,-0.00005131,0.00054608,0.001004
 47,0.00483938,-0.00228062,-0.00193265,0.00525009,0.00069344,0.00032524
 ,0.00030721,0.01530930,0.00899128,0.00389604,-0.02463939,-0.00458020,-
 0.00785221,-0.00126275,-0.00037397,-0.00028049,0.00061204,-0.00058750,
 -0.00215528,-0.09083467,-0.08467123,-0.01368240,0.00141098,-0.00039193
 ,-0.00179282,0.09966290,0.08331473,0.00003948,-0.00000699,-0.00001227,
 0.00000220,0.00000775,-0.00000054,0.00004432,0.00005193,0.00001878,-0.
 00000467,-0.00000171,0.00000474,0.00048686,-0.00039865,-0.00045471,0.0
 0001787,0.00009243,-0.00002558,-0.00007680,-0.00016249,0.00007080,0.00
 001298,0.00006525,-0.00000482,0.00016132,0.00031645,-0.00101964,-0.000
 03856,-0.00004178,0.00003046,-0.00367197,0.00523118,0.00139080,-0.0008
 6264,0.00489656,0.00303345,-0.00100317,-0.00033813,-0.00010593,-0.0191
 6340,-0.00857221,-0.00119081,0.01296862,0.00452494,0.00661322,0.000562
 05,0.00034634,0.00026895,0.00173903,-0.00181833,-0.00171208,-0.0676414
 8,-0.01363610,-0.06261950,0.00111229,-0.00212646,-0.00178188,0.0753164
 5,0.01161670,0.05752095,-0.04047205,0.03805990,-0.02238959,-0.00169947
 ,0.01390672,0.00581963,-0.00343794,-0.04022190,-0.00182428,0.00079747,
 0.00058289,-0.00032586,0.00209319,-0.00167616,-0.00030104,-0.00716389,
 0.00085402,-0.00216234,-0.00067926,0.00123166,0.00047880,-0.00006325,0
 .00016989,0.00015191,-0.00029781,0.00047098,-0.00044311,0.00165806,-0.
 00032901,0.00066604,0.00027715,0.00005302,0.00020692,0.00015091,0.0000
 3925,0.00010241,-0.00001735,-0.00001724,-0.00002555,0.00007102,0.00005
 690,-0.00002695,-0.00006220,-0.00003506,-0.00002895,-0.00006150,0.0000
 1030,-0.00004059,0.00004353,0.00003088,-0.00000079,0.00007532,0.000083
 34,-0.00000788,0.00003363,-0.00000989,0.00001262,0.00001914,0.00001255
 ,0.00000321,0.04819376,0.00745444,-0.42246885,-0.02185130,0.00145242,-
 0.01439152,-0.00673577,0.00378137,-0.01243779,-0.00331986,-0.00014500,
 0.00026124,-0.00015947,0.00195557,0.00154310,0.00072725,-0.00217053,0.
 00019981,-0.00071306,-0.00062689,0.00041014,0.00065818,-0.00016968,-0.
 00008485,0.00010312,0.00008122,0.00016573,-0.00046701,-0.00037343,0.00
 048220,-0.00052322,0.00022284,0.00002037,0.00012620,0.00006790,0.00004
 960,0.00000389,-0.00000175,-0.00001464,-0.00003515,-0.00002220,0.00007
 669,-0.00001699,-0.00000796,-0.00000220,0.00003269,-0.00001047,-0.0000
 0922,-0.00001514,0.00002831,0.00001364,-0.00000043,0.00003563,0.000004
 49,0.00000641,0.00002058,0.00000009,0.00000788,0.00000945,-0.00000087,
 -0.00000226,-0.01151569,0.44700937,-0.02324944,-0.06079862,-0.03811476
 ,0.00051067,0.03583218,0.00257176,0.00371171,-0.00855077,-0.00179555,-
 0.00003172,-0.00023705,-0.00028306,-0.00048376,0.00124807,0.00028828,-
 0.00283098,0.00171964,-0.00088531,0.00018751,-0.00014746,0.00044049,0.
 00009920,0.00023587,-0.00008922,0.00038784,-0.00011393,0.00013865,0.00
 088899,-0.00034376,0.00091276,-0.00017430,-0.00002995,-0.00011612,-0.0
 0015060,-0.00019322,0.00001956,0.00001643,0.00003169,-0.00001122,0.000
 00666,-0.00000591,-0.00001497,0.00002350,0.00003900,-0.00004755,-0.000
 01774,0.00006135,0.00001444,-0.00002556,-0.00001668,0.00000152,-0.0000
 6930,-0.00002900,0.00000716,-0.00003976,0.00000388,-0.00001144,-0.0000
 1240,0.00000102,-0.00000527,0.02076590,0.03249022,0.03762002,0.0000636
 2,0.00107033,0.00011614,0.00027341,0.00056058,0.00013601,0.00993328,-0
 .00041921,-0.00395593,0.00021471,-0.00009106,0.00059517,-0.00176182,-0
 .00206673,0.00018051,-0.08285547,-0.00849004,-0.05411279,0.00051114,-0
 .00000407,-0.00047069,-0.00004667,0.00017289,0.00037050,-0.00137286,-0
 .00016974,0.00048274,0.00810758,0.00063463,-0.05074582,-0.00047931,0.0
 0103742,-0.00005937,0.00029488,-0.00002050,0.00062096,-0.00008380,-0.0
 0022143,-0.00004616,0.00038499,0.00022207,0.00025328,0.00008708,-0.000
 10762,0.00008975,-0.00000305,0.00000987,-0.00010703,0.00005437,-0.0000
 2323,-0.00007359,0.00024899,0.00019047,0.00009371,0.00003805,-0.000014
 05,-0.00002566,0.00002637,-0.00002875,-0.00002929,0.00038494,-0.000118
 58,0.00025069,0.09591847,0.00092347,-0.00528680,-0.00022037,0.00009715
 ,0.00005303,-0.00013653,-0.01006757,-0.01747511,-0.03365144,-0.0007489
 9,0.00007209,-0.00190819,-0.00116237,-0.00393664,0.00033343,-0.0190514
 2,-0.16096943,-0.07161833,0.00121475,-0.00058844,-0.00102218,0.0000870
 9,0.00011869,-0.00019145,-0.00163200,-0.00088512,-0.00062469,0.0053318
 4,0.03846085,0.01461425,0.00006019,0.00039949,0.00028787,0.00047100,0.
 00007477,0.00024017,-0.00007371,-0.00017067,-0.00014457,0.00017449,0.0
 0021714,0.00019988,-0.00014576,-0.00004201,0.00004764,-0.00008765,0.00
 007265,-0.00013880,0.00013717,0.00004784,-0.00009352,0.00038993,0.0002
 5836,0.00012248,0.00010659,-0.00003578,0.00001908,0.00009234,-0.000008
 46,-0.00003810,-0.00157166,-0.00084448,-0.00098360,-0.04082758,0.62475
 390,0.00152668,-0.00270974,0.00157700,0.00064353,0.00206992,0.00039170
 ,-0.00641013,-0.00614304,-0.00665371,0.00029950,-0.00151338,0.00077212
 ,-0.00075413,-0.00066064,0.00009875,-0.05606010,-0.04817405,-0.2115796
 1,0.00054056,-0.00029302,-0.00006943,-0.00029063,0.00034358,0.00070216
 ,-0.00102174,-0.00041225,-0.00026371,-0.04936934,0.00497687,-0.0899841
 1,0.00008894,0.00046772,-0.00044778,0.00027570,0.00006725,0.00027632,-
 0.00031061,-0.00015860,0.00030585,-0.00003629,-0.00006989,0.00013720,0
 .00015837,-0.00000046,0.00024000,-0.00003945,-0.00008962,-0.00011581,0
 .00005204,0.00002425,-0.00008298,0.00032068,0.00015188,0.00022815,0.00
 013514,-0.00006856,0.00000779,0.00011543,-0.00003301,-0.00001173,-0.00
 022666,-0.00017133,-0.00041487,0.12320397,0.04069748,0.35170025,-0.000
 42864,0.00132801,0.00050463,0.00011328,-0.00010067,-0.00005197,0.00581
 709,-0.00068575,-0.00422521,-0.00005944,0.00006164,-0.00001550,-0.0003
 8523,-0.00129726,0.00005685,0.00610036,-0.01780448,0.00074587,0.000209
 09,-0.00013056,-0.00031603,0.00000444,0.00003710,-0.00006547,0.0000320
 0,0.00019754,-0.00001349,-0.00532499,0.00214904,0.00226684,0.00013567,
 -0.00012977,-0.00003126,-0.00003204,0.00003432,0.00002173,0.00002023,0
 .00005311,0.00012975,-0.00007654,-0.00017232,-0.00009243,0.00003809,0.
 00002541,0.00001307,0.00000182,-0.00005211,0.00001485,-0.00006068,0.00
 001158,0.00007284,-0.00010907,-0.00006004,-0.00010659,0.00000103,-0.00
 000381,0.00001385,-0.00001479,0.00001512,0.00002531,0.00015661,0.00005
 244,0.00023647,-0.02993891,0.06628271,-0.01284144,0.02380063,-0.000335
 34,-0.00034444,-0.00014551,-0.00007953,-0.00030550,-0.00007645,-0.0001
 2751,0.00207881,-0.00279105,-0.00008465,0.00076517,0.00006907,-0.00032
 415,-0.00086430,-0.00003962,-0.00048737,-0.02899469,-0.00953711,0.0001
 1021,-0.00001862,-0.00019627,0.00004186,-0.00003992,-0.00010196,0.0000
 6920,0.00005196,0.00001927,0.00245946,0.00223247,0.00824874,-0.0000300
 2,-0.00001167,0.00006056,0.00001413,-0.00004356,0.00004484,0.00005342,
 0.00003638,-0.00007701,0.00008536,0.00007628,-0.00000144,-0.00001553,0
 .00000408,0.00001233,0.00000414,-0.00000515,-0.00000620,-0.00002891,-0
 .00001194,0.00003012,-0.00000078,0.00001822,-0.00003300,-0.00000559,0.
 00000088,-0.00000882,-0.00002580,0.00000378,-0.00000630,-0.00018569,0.
 00001795,-0.00021297,0.04870433,-0.47428587,0.01169862,-0.04981124,0.4
 9963970,0.00027538,-0.00134190,-0.00011027,-0.00006242,-0.00015649,0.0
 0002455,-0.00438335,0.00002514,-0.00345755,0.00008751,0.00003490,0.000
 32521,0.00029466,-0.00015787,0.00016365,0.00481896,-0.05278902,0.00251
 740,0.00003477,0.00000269,-0.00001023,-0.00002237,-0.00003871,-0.00000
 140,-0.00002320,-0.00010368,-0.00005181,0.00243782,0.00725626,0.001546
 79,-0.00001500,0.00005688,0.00015269,0.00000771,-0.00001967,0.00004942
 ,0.00002347,-0.00001706,-0.00019214,0.00008315,0.00009776,0.00003046,-
 0.00002399,0.00002306,-0.00003463,0.00001690,0.00000295,-0.00001830,0.
 00002117,-0.00001031,0.00000330,0.00000413,-0.00000271,-0.00002974,-0.
 00002482,0.00002204,-0.00000981,-0.00003682,0.00000087,-0.00000740,-0.
 00040386,-0.00014485,-0.00022530,-0.01676710,0.05420950,-0.04681355,0.
 01365732,-0.00694981,0.04614868||0.00001891,-0.00001357,-0.00000882,0.
 00000660,0.00000026,0.00001498,-0.00000548,-0.00003989,-0.00005243,0.0
 0000482,0.00000344,0.00000496,-0.00002627,-0.00001104,0.00001499,-0.00
 001547,0.00007811,0.00004428,0.00000741,0.00000286,-0.00000496,0.00000
 994,-0.00000179,0.00000104,0.00001798,0.00001816,-0.00000042,0.0000097
 0,-0.00002033,0.00000081,-0.00000077,-0.00001307,0.00000309,0.00000482
 ,0.00000361,-0.00000096,0.00000156,0.00000110,0.00000280,0.00000169,-0
 .00000286,0.00000888,-0.00000839,-0.00000003,0.00000339,0.00000171,0.0
 0000017,-0.00000054,-0.00000115,0.00000206,0.00000398,-0.00000491,0.00
 000448,-0.00000001,-0.00000048,0.00000284,0.00000276,-0.00000177,0.000
 00220,0.00000489,-0.00000435,0.00001426,-0.00000326,-0.00000940,-0.000
 01338,-0.00003680,-0.00000671,-0.00001760,-0.00000265|||@


 THAT'S WHAT MAKES US A GREAT COUNTRY.
 THE LITTLE THINGS ARE SERIOUS AND THE BIG ONES ARE NOT.
           WILL ROGERS
 Job cpu time:  0 days  3 hours  2 minutes 22.0 seconds.
 File lengths (MBytes):  RWF=    286 Int=      0 D2E=      0 Chk=     11 Scr=      1
 Normal termination of Gaussian 03 at Wed Mar 30 18:49:15 2016.
