 Entering Link 1 = c:\G09w03\l1.exe PID=      3932.
  
 Copyright (c) 1988,1990,1992,1993,1995,1998,2003,2009,2010,
            Gaussian, Inc.  All Rights Reserved.
  
 This is part of the Gaussian(R) 09 program.  It is based on
 the Gaussian(R) 03 system (copyright 2003, Gaussian, Inc.),
 the Gaussian(R) 98 system (copyright 1998, Gaussian, Inc.),
 the Gaussian(R) 94 system (copyright 1995, Gaussian, Inc.),
 the Gaussian 92(TM) system (copyright 1992, Gaussian, Inc.),
 the Gaussian 90(TM) system (copyright 1990, Gaussian, Inc.),
 the Gaussian 88(TM) system (copyright 1988, Gaussian, Inc.),
 the Gaussian 86(TM) system (copyright 1986, Carnegie Mellon
 University), and the Gaussian 82(TM) system (copyright 1983,
 Carnegie Mellon University). Gaussian is a federally registered
 trademark of Gaussian, Inc.
  
 This software contains proprietary and confidential information,
 including trade secrets, belonging to Gaussian, Inc.
  
 This software is provided under written license and may be
 used, copied, transmitted, or stored only in accord with that
 written license.
  
 The following legend is applicable only to US Government
 contracts under FAR:
  
                    RESTRICTED RIGHTS LEGEND
  
 Use, reproduction and disclosure by the US Government is
 subject to restrictions as set forth in subparagraphs (a)
 and (c) of the Commercial Computer Software - Restricted
 Rights clause in FAR 52.227-19.
  
 Gaussian, Inc.
 340 Quinnipiac St., Bldg. 40, Wallingford CT 06492
  
  
 ---------------------------------------------------------------
 Warning -- This program may not be used in any manner that
 competes with the business of Gaussian, Inc. or will provide
 assistance to any competitor of Gaussian, Inc.  The licensee
 of this program is prohibited from giving any competitor of
 Gaussian, Inc. access to this program.  By using this program,
 the user acknowledges that Gaussian, Inc. is engaged in the
 business of creating and licensing software in the field of
 computational chemistry and represents and warrants to the
 licensee that it is not a competitor of Gaussian, Inc. and that
 it will not use this program in any manner prohibited above.
 ---------------------------------------------------------------
  

 Cite this work as:
 Gaussian 09, Revision B.01,
 M. J. Frisch, G. W. Trucks, H. B. Schlegel, G. E. Scuseria, 
 M. A. Robb, J. R. Cheeseman, G. Scalmani, V. Barone, B. Mennucci, 
 G. A. Petersson, H. Nakatsuji, M. Caricato, X. Li, H. P. Hratchian, 
 A. F. Izmaylov, J. Bloino, G. Zheng, J. L. Sonnenberg, M. Hada, 
 M. Ehara, K. Toyota, R. Fukuda, J. Hasegawa, M. Ishida, T. Nakajima, 
 Y. Honda, O. Kitao, H. Nakai, T. Vreven, J. A. Montgomery, Jr., 
 J. E. Peralta, F. Ogliaro, M. Bearpark, J. J. Heyd, E. Brothers, 
 K. N. Kudin, V. N. Staroverov, T. Keith, R. Kobayashi, J. Normand, 
 K. Raghavachari, A. Rendell, J. C. Burant, S. S. Iyengar, J. Tomasi, 
 M. Cossi, N. Rega, J. M. Millam, M. Klene, J. E. Knox, J. B. Cross, 
 V. Bakken, C. Adamo, J. Jaramillo, R. Gomperts, R. E. Stratmann, 
 O. Yazyev, A. J. Austin, R. Cammi, C. Pomelli, J. W. Ochterski, 
 R. L. Martin, K. Morokuma, V. G. Zakrzewski, G. A. Voth, 
 P. Salvador, J. J. Dannenberg, S. Dapprich, A. D. Daniels, 
 O. Farkas, J. B. Foresman, J. V. Ortiz, J. Cioslowski, 
 and D. J. Fox, Gaussian, Inc., Wallingford CT, 2010.
 
 ******************************************
 Gaussian 09:  IA32W-G09RevB.01 12-Aug-2010
                07-Apr-2016 
 ******************************************
 %chk=E:\YangJ\Amiano\phe\ts1\s\Phe-S-ts1-6-311++gdp-cpcm.chk
 ----------------------------------------------------------------------
 #p opt=(calcfc,ts) freq rb3lyp/6-311++g(d,p) scrf=(cpcm,solvent=water)
  iop(1/11=1)
 ----------------------------------------------------------------------
 1/5=1,10=4,11=1,14=-1,18=20,26=3,38=1/1,3;
 2/9=110,12=2,17=6,18=5,40=1/2;
 3/5=4,6=6,7=1111,11=2,16=1,25=1,30=1,70=2101,71=2,72=1,74=-5,116=1/1,2,3;
 4//1;
 5/5=2,38=5,53=1/2;
 8/6=4,10=90,11=11/1;
 11/6=1,8=1,9=11,15=111,16=1/1,2,10;
 10/6=1,7=6,13=1/2;
 6/7=2,8=2,9=2,10=2,28=1/1;
 7/10=1,18=20,25=1/1,2,3,16;
 1/5=1,10=4,11=1,14=-1,18=20/3(2);
 2/9=110/2;
 99//99;
 2/9=110/2;
 3/5=4,6=6,7=1111,11=2,16=1,25=1,30=1,70=2105,71=1,72=1,74=-5,116=1/1,2,3;
 4/5=5,16=3/1;
 5/5=2,38=5,53=1/2;
 7//1,2,3,16;
 1/5=1,11=1,14=-1,18=20/3(-5);
 2/9=110/2;
 6/7=2,8=2,9=2,10=2,19=2,28=1/1;
 99/9=1/99;
 Leave Link    1 at Thu Apr 07 11:56:33 2016, MaxMem=          0 cpu:       0.0
 (Enter c:\G09w03\l101.exe)
 -----------------------------
 Phe-S-opt-freq-ts1-6-311++gdp
 -----------------------------
 Symbolic Z-matrix:
 Charge =  0 Multiplicity = 1
 N                    -2.87512  -1.46144  -0.20464 
 H                    -3.2467   -1.06903  -1.06475 
 C                    -1.63507  -0.78572   0.18968 
 H                    -1.33123  -1.17919   1.16139 
 C                    -0.53135  -1.0673   -0.84923 
 C                    -1.86509   0.69885   0.36362 
 H                    -0.5005   -2.15285  -0.97184 
 H                    -0.83947  -0.63853  -1.80723 
 C                     0.83241  -0.54037  -0.45689 
 O                    -2.10101   1.5163   -0.59105 
 C                     1.30647   0.68012  -0.94948 
 C                     1.6435   -1.26496   0.42498 
 H                     0.69222   1.2534   -1.63568 
 C                     2.55652   1.16601  -0.56781 
 C                     2.89216  -0.78226   0.80877 
 H                     1.29775  -2.2204    0.80805 
 H                     2.90842   2.1131   -0.96159 
 C                     3.35232   0.43717   0.31311 
 H                     3.5077   -1.3596    1.48969 
 H                     4.32518   0.81352   0.60854 
 H                    -3.58892  -1.37814   0.5119 
 O                    -1.92896   1.31134   1.47889 
 H                    -2.17008   2.17746   0.5308 
 
 NAtoms=     23 NQM=     23 NQMF=      0 NMic=      0 NMicF=      0 NTot=     23.
 Add atom     23 valence  3 ND=      0 dihedral      22     10     23      6
                    Isotopes and Nuclear Properties:
 (Nuclear quadrupole moments (NQMom) in fm**2, nuclear magnetic moments (NMagM)
  in nuclear magnetons)

  Atom         1           2           3           4           5           6           7           8           9          10
 IAtWgt=          14           1          12           1          12          12           1           1          12          16
 AtmWgt=  14.0030740   1.0078250  12.0000000   1.0078250  12.0000000  12.0000000   1.0078250   1.0078250  12.0000000  15.9949146
 NucSpn=           2           1           0           1           0           0           1           1           0           0
 AtZEff=   0.0000000   0.0000000   0.0000000   0.0000000   0.0000000   0.0000000   0.0000000   0.0000000   0.0000000   0.0000000
 NQMom=    2.0440000   0.0000000   0.0000000   0.0000000   0.0000000   0.0000000   0.0000000   0.0000000   0.0000000   0.0000000
 NMagM=    0.4037610   2.7928460   0.0000000   2.7928460   0.0000000   0.0000000   2.7928460   2.7928460   0.0000000   0.0000000

  Atom        11          12          13          14          15          16          17          18          19          20
 IAtWgt=          12          12           1          12          12           1           1          12           1           1
 AtmWgt=  12.0000000  12.0000000   1.0078250  12.0000000  12.0000000   1.0078250   1.0078250  12.0000000   1.0078250   1.0078250
 NucSpn=           0           0           1           0           0           1           1           0           1           1
 AtZEff=   0.0000000   0.0000000   0.0000000   0.0000000   0.0000000   0.0000000   0.0000000   0.0000000   0.0000000   0.0000000
 NQMom=    0.0000000   0.0000000   0.0000000   0.0000000   0.0000000   0.0000000   0.0000000   0.0000000   0.0000000   0.0000000
 NMagM=    0.0000000   0.0000000   2.7928460   0.0000000   0.0000000   2.7928460   2.7928460   0.0000000   2.7928460   2.7928460

  Atom        21          22          23
 IAtWgt=           1          16           1
 AtmWgt=   1.0078250  15.9949146   1.0078250
 NucSpn=           1           0           1
 AtZEff=   0.0000000   0.0000000   0.0000000
 NQMom=    0.0000000   0.0000000   0.0000000
 NMagM=    2.7928460   0.0000000   2.7928460
 Leave Link  101 at Thu Apr 07 11:56:33 2016, MaxMem=   33554432 cpu:       0.0
 (Enter c:\G09w03\l103.exe)

 GradGradGradGradGradGradGradGradGradGradGradGradGradGradGradGradGradGrad
 Berny optimization.
 Initialization pass.
                           ----------------------------
                           !    Initial Parameters    !
                           ! (Angstroms and Degrees)  !
 --------------------------                            --------------------------
 ! Name  Definition              Value          Derivative Info.                !
 --------------------------------------------------------------------------------
 ! R1    R(1,2)                  1.0158         calculate D2E/DX2 analytically  !
 ! R2    R(1,3)                  1.4662         calculate D2E/DX2 analytically  !
 ! R3    R(1,21)                 1.0148         calculate D2E/DX2 analytically  !
 ! R4    R(3,4)                  1.0915         calculate D2E/DX2 analytically  !
 ! R5    R(3,5)                  1.5417         calculate D2E/DX2 analytically  !
 ! R6    R(3,6)                  1.5123         calculate D2E/DX2 analytically  !
 ! R7    R(5,7)                  1.0929         calculate D2E/DX2 analytically  !
 ! R8    R(5,8)                  1.0939         calculate D2E/DX2 analytically  !
 ! R9    R(5,9)                  1.5137         calculate D2E/DX2 analytically  !
 ! R10   R(6,10)                 1.2788         calculate D2E/DX2 analytically  !
 ! R11   R(6,22)                 1.274          calculate D2E/DX2 analytically  !
 ! R12   R(6,23)                 1.519          calculate D2E/DX2 analytically  !
 ! R13   R(9,11)                 1.3989         calculate D2E/DX2 analytically  !
 ! R14   R(9,12)                 1.4002         calculate D2E/DX2 analytically  !
 ! R15   R(10,23)                1.304          calculate D2E/DX2 analytically  !
 ! R16   R(11,13)                1.0848         calculate D2E/DX2 analytically  !
 ! R17   R(11,14)                1.3944         calculate D2E/DX2 analytically  !
 ! R18   R(12,15)                1.3926         calculate D2E/DX2 analytically  !
 ! R19   R(12,16)                1.0859         calculate D2E/DX2 analytically  !
 ! R20   R(14,17)                1.0844         calculate D2E/DX2 analytically  !
 ! R21   R(14,18)                1.393          calculate D2E/DX2 analytically  !
 ! R22   R(15,18)                1.3944         calculate D2E/DX2 analytically  !
 ! R23   R(15,19)                1.0844         calculate D2E/DX2 analytically  !
 ! R24   R(18,20)                1.0841         calculate D2E/DX2 analytically  !
 ! R25   R(22,23)                1.3066         calculate D2E/DX2 analytically  !
 ! A1    A(2,1,3)              111.0426         calculate D2E/DX2 analytically  !
 ! A2    A(2,1,21)             107.9893         calculate D2E/DX2 analytically  !
 ! A3    A(3,1,21)             111.5403         calculate D2E/DX2 analytically  !
 ! A4    A(1,3,4)              107.9824         calculate D2E/DX2 analytically  !
 ! A5    A(1,3,5)              109.8817         calculate D2E/DX2 analytically  !
 ! A6    A(1,3,6)              110.7754         calculate D2E/DX2 analytically  !
 ! A7    A(4,3,5)              109.5595         calculate D2E/DX2 analytically  !
 ! A8    A(4,3,6)              107.0869         calculate D2E/DX2 analytically  !
 ! A9    A(5,3,6)              111.4492         calculate D2E/DX2 analytically  !
 ! A10   A(3,5,7)              106.0945         calculate D2E/DX2 analytically  !
 ! A11   A(3,5,8)              108.4771         calculate D2E/DX2 analytically  !
 ! A12   A(3,5,9)              114.0008         calculate D2E/DX2 analytically  !
 ! A13   A(7,5,8)              107.4004         calculate D2E/DX2 analytically  !
 ! A14   A(7,5,9)              110.4508         calculate D2E/DX2 analytically  !
 ! A15   A(8,5,9)              110.1399         calculate D2E/DX2 analytically  !
 ! A16   A(3,6,10)             124.7299         calculate D2E/DX2 analytically  !
 ! A17   A(3,6,22)             125.4681         calculate D2E/DX2 analytically  !
 ! A18   A(10,6,22)            109.6924         calculate D2E/DX2 analytically  !
 ! A19   A(5,9,11)             121.18           calculate D2E/DX2 analytically  !
 ! A20   A(5,9,12)             120.3295         calculate D2E/DX2 analytically  !
 ! A21   A(11,9,12)            118.4868         calculate D2E/DX2 analytically  !
 ! A22   A(9,11,13)            119.4662         calculate D2E/DX2 analytically  !
 ! A23   A(9,11,14)            120.7585         calculate D2E/DX2 analytically  !
 ! A24   A(13,11,14)           119.7753         calculate D2E/DX2 analytically  !
 ! A25   A(9,12,15)            120.9027         calculate D2E/DX2 analytically  !
 ! A26   A(9,12,16)            119.5422         calculate D2E/DX2 analytically  !
 ! A27   A(15,12,16)           119.5529         calculate D2E/DX2 analytically  !
 ! A28   A(11,14,17)           119.7265         calculate D2E/DX2 analytically  !
 ! A29   A(11,14,18)           120.1926         calculate D2E/DX2 analytically  !
 ! A30   A(17,14,18)           120.0807         calculate D2E/DX2 analytically  !
 ! A31   A(12,15,18)           120.068          calculate D2E/DX2 analytically  !
 ! A32   A(12,15,19)           119.8332         calculate D2E/DX2 analytically  !
 ! A33   A(18,15,19)           120.098          calculate D2E/DX2 analytically  !
 ! A34   A(14,18,15)           119.5909         calculate D2E/DX2 analytically  !
 ! A35   A(14,18,20)           120.2208         calculate D2E/DX2 analytically  !
 ! A36   A(15,18,20)           120.1878         calculate D2E/DX2 analytically  !
 ! A37   A(10,23,22)           106.1635         calculate D2E/DX2 analytically  !
 ! A38   L(3,6,23,1,-1)        177.1856         calculate D2E/DX2 analytically  !
 ! A39   L(3,6,23,1,-2)        179.2885         calculate D2E/DX2 analytically  !
 ! D1    D(2,1,3,4)            174.7839         calculate D2E/DX2 analytically  !
 ! D2    D(2,1,3,5)            -65.7658         calculate D2E/DX2 analytically  !
 ! D3    D(2,1,3,6)             57.8134         calculate D2E/DX2 analytically  !
 ! D4    D(21,1,3,4)            54.2792         calculate D2E/DX2 analytically  !
 ! D5    D(21,1,3,5)           173.7295         calculate D2E/DX2 analytically  !
 ! D6    D(21,1,3,6)           -62.6913         calculate D2E/DX2 analytically  !
 ! D7    D(1,3,5,7)            -51.8335         calculate D2E/DX2 analytically  !
 ! D8    D(1,3,5,8)             63.2904         calculate D2E/DX2 analytically  !
 ! D9    D(1,3,5,9)           -173.6054         calculate D2E/DX2 analytically  !
 ! D10   D(4,3,5,7)             66.6484         calculate D2E/DX2 analytically  !
 ! D11   D(4,3,5,8)           -178.2278         calculate D2E/DX2 analytically  !
 ! D12   D(4,3,5,9)            -55.1235         calculate D2E/DX2 analytically  !
 ! D13   D(6,3,5,7)           -175.0178         calculate D2E/DX2 analytically  !
 ! D14   D(6,3,5,8)            -59.894          calculate D2E/DX2 analytically  !
 ! D15   D(6,3,5,9)             63.2102         calculate D2E/DX2 analytically  !
 ! D16   D(1,3,6,10)           -69.8827         calculate D2E/DX2 analytically  !
 ! D17   D(1,3,6,22)           105.9122         calculate D2E/DX2 analytically  !
 ! D18   D(4,3,6,10)           172.5973         calculate D2E/DX2 analytically  !
 ! D19   D(4,3,6,22)           -11.6078         calculate D2E/DX2 analytically  !
 ! D20   D(5,3,6,10)            52.7904         calculate D2E/DX2 analytically  !
 ! D21   D(5,3,6,22)          -131.4146         calculate D2E/DX2 analytically  !
 ! D22   D(3,5,9,11)           -98.0875         calculate D2E/DX2 analytically  !
 ! D23   D(3,5,9,12)            81.2024         calculate D2E/DX2 analytically  !
 ! D24   D(7,5,9,11)           142.5781         calculate D2E/DX2 analytically  !
 ! D25   D(7,5,9,12)           -38.1319         calculate D2E/DX2 analytically  !
 ! D26   D(8,5,9,11)            24.1076         calculate D2E/DX2 analytically  !
 ! D27   D(8,5,9,12)          -156.6025         calculate D2E/DX2 analytically  !
 ! D28   D(5,9,11,13)           -0.8523         calculate D2E/DX2 analytically  !
 ! D29   D(5,9,11,14)          179.1111         calculate D2E/DX2 analytically  !
 ! D30   D(12,9,11,13)         179.845          calculate D2E/DX2 analytically  !
 ! D31   D(12,9,11,14)          -0.1915         calculate D2E/DX2 analytically  !
 ! D32   D(5,9,12,15)         -179.0828         calculate D2E/DX2 analytically  !
 ! D33   D(5,9,12,16)            1.453          calculate D2E/DX2 analytically  !
 ! D34   D(11,9,12,15)           0.226          calculate D2E/DX2 analytically  !
 ! D35   D(11,9,12,16)        -179.2382         calculate D2E/DX2 analytically  !
 ! D36   D(22,10,23,6)           0.2131         calculate D2E/DX2 analytically  !
 ! D37   D(9,11,14,17)         179.8657         calculate D2E/DX2 analytically  !
 ! D38   D(9,11,14,18)           0.021          calculate D2E/DX2 analytically  !
 ! D39   D(13,11,14,17)         -0.171          calculate D2E/DX2 analytically  !
 ! D40   D(13,11,14,18)        179.9843         calculate D2E/DX2 analytically  !
 ! D41   D(9,12,15,18)          -0.0895         calculate D2E/DX2 analytically  !
 ! D42   D(9,12,15,19)        -179.7614         calculate D2E/DX2 analytically  !
 ! D43   D(16,12,15,18)        179.3746         calculate D2E/DX2 analytically  !
 ! D44   D(16,12,15,19)         -0.2972         calculate D2E/DX2 analytically  !
 ! D45   D(11,14,18,15)          0.1194         calculate D2E/DX2 analytically  !
 ! D46   D(11,14,18,20)        179.8717         calculate D2E/DX2 analytically  !
 ! D47   D(17,14,18,15)       -179.7248         calculate D2E/DX2 analytically  !
 ! D48   D(17,14,18,20)          0.0276         calculate D2E/DX2 analytically  !
 ! D49   D(12,15,18,14)         -0.0854         calculate D2E/DX2 analytically  !
 ! D50   D(12,15,18,20)       -179.8378         calculate D2E/DX2 analytically  !
 ! D51   D(19,15,18,14)        179.5856         calculate D2E/DX2 analytically  !
 ! D52   D(19,15,18,20)         -0.1668         calculate D2E/DX2 analytically  !
 --------------------------------------------------------------------------------
 Trust Radius=3.00D-01 FncErr=1.00D-07 GrdErr=1.00D-06
 Number of steps in this run=    126 maximum allowed number of steps=    138.
 Search for a saddle point of order  1.
 GradGradGradGradGradGradGradGradGradGradGradGradGradGradGradGradGradGrad

 Leave Link  103 at Thu Apr 07 11:56:33 2016, MaxMem=   33554432 cpu:       0.0
 (Enter c:\G09w03\l202.exe)
                          Input orientation:                          
 ---------------------------------------------------------------------
 Center     Atomic      Atomic             Coordinates (Angstroms)
 Number     Number       Type             X           Y           Z
 ---------------------------------------------------------------------
      1          7           0       -2.875115   -1.461442   -0.204637
      2          1           0       -3.246700   -1.069034   -1.064747
      3          6           0       -1.635074   -0.785722    0.189681
      4          1           0       -1.331225   -1.179191    1.161389
      5          6           0       -0.531351   -1.067298   -0.849230
      6          6           0       -1.865085    0.698854    0.363615
      7          1           0       -0.500502   -2.152845   -0.971836
      8          1           0       -0.839468   -0.638525   -1.807229
      9          6           0        0.832414   -0.540373   -0.456893
     10          8           0       -2.101013    1.516295   -0.591053
     11          6           0        1.306467    0.680120   -0.949477
     12          6           0        1.643498   -1.264957    0.424975
     13          1           0        0.692217    1.253397   -1.635675
     14          6           0        2.556518    1.166011   -0.567808
     15          6           0        2.892164   -0.782263    0.808770
     16          1           0        1.297751   -2.220397    0.808049
     17          1           0        2.908415    2.113097   -0.961593
     18          6           0        3.352324    0.437171    0.313114
     19          1           0        3.507701   -1.359597    1.489691
     20          1           0        4.325183    0.813519    0.608542
     21          1           0       -3.588923   -1.378137    0.511903
     22          8           0       -1.928964    1.311341    1.478889
     23          1           0       -2.170083    2.177464    0.530797
 ---------------------------------------------------------------------
                    Distance matrix (angstroms):
                    1          2          3          4          5
     1  N    0.000000
     2  H    1.015800   0.000000
     3  C    1.466215   2.061842   0.000000
     4  H    2.080694   2.938854   1.091494   0.000000
     5  C    2.462535   2.723889   1.541696   2.166773   0.000000
     6  C    2.451520   2.659794   1.512324   2.109147   2.523714
     7  H    2.589482   2.953791   2.122593   2.487720   1.092884
     8  H    2.718336   2.555657   2.154601   3.057260   1.093867
     9  C    3.828547   4.157901   2.562567   2.776375   1.513748
    10  O    3.100882   2.867213   2.475061   3.305945   3.034048
    11  C    4.756753   4.878950   3.478367   3.856191   2.537931
    12  C    4.566495   5.115828   3.321756   3.065720   2.528366
    13  H    4.705749   4.608114   3.592522   4.223194   2.738839
    14  C    6.044670   6.238567   4.685349   4.858461   3.821230
    15  C    5.894895   6.424792   4.569373   4.256631   3.814533
    16  H    4.360545   5.048271   3.322971   2.849645   2.724303
    17  H    6.841018   6.929794   5.511068   5.772414   4.686099
    18  C    6.530987   6.907552   5.136618   5.026711   4.324049
    19  H    6.604654   7.227137   5.335494   4.853404   4.676530
    20  H    7.594801   7.979807   6.185279   6.022581   5.408188
    21  H    1.014836   1.642707   2.066956   2.357671   3.361257
    22  O    3.379022   3.724607   2.479133   2.580862   3.609901
    23  H    3.778832   3.774204   3.030357   3.516882   3.888238
                    6          7          8          9         10
     6  C    0.000000
     7  H    3.431866   0.000000
     8  H    2.748279   1.762369   0.000000
     9  C    3.079841   2.154506   2.151332   0.000000
    10  O    1.278774   4.021097   2.777378   3.585091   0.000000
    11  C    3.432682   3.360257   2.660752   1.398917   3.526837
    12  C    4.021253   2.708535   3.397098   1.400204   4.773787
    13  H    3.293095   3.669570   2.440258   2.150998   2.993741
    14  C    4.542726   4.530278   4.040450   2.428288   4.670742
    15  C    5.002328   4.069304   4.559516   2.429606   5.672274
    16  H    4.327017   2.531061   3.729571   2.153856   5.241369
    17  H    5.151947   5.460685   4.725796   3.406671   5.058443
    18  C    5.224211   4.817006   4.819139   2.810418   5.632132
    19  H    5.862772   4.770120   5.503408   3.408442   6.637614
    20  H    6.196173   5.880829   5.883706   3.894562   6.574870
    21  H    2.703239   3.512833   3.672179   4.603111   3.436295
    22  O    1.273993   4.477403   3.973355   3.847246   2.087167
    23  H    1.518967   4.878215   3.894444   4.168592   1.304018
                   11         12         13         14         15
    11  C    0.000000
    12  C    2.405417   0.000000
    13  H    1.084812   3.390180   0.000000
    14  C    1.394413   2.780077   2.150255   0.000000
    15  C    2.782882   1.392645   3.867685   2.409024   0.000000
    16  H    3.391456   1.085888   4.290187   3.865907   2.147180
    17  H    2.149374   3.864432   2.470831   1.084375   3.393753
    18  C    2.416338   2.414506   3.397083   1.393032   1.394432
    19  H    3.867223   2.148914   4.952030   3.393633   1.084368
    20  H    3.399686   3.397822   4.292836   2.153190   2.154102
    21  H    5.507894   5.234367   5.464908   6.738317   6.515189
    22  O    4.094315   4.528855   4.071174   4.932508   5.298633
    23  H    4.064437   5.138566   3.706786   4.956887   5.870570
                   16         17         18         19         20
    16  H    0.000000
    17  H    4.950257   0.000000
    18  C    3.395423   2.151897   0.000000
    19  H    2.467689   4.292731   2.153335   0.000000
    20  H    4.290664   2.482229   1.084145   2.483371   0.000000
    21  H    4.967564   7.521656   7.177449   7.163692   8.212537
    22  O    4.830620   5.477134   5.478614   6.057339   6.334010
    23  H    5.607488   5.293629   5.794220   6.757774   6.637384
                   21         22         23
    21  H    0.000000
    22  O    3.305120   0.000000
    23  H    3.828285   1.306593   0.000000
 Stoichiometry    C9H11NO2
 Framework group  C1[X(C9H11NO2)]
 Deg. of freedom    63
 Full point group                 C1      NOp   1
 Largest Abelian subgroup         C1      NOp   1
 Largest concise Abelian subgroup C1      NOp   1
                         Standard orientation:                         
 ---------------------------------------------------------------------
 Center     Atomic      Atomic             Coordinates (Angstroms)
 Number     Number       Type             X           Y           Z
 ---------------------------------------------------------------------
      1          7           0       -2.875115   -1.461442   -0.204637
      2          1           0       -3.246700   -1.069034   -1.064747
      3          6           0       -1.635074   -0.785722    0.189681
      4          1           0       -1.331225   -1.179191    1.161389
      5          6           0       -0.531351   -1.067298   -0.849230
      6          6           0       -1.865085    0.698854    0.363615
      7          1           0       -0.500502   -2.152845   -0.971836
      8          1           0       -0.839468   -0.638525   -1.807229
      9          6           0        0.832414   -0.540373   -0.456893
     10          8           0       -2.101013    1.516295   -0.591053
     11          6           0        1.306467    0.680120   -0.949477
     12          6           0        1.643498   -1.264957    0.424975
     13          1           0        0.692217    1.253397   -1.635675
     14          6           0        2.556518    1.166011   -0.567808
     15          6           0        2.892164   -0.782263    0.808770
     16          1           0        1.297751   -2.220397    0.808049
     17          1           0        2.908415    2.113097   -0.961593
     18          6           0        3.352324    0.437171    0.313114
     19          1           0        3.507701   -1.359598    1.489691
     20          1           0        4.325183    0.813518    0.608542
     21          1           0       -3.588923   -1.378137    0.511903
     22          8           0       -1.928964    1.311341    1.478889
     23          1           0       -2.170083    2.177464    0.530797
 ---------------------------------------------------------------------
 Rotational constants (GHZ):      1.6996387      0.5839589      0.5186783
 Leave Link  202 at Thu Apr 07 11:56:34 2016, MaxMem=   33554432 cpu:       0.0
 (Enter c:\G09w03\l301.exe)
 Standard basis: 6-311++G(d,p) (5D, 7F)
 Ernie: Thresh=  0.10000D-02 Tol=  0.10000D-05 Strict=F.
 There are   341 symmetry adapted basis functions of A   symmetry.
 Integral buffers will be    262144 words long.
 Raffenetti 2 integral format.
 Two-electron integral symmetry is turned on.
   341 basis functions,   531 primitive gaussians,   353 cartesian basis functions
    44 alpha electrons       44 beta electrons
       nuclear repulsion energy       680.2257908048 Hartrees.
 IExCor=  402 DFT=T Ex+Corr=B3LYP ExCW=0 ScaHFX=  0.200000
 ScaDFX=  0.800000  0.720000  1.000000  0.810000 ScalE2=  1.000000  1.000000
 IRadAn=      0 IRanWt=     -1 IRanGd=            0 ICorTp=0
 NAtoms=   23 NActive=   23 NUniq=   23 SFac= 1.00D+00 NAtFMM=   50 NAOKFM=F Big=F
 ------------------------------------------------------------------------------
 Polarizable Continuum Model (PCM)
 =================================
 Model                : C-PCM.
 Atomic radii         : UFF (Universal Force Field).
 Polarization charges : Total charges.
 Charge compensation  : None.
 Solution method      : Matrix inversion.
 Cavity type          : Scaled VdW (van der Waals Surface) (Alpha=1.100).
 Cavity algorithm     : GePol (No added spheres)
                        Default sphere list used, NSphG=   23.
                        Lebedev-Laikov grids with approx.  5.0 points / Ang**2.
                        Smoothing algorithm: Karplus/York (Gamma=1.0000).
                        Polarization charges: spherical gaussians, with
                                              point-specific exponents (IZeta= 3).
                        Self-potential: point-specific (ISelfS= 7).
                        Self-field    : sphere-specific E.n sum rule (ISelfD= 2).
 1st derivatives      : Analytical E(r).r(x)/FMM algorithm (CHGder, D1EAlg=3).
                        Cavity 1st derivative terms included.
 2nd derivatives      : Analytical E(r).r(xy)/FMM algorithm (CHGder, D2EAlg=3).
                        Cavity 2nd derivative terms included.
 Solvent              : Water, Eps=  78.355300 Eps(inf)=   1.777849
 ------------------------------------------------------------------------------
 GePol: Number of generator spheres                  =      23
 GePol: Total number of spheres                      =      23
 GePol: Number of exposed spheres                    =      23 (100.00%)
 GePol: Number of points                             =    1797
 GePol: Average weight of points                     =       0.13
 GePol: Minimum weight of points                     =   0.15D-09
 GePol: Maximum weight of points                     =    0.20577
 GePol: Number of points with low weight             =     119
 GePol: Fraction of low-weight points (<1% of avg)   =       6.62%
 GePol: Cavity surface area                          =    238.694 Ang**2
 GePol: Cavity volume                                =    244.342 Ang**3
 Leave Link  301 at Thu Apr 07 11:56:34 2016, MaxMem=   33554432 cpu:       0.0
 (Enter c:\G09w03\l302.exe)
 NPDir=0 NMtPBC=     1 NCelOv=     1 NCel=       1 NClECP=     1 NCelD=      1
         NCelK=      1 NCelE2=     1 NClLst=     1 CellRange=     0.0.
 One-electron integrals computed using PRISM.
 NBasis=   341 RedAO= T  NBF=   341
 NBsUse=   340 1.00D-06 NBFU=   340
 Precomputing XC quadrature grid using
 IXCGrd= 2 IRadAn=           0 IRanWt=          -1 IRanGd=           0 AccXCQ= 0.00D+00.
 NRdTot=    1493 NPtTot=      190488 NUsed=      197450 NTot=      197466
 NSgBfM=   353   353   353   353   353 NAtAll=    23    23.
 Leave Link  302 at Thu Apr 07 11:56:37 2016, MaxMem=   33554432 cpu:       2.0
 (Enter c:\G09w03\l303.exe)
 DipDrv:  MaxL=1.
 Leave Link  303 at Thu Apr 07 11:56:37 2016, MaxMem=   33554432 cpu:       0.0
 (Enter c:\G09w03\l401.exe)
 Harris functional with IExCor=  402 diagonalized for initial guess.
 ExpMin= 3.60D-02 ExpMax= 8.59D+03 ExpMxC= 1.30D+03 IAcc=3 IRadAn=         0 AccDes= 0.00D+00
 HarFok:  IExCor=  402 AccDes= 0.00D+00 IRadAn=         0 IDoV= 1
 ScaDFX=  1.000000  1.000000  1.000000  1.000000
 FoFCou: FMM=F IPFlag=           0 FMFlag=      100000 FMFlg1=           0
         NFxFlg=           0 DoJE=T BraDBF=F KetDBF=T FulRan=T
         Omega=  0.000000  0.000000  1.000000  0.000000  0.000000 ICntrl=     500 IOpCl=  0
         NMat0=    1 NMatS0=    1 NMatT0=    0 NMatD0=    1 NMtDS0=    0 NMtDT0=    0
         I1Cent=           4 NGrid=           0.
 Petite list used in FoFCou.
 Harris En= -554.917251972143    
 Initial guess orbital symmetries:
       Occupied  (A) (A) (A) (A) (A) (A) (A) (A) (A) (A) (A) (A)
                 (A) (A) (A) (A) (A) (A) (A) (A) (A) (A) (A) (A)
                 (A) (A) (A) (A) (A) (A) (A) (A) (A) (A) (A) (A)
                 (A) (A) (A) (A) (A) (A) (A) (A)
       Virtual   (A) (A) (A) (A) (A) (A) (A) (A) (A) (A) (A) (A)
                 (A) (A) (A) (A) (A) (A) (A) (A) (A) (A) (A) (A)
                 (A) (A) (A) (A) (A) (A) (A) (A) (A) (A) (A) (A)
                 (A) (A) (A) (A) (A) (A) (A) (A) (A) (A) (A) (A)
                 (A) (A) (A) (A) (A) (A) (A) (A) (A) (A) (A) (A)
                 (A) (A) (A) (A) (A) (A) (A) (A) (A) (A) (A) (A)
                 (A) (A) (A) (A) (A) (A) (A) (A) (A) (A) (A) (A)
                 (A) (A) (A) (A) (A) (A) (A) (A) (A) (A) (A) (A)
                 (A) (A) (A) (A) (A) (A) (A) (A) (A) (A) (A) (A)
                 (A) (A) (A) (A) (A) (A) (A) (A) (A) (A) (A) (A)
                 (A) (A) (A) (A) (A) (A) (A) (A) (A) (A) (A) (A)
                 (A) (A) (A) (A) (A) (A) (A) (A) (A) (A) (A) (A)
                 (A) (A) (A) (A) (A) (A) (A) (A) (A) (A) (A) (A)
                 (A) (A) (A) (A) (A) (A) (A) (A) (A) (A) (A) (A)
                 (A) (A) (A) (A) (A) (A) (A) (A) (A) (A) (A) (A)
                 (A) (A) (A) (A) (A) (A) (A) (A) (A) (A) (A) (A)
                 (A) (A) (A) (A) (A) (A) (A) (A) (A) (A) (A) (A)
                 (A) (A) (A) (A) (A) (A) (A) (A) (A) (A) (A) (A)
                 (A) (A) (A) (A) (A) (A) (A) (A) (A) (A) (A) (A)
                 (A) (A) (A) (A) (A) (A) (A) (A) (A) (A) (A) (A)
                 (A) (A) (A) (A) (A) (A) (A) (A) (A) (A) (A) (A)
                 (A) (A) (A) (A) (A) (A) (A) (A) (A) (A) (A) (A)
                 (A) (A) (A) (A) (A) (A) (A) (A) (A) (A) (A) (A)
                 (A) (A) (A) (A) (A) (A) (A) (A) (A) (A) (A) (A)
                 (A) (A) (A) (A) (A) (A) (A) (A)
 The electronic state of the initial guess is 1-A.
 Leave Link  401 at Thu Apr 07 11:56:58 2016, MaxMem=   33554432 cpu:      21.0
 (Enter c:\G09w03\l502.exe)
 Closed shell SCF:
 Requested convergence on RMS density matrix=1.00D-08 within 128 cycles.
 Requested convergence on MAX density matrix=1.00D-06.
 Requested convergence on             energy=1.00D-06.
 No special actions if energy rises.
 Using DIIS extrapolation, IDIIS=  1040.
 Integral symmetry usage will be decided dynamically.
       197253 words used for storage of precomputed grid.
 IEnd=      593533 IEndB=      593533 NGot=    33554432 MDV=    33102502
 LenX=    33102502 LenY=    32977452
 Fock matrices will be formed incrementally for  20 cycles.

 Cycle   1  Pass 1  IDiag  1:
 FoFCou: FMM=F IPFlag=           0 FMFlag=      100000 FMFlg1=           0
         NFxFlg=           0 DoJE=F BraDBF=F KetDBF=F FulRan=T
         Omega=  0.000000  0.000000  1.000000  0.000000  0.000000 ICntrl=       0 IOpCl=  0
         NMat0=    1 NMatS0=    1 NMatT0=    0 NMatD0=    1 NMtDS0=    0 NMtDT0=    0
         I1Cent=           0 NGrid=           0.
 Symmetry not used in FoFCou.
 E= -554.607912510629    
 DIIS: error= 2.47D-02 at cycle   1 NSaved=   1.
 NSaved= 1 IEnMin= 1 EnMin= -554.607912510629     IErMin= 1 ErrMin= 2.47D-02
 ErrMax= 2.47D-02 EMaxC= 1.00D-01 BMatC= 3.68D-01 BMatP= 3.68D-01
 IDIUse=3 WtCom= 7.53D-01 WtEn= 2.47D-01
 Coeff-Com:  0.100D+01
 Coeff-En:   0.100D+01
 Coeff:      0.100D+01
 Gap=     0.244 Goal=   None    Shift=    0.000
 GapD=    0.244 DampG=1.000 DampE=0.500 DampFc=0.5000 IDamp=-1.
 Damping current iteration by 5.00D-01
 RMSDP=1.56D-02 MaxDP=2.15D+00              OVMax= 1.88D-01

 Cycle   2  Pass 1  IDiag  1:
 RMSU=  3.94D-03    CP:  8.37D-01
 E= -554.725975783317     Delta-E=       -0.118063272688 Rises=F Damp=T
 DIIS: error= 8.58D-03 at cycle   2 NSaved=   2.
 NSaved= 2 IEnMin= 2 EnMin= -554.725975783317     IErMin= 2 ErrMin= 8.58D-03
 ErrMax= 8.58D-03 EMaxC= 1.00D-01 BMatC= 2.79D-02 BMatP= 3.68D-01
 IDIUse=3 WtCom= 9.14D-01 WtEn= 8.58D-02
 Coeff-Com:  0.123D+00 0.877D+00
 Coeff-En:   0.218D+00 0.782D+00
 Coeff:      0.131D+00 0.869D+00
 Gap=     0.225 Goal=   None    Shift=    0.000
 RMSDP=4.21D-03 MaxDP=6.60D-01 DE=-1.18D-01 OVMax= 1.38D-01

 Cycle   3  Pass 1  IDiag  1:
 RMSU=  2.23D-03    CP:  7.82D-01  6.27D-01
 E= -554.902552568135     Delta-E=       -0.176576784819 Rises=F Damp=F
 DIIS: error= 8.32D-03 at cycle   3 NSaved=   3.
 NSaved= 3 IEnMin= 3 EnMin= -554.902552568135     IErMin= 3 ErrMin= 8.32D-03
 ErrMax= 8.32D-03 EMaxC= 1.00D-01 BMatC= 1.38D-02 BMatP= 2.79D-02
 IDIUse=3 WtCom= 9.17D-01 WtEn= 8.32D-02
 Coeff-Com: -0.485D-02 0.399D+00 0.606D+00
 Coeff-En:   0.000D+00 0.000D+00 0.100D+01
 Coeff:     -0.445D-02 0.366D+00 0.639D+00
 Gap=     0.225 Goal=   None    Shift=    0.000
 RMSDP=1.59D-03 MaxDP=2.73D-01 DE=-1.77D-01 OVMax= 3.36D-02

 Cycle   4  Pass 1  IDiag  1:
 RMSU=  8.36D-04    CP:  7.96D-01  7.41D-01  7.78D-01
 E= -554.910566159680     Delta-E=       -0.008013591545 Rises=F Damp=F
 DIIS: error= 3.66D-03 at cycle   4 NSaved=   4.
 NSaved= 4 IEnMin= 4 EnMin= -554.910566159680     IErMin= 4 ErrMin= 3.66D-03
 ErrMax= 3.66D-03 EMaxC= 1.00D-01 BMatC= 3.05D-03 BMatP= 1.38D-02
 IDIUse=3 WtCom= 9.63D-01 WtEn= 3.66D-02
 Coeff-Com: -0.147D-01 0.919D-01 0.360D+00 0.563D+00
 Coeff-En:   0.000D+00 0.000D+00 0.207D+00 0.793D+00
 Coeff:     -0.142D-01 0.885D-01 0.354D+00 0.571D+00
 Gap=     0.222 Goal=   None    Shift=    0.000
 RMSDP=1.38D-03 MaxDP=1.96D-01 DE=-8.01D-03 OVMax= 1.08D-02

 Cycle   5  Pass 1  IDiag  1:
 RMSU=  3.57D-04    CP:  7.65D-01  7.89D-01  8.40D-01  4.44D-01
 E= -554.913218367135     Delta-E=       -0.002652207455 Rises=F Damp=F
 DIIS: error= 6.26D-04 at cycle   5 NSaved=   5.
 NSaved= 5 IEnMin= 5 EnMin= -554.913218367135     IErMin= 5 ErrMin= 6.26D-04
 ErrMax= 6.26D-04 EMaxC= 1.00D-01 BMatC= 9.09D-05 BMatP= 3.05D-03
 IDIUse=3 WtCom= 9.94D-01 WtEn= 6.26D-03
 Coeff-Com: -0.633D-02 0.217D-01 0.127D+00 0.255D+00 0.602D+00
 Coeff-En:   0.000D+00 0.000D+00 0.000D+00 0.000D+00 0.100D+01
 Coeff:     -0.629D-02 0.216D-01 0.127D+00 0.254D+00 0.605D+00
 Gap=     0.223 Goal=   None    Shift=    0.000
 RMSDP=1.75D-04 MaxDP=2.60D-02 DE=-2.65D-03 OVMax= 4.40D-03

 Cycle   6  Pass 1  IDiag  1:
 RMSU=  4.35D-05    CP:  7.68D-01  7.76D-01  8.46D-01  5.07D-01  8.34D-01
 E= -554.913284700733     Delta-E=       -0.000066333598 Rises=F Damp=F
 DIIS: error= 3.09D-04 at cycle   6 NSaved=   6.
 NSaved= 6 IEnMin= 6 EnMin= -554.913284700733     IErMin= 6 ErrMin= 3.09D-04
 ErrMax= 3.09D-04 EMaxC= 1.00D-01 BMatC= 1.95D-05 BMatP= 9.09D-05
 IDIUse=3 WtCom= 9.97D-01 WtEn= 3.09D-03
 Coeff-Com: -0.242D-02 0.431D-02 0.438D-01 0.102D+00 0.365D+00 0.487D+00
 Coeff-En:   0.000D+00 0.000D+00 0.000D+00 0.000D+00 0.165D+00 0.835D+00
 Coeff:     -0.241D-02 0.429D-02 0.436D-01 0.102D+00 0.365D+00 0.488D+00
 Gap=     0.222 Goal=   None    Shift=    0.000
 RMSDP=5.37D-05 MaxDP=4.55D-03 DE=-6.63D-05 OVMax= 1.65D-03

 Cycle   7  Pass 1  IDiag  1:
 RMSU=  2.02D-05    CP:  7.68D-01  7.72D-01  8.52D-01  5.02D-01  7.93D-01
                    CP:  5.76D-01
 E= -554.913303172093     Delta-E=       -0.000018471359 Rises=F Damp=F
 DIIS: error= 4.09D-05 at cycle   7 NSaved=   7.
 NSaved= 7 IEnMin= 7 EnMin= -554.913303172093     IErMin= 7 ErrMin= 4.09D-05
 ErrMax= 4.09D-05 EMaxC= 1.00D-01 BMatC= 2.98D-07 BMatP= 1.95D-05
 IDIUse=1 WtCom= 1.00D+00 WtEn= 0.00D+00
 Coeff-Com: -0.475D-03 0.358D-03 0.970D-02 0.251D-01 0.104D+00 0.181D+00
 Coeff-Com:  0.680D+00
 Coeff:     -0.475D-03 0.358D-03 0.970D-02 0.251D-01 0.104D+00 0.181D+00
 Coeff:      0.680D+00
 Gap=     0.222 Goal=   None    Shift=    0.000
 RMSDP=1.25D-05 MaxDP=1.46D-03 DE=-1.85D-05 OVMax= 2.83D-04

 Cycle   8  Pass 1  IDiag  1:
 RMSU=  4.25D-06    CP:  7.68D-01  7.73D-01  8.51D-01  5.07D-01  7.99D-01
                    CP:  5.68D-01  8.94D-01
 E= -554.913303375734     Delta-E=       -0.000000203642 Rises=F Damp=F
 DIIS: error= 2.40D-05 at cycle   8 NSaved=   8.
 NSaved= 8 IEnMin= 8 EnMin= -554.913303375734     IErMin= 8 ErrMin= 2.40D-05
 ErrMax= 2.40D-05 EMaxC= 1.00D-01 BMatC= 1.02D-07 BMatP= 2.98D-07
 IDIUse=1 WtCom= 1.00D+00 WtEn= 0.00D+00
 Coeff-Com: -0.214D-05-0.281D-03 0.100D-02 0.383D-02 0.217D-01 0.525D-01
 Coeff-Com:  0.406D+00 0.515D+00
 Coeff:     -0.214D-05-0.281D-03 0.100D-02 0.383D-02 0.217D-01 0.525D-01
 Coeff:      0.406D+00 0.515D+00
 Gap=     0.222 Goal=   None    Shift=    0.000
 RMSDP=3.73D-06 MaxDP=5.07D-04 DE=-2.04D-07 OVMax= 1.15D-04

 Cycle   9  Pass 1  IDiag  1:
 RMSU=  1.04D-06    CP:  7.68D-01  7.73D-01  8.51D-01  5.05D-01  8.01D-01
                    CP:  5.76D-01  8.82D-01  6.84D-01
 E= -554.913303472903     Delta-E=       -0.000000097169 Rises=F Damp=F
 DIIS: error= 2.91D-06 at cycle   9 NSaved=   9.
 NSaved= 9 IEnMin= 9 EnMin= -554.913303472903     IErMin= 9 ErrMin= 2.91D-06
 ErrMax= 2.91D-06 EMaxC= 1.00D-01 BMatC= 4.12D-09 BMatP= 1.02D-07
 IDIUse=1 WtCom= 1.00D+00 WtEn= 0.00D+00
 Coeff-Com:  0.306D-04-0.149D-03-0.194D-03 0.293D-04 0.269D-02 0.995D-02
 Coeff-Com:  0.130D+00 0.235D+00 0.623D+00
 Coeff:      0.306D-04-0.149D-03-0.194D-03 0.293D-04 0.269D-02 0.995D-02
 Coeff:      0.130D+00 0.235D+00 0.623D+00
 Gap=     0.222 Goal=   None    Shift=    0.000
 RMSDP=6.97D-07 MaxDP=5.51D-05 DE=-9.72D-08 OVMax= 1.86D-05

 Cycle  10  Pass 1  IDiag  1:
 RMSU=  2.78D-07    CP:  7.68D-01  7.73D-01  8.51D-01  5.06D-01  8.01D-01
                    CP:  5.76D-01  8.90D-01  7.07D-01  8.56D-01
 E= -554.913303476088     Delta-E=       -0.000000003185 Rises=F Damp=F
 DIIS: error= 8.39D-07 at cycle  10 NSaved=  10.
 NSaved=10 IEnMin=10 EnMin= -554.913303476088     IErMin=10 ErrMin= 8.39D-07
 ErrMax= 8.39D-07 EMaxC= 1.00D-01 BMatC= 4.54D-10 BMatP= 4.12D-09
 IDIUse=1 WtCom= 1.00D+00 WtEn= 0.00D+00
 Coeff-Com:  0.148D-04-0.460D-04-0.195D-03-0.352D-03-0.622D-03-0.223D-03
 Coeff-Com:  0.269D-01 0.707D-01 0.308D+00 0.595D+00
 Coeff:      0.148D-04-0.460D-04-0.195D-03-0.352D-03-0.622D-03-0.223D-03
 Coeff:      0.269D-01 0.707D-01 0.308D+00 0.595D+00
 Gap=     0.222 Goal=   None    Shift=    0.000
 RMSDP=1.93D-07 MaxDP=1.71D-05 DE=-3.18D-09 OVMax= 4.12D-06

 Cycle  11  Pass 1  IDiag  1:
 RMSU=  9.11D-08    CP:  7.68D-01  7.73D-01  8.51D-01  5.05D-01  8.01D-01
                    CP:  5.76D-01  8.93D-01  7.08D-01  8.76D-01  8.57D-01
 E= -554.913303476469     Delta-E=       -0.000000000381 Rises=F Damp=F
 DIIS: error= 2.74D-07 at cycle  11 NSaved=  11.
 NSaved=11 IEnMin=11 EnMin= -554.913303476469     IErMin=11 ErrMin= 2.74D-07
 ErrMax= 2.74D-07 EMaxC= 1.00D-01 BMatC= 2.42D-11 BMatP= 4.54D-10
 IDIUse=1 WtCom= 1.00D+00 WtEn= 0.00D+00
 Coeff-Com:  0.395D-05-0.109D-04-0.740D-04-0.153D-03-0.371D-03-0.690D-03
 Coeff-Com:  0.456D-02 0.176D-01 0.959D-01 0.260D+00 0.624D+00
 Coeff:      0.395D-05-0.109D-04-0.740D-04-0.153D-03-0.371D-03-0.690D-03
 Coeff:      0.456D-02 0.176D-01 0.959D-01 0.260D+00 0.624D+00
 Gap=     0.222 Goal=   None    Shift=    0.000
 RMSDP=6.35D-08 MaxDP=5.95D-06 DE=-3.81D-10 OVMax= 1.99D-06

 Cycle  12  Pass 1  IDiag  1:
 RMSU=  2.19D-08    CP:  7.68D-01  7.73D-01  8.51D-01  5.05D-01  8.01D-01
                    CP:  5.76D-01  8.93D-01  7.11D-01  8.86D-01  8.76D-01
                    CP:  9.10D-01
 E= -554.913303476484     Delta-E=       -0.000000000015 Rises=F Damp=F
 DIIS: error= 2.81D-07 at cycle  12 NSaved=  12.
 NSaved=12 IEnMin=12 EnMin= -554.913303476484     IErMin=11 ErrMin= 2.74D-07
 ErrMax= 2.81D-07 EMaxC= 1.00D-01 BMatC= 1.15D-11 BMatP= 2.42D-11
 IDIUse=1 WtCom= 1.00D+00 WtEn= 0.00D+00
 Coeff-Com:  0.595D-06-0.130D-05-0.253D-04-0.590D-04-0.168D-03-0.462D-03
 Coeff-Com: -0.356D-03 0.279D-02 0.243D-01 0.991D-01 0.439D+00 0.436D+00
 Coeff:      0.595D-06-0.130D-05-0.253D-04-0.590D-04-0.168D-03-0.462D-03
 Coeff:     -0.356D-03 0.279D-02 0.243D-01 0.991D-01 0.439D+00 0.436D+00
 Gap=     0.222 Goal=   None    Shift=    0.000
 RMSDP=2.04D-08 MaxDP=2.05D-06 DE=-1.46D-11 OVMax= 1.21D-06

 Cycle  13  Pass 1  IDiag  1:
 RMSU=  8.99D-09    CP:  7.68D-01  7.73D-01  8.51D-01  5.05D-01  8.01D-01
                    CP:  5.76D-01  8.93D-01  7.11D-01  8.86D-01  8.81D-01
                    CP:  9.25D-01  8.24D-01
 E= -554.913303476483     Delta-E=        0.000000000001 Rises=F Damp=F
 DIIS: error= 7.02D-08 at cycle  13 NSaved=  13.
 NSaved=13 IEnMin=12 EnMin= -554.913303476484     IErMin=13 ErrMin= 7.02D-08
 ErrMax= 7.02D-08 EMaxC= 1.00D-01 BMatC= 9.57D-13 BMatP= 1.15D-11
 IDIUse=1 WtCom= 1.00D+00 WtEn= 0.00D+00
 Coeff-Com: -0.198D-06 0.669D-06-0.627D-05-0.171D-04-0.549D-04-0.207D-03
 Coeff-Com: -0.797D-03-0.500D-03 0.273D-02 0.288D-01 0.202D+00 0.272D+00
 Coeff-Com:  0.497D+00
 Coeff:     -0.198D-06 0.669D-06-0.627D-05-0.171D-04-0.549D-04-0.207D-03
 Coeff:     -0.797D-03-0.500D-03 0.273D-02 0.288D-01 0.202D+00 0.272D+00
 Coeff:      0.497D+00
 Gap=     0.222 Goal=   None    Shift=    0.000
 RMSDP=9.24D-09 MaxDP=1.20D-06 DE= 9.09D-13 OVMax= 3.18D-07

 Cycle  14  Pass 1  IDiag  1:
 RMSU=  3.81D-09    CP:  7.68D-01  7.73D-01  8.51D-01  5.05D-01  8.01D-01
                    CP:  5.76D-01  8.93D-01  7.11D-01  8.86D-01  8.81D-01
                    CP:  9.42D-01  8.04D-01  9.33D-01
 E= -554.913303476457     Delta-E=        0.000000000026 Rises=F Damp=F
 DIIS: error= 1.23D-08 at cycle  14 NSaved=  14.
 NSaved=14 IEnMin=12 EnMin= -554.913303476484     IErMin=14 ErrMin= 1.23D-08
 ErrMax= 1.23D-08 EMaxC= 1.00D-01 BMatC= 5.76D-14 BMatP= 9.57D-13
 IDIUse=1 WtCom= 1.00D+00 WtEn= 0.00D+00
 Coeff-Com: -0.137D-06 0.393D-06 0.448D-06 0.377D-06-0.132D-05-0.235D-04
 Coeff-Com: -0.221D-03-0.512D-03-0.222D-02-0.300D-02 0.193D-01 0.448D-01
 Coeff-Com:  0.227D+00 0.715D+00
 Coeff:     -0.137D-06 0.393D-06 0.448D-06 0.377D-06-0.132D-05-0.235D-04
 Coeff:     -0.221D-03-0.512D-03-0.222D-02-0.300D-02 0.193D-01 0.448D-01
 Coeff:      0.227D+00 0.715D+00
 Gap=     0.222 Goal=   None    Shift=    0.000
 RMSDP=3.16D-09 MaxDP=3.17D-07 DE= 2.59D-11 OVMax= 9.60D-08

 Error on total polarization charges =  0.01596
 SCF Done:  E(RB3LYP) =  -554.913303476     A.U. after   14 cycles
             Convg  =    0.3161D-08             -V/T =  2.0041
 KE= 5.526307426107D+02 PE=-2.654864546245D+03 EE= 8.670947093533D+02
 Leave Link  502 at Thu Apr 07 12:20:50 2016, MaxMem=   33554432 cpu:    1432.0
 (Enter c:\G09w03\l801.exe)
 Range of M.O.s used for correlation:     1   340
 NBasis=   341 NAE=    44 NBE=    44 NFC=     0 NFV=     0
 NROrb=    340 NOA=    44 NOB=    44 NVA=   296 NVB=   296

 **** Warning!!: The largest alpha MO coefficient is  0.14849142D+03

 Leave Link  801 at Thu Apr 07 12:20:51 2016, MaxMem=   33554432 cpu:       0.0
 (Enter c:\G09w03\l1101.exe)
 Using compressed storage, NAtomX=    23.
 Will process  24 centers per pass.
 Leave Link 1101 at Thu Apr 07 12:20:54 2016, MaxMem=   33554432 cpu:       3.0
 (Enter c:\G09w03\l1102.exe)
 Symmetrizing basis deriv contribution to polar:
 IMax=3 JMax=2 DiffMx= 0.00D+00
 Leave Link 1102 at Thu Apr 07 12:20:55 2016, MaxMem=   33554432 cpu:       1.0
 (Enter c:\G09w03\l1110.exe)
 Forming Gx(P) for the SCF density, NAtomX=    23.
 Integral derivatives from FoFDir/FoFCou, PRISM(SPDF).
 Do as many integral derivatives as possible in FoFDir.
 G2DrvN: MDV=      33554240.
 G2DrvN: will do    24 centers at a time, making    1 passes doing MaxLOS=2.
 Calling FoFCou, ICntrl=  3107 FMM=F I1Cent=   0 AccDes= 0.00D+00.
 FoFCou: FMM=F IPFlag=           0 FMFlag=      100000 FMFlg1=           0
         NFxFlg=           0 DoJE=F BraDBF=F KetDBF=F FulRan=T
         Omega=  0.000000  0.000000  1.000000  0.000000  0.000000 ICntrl=    3107 IOpCl=  0
         NMat0=    1 NMatS0=    1 NMatT0=    0 NMatD0=    1 NMtDS0=    0 NMtDT0=    0
         I1Cent=           0 NGrid=           0.
 Symmetry not used in FoFCou.
 FoFDir/FoFCou used for L=0 through L=2.
 G2PCM: DoFxE=T DoFxN=T DoGrad=T DoPD/DQ/DG=FFF NFrqRd=   0 IEInf=0 DoCFld=F IF1Alg=4.
 GePol: Maximum number of non-zero 1st derivatives   =     204
 End of G2Drv Frequency-dependent properties file   721 does not exist.
 End of G2Drv Frequency-dependent properties file   722 does not exist.
 Leave Link 1110 at Thu Apr 07 12:51:02 2016, MaxMem=   33554432 cpu:    1807.0
 (Enter c:\G09w03\l1002.exe)
 Minotr:  Closed shell wavefunction.
          IDoAtm=11111111111111111111111
 NEqPCM:  Using equilibrium solvation (IEInf=0, Eps=  78.3553, EpsInf=   1.7778)
          Direct CPHF calculation.
          Differentiating once with respect to nuclear coordinates.
          Requested convergence is 1.0D-06 RMS, and 1.0D-05 maximum.
          Secondary convergence is 1.0D-12 RMS, and 1.0D-12 maximum.
          NewPWx=T KeepS1=F KeepF1=F KeepIn=T MapXYZ=F SortEE=F KeepMc=T.
          MDV=      33554266 using IRadAn=       2.
 Generate precomputed XC quadrature information.
          Solving linear equations simultaneously, MaxMat=       0.
 Integrals replicated using symmetry in FoFDir.
 MinBra= 0 MaxBra= 2 Meth= 1.
 IRaf=       0 NMat=  72 IRICut=     180 DoRegI=T DoRafI=T ISym2E= 2 JSym2E=2.
          There are    72 degrees of freedom in the 1st order CPHF.  IDoFFX=5.
     66 vectors produced by pass  0 Test12= 1.81D-10 1.39D-07 XBig12= 2.78D-01 1.55D-01.
 AX will form    66 AO Fock derivatives at one time.
     66 vectors produced by pass  1 Test12= 1.81D-10 1.39D-07 XBig12= 1.35D-01 1.74D-01.
     66 vectors produced by pass  2 Test12= 1.81D-10 1.39D-07 XBig12= 2.47D-04 2.43D-03.
     66 vectors produced by pass  3 Test12= 1.81D-10 1.39D-07 XBig12= 1.33D-06 1.78D-04.
     48 vectors produced by pass  4 Test12= 1.81D-10 1.39D-07 XBig12= 3.47D-09 6.50D-06.
      4 vectors produced by pass  5 Test12= 1.81D-10 1.39D-07 XBig12= 8.07D-12 3.38D-07.
      1 vectors produced by pass  6 Test12= 1.81D-10 1.39D-07 XBig12= 1.29D-12 1.65D-07.
 Inverted reduced A of dimension   317 with in-core refinement.
 End of Minotr Frequency-dependent properties file   721 does not exist.
 End of Minotr Frequency-dependent properties file   722 does not exist.
 Leave Link 1002 at Thu Apr 07 13:50:39 2016, MaxMem=   33554432 cpu:    3577.0
 (Enter c:\G09w03\l601.exe)
 Copying SCF densities to generalized density rwf, IOpCl= 0 IROHF=0.

 **********************************************************************

            Population analysis using the SCF density.

 **********************************************************************

 Orbital symmetries:
       Occupied  (A) (A) (A) (A) (A) (A) (A) (A) (A) (A) (A) (A)
                 (A) (A) (A) (A) (A) (A) (A) (A) (A) (A) (A) (A)
                 (A) (A) (A) (A) (A) (A) (A) (A) (A) (A) (A) (A)
                 (A) (A) (A) (A) (A) (A) (A) (A)
       Virtual   (A) (A) (A) (A) (A) (A) (A) (A) (A) (A) (A) (A)
                 (A) (A) (A) (A) (A) (A) (A) (A) (A) (A) (A) (A)
                 (A) (A) (A) (A) (A) (A) (A) (A) (A) (A) (A) (A)
                 (A) (A) (A) (A) (A) (A) (A) (A) (A) (A) (A) (A)
                 (A) (A) (A) (A) (A) (A) (A) (A) (A) (A) (A) (A)
                 (A) (A) (A) (A) (A) (A) (A) (A) (A) (A) (A) (A)
                 (A) (A) (A) (A) (A) (A) (A) (A) (A) (A) (A) (A)
                 (A) (A) (A) (A) (A) (A) (A) (A) (A) (A) (A) (A)
                 (A) (A) (A) (A) (A) (A) (A) (A) (A) (A) (A) (A)
                 (A) (A) (A) (A) (A) (A) (A) (A) (A) (A) (A) (A)
                 (A) (A) (A) (A) (A) (A) (A) (A) (A) (A) (A) (A)
                 (A) (A) (A) (A) (A) (A) (A) (A) (A) (A) (A) (A)
                 (A) (A) (A) (A) (A) (A) (A) (A) (A) (A) (A) (A)
                 (A) (A) (A) (A) (A) (A) (A) (A) (A) (A) (A) (A)
                 (A) (A) (A) (A) (A) (A) (A) (A) (A) (A) (A) (A)
                 (A) (A) (A) (A) (A) (A) (A) (A) (A) (A) (A) (A)
                 (A) (A) (A) (A) (A) (A) (A) (A) (A) (A) (A) (A)
                 (A) (A) (A) (A) (A) (A) (A) (A) (A) (A) (A) (A)
                 (A) (A) (A) (A) (A) (A) (A) (A) (A) (A) (A) (A)
                 (A) (A) (A) (A) (A) (A) (A) (A) (A) (A) (A) (A)
                 (A) (A) (A) (A) (A) (A) (A) (A) (A) (A) (A) (A)
                 (A) (A) (A) (A) (A) (A) (A) (A) (A) (A) (A) (A)
                 (A) (A) (A) (A) (A) (A) (A) (A) (A) (A) (A) (A)
                 (A) (A) (A) (A) (A) (A) (A) (A) (A) (A) (A) (A)
                 (A) (A) (A) (A) (A) (A) (A) (A)
 The electronic state is 1-A.
 Alpha  occ. eigenvalues --  -19.15882 -19.15659 -14.32002 -10.32787 -10.23892
 Alpha  occ. eigenvalues --  -10.19285 -10.18856 -10.18175 -10.18153 -10.18087
 Alpha  occ. eigenvalues --  -10.18064 -10.18023  -1.15349  -1.00613  -0.91822
 Alpha  occ. eigenvalues --   -0.86904  -0.79625  -0.75534  -0.73847  -0.67611
 Alpha  occ. eigenvalues --   -0.61641  -0.60004  -0.56958  -0.53574  -0.53223
 Alpha  occ. eigenvalues --   -0.50536  -0.48954  -0.48260  -0.47287  -0.46393
 Alpha  occ. eigenvalues --   -0.44635  -0.43176  -0.42484  -0.41125  -0.40023
 Alpha  occ. eigenvalues --   -0.37619  -0.36787  -0.35084  -0.34818  -0.32916
 Alpha  occ. eigenvalues --   -0.31637  -0.27574  -0.26522  -0.25866
 Alpha virt. eigenvalues --   -0.03621  -0.02373  -0.02178  -0.01095   0.00058
 Alpha virt. eigenvalues --    0.00760   0.01287   0.02125   0.02751   0.03874
 Alpha virt. eigenvalues --    0.04192   0.04702   0.05251   0.06178   0.06820
 Alpha virt. eigenvalues --    0.07356   0.07962   0.08695   0.08886   0.09341
 Alpha virt. eigenvalues --    0.09917   0.10372   0.11146   0.11265   0.11510
 Alpha virt. eigenvalues --    0.11969   0.12057   0.12192   0.12758   0.13121
 Alpha virt. eigenvalues --    0.13498   0.13999   0.14504   0.14932   0.15477
 Alpha virt. eigenvalues --    0.16032   0.16630   0.16870   0.17337   0.17933
 Alpha virt. eigenvalues --    0.18048   0.18341   0.18529   0.18932   0.19660
 Alpha virt. eigenvalues --    0.20263   0.20841   0.21111   0.21781   0.22548
 Alpha virt. eigenvalues --    0.23052   0.23896   0.24422   0.24626   0.25076
 Alpha virt. eigenvalues --    0.25235   0.26366   0.26488   0.27246   0.27560
 Alpha virt. eigenvalues --    0.28227   0.28720   0.29032   0.29607   0.29849
 Alpha virt. eigenvalues --    0.30601   0.30738   0.31722   0.32240   0.32643
 Alpha virt. eigenvalues --    0.33133   0.34656   0.35218   0.35968   0.36198
 Alpha virt. eigenvalues --    0.36708   0.37693   0.38331   0.39080   0.40002
 Alpha virt. eigenvalues --    0.41509   0.41950   0.45242   0.47485   0.48508
 Alpha virt. eigenvalues --    0.50989   0.52964   0.53531   0.54664   0.55572
 Alpha virt. eigenvalues --    0.55830   0.56536   0.57189   0.57751   0.58586
 Alpha virt. eigenvalues --    0.58896   0.59570   0.60290   0.61960   0.62464
 Alpha virt. eigenvalues --    0.63622   0.66566   0.67111   0.68575   0.69389
 Alpha virt. eigenvalues --    0.70682   0.70908   0.71341   0.72334   0.72833
 Alpha virt. eigenvalues --    0.73629   0.74207   0.75395   0.75997   0.77054
 Alpha virt. eigenvalues --    0.78220   0.80066   0.82476   0.83918   0.85132
 Alpha virt. eigenvalues --    0.86647   0.87268   0.88170   0.88529   0.89493
 Alpha virt. eigenvalues --    0.90276   0.91668   0.93477   0.94616   0.98009
 Alpha virt. eigenvalues --    1.00101   1.01409   1.02602   1.03993   1.06531
 Alpha virt. eigenvalues --    1.08121   1.08979   1.09832   1.11292   1.12207
 Alpha virt. eigenvalues --    1.13754   1.15827   1.16669   1.17930   1.19759
 Alpha virt. eigenvalues --    1.21365   1.23635   1.26261   1.29426   1.30701
 Alpha virt. eigenvalues --    1.31932   1.35229   1.40666   1.44071   1.45381
 Alpha virt. eigenvalues --    1.47552   1.48524   1.48969   1.51516   1.52403
 Alpha virt. eigenvalues --    1.55421   1.55990   1.56626   1.56902   1.58418
 Alpha virt. eigenvalues --    1.59915   1.61862   1.62789   1.63566   1.64278
 Alpha virt. eigenvalues --    1.65493   1.68082   1.69487   1.70856   1.73196
 Alpha virt. eigenvalues --    1.74456   1.74823   1.76717   1.77889   1.78991
 Alpha virt. eigenvalues --    1.80556   1.81495   1.83973   1.85968   1.86786
 Alpha virt. eigenvalues --    1.88643   1.90811   1.92778   1.92961   1.94055
 Alpha virt. eigenvalues --    1.95288   1.95975   1.96605   1.98862   2.01531
 Alpha virt. eigenvalues --    2.03291   2.06194   2.07776   2.08361   2.13235
 Alpha virt. eigenvalues --    2.16954   2.19881   2.22140   2.25907   2.32478
 Alpha virt. eigenvalues --    2.33226   2.33763   2.38323   2.40835   2.43997
 Alpha virt. eigenvalues --    2.45817   2.46269   2.47984   2.54979   2.56856
 Alpha virt. eigenvalues --    2.60365   2.60673   2.63057   2.64031   2.65537
 Alpha virt. eigenvalues --    2.66789   2.68299   2.70472   2.71371   2.72375
 Alpha virt. eigenvalues --    2.72740   2.74137   2.75055   2.75453   2.77883
 Alpha virt. eigenvalues --    2.78426   2.81250   2.81746   2.83200   2.85669
 Alpha virt. eigenvalues --    2.86508   2.89750   2.91361   2.91917   2.92968
 Alpha virt. eigenvalues --    2.93855   2.96327   2.97746   3.00964   3.03964
 Alpha virt. eigenvalues --    3.05956   3.09418   3.11392   3.16741   3.18895
 Alpha virt. eigenvalues --    3.21348   3.22538   3.29568   3.33689   3.35441
 Alpha virt. eigenvalues --    3.37952   3.40210   3.41026   3.49736   3.54234
 Alpha virt. eigenvalues --    3.59042   3.62712   3.66153   3.71210   3.75489
 Alpha virt. eigenvalues --    3.85170   3.99875   4.03841   4.05282   4.09151
 Alpha virt. eigenvalues --    4.10813   4.15213   4.15721   4.24499   4.35109
 Alpha virt. eigenvalues --    4.72496   4.83685   4.84287   5.01339   5.05743
 Alpha virt. eigenvalues --    5.07278   5.30568   5.52485   5.80377  23.61724
 Alpha virt. eigenvalues --   23.77604  23.81670  23.91591  23.97015  23.98202
 Alpha virt. eigenvalues --   24.08375  24.09604  24.18963  35.59474  49.89087
 Alpha virt. eigenvalues --   49.97730
          Condensed to atoms (all electrons):
              1          2          3          4          5          6
     1  N    6.695270   0.364521  -0.338067  -0.033378   0.045669   0.142493
     2  H    0.364521   0.433732   0.074374   0.013343  -0.053770  -0.054487
     3  C   -0.338067   0.074374  11.452448   0.632482  -1.351457  -3.080752
     4  H   -0.033378   0.013343   0.632482   0.544901   0.001077  -0.315787
     5  C    0.045669  -0.053770  -1.351457   0.001077  10.444175  -0.104350
     6  C    0.142493  -0.054487  -3.080752  -0.315787  -0.104350   8.267065
     7  H   -0.000822  -0.001607  -0.150518  -0.014196   0.407582   0.036841
     8  H    0.005437  -0.000169   0.098665   0.024141   0.482358  -0.132256
     9  C    0.073080  -0.010275  -1.143699  -0.053169  -1.936524   0.545149
    10  O   -0.012886   0.009846  -0.261671   0.006410   0.124703   0.441166
    11  C   -0.004300   0.005424   0.183584  -0.001458  -0.513665   0.217540
    12  C   -0.027290   0.001755   0.178910  -0.026116  -0.812430  -0.141680
    13  H   -0.008853   0.001665   0.030592  -0.000960  -0.019005  -0.032397
    14  C   -0.012033  -0.000712   0.296505   0.008227  -0.131026  -0.074862
    15  C    0.001454   0.001283  -0.047104  -0.032207  -0.261805   0.092951
    16  H   -0.001896   0.000091   0.024795  -0.003415  -0.034002   0.002587
    17  H    0.000059  -0.000099   0.000662   0.000045   0.010347  -0.001279
    18  C    0.004232   0.000515  -0.007345   0.001978  -0.022251   0.049698
    19  H   -0.000192  -0.000036  -0.000941  -0.000135   0.009383  -0.001826
    20  H    0.000004   0.000012  -0.000138   0.000120  -0.007589   0.000197
    21  H    0.400973  -0.041776  -0.124494  -0.014911   0.020012   0.062749
    22  O   -0.013775   0.000231  -0.068544   0.007816   0.030144   0.307656
    23  H    0.003291   0.000528  -0.041316  -0.005688   0.006254   0.048171
              7          8          9         10         11         12
     1  N   -0.000822   0.005437   0.073080  -0.012886  -0.004300  -0.027290
     2  H   -0.001607  -0.000169  -0.010275   0.009846   0.005424   0.001755
     3  C   -0.150518   0.098665  -1.143699  -0.261671   0.183584   0.178910
     4  H   -0.014196   0.024141  -0.053169   0.006410  -0.001458  -0.026116
     5  C    0.407582   0.482358  -1.936524   0.124703  -0.513665  -0.812430
     6  C    0.036841  -0.132256   0.545149   0.441166   0.217540  -0.141680
     7  H    0.511097  -0.032476   0.005658   0.002857   0.076101  -0.066015
     8  H   -0.032476   0.538834  -0.170977  -0.005323   0.045927  -0.046852
     9  C    0.005658  -0.170977   9.143217  -0.041968  -0.775910   0.425926
    10  O    0.002857  -0.005323  -0.041968   8.158826   0.016924  -0.018222
    11  C    0.076101   0.045927  -0.775910   0.016924   8.964321  -2.571497
    12  C   -0.066015  -0.046852   0.425926  -0.018222  -2.571497   8.652613
    13  H    0.005748  -0.013779  -0.052699   0.003666   0.438287  -0.002211
    14  C   -0.011192   0.029958  -0.697266  -0.024954   0.433379   0.256086
    15  C    0.023326  -0.037289  -0.314717   0.003236   0.738805  -0.042143
    16  H   -0.003307   0.001441  -0.021392  -0.000613  -0.011395   0.432020
    17  H    0.000225   0.001920   0.011031   0.000294  -0.058973   0.000862
    18  C   -0.014882  -0.004325   0.137456  -0.009566  -0.643840  -0.100127
    19  H    0.001462   0.000205   0.010590   0.000143   0.021898  -0.075223
    20  H   -0.000296  -0.000318   0.029926  -0.000172  -0.023128   0.008949
    21  H    0.001778   0.000582   0.010133  -0.002262  -0.002885   0.000078
    22  O    0.000683  -0.000327  -0.015769  -0.253049  -0.013752  -0.010187
    23  H    0.000370  -0.002974  -0.009293   0.149408   0.017880  -0.007917
             13         14         15         16         17         18
     1  N   -0.008853  -0.012033   0.001454  -0.001896   0.000059   0.004232
     2  H    0.001665  -0.000712   0.001283   0.000091  -0.000099   0.000515
     3  C    0.030592   0.296505  -0.047104   0.024795   0.000662  -0.007345
     4  H   -0.000960   0.008227  -0.032207  -0.003415   0.000045   0.001978
     5  C   -0.019005  -0.131026  -0.261805  -0.034002   0.010347  -0.022251
     6  C   -0.032397  -0.074862   0.092951   0.002587  -0.001279   0.049698
     7  H    0.005748  -0.011192   0.023326  -0.003307   0.000225  -0.014882
     8  H   -0.013779   0.029958  -0.037289   0.001441   0.001920  -0.004325
     9  C   -0.052699  -0.697266  -0.314717  -0.021392   0.011031   0.137456
    10  O    0.003666  -0.024954   0.003236  -0.000613   0.000294  -0.009566
    11  C    0.438287   0.433379   0.738805  -0.011395  -0.058973  -0.643840
    12  C   -0.002211   0.256086  -0.042143   0.432020   0.000862  -0.100127
    13  H    0.515985  -0.061343   0.023633  -0.001460  -0.015181  -0.001511
    14  C   -0.061343   5.669318  -0.066678   0.009156   0.416349   0.362465
    15  C    0.023633  -0.066678   5.658704  -0.080704   0.007724   0.281840
    16  H   -0.001460   0.009156  -0.080704   0.510676   0.000261   0.013940
    17  H   -0.015181   0.416349   0.007724   0.000261   0.502557  -0.067393
    18  C   -0.001511   0.362465   0.281840   0.013940  -0.067393   5.979273
    19  H    0.000832   0.011562   0.423108  -0.013912   0.000401  -0.079379
    20  H    0.000597  -0.071979  -0.079830   0.000523  -0.014231   0.481768
    21  H   -0.000896   0.000177  -0.000236  -0.000523   0.000037   0.000120
    22  O   -0.000121   0.008354  -0.007618  -0.000786  -0.000551   0.010565
    23  H    0.000572  -0.000305   0.003400  -0.000020   0.000065  -0.001275
             19         20         21         22         23
     1  N   -0.000192   0.000004   0.400973  -0.013775   0.003291
     2  H   -0.000036   0.000012  -0.041776   0.000231   0.000528
     3  C   -0.000941  -0.000138  -0.124494  -0.068544  -0.041316
     4  H   -0.000135   0.000120  -0.014911   0.007816  -0.005688
     5  C    0.009383  -0.007589   0.020012   0.030144   0.006254
     6  C   -0.001826   0.000197   0.062749   0.307656   0.048171
     7  H    0.001462  -0.000296   0.001778   0.000683   0.000370
     8  H    0.000205  -0.000318   0.000582  -0.000327  -0.002974
     9  C    0.010590   0.029926   0.010133  -0.015769  -0.009293
    10  O    0.000143  -0.000172  -0.002262  -0.253049   0.149408
    11  C    0.021898  -0.023128  -0.002885  -0.013752   0.017880
    12  C   -0.075223   0.008949   0.000078  -0.010187  -0.007917
    13  H    0.000832   0.000597  -0.000896  -0.000121   0.000572
    14  C    0.011562  -0.071979   0.000177   0.008354  -0.000305
    15  C    0.423108  -0.079830  -0.000236  -0.007618   0.003400
    16  H   -0.013912   0.000523  -0.000523  -0.000786  -0.000020
    17  H    0.000401  -0.014231   0.000037  -0.000551   0.000065
    18  C   -0.079379   0.481768   0.000120   0.010565  -0.001275
    19  H    0.504624  -0.013984   0.000013  -0.000370   0.000036
    20  H   -0.013984   0.513567  -0.000004   0.000200  -0.000069
    21  H    0.000013  -0.000004   0.419159  -0.003284   0.001041
    22  O   -0.000370   0.000200  -0.003284   8.150288   0.129274
    23  H    0.000036  -0.000069   0.001041   0.129274   0.388344
 Mulliken atomic charges:
              1
     1  N   -0.282990
     2  H    0.255613
     3  C   -0.356971
     4  H    0.260880
     5  C   -0.333830
     6  C   -0.274586
     7  H    0.221585
     8  H    0.217600
     9  C    0.851490
    10  O   -0.286794
    11  C   -0.539268
    12  C   -0.009287
    13  H    0.188839
    14  C   -0.349184
    15  C   -0.289130
    16  H    0.177936
    17  H    0.204867
    18  C   -0.371956
    19  H    0.201742
    20  H    0.175878
    21  H    0.274421
    22  O   -0.257077
    23  H    0.320222
 Sum of Mulliken atomic charges =   0.00000
 Mulliken charges with hydrogens summed into heavy atoms:
              1
     1  N    0.247043
     3  C   -0.096091
     5  C    0.105355
     6  C   -0.274586
     9  C    0.851490
    10  O    0.033428
    11  C   -0.350429
    12  C    0.168649
    14  C   -0.144317
    15  C   -0.087389
    18  C   -0.196078
    22  O   -0.257077
 Sum of Mulliken charges with hydrogens summed into heavy atoms =   0.00000
 APT atomic charges:
              1
     1  N   -1.148398
     2  H    0.527824
     3  C   -1.026460
     4  H    0.387582
     5  C   -0.567085
     6  C    0.227455
     7  H    0.494598
     8  H    0.380889
     9  C   -0.307926
    10  O   -0.331848
    11  C   -0.543738
    12  C   -0.107981
    13  H    0.339954
    14  C   -0.547074
    15  C   -0.455225
    16  H    0.414005
    17  H    0.650674
    18  C   -0.884675
    19  H    0.738466
    20  H    0.847349
    21  H    0.749781
    22  O   -0.278898
    23  H    0.440729
 Sum of APT charges=   0.00000
 APT Atomic charges with hydrogens summed into heavy atoms:
              1
     1  N    0.129208
     2  H    0.000000
     3  C   -0.638878
     4  H    0.000000
     5  C    0.308402
     6  C    0.227455
     7  H    0.000000
     8  H    0.000000
     9  C   -0.307926
    10  O    0.108881
    11  C   -0.203784
    12  C    0.306024
    13  H    0.000000
    14  C    0.103600
    15  C    0.283242
    16  H    0.000000
    17  H    0.000000
    18  C   -0.037326
    19  H    0.000000
    20  H    0.000000
    21  H    0.000000
    22  O   -0.278898
    23  H    0.000000
 Sum of APT charges=   0.00000
 Electronic spatial extent (au):  <R**2>=           2267.8445
 Charge=              0.0000 electrons
 Dipole moment (field-independent basis, Debye):
    X=             -0.1803    Y=             -1.0312    Z=             -0.2537  Tot=              1.0772
 Quadrupole moment (field-independent basis, Debye-Ang):
   XX=            -63.5735   YY=            -72.4963   ZZ=            -75.3787
   XY=              2.7208   XZ=              2.5104   YZ=             -4.1409
 Traceless Quadrupole moment (field-independent basis, Debye-Ang):
   XX=              6.9093   YY=             -2.0135   ZZ=             -4.8959
   XY=              2.7208   XZ=              2.5104   YZ=             -4.1409
 Octapole moment (field-independent basis, Debye-Ang**2):
  XXX=            -35.8942  YYY=             22.7875  ZZZ=             -7.2624  XYY=              8.1316
  XXY=              5.6783  XXZ=             15.2583  XZZ=             -5.3811  YZZ=             -7.9124
  YYZ=              5.8019  XYZ=             -5.1445
 Hexadecapole moment (field-independent basis, Debye-Ang**3):
 XXXX=          -1873.1319 YYYY=           -613.0022 ZZZZ=           -346.9492 XXXY=             43.5080
 XXXZ=             39.5857 YYYX=            -55.0479 YYYZ=             -9.4548 ZZZX=             20.6542
 ZZZY=            -12.3570 XXYY=           -462.6437 XXZZ=           -410.8344 YYZZ=           -159.3676
 XXYZ=            -22.3244 YYXZ=            -15.3214 ZZXY=             13.8508
 N-N= 6.802257908048D+02 E-N=-2.654864546359D+03  KE= 5.526307426107D+02
  Exact polarizability:   0.000   0.000   0.000   0.000   0.000   0.000
 Approx polarizability: 184.212  16.245 187.592  24.625 -22.963 170.996
 No NMR shielding tensors so no spin-rotation constants.
 Leave Link  601 at Thu Apr 07 13:50:40 2016, MaxMem=   33554432 cpu:       1.0
 (Enter c:\G09w03\l701.exe)
 Compute integral second derivatives.
 ... and contract with generalized density number  0.
 D2PCM: C-PCM CHGder 2nd derivatives, FixD1E=F FixD2E=F DoIter=F DoCFld=F I1PDM=0
 GePol: Maximum number of non-zero 2nd derivatives   =     204
 Leave Link  701 at Thu Apr 07 13:52:21 2016, MaxMem=   33554432 cpu:     101.0
 (Enter c:\G09w03\l702.exe)
 L702 exits ... SP integral derivatives will be done elsewhere.
 Leave Link  702 at Thu Apr 07 13:52:21 2016, MaxMem=   33554432 cpu:       0.0
 (Enter c:\G09w03\l703.exe)
 Compute integral second derivatives, UseDBF=F ICtDFT=           0.
 Integral derivatives from FoFDir, PRISM(SPDF).
 Calling FoFJK, ICntrl=    100147 FMM=F ISym2X=0 I1Cent= 0 IOpClX= 0 NMat=1 NMatS=1 NMatT=0.
 FoFCou: FMM=F IPFlag=           0 FMFlag=      100000 FMFlg1=         800
         NFxFlg=           0 DoJE=F BraDBF=F KetDBF=F FulRan=T
         Omega=  0.000000  0.000000  1.000000  0.000000  0.000000 ICntrl=  100147 IOpCl=  0
         NMat0=    1 NMatS0=    1 NMatT0=    0 NMatD0=    1 NMtDS0=    0 NMtDT0=    0
         I1Cent=           0 NGrid=           0.
 Symmetry not used in FoFCou.
 Leave Link  703 at Thu Apr 07 14:30:00 2016, MaxMem=   33554432 cpu:    2259.0
 (Enter c:\G09w03\l716.exe)
 Dipole        =-7.09322145D-02-4.05711844D-01-9.98077518D-02
 Polarizability= 0.00000000D+00 0.00000000D+00 0.00000000D+00
                 0.00000000D+00 0.00000000D+00 0.00000000D+00
 ***** Axes restored to original set *****
 -------------------------------------------------------------------
 Center     Atomic                   Forces (Hartrees/Bohr)
 Number     Number              X              Y              Z
 -------------------------------------------------------------------
      1        7           0.000538988   -0.000346355   -0.000145019
      2        1          -0.000597772    0.000105611   -0.000039934
      3        6           0.000394794   -0.001269040    0.000655912
      4        1          -0.000164264    0.000004055   -0.000195924
      5        6          -0.000134343    0.000596381   -0.000609853
      6        6          -0.000671522   -0.004547847   -0.002724109
      7        1           0.000342004    0.000280314    0.000220158
      8        1           0.000162223   -0.000275693   -0.000029210
      9        6          -0.000728463   -0.000413553   -0.000086959
     10        8           0.000087075    0.001716523    0.002031885
     11        6          -0.000679163    0.000243990   -0.000287224
     12        6          -0.000458028   -0.001235801    0.000406952
     13        1           0.000301694   -0.000003476   -0.000233432
     14        6           0.000293755    0.001173904   -0.000483412
     15        6           0.000478657   -0.000555066    0.000580951
     16        1           0.000017594    0.000230851   -0.000005749
     17        1           0.000046219    0.000037458   -0.000025198
     18        6           0.001060041    0.000456416    0.000329799
     19        1          -0.000007287   -0.000043126   -0.000009121
     20        1           0.000053050    0.000030702   -0.000023394
     21        1          -0.000325470    0.000539754    0.000101535
     22        8           0.000645430    0.001990948    0.001360916
     23        1          -0.000655211    0.001283051   -0.000789568
 -------------------------------------------------------------------
 Cartesian Forces:  Max     0.004547847 RMS     0.000905466
 Leave Link  716 at Thu Apr 07 14:30:00 2016, MaxMem=   33554432 cpu:       0.0
 (Enter c:\G09w03\l103.exe)

 GradGradGradGradGradGradGradGradGradGradGradGradGradGradGradGradGradGrad
 Berny optimization.
 Red2BG is reusing G-inverse.
 Internal  Forces:  Max     0.002077823 RMS     0.000503612
 Search for a saddle point.
 Step number   1 out of a maximum of  126
 All quantities printed in internal units (Hartrees-Bohrs-Radians)
 Swaping is turned off.
 Second derivative matrix not updated -- analytic derivatives used.
 ITU=  0
     Eigenvalues ---   -0.09859   0.00039   0.00136   0.00307   0.00402
     Eigenvalues ---    0.01609   0.01729   0.01762   0.02082   0.02355
     Eigenvalues ---    0.02467   0.02635   0.02756   0.02864   0.02908
     Eigenvalues ---    0.03128   0.04148   0.04270   0.04557   0.05137
     Eigenvalues ---    0.05565   0.07431   0.07652   0.07857   0.10719
     Eigenvalues ---    0.11259   0.11335   0.11827   0.12243   0.12667
     Eigenvalues ---    0.13571   0.14538   0.15373   0.15517   0.17646
     Eigenvalues ---    0.18520   0.19337   0.19444   0.19767   0.20863
     Eigenvalues ---    0.21392   0.26090   0.28184   0.28440   0.30702
     Eigenvalues ---    0.33085   0.33344   0.33827   0.35135   0.35465
     Eigenvalues ---    0.35524   0.35610   0.35725   0.35805   0.40858
     Eigenvalues ---    0.41194   0.44730   0.44997   0.45547   0.46174
     Eigenvalues ---    0.46369   0.50268   0.53421
 Eigenvectors required to have negative eigenvalues:
                          R15       R25       A39       R10       A38
   1                    0.64513  -0.64468  -0.35739  -0.10243   0.10192
                          R11       A17       A16       D36       A8
   1                    0.09968   0.06027  -0.05917   0.01902   0.01765
 RFO step:  Lambda0=4.126775522D-06 Lambda=-5.35940743D-04.
 Linear search not attempted -- option 19 set.
 Iteration  1 RMS(Cart)=  0.09808694 RMS(Int)=  0.01098571
 Iteration  2 RMS(Cart)=  0.01317159 RMS(Int)=  0.00068849
 Iteration  3 RMS(Cart)=  0.00028659 RMS(Int)=  0.00061166
 Iteration  4 RMS(Cart)=  0.00000064 RMS(Int)=  0.00061166
 Variable       Old X    -DE/DX   Delta X   Delta X   Delta X     New X
                                 (Linear)    (Quad)   (Total)
    R1        1.91958   0.00029   0.00000   0.00112   0.00112   1.92070
    R2        2.77074   0.00021   0.00000  -0.00487  -0.00488   2.76587
    R3        1.91776   0.00035   0.00000   0.00131   0.00131   1.91907
    R4        2.06262  -0.00022   0.00000  -0.00122  -0.00122   2.06140
    R5        2.91338   0.00061   0.00000   0.00705   0.00705   2.92043
    R6        2.85788   0.00052   0.00000   0.00056   0.00057   2.85845
    R7        2.06525  -0.00029   0.00000  -0.00016  -0.00016   2.06510
    R8        2.06711  -0.00013   0.00000  -0.00078  -0.00078   2.06633
    R9        2.86057   0.00035   0.00000   0.00002   0.00002   2.86059
   R10        2.41653  -0.00003   0.00000  -0.00016  -0.00055   2.41599
   R11        2.40750   0.00208   0.00000   0.00533   0.00577   2.41327
   R12        2.87043   0.00206   0.00000   0.01078   0.01086   2.88129
   R13        2.64357   0.00108   0.00000   0.00127   0.00127   2.64484
   R14        2.64600   0.00098   0.00000   0.00220   0.00220   2.64820
   R15        2.46424  -0.00134   0.00000   0.00185   0.00314   2.46738
   R16        2.05000  -0.00003   0.00000   0.00070   0.00070   2.05070
   R17        2.63506   0.00110   0.00000   0.00259   0.00259   2.63765
   R18        2.63172   0.00110   0.00000   0.00168   0.00168   2.63340
   R19        2.05203  -0.00021   0.00000  -0.00065  -0.00065   2.05138
   R20        2.04917   0.00006   0.00000  -0.00003  -0.00003   2.04914
   R21        2.63245   0.00106   0.00000   0.00169   0.00170   2.63414
   R22        2.63510   0.00123   0.00000   0.00300   0.00300   2.63810
   R23        2.04916   0.00001   0.00000  -0.00003  -0.00003   2.04912
   R24        2.04874   0.00005   0.00000   0.00003   0.00003   2.04877
   R25        2.46910   0.00009   0.00000  -0.00313  -0.00457   2.46454
    A1        1.93806   0.00056   0.00000  -0.00234  -0.00238   1.93568
    A2        1.88477  -0.00034   0.00000  -0.00885  -0.00891   1.87586
    A3        1.94675  -0.00045   0.00000  -0.00658  -0.00662   1.94013
    A4        1.88465  -0.00006   0.00000   0.00416   0.00415   1.88880
    A5        1.91780   0.00081   0.00000   0.00234   0.00243   1.92022
    A6        1.93339  -0.00058   0.00000   0.02164   0.02168   1.95508
    A7        1.91217  -0.00032   0.00000  -0.00574  -0.00584   1.90633
    A8        1.86902   0.00010   0.00000  -0.00312  -0.00335   1.86567
    A9        1.94516   0.00003   0.00000  -0.01899  -0.01907   1.92609
   A10        1.85170  -0.00007   0.00000  -0.00221  -0.00221   1.84948
   A11        1.89328   0.00040   0.00000   0.00280   0.00280   1.89608
   A12        1.98969  -0.00007   0.00000  -0.00050  -0.00050   1.98919
   A13        1.87449  -0.00001   0.00000   0.00032   0.00032   1.87481
   A14        1.92773  -0.00023   0.00000  -0.00017  -0.00018   1.92755
   A15        1.92230  -0.00001   0.00000  -0.00019  -0.00019   1.92211
   A16        2.17695   0.00132   0.00000   0.00281   0.00564   2.18259
   A17        2.18983   0.00061   0.00000   0.00637   0.00293   2.19276
   A18        1.91449  -0.00189   0.00000  -0.00689  -0.00699   1.90750
   A19        2.11499   0.00026   0.00000  -0.00270  -0.00270   2.11229
   A20        2.10015  -0.00015   0.00000   0.00267   0.00267   2.10282
   A21        2.06798  -0.00010   0.00000   0.00005   0.00005   2.06803
   A22        2.08508   0.00011   0.00000   0.00144   0.00143   2.08651
   A23        2.10763   0.00023   0.00000   0.00132   0.00132   2.10895
   A24        2.09047  -0.00034   0.00000  -0.00276  -0.00277   2.08770
   A25        2.11015  -0.00005   0.00000  -0.00108  -0.00108   2.10907
   A26        2.08641   0.00001   0.00000   0.00151   0.00151   2.08791
   A27        2.08659   0.00003   0.00000  -0.00041  -0.00041   2.08618
   A28        2.08962   0.00008   0.00000   0.00054   0.00054   2.09016
   A29        2.09776  -0.00012   0.00000  -0.00120  -0.00120   2.09656
   A30        2.09580   0.00004   0.00000   0.00065   0.00065   2.09645
   A31        2.09558   0.00014   0.00000   0.00110   0.00110   2.09668
   A32        2.09148  -0.00010   0.00000  -0.00077  -0.00077   2.09071
   A33        2.09611  -0.00003   0.00000  -0.00033  -0.00033   2.09578
   A34        2.08726  -0.00010   0.00000  -0.00019  -0.00019   2.08707
   A35        2.09825   0.00002   0.00000   0.00013   0.00013   2.09838
   A36        2.09767   0.00008   0.00000   0.00006   0.00006   2.09773
   A37        1.85290   0.00003   0.00000  -0.00291  -0.00293   1.84998
   A38        3.09247  -0.00003   0.00000   0.02986   0.02828   3.12076
   A39        3.12917  -0.00033   0.00000  -0.00398  -0.00037   3.12880
    D1        3.05056  -0.00022   0.00000   0.00218   0.00224   3.05279
    D2       -1.14783  -0.00018   0.00000  -0.00093  -0.00094  -1.14877
    D3        1.00903   0.00001   0.00000  -0.00858  -0.00858   1.00046
    D4        0.94735   0.00013   0.00000   0.01950   0.01953   0.96688
    D5        3.03215   0.00017   0.00000   0.01640   0.01635   3.04850
    D6       -1.09417   0.00036   0.00000   0.00875   0.00872  -1.08545
    D7       -0.90466  -0.00036   0.00000  -0.05463  -0.05463  -0.95930
    D8        1.10463  -0.00022   0.00000  -0.05405  -0.05406   1.05057
    D9       -3.02999   0.00003   0.00000  -0.05255  -0.05256  -3.08254
   D10        1.16323  -0.00014   0.00000  -0.05162  -0.05165   1.11158
   D11       -3.11066   0.00000   0.00000  -0.05104  -0.05108   3.12145
   D12       -0.96209   0.00025   0.00000  -0.04954  -0.04957  -1.01166
   D13       -3.05464  -0.00020   0.00000  -0.07083  -0.07079  -3.12543
   D14       -1.04535  -0.00006   0.00000  -0.07025  -0.07021  -1.11556
[...]
 0000711,-0.00005094,-0.00184967,-0.00051703,0.00481674,-0.00014971,-0.
 00035253,0.00006146,-0.00010711,-0.00008447,-0.00007246,0.00005485,0.0
 0006360,-0.00003819,-0.02983361,-0.00989368,-0.00588125,0.00007611,0.0
 0011833,-0.00009810,-0.10122043,-0.13543146,-0.00905785,0.00572592,-0.
 00222509,0.00113024,0.01522714,0.00893370,0.00515601,0.14257124,0.5644
 4084,-0.00016982,0.00005110,0.00004703,-0.00005240,-0.00000727,0.00000
 921,-0.00098737,-0.00031065,-0.00028787,0.00019041,0.00002046,-0.00019
 583,-0.00172784,0.00516072,0.00267160,-0.00027205,-0.00015051,0.000060
 89,0.00106608,0.00072048,0.00021829,0.00008490,-0.00022817,0.00008458,
 0.01295781,-0.02676814,0.03348187,0.00003353,0.00005508,-0.00003045,-0
 .05327154,0.01885105,-0.10986232,-0.02955115,0.00084948,-0.02450911,-0
 .01968875,-0.00856161,-0.00224639,0.15340855,-0.22852416,0.39817103,0.
 00012835,-0.00013094,0.00006713,0.00008990,0.00001940,-0.00000511,0.00
 020419,-0.00032816,0.00077254,-0.00031414,-0.00000412,0.00035758,0.003
 67394,0.00223533,-0.00370765,0.00031724,0.00012242,-0.00036428,0.00012
 869,-0.00107663,0.00029651,-0.00058330,-0.00020639,0.00026418,-0.03079
 148,0.03798155,-0.05045553,-0.00002202,-0.00010956,0.00015728,-0.03656
 665,-0.03215982,0.00449426,-0.27841990,-0.10275741,-0.05548123,-0.0006
 3356,-0.00051276,0.00065570,0.05181916,0.00670289,0.02183063,0.5777344
 2,-0.00001711,-0.00008267,0.00024088,0.00001881,0.00001886,-0.00000423
 ,-0.00067714,-0.00045387,0.00025629,-0.00010910,-0.00009309,0.00020214
 ,0.00120400,0.00045330,0.00478191,0.00029142,0.00007864,-0.00019489,0.
 00013979,-0.00014312,0.00003986,0.00121171,0.00052770,0.00074765,0.003
 95150,0.04776397,-0.02813420,0.00000095,-0.00007556,0.00005784,-0.0327
 3254,-0.03436909,0.00073177,-0.05642219,-0.13538780,0.01880100,-0.0003
 4372,-0.00071904,-0.00045669,0.04003742,-0.02466470,0.04773417,0.09841
 429,0.52862633,-0.00025994,-0.00010115,0.00035073,0.00009611,0.0000134
 8,0.00000197,-0.00034428,-0.00016387,-0.00064171,-0.00019684,-0.000022
 27,0.00018506,-0.00305568,0.00460386,0.00080205,0.00004087,-0.00010095
 ,-0.00010714,0.00046349,0.00030670,0.00005674,-0.00062234,-0.00003990,
 -0.00008807,-0.02490348,-0.00691818,-0.00334791,-0.00000285,0.00000161
 ,0.00007380,0.00517966,0.00119633,-0.00358263,-0.08930987,-0.00925359,
 -0.10976219,0.00051253,-0.00058497,-0.00031144,-0.00244047,0.02748154,
 -0.01407433,0.19538945,-0.22512825,0.41667311,0.00010882,-0.00005211,0
 .00012288,0.00003946,0.00000108,0.00000351,-0.00032651,0.00021458,-0.0
 0025358,-0.00061715,0.00024924,0.00021778,-0.00026063,0.00123989,0.001
 16586,0.00006621,0.00019178,0.00006042,0.00021488,0.00008051,-0.000085
 01,0.00022515,-0.00011482,0.00014571,0.00907439,0.01437847,-0.00691574
 ,0.00001555,-0.00012496,0.00000596,-0.00028896,0.00039733,-0.00459360,
 -0.08636605,-0.08343673,0.02977039,0.00040835,0.00076603,-0.00041743,-
 0.00088067,0.00037722,-0.00016079,-0.00554448,-0.02475988,0.01249117,0
 .08746652,0.00011752,0.00008221,-0.00029182,-0.00006472,-0.00001611,0.
 00000218,0.00029107,0.00009948,0.00037715,0.00044956,-0.00001661,-0.00
 022609,0.00018258,-0.00021510,-0.00196161,-0.00006363,0.00001121,-0.00
 002037,0.00041559,0.00000506,0.00021217,-0.00013517,0.00008155,-0.0000
 0075,-0.00736557,-0.00958013,0.00477778,0.00000162,0.00004535,-0.00001
 031,0.00102432,0.00209283,0.00394779,-0.08384860,-0.25021091,0.1017950
 6,-0.00033610,-0.00048251,0.00034661,0.00052584,0.00005284,-0.00050944
 ,-0.00188058,-0.00558361,0.00553165,0.09279428,0.26194090,0.00006014,0
 .00002619,-0.00007393,-0.00001003,0.00000568,-0.00001014,-0.00002626,-
 0.00000320,0.00009200,0.00011647,0.00002059,-0.00000803,0.00240563,-0.
 00070571,-0.00099383,0.00009148,0.00019028,0.00005250,-0.00030553,-0.0
 0076907,-0.00004503,-0.00002139,-0.00029521,-0.00000257,0.00762871,0.0
 1808578,-0.00491115,0.00000946,-0.00008286,-0.00000942,-0.00491594,0.0
 0387348,0.00103489,0.03031514,0.10155434,-0.09141288,0.00040796,0.0009
 5425,-0.00025860,-0.00027886,-0.00058885,-0.00083541,-0.00397733,-0.00
 830284,0.00703610,-0.02961738,-0.11310426,0.08853083,-0.00016524,-0.00
 002008,0.00009974,0.00001541,-0.00000446,-0.00000034,0.00004215,-0.000
 12502,-0.00019364,0.00000924,0.00000073,0.00001257,-0.00002521,-0.0009
 7286,0.00061644,0.00002440,-0.00017892,-0.00004259,-0.00033333,-0.0001
 4654,-0.00004885,0.00002215,0.00007276,0.00000560,-0.00279987,-0.00239
 527,-0.00426710,-0.00002324,0.00006898,0.00000951,-0.00547586,-0.02435
 057,0.01255584,-0.00089353,0.00050641,-0.00027325,0.00018557,0.0015797
 4,0.00147510,-0.08826802,-0.08645361,0.03275735,0.00005294,0.00024230,
 -0.00460770,-0.00011850,0.00018949,0.00044884,0.08784953,-0.00014119,-
 0.00001755,0.00004946,0.00000491,0.00000345,0.00000227,-0.00000161,-0.
 00003669,-0.00011721,0.00000611,-0.00000500,-0.00000793,0.00026922,-0.
 00025892,0.00044869,0.00005645,-0.00015923,-0.00003246,-0.00011594,-0.
 00007648,0.00000594,-0.00001509,0.00001818,-0.00003644,-0.00319083,0.0
 0301336,0.00130404,-0.00002093,0.00006168,-0.00000245,-0.00176025,-0.0
 0531740,0.00541045,0.00041606,0.00010841,-0.00062698,0.00105241,-0.000
 58589,-0.00197279,-0.08650602,-0.24904331,0.10401701,0.00087414,0.0022
 3429,0.00433569,0.00019142,-0.00039760,-0.00039761,0.09506981,0.259943
 04,-0.00003634,0.00000487,-0.00001150,-0.00000555,0.00000352,0.0000007
 7,-0.00003642,0.00000914,-0.00001650,-0.00000348,-0.00000752,-0.000013
 59,-0.00002219,-0.00029097,0.00030979,0.00000069,-0.00000688,0.0000173
 1,-0.00000061,-0.00003824,0.00000047,0.00002681,0.00000554,-0.00003552
 ,-0.00406159,0.00142470,0.00386826,0.00000813,0.00000304,-0.00001408,-
 0.00401908,-0.00809566,0.00700064,-0.00028584,-0.00056672,-0.00086611,
 0.00187553,-0.00167949,-0.00174513,0.03272221,0.10411284,-0.09441274,-
 0.00509229,0.00397728,0.00137813,0.00044744,-0.00037753,-0.00053942,-0
 .03244216,-0.11537898,0.09132983,-0.00034073,-0.00006735,0.00022360,0.
 00002507,-0.00000090,0.00000676,0.00019512,-0.00004602,-0.00060941,0.0
 0004731,-0.00003061,0.00005103,-0.00062226,-0.00001447,0.00084138,0.00
 016805,-0.00055855,-0.00010608,-0.00014269,0.00002619,-0.00009933,0.00
 003581,-0.00003770,0.00004000,-0.00059220,0.00792587,-0.00251896,-0.00
 005481,0.00020380,0.00001090,-0.03015634,0.00430981,-0.02604574,-0.009
 98257,-0.03079616,0.01186515,-0.00263797,-0.00388352,-0.00318469,-0.17
 571113,0.06107057,-0.11285222,-0.14094740,-0.09772305,0.02426029,-0.00
 301958,-0.00333174,-0.00395187,0.00968752,-0.00704319,0.00897462,0.619
 76770,-0.00019064,0.00009024,-0.00011388,-0.00006229,-0.00001751,0.000
 01187,-0.00004438,0.00039324,-0.00045924,0.00030462,0.00002004,-0.0003
 1478,-0.00043366,-0.00167820,0.00026895,-0.00030051,-0.00035995,0.0002
 2790,-0.00039196,0.00050371,-0.00014469,-0.00012000,-0.00004133,-0.000
 34043,0.00874032,-0.04286786,0.03195977,0.00000125,0.00017808,-0.00008
 859,0.03758721,0.04733238,-0.00613318,-0.06421465,-0.01034690,-0.02635
 563,-0.00452480,0.00200870,0.00114357,0.01555217,-0.15801180,0.0787248
 0,-0.05168416,-0.25188306,0.10577181,-0.00262808,0.00300033,0.00166486
 ,0.01541946,-0.00846360,0.01821183,0.14671677,0.51551061,0.00000697,-0
 .00010048,0.00012571,0.00005016,0.00001674,-0.00000347,0.00024917,-0.0
 0019213,0.00021346,-0.00016709,-0.00000271,0.00022756,0.00048603,0.000
 34495,-0.00080606,0.00034938,-0.00009134,-0.00022958,-0.00000562,-0.00
 040132,-0.00007874,0.00000867,-0.00003820,0.00022601,-0.00243416,0.031
 65838,-0.03107065,-0.00007135,0.00001187,0.00006769,-0.05071211,-0.026
 70124,-0.00379193,0.03593000,-0.00576408,0.03374977,-0.00276531,0.0016
 2556,0.00445620,-0.07920084,0.10623656,-0.19011328,-0.00893078,0.07833
 558,-0.12590864,-0.00444886,0.00120014,0.00399231,-0.00769697,0.004648
 63,-0.00438875,0.18717099,-0.18977162,0.38676950,-0.00013542,-0.000019
 40,0.00007402,0.00002446,-0.00000092,-0.00000275,0.00007438,-0.0000230
 2,-0.00014408,-0.00000329,0.00000639,0.00000803,-0.00020215,0.00088939
 ,-0.00090098,0.00001766,-0.00020269,-0.00004131,0.00003588,-0.00001664
 ,0.00004315,-0.00047724,-0.00007384,-0.00010901,-0.00232477,-0.0045009
 3,-0.00261104,-0.00001995,0.00007875,0.00000972,-0.00059813,-0.0005000
 6,0.00060301,-0.01065499,0.01535753,-0.01956752,-0.00017818,0.00036491
 ,0.00026658,0.00135074,-0.00366215,-0.00083592,-0.13472140,0.06886322,
 -0.10837379,0.00018903,0.00106130,0.00191003,0.00030834,-0.00037597,0.
 00040290,0.00956829,-0.00688087,0.00860483,0.13795399,-0.00000684,-0.0
 0001227,0.00001003,0.00000875,-0.00000141,0.00000487,0.00003967,-0.000
 00737,-0.00003550,0.00000059,0.00000034,0.00002286,-0.00022896,0.00040
 225,-0.00031178,0.00001222,-0.00000147,-0.00000819,0.00004798,-0.00002
 743,0.00001471,-0.00008058,-0.00005562,-0.00009028,-0.00405447,0.00205
 356,0.00161872,0.00000222,-0.00000166,-0.00000112,-0.00052172,-0.00071
 827,-0.00055392,-0.00733549,0.00890067,-0.00827094,0.00036767,-0.00024
 157,-0.00037311,-0.00427847,-0.00179457,0.00395735,0.06890307,-0.12108
 703,0.10175355,0.00159720,-0.00053971,-0.00173959,0.00074472,-0.000526
 78,0.00094438,0.01585161,-0.00830980,0.01803427,-0.07200975,0.12215658
 ,-0.00009566,-0.00002599,0.00004341,0.00001046,-0.00000061,0.00000769,
 0.00005050,-0.00001783,-0.00011671,0.00003034,-0.00000292,0.00000738,0
 .00009053,0.00045777,-0.00008054,0.00005493,-0.00013185,-0.00003674,-0
 .00002076,-0.00005330,0.00000839,-0.00007756,-0.00005842,-0.00009315,-
 0.00330650,0.00149544,0.00458858,-0.00001963,0.00004910,-0.00000060,0.
 00049903,-0.00061799,-0.00027463,-0.00307744,0.00520032,-0.00209291,0.
 00027474,-0.00039326,-0.00061513,-0.00033751,0.00429290,0.00390688,-0.
 10853356,0.10152166,-0.17571760,0.00154391,-0.00202741,-0.00189021,-0.
 00041155,0.00023000,-0.00031701,-0.00774911,0.00464663,-0.00452397,0.1
 1946795,-0.11277347,0.17888423,-0.00008457,-0.00001626,0.00004053,0.00
 000673,0.00000038,0.00000087,0.00000379,-0.00004652,-0.00004276,0.0000
 0334,0.00000073,0.00000107,-0.00023535,0.00022779,0.00033361,0.0000455
 5,-0.00011395,-0.00003712,-0.00000127,0.00002882,-0.00001421,-0.000005
 84,0.00000243,0.00000694,0.00028400,0.00050314,0.00036357,-0.00002142,
 0.00004535,0.00000737,0.00146072,0.00080103,-0.00419293,0.00236977,-0.
 00302929,-0.00068035,-0.00062513,-0.00043092,-0.00016933,-0.01057352,-
 0.00761629,-0.00279805,-0.00567170,-0.00151720,-0.00423964,-0.00039906
 ,-0.00008203,-0.00026619,-0.00005262,0.00127575,0.00155813,-0.27518466
 ,-0.09282822,-0.07634049,-0.00017130,0.00094341,0.00163790,0.28888498,
 -0.00000736,0.00000451,-0.00002275,-0.00000326,-0.00000204,0.00000069,
 0.00005580,0.00004484,-0.00000439,0.00003660,-0.00000135,-0.00002954,0
 .00034249,-0.00013824,-0.00043124,-0.00000733,-0.00002778,-0.00000152,
 -0.00000886,-0.00005222,0.00005891,-0.00009786,0.00002668,-0.00006294,
 0.00043636,-0.00093418,0.00024686,-0.00000170,0.00001557,-0.00000287,0
 .00022593,0.00103781,0.00482820,-0.00240619,-0.00187663,0.00511427,0.0
 0068403,0.00031232,0.00031705,0.01494432,0.00906819,0.00479719,-0.0242
 0069,-0.00494912,-0.00863615,-0.00123606,-0.00039970,-0.00036281,0.000
 65859,-0.00055735,-0.00225689,-0.09278752,-0.08733877,-0.01897780,0.00
 156113,-0.00018288,-0.00184056,0.10181016,0.08592834,0.00000718,-0.000
 00084,-0.00001850,0.00000082,-0.00000029,-0.00000004,0.00006007,0.0000
 4112,0.00000233,-0.00000554,0.00000462,-0.00000408,0.00049578,-0.00045
 244,-0.00040308,0.00001133,0.00001592,-0.00002588,-0.00008536,-0.00014
 841,0.00005805,0.00001348,0.00005490,-0.00000520,0.00022998,0.00023582
 ,-0.00098447,-0.00001055,-0.00000389,0.00001751,-0.00368036,0.00523950
 ,0.00132453,-0.00109734,0.00473904,0.00304965,-0.00101772,-0.00036473,
 -0.00018138,-0.01942182,-0.00875595,-0.00204777,0.01227177,0.00489697,
 0.00700189,0.00054554,0.00030801,0.00024508,0.00199245,-0.00189194,-0.
 00155272,-0.07631838,-0.01897347,-0.06891991,0.00118193,-0.00221000,-0
 .00170275,0.08482188,0.01726164,0.06414671,-0.24312651,0.00653363,0.18
 177168,0.01085079,0.00102484,-0.01119558,-0.02068827,0.00511726,0.0221
 1241,0.00075282,0.00072152,-0.00011005,-0.00501813,-0.00316122,-0.0035
 1983,0.00080775,-0.00011010,0.00024841,0.00035688,-0.00011638,-0.00042
 222,0.00025271,-0.00013387,-0.00003789,-0.00032322,0.00043203,0.001672
 83,0.00017270,0.00015172,0.00005335,-0.00034438,0.00001513,-0.00021117
 ,-0.00015253,-0.00016012,0.00003513,-0.00000317,0.00002193,0.00006170,
 0.00001354,-0.00014088,-0.00006581,0.00004357,-0.00000998,-0.00008845,
 0.00000586,0.00006205,0.00001743,-0.00004407,-0.00003391,-0.00001048,-
 0.00009662,-0.00004347,0.00000475,-0.00003655,-0.00000190,-0.00002221,
 -0.00002217,0.00000245,0.00000542,0.25701018,0.04093989,-0.01526200,-0
 .03922358,-0.01293135,-0.00213086,0.01424389,-0.01628008,-0.00666855,0
 .01005269,0.00062801,0.00041736,-0.00021342,-0.00022942,-0.00071123,-0
 .00097326,-0.00203914,-0.00018376,0.00124116,-0.00019793,0.00045251,0.
 00023591,0.00007128,-0.00006831,-0.00025821,-0.00028205,0.00079497,-0.
 00013732,0.00053127,0.00031826,0.00008534,0.00018340,0.00003354,0.0001
 1631,0.00000683,0.00000768,0.00000685,-0.00001379,-0.00000630,0.000009
 99,0.00004562,0.00005026,-0.00003335,-0.00001864,-0.00007320,-0.000029
 27,-0.00002858,0.00000563,0.00002063,0.00002255,0.00001239,0.00000569,
 -0.00000005,0.00004112,-0.00001519,0.00000977,-0.00000361,0.00000094,0
 .00000302,0.00000416,0.00000627,-0.01027271,0.02219888,0.18203974,-0.0
 0617899,-0.24451618,0.02539461,-0.00604494,-0.02182891,-0.01346118,-0.
 00168367,0.01122075,0.00019131,0.00032957,0.00053044,-0.00182019,-0.00
 114486,-0.00031080,-0.00120190,0.00063842,0.00112672,-0.00004365,0.000
 04747,-0.00018260,-0.00018960,-0.00014317,0.00031831,-0.00044815,0.000
 10324,0.00076783,0.00000401,-0.00024385,-0.00002021,-0.00012243,-0.000
 04515,-0.00009087,0.00002581,-0.00001795,0.00000696,-0.00000290,0.0000
 1108,0.00002076,0.00004857,-0.00003479,-0.00004126,0.00001369,-0.00005
 155,-0.00000703,0.00000125,0.00002735,0.00001655,-0.00001657,-0.000013
 72,0.00000501,-0.00007626,-0.00000998,-0.00002711,-0.00000944,0.000004
 47,-0.00001069,-0.00000993,0.00000122,0.00000181,-0.19052394,0.0146615
 8,0.25345791,0.00075865,0.00368591,0.00190124,0.00027113,0.00032576,0.
 00004775,0.01623424,-0.00106091,-0.00266595,0.00004084,-0.00055782,0.0
 0055144,-0.00266423,-0.00331989,0.00076455,-0.11279752,-0.03981062,-0.
 10159736,0.00077432,0.00003244,-0.00070669,-0.00011772,0.00017192,0.00
 022151,-0.00091193,0.00042847,0.00074863,0.00779620,-0.00839412,-0.100
 38648,-0.00021311,0.00063824,0.00013398,0.00018350,0.00008779,0.000576
 93,-0.00001465,-0.00008058,0.00002377,0.00021117,0.00008229,0.00013579
 ,0.00002227,-0.00006828,0.00000418,0.00001132,0.00000074,-0.00004941,-
 0.00000279,-0.00001665,-0.00000199,-0.00002386,0.00003436,-0.00009793,
 -0.00000207,-0.00000082,-0.00001475,-0.00001408,-0.00000216,-0.0000028
 2,-0.00027507,-0.00003224,0.00015520,0.11795025,-0.00219024,-0.0080584
 2,-0.00302352,-0.00038116,-0.00040992,0.00019812,-0.00590345,-0.003408
 92,-0.03206997,-0.00110065,0.00331890,-0.00030724,-0.00250567,-0.00464
 164,0.00114101,-0.01953728,-0.19703040,-0.09477935,0.00156382,-0.00054
 564,-0.00146082,0.00032082,-0.00004581,-0.00068287,-0.00118383,-0.0006
 1302,-0.00078636,0.02098869,0.09300820,0.06493068,0.00011397,-0.000035
 60,0.00043579,0.00044676,0.00018348,-0.00004510,-0.00003457,-0.0000287
 9,-0.00008117,0.00014959,0.00010438,0.00011184,-0.00014934,-0.00011858
 ,-0.00001025,-0.00009582,0.00001595,-0.00003853,0.00007630,0.00005975,
 -0.00000464,0.00022682,0.00021845,-0.00001175,0.00007743,-0.00000169,0
 .00005428,0.00004633,0.00001647,-0.00000015,0.00020378,0.00079250,-0.0
 0026088,0.04841743,0.13628971,0.00025636,-0.00515179,0.00014231,0.0007
 8465,0.00142319,0.00124225,-0.00646808,-0.00099513,-0.00203685,0.00036
 697,-0.00171282,0.00101950,-0.00088221,0.00012602,0.00098897,-0.090896
 75,-0.14709644,-0.34990332,0.00043419,-0.00010279,-0.00004371,-0.00007
 829,-0.00003333,0.00035813,-0.00051066,-0.00018816,-0.00029332,-0.0862
 4257,-0.00204105,-0.14852886,0.00017865,0.00006169,0.00000442,0.000213
 19,0.00006177,0.00007862,-0.00014173,-0.00005077,0.00009600,-0.0000217
 6,0.00000278,-0.00000023,0.00005719,-0.00001850,0.00004097,-0.00003055
 ,-0.00000752,-0.00002326,0.00003307,0.00002672,-0.00000221,0.00007820,
 0.00001622,0.00006129,0.00003143,0.00000252,0.00002609,0.00002275,0.00
 000211,0.00000593,0.00020867,0.00021236,-0.00047851,0.17469601,0.14795
 823,0.51354925,-0.00009447,0.00098133,0.00037505,-0.00029060,-0.000549
 35,-0.00012876,0.00504936,0.00082768,-0.00648691,-0.00040802,0.0016055
 2,-0.00023679,-0.00006816,-0.00129776,-0.00028959,0.04369810,0.0102958
 9,0.04607989,0.00020463,-0.00005684,-0.00040997,0.00021307,-0.00014259
 ,-0.00030635,-0.00010585,0.00004425,0.00003079,-0.03395813,0.03377711,
 0.02272575,0.00001947,-0.00010932,0.00002659,-0.00001856,-0.00000110,-
 0.00009184,0.00001231,0.00002063,-0.00000614,-0.00004801,-0.00000838,-
 0.00003134,0.00000135,0.00000478,0.00000761,-0.00000394,-0.00000782,0.
 00000890,0.00000502,0.00000533,0.00000156,0.00001794,-0.00000845,0.000
 01055,0.00000267,-0.00000011,0.00000593,0.00000379,0.00000113,0.000002
 25,-0.00013613,-0.00011567,0.00005195,-0.02721685,-0.03954972,0.007911
 29,0.01312100,-0.00004129,0.00068904,-0.00009427,-0.00005684,-0.000051
 17,-0.00017227,0.00191317,0.00035155,0.00054979,0.00019888,-0.00039414
 ,0.00039065,-0.00008890,-0.00044295,-0.00006241,0.01060565,-0.10378053
 ,-0.03318932,0.00002702,0.00001266,-0.00019004,-0.00001113,0.00002307,
 -0.00009307,-0.00001537,0.00004342,0.00003969,-0.00618145,-0.03593925,
 -0.01222323,-0.00003787,0.00003810,0.00002966,0.00004498,-0.00000441,0
 .00007675,0.00003198,0.00001301,-0.00004797,0.00005298,0.00003336,0.00
 004258,-0.00003390,-0.00001956,-0.00000742,-0.00000197,0.00000861,-0.0
 0000555,-0.00000451,-0.00000874,0.00000069,-0.00001061,0.00002185,-0.0
 0004482,-0.00000359,-0.00000026,-0.00000545,-0.00000764,0.00000134,-0.
 00000170,-0.00010181,-0.00002144,0.00004907,-0.00056126,-0.01906938,0.
 00750471,-0.00571651,0.15849582,-0.00136235,-0.00064167,-0.00143809,-0
 .00070339,-0.00132665,-0.00065674,-0.00512762,0.00172685,-0.00536223,-
 0.00035655,0.00270122,-0.00011107,0.00017879,0.00030396,-0.00023828,0.
 04590668,-0.03622558,0.11514177,-0.00015990,0.00000004,-0.00006999,0.0
 0036625,-0.00030318,-0.00051733,0.00021179,-0.00000180,-0.00007375,0.0
 0480842,0.07770887,0.00771907,-0.00005448,-0.00018305,0.00008837,-0.00
 003158,-0.00003461,-0.00011262,0.00006942,0.00005686,-0.00011511,0.000
 03373,0.00001243,0.00000561,-0.00008014,-0.00003384,-0.00005187,0.0000
 0113,0.00001121,0.00001361,-0.00000579,-0.00000039,0.00000508,-0.00001
 087,0.00005728,-0.00002741,-0.00000774,0.00000017,-0.00000002,-0.00000
 362,0.00000132,-0.00000771,0.00001586,-0.00001600,0.00004111,0.0255623
 9,-0.08126735,-0.01630349,-0.06925043,0.03745395,-0.09792890||0.000001
 59,-0.00000293,-0.00000656,0.00000261,-0.00000155,-0.00000646,-0.00000
 140,-0.00000112,-0.00000424,-0.00000095,-0.00000115,-0.00000318,0.0000
 0327,-0.00000132,-0.00000196,-0.00000283,-0.00000045,-0.00000280,0.000
 00307,0.00000014,-0.00000217,0.00000367,0.00000040,-0.00000169,0.00000
 055,0.00000012,0.00000124,0.00000133,-0.00000115,-0.00000428,0.0000009
 3,0.00000075,0.00000328,-0.00000056,0.00000076,0.00000292,0.00000201,0
 .00000147,0.00000122,0.00000023,0.00000202,0.00000544,-0.00000135,0.00
 000109,0.00000527,-0.00000153,0.00000035,0.00000178,0.00000071,0.00000
 193,0.00000621,-0.00000143,0.00000231,0.00000587,-0.00000266,0.0000013
 8,0.00000596,-0.00000196,0.00000220,0.00000837,-0.00000016,-0.00000205
 ,-0.00000777,-0.00000235,-0.00000172,-0.00000294,-0.00000281,-0.000001
 45,-0.00000353|||@


 THERE IS SOMETHING FASCINATING ABOUT SCIENCE.
 ONE GETS SUCH WHOLESALE CONJECTURE OUT OF SUCH TRIFLING INVESTMENTS.

                                                       -- MARK TWAIN
 Job cpu time:  0 days  2 hours 24 minutes 33.0 seconds.
 File lengths (MBytes):  RWF=    286 Int=      0 D2E=      0 Chk=     17 Scr=      1
 Normal termination of Gaussian 09 at Thu Apr 07 19:22:38 2016.
