 Entering Gaussian System, Link 0=g09
 Input=Ala-S-opt-freq-tsb1-6-31g.com
 Output=Ala-S-opt-freq-tsb1-6-31g.log
 Initial command:
 /usr/local/gau/g09/l1.exe "/tmp/Gau-7864.inp" -scrdir="/tmp/"
 Entering Link 1 = /usr/local/gau/g09/l1.exe PID=      7866.
  
 Copyright (c) 1988,1990,1992,1993,1995,1998,2003,2009,2013,
            Gaussian, Inc.  All Rights Reserved.
  
 This is part of the Gaussian(R) 09 program.  It is based on
 the Gaussian(R) 03 system (copyright 2003, Gaussian, Inc.),
 the Gaussian(R) 98 system (copyright 1998, Gaussian, Inc.),
 the Gaussian(R) 94 system (copyright 1995, Gaussian, Inc.),
 the Gaussian 92(TM) system (copyright 1992, Gaussian, Inc.),
 the Gaussian 90(TM) system (copyright 1990, Gaussian, Inc.),
 the Gaussian 88(TM) system (copyright 1988, Gaussian, Inc.),
 the Gaussian 86(TM) system (copyright 1986, Carnegie Mellon
 University), and the Gaussian 82(TM) system (copyright 1983,
 Carnegie Mellon University). Gaussian is a federally registered
 trademark of Gaussian, Inc.
  
 This software contains proprietary and confidential information,
 including trade secrets, belonging to Gaussian, Inc.
  
 This software is provided under written license and may be
 used, copied, transmitted, or stored only in accord with that
 written license.
  
 The following legend is applicable only to US Government
 contracts under FAR:
  
                    RESTRICTED RIGHTS LEGEND
  
 Use, reproduction and disclosure by the US Government is
 subject to restrictions as set forth in subparagraphs (a)
 and (c) of the Commercial Computer Software - Restricted
 Rights clause in FAR 52.227-19.
  
 Gaussian, Inc.
 340 Quinnipiac St., Bldg. 40, Wallingford CT 06492
  
  
 ---------------------------------------------------------------
 Warning -- This program may not be used in any manner that
 competes with the business of Gaussian, Inc. or will provide
 assistance to any competitor of Gaussian, Inc.  The licensee
 of this program is prohibited from giving any competitor of
 Gaussian, Inc. access to this program.  By using this program,
 the user acknowledges that Gaussian, Inc. is engaged in the
 business of creating and licensing software in the field of
 computational chemistry and represents and warrants to the
 licensee that it is not a competitor of Gaussian, Inc. and that
 it will not use this program in any manner prohibited above.
 ---------------------------------------------------------------
  

 Cite this work as:
 Gaussian 09, Revision D.01,
 M. J. Frisch, G. W. Trucks, H. B. Schlegel, G. E. Scuseria, 
 M. A. Robb, J. R. Cheeseman, G. Scalmani, V. Barone, B. Mennucci, 
 G. A. Petersson, H. Nakatsuji, M. Caricato, X. Li, H. P. Hratchian, 
 A. F. Izmaylov, J. Bloino, G. Zheng, J. L. Sonnenberg, M. Hada, 
 M. Ehara, K. Toyota, R. Fukuda, J. Hasegawa, M. Ishida, T. Nakajima, 
 Y. Honda, O. Kitao, H. Nakai, T. Vreven, J. A. Montgomery, Jr., 
 J. E. Peralta, F. Ogliaro, M. Bearpark, J. J. Heyd, E. Brothers, 
 K. N. Kudin, V. N. Staroverov, T. Keith, R. Kobayashi, J. Normand, 
 K. Raghavachari, A. Rendell, J. C. Burant, S. S. Iyengar, J. Tomasi, 
 M. Cossi, N. Rega, J. M. Millam, M. Klene, J. E. Knox, J. B. Cross, 
 V. Bakken, C. Adamo, J. Jaramillo, R. Gomperts, R. E. Stratmann, 
 O. Yazyev, A. J. Austin, R. Cammi, C. Pomelli, J. W. Ochterski, 
 R. L. Martin, K. Morokuma, V. G. Zakrzewski, G. A. Voth, 
 P. Salvador, J. J. Dannenberg, S. Dapprich, A. D. Daniels, 
 O. Farkas, J. B. Foresman, J. V. Ortiz, J. Cioslowski, 
 and D. J. Fox, Gaussian, Inc., Wallingford CT, 2013.
 
 ******************************************
 Gaussian 09:  ES64L-G09RevD.01 24-Apr-2013
                12-Apr-2016 
 ******************************************
 %chk=Ala-S-opt-freq-tsb1-6-31g.chk
 ------------------------------------------------
 #p opt=(calcfc,ts) freq rb3lyp/6-31g iop(1/11=1)
 ------------------------------------------------
 1/5=1,10=4,11=1,14=-1,18=20,26=3,38=1/1,3;
 2/9=110,12=2,17=6,18=5,40=1/2;
 3/5=1,6=6,11=2,16=1,25=1,30=1,71=2,74=-5,116=1,140=1/1,2,3;
 4//1;
 5/5=2,38=5/2;
 8/6=4,10=90,11=11/1;
 11/6=1,8=1,9=11,15=111,16=1/1,2,10;
 10/6=1,13=1/2;
 6/7=2,8=2,9=2,10=2,28=1/1;
 7/10=1,18=20,25=1/1,2,3,16;
 1/5=1,10=4,11=1,14=-1,18=20,26=3/3(2);
 2/9=110/2;
 99//99;
 2/9=110/2;
 3/5=1,6=6,11=2,16=1,25=1,30=1,71=1,74=-5,116=1/1,2,3;
 4/5=5,16=3,69=1/1;
 5/5=2,38=5/2;
 7//1,2,3,16;
 1/5=1,11=1,14=-1,18=20,26=3/3(-5);
 2/9=110/2;
 6/7=2,8=2,9=2,10=2,19=2,28=1/1;
 99/9=1/99;
 Leave Link    1 at Tue Apr 12 20:42:05 2016, MaxMem=           0 cpu:         0.0
 (Enter /usr/local/gau/g09/l101.exe)
 -------------------------
 Ala-S-opt-freq-tsb1-6-31g
 -------------------------
 Symbolic Z-matrix:
 Charge =  0 Multiplicity = 1
 N                    -1.33552  -1.07141  -0.44876 
 H                    -1.11277  -1.64375   0.36 
 C                    -0.5744    0.17267  -0.41638 
 H                    -0.15068  -0.94889   0.30651 
 C                    -1.11831   1.25477   0.54466 
 C                     0.85472  -0.15396  -0.01695 
 H                    -1.12819   0.88517   1.57371 
 H                    -0.51765   2.16696   0.50153 
 H                    -2.1429    1.51026   0.26169 
 O                     1.18724  -1.08366   0.67434 
 H                    -2.3325   -0.88833  -0.45201 
 O                     1.73348   0.76154  -0.48714 
 H                     2.60963   0.51885  -0.15079 
 
 Add virtual bond connecting atoms H4         and H2         Dist= 2.24D+00.
 Add virtual bond connecting atoms H4         and C6         Dist= 2.50D+00.
 NAtoms=     13 NQM=       13 NQMF=       0 NMMI=      0 NMMIF=      0
                NMic=       0 NMicF=      0.
                    Isotopes and Nuclear Properties:
 (Nuclear quadrupole moments (NQMom) in fm**2, nuclear magnetic moments (NMagM)
  in nuclear magnetons)

  Atom         1           2           3           4           5           6           7           8           9          10
 IAtWgt=          14           1          12           1          12          12           1           1           1          16
 AtmWgt=  14.0030740   1.0078250  12.0000000   1.0078250  12.0000000  12.0000000   1.0078250   1.0078250   1.0078250  15.9949146
 NucSpn=           2           1           0           1           0           0           1           1           1           0
 AtZEff=   0.0000000   0.0000000   0.0000000   0.0000000   0.0000000   0.0000000   0.0000000   0.0000000   0.0000000   0.0000000
 NQMom=    2.0440000   0.0000000   0.0000000   0.0000000   0.0000000   0.0000000   0.0000000   0.0000000   0.0000000   0.0000000
 NMagM=    0.4037610   2.7928460   0.0000000   2.7928460   0.0000000   0.0000000   2.7928460   2.7928460   2.7928460   0.0000000
 AtZNuc=   7.0000000   1.0000000   6.0000000   1.0000000   6.0000000   6.0000000   1.0000000   1.0000000   1.0000000   8.0000000

  Atom        11          12          13
 IAtWgt=           1          16           1
 AtmWgt=   1.0078250  15.9949146   1.0078250
 NucSpn=           1           0           1
 AtZEff=   0.0000000   0.0000000   0.0000000
 NQMom=    0.0000000   0.0000000   0.0000000
 NMagM=    2.7928460   0.0000000   2.7928460
 AtZNuc=   1.0000000   8.0000000   1.0000000
 Leave Link  101 at Tue Apr 12 20:42:05 2016, MaxMem=    33554432 cpu:         0.1
 (Enter /usr/local/gau/g09/l103.exe)

 GradGradGradGradGradGradGradGradGradGradGradGradGradGradGradGradGradGrad
 Berny optimization.
 Initialization pass.
                           ----------------------------
                           !    Initial Parameters    !
                           ! (Angstroms and Degrees)  !
 --------------------------                            --------------------------
 ! Name  Definition              Value          Derivative Info.                !
 --------------------------------------------------------------------------------
 ! R1    R(1,2)                  1.0155         calculate D2E/DX2 analytically  !
 ! R2    R(1,3)                  1.4588         calculate D2E/DX2 analytically  !
 ! R3    R(1,11)                 1.0137         calculate D2E/DX2 analytically  !
 ! R4    R(2,4)                  1.188          calculate D2E/DX2 analytically  !
 ! R5    R(3,5)                  1.5461         calculate D2E/DX2 analytically  !
 ! R6    R(3,6)                  1.5194         calculate D2E/DX2 analytically  !
 ! R7    R(4,6)                  1.3219         calculate D2E/DX2 analytically  !
 ! R8    R(5,7)                  1.0935         calculate D2E/DX2 analytically  !
 ! R9    R(5,8)                  1.093          calculate D2E/DX2 analytically  !
 ! R10   R(5,9)                  1.0932         calculate D2E/DX2 analytically  !
 ! R11   R(6,10)                 1.2053         calculate D2E/DX2 analytically  !
 ! R12   R(6,12)                 1.3533         calculate D2E/DX2 analytically  !
 ! R13   R(12,13)                0.9694         calculate D2E/DX2 analytically  !
 ! A1    A(2,1,3)              110.397          calculate D2E/DX2 analytically  !
 ! A2    A(2,1,11)             108.6676         calculate D2E/DX2 analytically  !
 ! A3    A(3,1,11)             111.0515         calculate D2E/DX2 analytically  !
 ! A4    A(1,2,4)               79.1708         calculate D2E/DX2 analytically  !
 ! A5    A(1,3,5)              115.2856         calculate D2E/DX2 analytically  !
 ! A6    A(1,3,6)              108.2548         calculate D2E/DX2 analytically  !
 ! A7    A(5,3,6)              108.5388         calculate D2E/DX2 analytically  !
 ! A8    A(3,5,7)              110.5846         calculate D2E/DX2 analytically  !
 ! A9    A(3,5,8)              111.4838         calculate D2E/DX2 analytically  !
 ! A10   A(3,5,9)              109.4138         calculate D2E/DX2 analytically  !
 ! A11   A(7,5,8)              108.9163         calculate D2E/DX2 analytically  !
 ! A12   A(7,5,9)              108.308          calculate D2E/DX2 analytically  !
 ! A13   A(8,5,9)              108.0458         calculate D2E/DX2 analytically  !
 ! A14   A(3,6,4)               58.548          calculate D2E/DX2 analytically  !
 ! A15   A(3,6,10)             125.1745         calculate D2E/DX2 analytically  !
 ! A16   A(3,6,12)             111.962          calculate D2E/DX2 analytically  !
 ! A17   A(4,6,10)              66.7738         calculate D2E/DX2 analytically  !
 ! A18   A(10,6,12)            122.815          calculate D2E/DX2 analytically  !
 ! A19   A(6,12,13)            107.2766         calculate D2E/DX2 analytically  !
 ! A20   L(2,4,6,3,-1)         172.0794         calculate D2E/DX2 analytically  !
 ! A21   L(4,6,12,3,-1)        170.51           calculate D2E/DX2 analytically  !
 ! A22   L(2,4,6,3,-2)         189.2796         calculate D2E/DX2 analytically  !
 ! A23   L(4,6,12,3,-2)        182.2358         calculate D2E/DX2 analytically  !
 ! D1    D(3,1,2,4)            -21.7835         calculate D2E/DX2 analytically  !
 ! D2    D(11,1,2,4)          -143.7985         calculate D2E/DX2 analytically  !
 ! D3    D(2,1,3,5)            -78.2711         calculate D2E/DX2 analytically  !
 ! D4    D(2,1,3,6)             43.4703         calculate D2E/DX2 analytically  !
 ! D5    D(11,1,3,5)            42.328          calculate D2E/DX2 analytically  !
 ! D6    D(11,1,3,6)           164.0694         calculate D2E/DX2 analytically  !
 ! D7    D(1,2,6,3)             27.0936         calculate D2E/DX2 analytically  !
 ! D8    D(1,2,6,10)          -161.4861         calculate D2E/DX2 analytically  !
 ! D9    D(1,2,12,13)         -158.4257         calculate D2E/DX2 analytically  !
 ! D10   D(1,3,5,7)             60.0762         calculate D2E/DX2 analytically  !
 ! D11   D(1,3,5,8)           -178.5935         calculate D2E/DX2 analytically  !
 ! D12   D(1,3,5,9)            -59.1421         calculate D2E/DX2 analytically  !
 ! D13   D(6,3,5,7)            -61.5121         calculate D2E/DX2 analytically  !
 ! D14   D(6,3,5,8)             59.8182         calculate D2E/DX2 analytically  !
 ! D15   D(6,3,5,9)            179.2696         calculate D2E/DX2 analytically  !
 ! D16   D(1,3,6,4)            -23.8783         calculate D2E/DX2 analytically  !
 ! D17   D(1,3,6,10)           -28.5941         calculate D2E/DX2 analytically  !
 ! D18   D(1,3,6,12)           153.8859         calculate D2E/DX2 analytically  !
 ! D19   D(5,3,6,4)            101.9243         calculate D2E/DX2 analytically  !
 ! D20   D(5,3,6,10)            97.2085         calculate D2E/DX2 analytically  !
 ! D21   D(5,3,6,12)           -80.3115         calculate D2E/DX2 analytically  !
 ! D22   D(3,6,12,13)          176.6707         calculate D2E/DX2 analytically  !
 ! D23   D(10,6,12,13)          -0.9173         calculate D2E/DX2 analytically  !
 --------------------------------------------------------------------------------
 Trust Radius=3.00D-01 FncErr=1.00D-07 GrdErr=1.00D-06
 Number of steps in this run=     69 maximum allowed number of steps=    100.
 Search for a saddle point of order  1.
 GradGradGradGradGradGradGradGradGradGradGradGradGradGradGradGradGradGrad

 Leave Link  103 at Tue Apr 12 20:42:05 2016, MaxMem=    33554432 cpu:         0.0
 (Enter /usr/local/gau/g09/l202.exe)
                          Input orientation:                          
 ---------------------------------------------------------------------
 Center     Atomic      Atomic             Coordinates (Angstroms)
 Number     Number       Type             X           Y           Z
 ---------------------------------------------------------------------
      1          7           0       -1.335517   -1.071408   -0.448760
      2          1           0       -1.112772   -1.643753    0.360004
      3          6           0       -0.574399    0.172672   -0.416376
      4          1           0       -0.150685   -0.948891    0.306509
      5          6           0       -1.118312    1.254770    0.544661
      6          6           0        0.854722   -0.153959   -0.016949
      7          1           0       -1.128191    0.885173    1.573713
      8          1           0       -0.517654    2.166959    0.501525
      9          1           0       -2.142895    1.510261    0.261688
     10          8           0        1.187243   -1.083664    0.674338
     11          1           0       -2.332500   -0.888332   -0.452013
     12          8           0        1.733476    0.761538   -0.487136
     13          1           0        2.609626    0.518850   -0.150792
 ---------------------------------------------------------------------
                    Distance matrix (angstroms):
                    1          2          3          4          5
     1  N    0.000000
     2  H    1.015526   0.000000
     3  C    1.458796   2.047440   0.000000
     4  H    1.410415   1.187985   1.400000   0.000000
     5  C    2.538733   2.904404   1.546082   2.418500   0.000000
     6  C    2.413570   2.496520   1.519413   1.321886   2.488531
     7  H    2.821629   2.805137   2.185131   2.434156   1.093457
     8  H    3.472602   3.859497   2.196120   3.143440   1.093041
     9  H    2.796714   3.319431   2.170045   3.165176   1.093215
    10  O    2.761488   2.388006   2.423101   1.394099   3.286438
    11  H    1.013658   1.648566   2.053757   2.310702   2.657160
    12  O    3.574896   3.821544   2.382867   2.665614   3.072552
    13  H    4.264019   4.335206   3.213781   3.159541   3.862998
                    6          7          8          9         10
     6  C    0.000000
     7  H    2.746260   0.000000
     8  H    2.745704   1.779134   0.000000
     9  H    3.439909   1.772504   1.769232   0.000000
    10  O    1.205321   3.169610   3.674655   4.241291   0.000000
    11  H    3.299541   2.949448   3.679362   2.509695   3.700731
    12  O    1.353299   3.528671   2.832004   4.018405   2.247702
    13  H    1.884217   4.132721   3.594671   4.872319   2.296098
                   11         12         13
    11  H    0.000000
    12  O    4.388105   0.000000
    13  H    5.147378   0.969362   0.000000
 Stoichiometry    C3H7NO2
 Framework group  C1[X(C3H7NO2)]
 Deg. of freedom    33
 Full point group                 C1      NOp   1
 Largest Abelian subgroup         C1      NOp   1
 Largest concise Abelian subgroup C1      NOp   1
                         Standard orientation:                         
 ---------------------------------------------------------------------
 Center     Atomic      Atomic             Coordinates (Angstroms)
 Number     Number       Type             X           Y           Z
 ---------------------------------------------------------------------
      1          7           0       -1.433085   -1.040369   -0.479100
      2          1           0       -1.230951   -1.600726    0.343357
      3          6           0       -0.652710    0.191985   -0.459036
      4          1           0       -0.257220   -0.922208    0.290738
      5          6           0       -1.192763    1.300503    0.473649
      6          6           0        0.765229   -0.149444   -0.033017
      7          1           0       -1.223068    0.950660    1.509187
      8          1           0       -0.577051    2.202158    0.422112
      9          1           0       -2.209036    1.566661    0.171212
     10          8           0        1.073058   -1.071003    0.680264
     11          1           0       -2.426869   -0.841741   -0.500143
     12          8           0        1.665052    0.743061   -0.507541
     13          1           0        2.532377    0.493046   -0.154125
 ---------------------------------------------------------------------
 Rotational constants (GHZ):      5.1134155      3.0818354      2.3260127
 Leave Link  202 at Tue Apr 12 20:42:05 2016, MaxMem=    33554432 cpu:         0.0
 (Enter /usr/local/gau/g09/l301.exe)
 Standard basis: 6-31G (6D, 7F)
 Ernie: Thresh=  0.10000D-02 Tol=  0.10000D-05 Strict=F.
 There are    68 symmetry adapted cartesian basis functions of A   symmetry.
 There are    68 symmetry adapted basis functions of A   symmetry.
    68 basis functions,   160 primitive gaussians,    68 cartesian basis functions
    24 alpha electrons       24 beta electrons
       nuclear repulsion energy       251.9883514031 Hartrees.
 IExCor=  402 DFT=T Ex+Corr=B3LYP ExCW=0 ScaHFX=  0.200000
 ScaDFX=  0.800000  0.720000  1.000000  0.810000 ScalE2=  1.000000  1.000000
 IRadAn=      0 IRanWt=     -1 IRanGd=            0 ICorTp=0 IEmpDi=  4
 NAtoms=   13 NActive=   13 NUniq=   13 SFac= 1.00D+00 NAtFMM=   60 NAOKFM=F Big=F
 Integral buffers will be    131072 words long.
 Raffenetti 2 integral format.
 Two-electron integral symmetry is turned on.
 Leave Link  301 at Tue Apr 12 20:42:05 2016, MaxMem=    33554432 cpu:         0.0
 (Enter /usr/local/gau/g09/l302.exe)
 NPDir=0 NMtPBC=     1 NCelOv=     1 NCel=       1 NClECP=     1 NCelD=      1
         NCelK=      1 NCelE2=     1 NClLst=     1 CellRange=     0.0.
 One-electron integrals computed using PRISM.
 NBasis=    68 RedAO= T EigKep=  5.08D-03  NBF=    68
 NBsUse=    68 1.00D-06 EigRej= -1.00D+00 NBFU=    68
 Precomputing XC quadrature grid using
 IXCGrd= 4 IRadAn=           0 IRanWt=          -1 IRanGd=           0 AccXCQ= 0.00D+00.
 Generated NRdTot=       0 NPtTot=           0 NUsed=           0 NTot=          32
 NSgBfM=    68    68    68    68    68 MxSgAt=    13 MxSgA2=    13.
 Leave Link  302 at Tue Apr 12 20:42:06 2016, MaxMem=    33554432 cpu:         0.2
 (Enter /usr/local/gau/g09/l303.exe)
 DipDrv:  MaxL=1.
 Leave Link  303 at Tue Apr 12 20:42:06 2016, MaxMem=    33554432 cpu:         0.0
 (Enter /usr/local/gau/g09/l401.exe)
 ExpMin= 1.61D-01 ExpMax= 5.48D+03 ExpMxC= 8.25D+02 IAcc=1 IRadAn=         1 AccDes= 0.00D+00
 Harris functional with IExCor=  402 and IRadAn=       1 diagonalized for initial guess.
 HarFok:  IExCor=  402 AccDes= 0.00D+00 IRadAn=         1 IDoV= 1 UseB2=F ITyADJ=14
 ICtDFT=  3500011 ScaDFX=  1.000000  1.000000  1.000000  1.000000
 FoFCou: FMM=F IPFlag=           0 FMFlag=      100000 FMFlg1=           0
         NFxFlg=           0 DoJE=T BraDBF=F KetDBF=T FulRan=T
         wScrn=  0.000000 ICntrl=     500 IOpCl=  0 I1Cent=   200000004 NGrid=           0
         NMat0=    1 NMatS0=      1 NMatT0=    0 NMatD0=    1 NMtDS0=    0 NMtDT0=    0
 Petite list used in FoFCou.
 Harris En= -323.426000422585    
 JPrj=0 DoOrth=F DoCkMO=F.
 Leave Link  401 at Tue Apr 12 20:42:07 2016, MaxMem=    33554432 cpu:         0.5
 (Enter /usr/local/gau/g09/l502.exe)
 Closed shell SCF:
 Using DIIS extrapolation, IDIIS=  1040.
 Integral symmetry usage will be decided dynamically.
 Keep R1 ints in memory in canonical form, NReq=3676491.
 IVT=       33364 IEndB=       33364 NGot=    33554432 MDV=    30768038
 LenX=    30768038 LenY=    30762973
 Requested convergence on RMS density matrix=1.00D-08 within 128 cycles.
 Requested convergence on MAX density matrix=1.00D-06.
 Requested convergence on             energy=1.00D-06.
 No special actions if energy rises.
 FoFCou: FMM=F IPFlag=           0 FMFlag=           0 FMFlg1=           0
         NFxFlg=           0 DoJE=F BraDBF=F KetDBF=F FulRan=T
         wScrn=  0.000000 ICntrl=     600 IOpCl=  0 I1Cent=           0 NGrid=           0
         NMat0=    1 NMatS0=   2346 NMatT0=    0 NMatD0=    1 NMtDS0=    0 NMtDT0=    0
 Symmetry not used in FoFCou.
 Integral accuracy reduced to 1.0D-05 until final iterations.

 Cycle   1  Pass 0  IDiag  1:
 E= -323.124988934928    
 DIIS: error= 4.14D-02 at cycle   1 NSaved=   1.
 NSaved= 1 IEnMin= 1 EnMin= -323.124988934928     IErMin= 1 ErrMin= 4.14D-02
 ErrMax= 4.14D-02  0.00D+00 EMaxC= 1.00D-01 BMatC= 2.28D-01 BMatP= 2.28D-01
 IDIUse=3 WtCom= 5.86D-01 WtEn= 4.14D-01
 Coeff-Com:  0.100D+01
 Coeff-En:   0.100D+01
 Coeff:      0.100D+01
 Gap=     0.035 Goal=   None    Shift=    0.000
 GapD=    0.035 DampG=0.250 DampE=0.500 DampFc=0.2500 IDamp=-1.
 Damping current iteration by 2.50D-01
 RMSDP=2.28D-02 MaxDP=2.58D-01              OVMax= 4.32D-01

 Cycle   2  Pass 0  IDiag  1:
 E= -323.206793329117     Delta-E=       -0.081804394189 Rises=F Damp=T
 DIIS: error= 1.97D-02 at cycle   2 NSaved=   2.
 NSaved= 2 IEnMin= 2 EnMin= -323.206793329117     IErMin= 2 ErrMin= 1.97D-02
 ErrMax= 1.97D-02  0.00D+00 EMaxC= 1.00D-01 BMatC= 4.17D-02 BMatP= 2.28D-01
 IDIUse=3 WtCom= 8.03D-01 WtEn= 1.97D-01
 Coeff-Com: -0.620D+00 0.162D+01
 Coeff-En:   0.000D+00 0.100D+01
 Coeff:     -0.498D+00 0.150D+01
 Gap=     0.134 Goal=   None    Shift=    0.000
 RMSDP=6.75D-03 MaxDP=7.36D-02 DE=-8.18D-02 OVMax= 3.73D-01

 Cycle   3  Pass 0  IDiag  1:
 E= -323.322988947591     Delta-E=       -0.116195618474 Rises=F Damp=F
 DIIS: error= 2.06D-02 at cycle   3 NSaved=   3.
 NSaved= 3 IEnMin= 3 EnMin= -323.322988947591     IErMin= 2 ErrMin= 1.97D-02
 ErrMax= 2.06D-02  0.00D+00 EMaxC= 1.00D-01 BMatC= 2.94D-02 BMatP= 4.17D-02
 IDIUse=3 WtCom= 7.94D-01 WtEn= 2.06D-01
 Coeff-Com: -0.376D+00 0.103D+01 0.349D+00
 Coeff-En:   0.000D+00 0.000D+00 0.100D+01
 Coeff:     -0.298D+00 0.815D+00 0.483D+00
 Gap=     0.144 Goal=   None    Shift=    0.000
 RMSDP=4.51D-03 MaxDP=5.42D-02 DE=-1.16D-01 OVMax= 1.11D-01

 Cycle   4  Pass 0  IDiag  1:
 E= -323.342344065500     Delta-E=       -0.019355117909 Rises=F Damp=F
 DIIS: error= 1.20D-02 at cycle   4 NSaved=   4.
 NSaved= 4 IEnMin= 4 EnMin= -323.342344065500     IErMin= 4 ErrMin= 1.20D-02
 ErrMax= 1.20D-02  0.00D+00 EMaxC= 1.00D-01 BMatC= 1.00D-02 BMatP= 2.94D-02
 IDIUse=3 WtCom= 8.80D-01 WtEn= 1.20D-01
 Coeff-Com: -0.139D+00 0.394D+00 0.333D+00 0.412D+00
 Coeff-En:   0.000D+00 0.000D+00 0.275D+00 0.725D+00
 Coeff:     -0.123D+00 0.347D+00 0.326D+00 0.450D+00
 Gap=     0.146 Goal=   None    Shift=    0.000
 RMSDP=1.90D-03 MaxDP=2.28D-02 DE=-1.94D-02 OVMax= 4.18D-02

 Cycle   5  Pass 0  IDiag  1:
 E= -323.350146857989     Delta-E=       -0.007802792489 Rises=F Damp=F
 DIIS: error= 3.31D-03 at cycle   5 NSaved=   5.
 NSaved= 5 IEnMin= 5 EnMin= -323.350146857989     IErMin= 5 ErrMin= 3.31D-03
 ErrMax= 3.31D-03  0.00D+00 EMaxC= 1.00D-01 BMatC= 7.93D-04 BMatP= 1.00D-02
 IDIUse=3 WtCom= 9.67D-01 WtEn= 3.31D-02
 Coeff-Com: -0.184D-01 0.493D-01 0.114D+00 0.293D+00 0.562D+00
 Coeff-En:   0.000D+00 0.000D+00 0.000D+00 0.819D-01 0.918D+00
 Coeff:     -0.178D-01 0.477D-01 0.110D+00 0.286D+00 0.574D+00
 Gap=     0.148 Goal=   None    Shift=    0.000
 RMSDP=4.77D-04 MaxDP=4.93D-03 DE=-7.80D-03 OVMax= 9.52D-03

 Cycle   6  Pass 0  IDiag  1:
 E= -323.350775700752     Delta-E=       -0.000628842763 Rises=F Damp=F
 DIIS: error= 8.63D-04 at cycle   6 NSaved=   6.
 NSaved= 6 IEnMin= 6 EnMin= -323.350775700752     IErMin= 6 ErrMin= 8.63D-04
 ErrMax= 8.63D-04  0.00D+00 EMaxC= 1.00D-01 BMatC= 4.89D-05 BMatP= 7.93D-04
 IDIUse=3 WtCom= 9.91D-01 WtEn= 8.63D-03
 Coeff-Com: -0.235D-02 0.341D-02 0.377D-01 0.136D+00 0.351D+00 0.475D+00
 Coeff-En:   0.000D+00 0.000D+00 0.000D+00 0.000D+00 0.000D+00 0.100D+01
 Coeff:     -0.233D-02 0.338D-02 0.374D-01 0.134D+00 0.348D+00 0.479D+00
 Gap=     0.148 Goal=   None    Shift=    0.000
 RMSDP=1.18D-04 MaxDP=1.51D-03 DE=-6.29D-04 OVMax= 2.32D-03

 Cycle   7  Pass 0  IDiag  1:
 E= -323.350814037609     Delta-E=       -0.000038336857 Rises=F Damp=F
 DIIS: error= 1.37D-04 at cycle   7 NSaved=   7.
 NSaved= 7 IEnMin= 7 EnMin= -323.350814037609     IErMin= 7 ErrMin= 1.37D-04
 ErrMax= 1.37D-04  0.00D+00 EMaxC= 1.00D-01 BMatC= 2.15D-06 BMatP= 4.89D-05
 IDIUse=3 WtCom= 9.99D-01 WtEn= 1.37D-03
 Coeff-Com: -0.964D-03-0.810D-04-0.116D-02 0.107D-01 0.681D-01 0.207D+00
 Coeff-Com:  0.716D+00
 Coeff-En:   0.000D+00 0.000D+00 0.000D+00 0.000D+00 0.000D+00 0.000D+00
 Coeff-En:   0.100D+01
 Coeff:     -0.962D-03-0.809D-04-0.116D-02 0.107D-01 0.680D-01 0.207D+00
 Coeff:      0.716D+00
 Gap=     0.148 Goal=   None    Shift=    0.000
 RMSDP=3.63D-05 MaxDP=4.72D-04 DE=-3.83D-05 OVMax= 7.87D-04

 Cycle   8  Pass 0  IDiag  1:
 E= -323.350816041226     Delta-E=       -0.000002003617 Rises=F Damp=F
 DIIS: error= 4.85D-05 at cycle   8 NSaved=   8.
 NSaved= 8 IEnMin= 8 EnMin= -323.350816041226     IErMin= 8 ErrMin= 4.85D-05
 ErrMax= 4.85D-05  0.00D+00 EMaxC= 1.00D-01 BMatC= 1.85D-07 BMatP= 2.15D-06
 IDIUse=1 WtCom= 1.00D+00 WtEn= 0.00D+00
 Coeff-Com: -0.695D-03 0.295D-03-0.307D-02-0.179D-02 0.172D-01 0.793D-01
 Coeff-Com:  0.360D+00 0.548D+00
 Coeff:     -0.695D-03 0.295D-03-0.307D-02-0.179D-02 0.172D-01 0.793D-01
 Coeff:      0.360D+00 0.548D+00
 Gap=     0.148 Goal=   None    Shift=    0.000
 RMSDP=9.19D-06 MaxDP=8.82D-05 DE=-2.00D-06 OVMax= 1.40D-04

 Initial convergence to 1.0D-05 achieved.  Increase integral accuracy.
 Cycle   9  Pass 1  IDiag  1:
 E= -323.350881412283     Delta-E=       -0.000065371057 Rises=F Damp=F
 DIIS: error= 1.50D-05 at cycle   1 NSaved=   1.
 NSaved= 1 IEnMin= 1 EnMin= -323.350881412283     IErMin= 1 ErrMin= 1.50D-05
 ErrMax= 1.50D-05  0.00D+00 EMaxC= 1.00D-01 BMatC= 3.13D-08 BMatP= 3.13D-08
 IDIUse=1 WtCom= 1.00D+00 WtEn= 0.00D+00
 Coeff-Com:  0.100D+01
 Coeff:      0.100D+01
 Gap=     0.148 Goal=   None    Shift=    0.000
 RMSDP=9.19D-06 MaxDP=8.82D-05 DE=-6.54D-05 OVMax= 1.87D-04

 Cycle  10  Pass 1  IDiag  1:
 E= -323.350881394535     Delta-E=        0.000000017748 Rises=F Damp=F
 DIIS: error= 2.53D-05 at cycle   2 NSaved=   2.
 NSaved= 2 IEnMin= 1 EnMin= -323.350881412283     IErMin= 1 ErrMin= 1.50D-05
 ErrMax= 2.53D-05  0.00D+00 EMaxC= 1.00D-01 BMatC= 6.65D-08 BMatP= 3.13D-08
 IDIUse=1 WtCom= 1.00D+00 WtEn= 0.00D+00
 Coeff-Com:  0.611D+00 0.389D+00
 Coeff:      0.611D+00 0.389D+00
 Gap=     0.148 Goal=   None    Shift=    0.000
 RMSDP=6.20D-06 MaxDP=7.06D-05 DE= 1.77D-08 OVMax= 1.77D-04

 Cycle  11  Pass 1  IDiag  1:
 E= -323.350881456623     Delta-E=       -0.000000062088 Rises=F Damp=F
 DIIS: error= 1.10D-05 at cycle   3 NSaved=   3.
 NSaved= 3 IEnMin= 3 EnMin= -323.350881456623     IErMin= 3 ErrMin= 1.10D-05
 ErrMax= 1.10D-05  0.00D+00 EMaxC= 1.00D-01 BMatC= 7.91D-09 BMatP= 3.13D-08
 IDIUse=1 WtCom= 1.00D+00 WtEn= 0.00D+00
 Coeff-Com:  0.126D+00 0.252D+00 0.622D+00
 Coeff:      0.126D+00 0.252D+00 0.622D+00
 Gap=     0.148 Goal=   None    Shift=    0.000
 RMSDP=2.12D-06 MaxDP=2.53D-05 DE=-6.21D-08 OVMax= 3.87D-05

 Cycle  12  Pass 1  IDiag  1:
 E= -323.350881462003     Delta-E=       -0.000000005380 Rises=F Damp=F
 DIIS: error= 5.40D-06 at cycle   4 NSaved=   4.
 NSaved= 4 IEnMin= 4 EnMin= -323.350881462003     IErMin= 4 ErrMin= 5.40D-06
 ErrMax= 5.40D-06  0.00D+00 EMaxC= 1.00D-01 BMatC= 2.35D-09 BMatP= 7.91D-09
 IDIUse=1 WtCom= 1.00D+00 WtEn= 0.00D+00
 Coeff-Com: -0.221D-01 0.118D+00 0.438D+00 0.466D+00
 Coeff:     -0.221D-01 0.118D+00 0.438D+00 0.466D+00
 Gap=     0.148 Goal=   None    Shift=    0.000
 RMSDP=7.03D-07 MaxDP=8.74D-06 DE=-5.38D-09 OVMax= 1.33D-05

 Cycle  13  Pass 1  IDiag  1:
 E= -323.350881463975     Delta-E=       -0.000000001972 Rises=F Damp=F
 DIIS: error= 6.61D-07 at cycle   5 NSaved=   5.
 NSaved= 5 IEnMin= 5 EnMin= -323.350881463975     IErMin= 5 ErrMin= 6.61D-07
 ErrMax= 6.61D-07  0.00D+00 EMaxC= 1.00D-01 BMatC= 4.93D-11 BMatP= 2.35D-09
 IDIUse=1 WtCom= 1.00D+00 WtEn= 0.00D+00
 Coeff-Com: -0.157D-01 0.529D-01 0.187D+00 0.214D+00 0.562D+00
 Coeff:     -0.157D-01 0.529D-01 0.187D+00 0.214D+00 0.562D+00
 Gap=     0.148 Goal=   None    Shift=    0.000
 RMSDP=1.94D-07 MaxDP=1.77D-06 DE=-1.97D-09 OVMax= 5.20D-06

 Cycle  14  Pass 1  IDiag  1:
 E= -323.350881464019     Delta-E=       -0.000000000044 Rises=F Damp=F
 DIIS: error= 3.62D-07 at cycle   6 NSaved=   6.
 NSaved= 6 IEnMin= 6 EnMin= -323.350881464019     IErMin= 6 ErrMin= 3.62D-07
 ErrMax= 3.62D-07  0.00D+00 EMaxC= 1.00D-01 BMatC= 1.28D-11 BMatP= 4.93D-11
 IDIUse=1 WtCom= 1.00D+00 WtEn= 0.00D+00
 Coeff-Com: -0.416D-02 0.628D-02 0.327D-02 0.575D-02 0.317D+00 0.672D+00
 Coeff:     -0.416D-02 0.628D-02 0.327D-02 0.575D-02 0.317D+00 0.672D+00
 Gap=     0.148 Goal=   None    Shift=    0.000
 RMSDP=1.30D-07 MaxDP=1.33D-06 DE=-4.38D-11 OVMax= 2.65D-06

 Cycle  15  Pass 1  IDiag  1:
 E= -323.350881464036     Delta-E=       -0.000000000017 Rises=F Damp=F
 DIIS: error= 8.83D-08 at cycle   7 NSaved=   7.
 NSaved= 7 IEnMin= 7 EnMin= -323.350881464036     IErMin= 7 ErrMin= 8.83D-08
 ErrMax= 8.83D-08  0.00D+00 EMaxC= 1.00D-01 BMatC= 9.28D-13 BMatP= 1.28D-11
 IDIUse=1 WtCom= 1.00D+00 WtEn= 0.00D+00
 Coeff-Com:  0.563D-03-0.446D-02-0.275D-01-0.333D-01 0.595D-01 0.272D+00
 Coeff-Com:  0.733D+00
 Coeff:      0.563D-03-0.446D-02-0.275D-01-0.333D-01 0.595D-01 0.272D+00
 Coeff:      0.733D+00
 Gap=     0.148 Goal=   None    Shift=    0.000
 RMSDP=4.98D-08 MaxDP=4.85D-07 DE=-1.69D-11 OVMax= 1.26D-06

 Cycle  16  Pass 1  IDiag  1:
 E= -323.350881464036     Delta-E=        0.000000000000 Rises=F Damp=F
 DIIS: error= 4.23D-08 at cycle   8 NSaved=   8.
 NSaved= 8 IEnMin= 8 EnMin= -323.350881464036     IErMin= 8 ErrMin= 4.23D-08
 ErrMax= 4.23D-08  0.00D+00 EMaxC= 1.00D-01 BMatC= 1.73D-13 BMatP= 9.28D-13
 IDIUse=1 WtCom= 1.00D+00 WtEn= 0.00D+00
 Coeff-Com:  0.621D-03-0.220D-02-0.112D-01-0.148D-01-0.416D-02 0.431D-01
 Coeff-Com:  0.374D+00 0.615D+00
 Coeff:      0.621D-03-0.220D-02-0.112D-01-0.148D-01-0.416D-02 0.431D-01
 Coeff:      0.374D+00 0.615D+00
 Gap=     0.148 Goal=   None    Shift=    0.000
 RMSDP=1.31D-08 MaxDP=1.31D-07 DE=-2.27D-13 OVMax= 3.51D-07

 Cycle  17  Pass 1  IDiag  1:
 E= -323.350881464036     Delta-E=        0.000000000000 Rises=F Damp=F
 DIIS: error= 7.20D-09 at cycle   9 NSaved=   9.
 NSaved= 9 IEnMin= 9 EnMin= -323.350881464036     IErMin= 9 ErrMin= 7.20D-09
 ErrMax= 7.20D-09  0.00D+00 EMaxC= 1.00D-01 BMatC= 7.44D-15 BMatP= 1.73D-13
 IDIUse=1 WtCom= 1.00D+00 WtEn= 0.00D+00
 Coeff-Com:  0.185D-03-0.499D-03-0.213D-02-0.332D-02-0.706D-02-0.110D-01
 Coeff-Com:  0.884D-01 0.226D+00 0.709D+00
 Coeff:      0.185D-03-0.499D-03-0.213D-02-0.332D-02-0.706D-02-0.110D-01
 Coeff:      0.884D-01 0.226D+00 0.709D+00
 Gap=     0.148 Goal=   None    Shift=    0.000
 RMSDP=3.25D-09 MaxDP=3.09D-08 DE=-3.41D-13 OVMax= 6.91D-08

 SCF Done:  E(RB3LYP) =  -323.350881464     A.U. after   17 cycles
            NFock= 17  Conv=0.33D-08     -V/T= 2.0031
 KE= 3.223571234053D+02 PE=-1.260657121474D+03 EE= 3.629607652015D+02
 Leave Link  502 at Tue Apr 12 20:42:30 2016, MaxMem=    33554432 cpu:        17.0
 (Enter /usr/local/gau/g09/l801.exe)
 DoSCS=F DFT=T ScalE2(SS,OS)=  1.000000  1.000000
 Range of M.O.s used for correlation:     1    68
 NBasis=    68 NAE=    24 NBE=    24 NFC=     0 NFV=     0
 NROrb=     68 NOA=    24 NOB=    24 NVA=    44 NVB=    44
 Leave Link  801 at Tue Apr 12 20:42:30 2016, MaxMem=    33554432 cpu:         0.0
 (Enter /usr/local/gau/g09/l1101.exe)
 Using compressed storage, NAtomX=    13.
 Will process     14 centers per pass.
 Leave Link 1101 at Tue Apr 12 20:42:30 2016, MaxMem=    33554432 cpu:         0.1
 (Enter /usr/local/gau/g09/l1102.exe)
 Symmetrizing basis deriv contribution to polar:
 IMax=3 JMax=2 DiffMx= 0.00D+00
 Leave Link 1102 at Tue Apr 12 20:42:30 2016, MaxMem=    33554432 cpu:         0.0
 (Enter /usr/local/gau/g09/l1110.exe)
 Forming Gx(P) for the SCF density, NAtomX=    13.
 Integral derivatives from FoFJK, PRISM(SPDF).
 Do as many integral derivatives as possible in FoFJK.
 G2DrvN: MDV=      33554224.
 G2DrvN: will do    14 centers at a time, making    1 passes.
 Calling FoFCou, ICntrl=  3107 FMM=F I1Cent=   0 AccDes= 0.00D+00.
 FoFJK:  IHMeth= 1 ICntrl=    3107 DoSepK=F KAlg= 0 I1Cent=   0 FoldK=F
 IRaf=         0 NMat=   1 IRICut=       1 DoRegI=T DoRafI=F ISym2E= 0.
 FoFCou: FMM=F IPFlag=           0 FMFlag=      100000 FMFlg1=           0
         NFxFlg=           0 DoJE=F BraDBF=F KetDBF=F FulRan=T
         wScrn=  0.000000 ICntrl=    3107 IOpCl=  0 I1Cent=           0 NGrid=           0
         NMat0=    1 NMatS0=      1 NMatT0=    0 NMatD0=    1 NMtDS0=    0 NMtDT0=    0
 Symmetry not used in FoFCou.
 End of G2Drv F.D. properties file   721 does not exist.
 End of G2Drv F.D. properties file   722 does not exist.
 End of G2Drv F.D. properties file   788 does not exist.
 Leave Link 1110 at Tue Apr 12 20:43:00 2016, MaxMem=    33554432 cpu:        28.6
 (Enter /usr/local/gau/g09/l1002.exe)
 Minotr:  Closed shell wavefunction.
          IDoAtm=1111111111111
          Direct CPHF calculation.
          Differentiating once with respect to nuclear coordinates.
          Requested convergence is 1.0D-08 RMS, and 1.0D-07 maximum.
          Secondary convergence is 1.0D-12 RMS, and 1.0D-12 maximum.
          NewPWx=T KeepS1=F KeepF1=F KeepIn=T MapXYZ=F SortEE=F KeepMc=T.
          MDV=      33554230 using IRadAn=       2.
 Generate precomputed XC quadrature information.
 Keep R1 ints in memory in canonical form, NReq=3645290.
 FoFCou: FMM=F IPFlag=           0 FMFlag=           0 FMFlg1=           0
         NFxFlg=           0 DoJE=F BraDBF=F KetDBF=F FulRan=T
         wScrn=  0.000000 ICntrl=     600 IOpCl=  0 I1Cent=           0 NGrid=           0
         NMat0=    1 NMatS0=   2346 NMatT0=    0 NMatD0=    1 NMtDS0=    0 NMtDT0=    0
 Symmetry not used in FoFCou.
          Solving linear equations simultaneously, MaxMat=       0.
          There are    42 degrees of freedom in the 1st order CPHF.  IDoFFX=6 NUNeed=     0.
     36 vectors produced by pass  0 Test12= 2.51D-15 2.38D-09 XBig12= 2.13D-01 1.44D-01.
 AX will form    36 AO Fock derivatives at one time.
     36 vectors produced by pass  1 Test12= 2.51D-15 2.38D-09 XBig12= 2.11D-02 3.31D-02.
     36 vectors produced by pass  2 Test12= 2.51D-15 2.38D-09 XBig12= 1.28D-04 2.46D-03.
     36 vectors produced by pass  3 Test12= 2.51D-15 2.38D-09 XBig12= 2.64D-07 1.49D-04.
     36 vectors produced by pass  4 Test12= 2.51D-15 2.38D-09 XBig12= 2.83D-10 2.40D-06.
     20 vectors produced by pass  5 Test12= 2.51D-15 2.38D-09 XBig12= 1.50D-13 5.06D-08.
 InvSVY:  IOpt=1 It=  1 EMax= 2.33D-15
 Solved reduced A of dimension   200 with    36 vectors.
 End of Minotr F.D. properties file   721 does not exist.
 End of Minotr F.D. properties file   722 does not exist.
 End of Minotr F.D. properties file   788 does not exist.
 Leave Link 1002 at Tue Apr 12 20:43:27 2016, MaxMem=    33554432 cpu:        18.6
 (Enter /usr/local/gau/g09/l601.exe)
 Copying SCF densities to generalized density rwf, IOpCl= 0 IROHF=0.

 **********************************************************************

            Population analysis using the SCF density.

 **********************************************************************

 Orbital symmetries:
       Occupied  (A) (A) (A) (A) (A) (A) (A) (A) (A) (A) (A) (A)
                 (A) (A) (A) (A) (A) (A) (A) (A) (A) (A) (A) (A)
       Virtual   (A) (A) (A) (A) (A) (A) (A) (A) (A) (A) (A) (A)
                 (A) (A) (A) (A) (A) (A) (A) (A) (A) (A) (A) (A)
                 (A) (A) (A) (A) (A) (A) (A) (A) (A) (A) (A) (A)
                 (A) (A) (A) (A) (A) (A) (A) (A)
 The electronic state is 1-A.
 Alpha  occ. eigenvalues --  -19.20168 -19.19771 -14.35394 -10.35222 -10.20397
 Alpha  occ. eigenvalues --  -10.18549  -1.18717  -1.08299  -0.97051  -0.76679
 Alpha  occ. eigenvalues --   -0.69621  -0.63550  -0.56426  -0.51646  -0.50198
 Alpha  occ. eigenvalues --   -0.48359  -0.42682  -0.41843  -0.41096  -0.38715
 Alpha  occ. eigenvalues --   -0.34651  -0.34252  -0.28552  -0.16769
 Alpha virt. eigenvalues --   -0.01982   0.01211   0.06455   0.11369   0.13088
 Alpha virt. eigenvalues --    0.13607   0.16349   0.19055   0.19468   0.23417
 Alpha virt. eigenvalues --    0.26815   0.29551   0.41686   0.50909   0.55625
 Alpha virt. eigenvalues --    0.56516   0.57925   0.62050   0.64065   0.67481
 Alpha virt. eigenvalues --    0.70568   0.72697   0.74033   0.77214   0.80654
 Alpha virt. eigenvalues --    0.82718   0.85255   0.90468   0.91558   0.92810
 Alpha virt. eigenvalues --    0.95341   0.96189   0.96435   1.00420   1.02693
 Alpha virt. eigenvalues --    1.04182   1.05700   1.13446   1.28076   1.33915
 Alpha virt. eigenvalues --    1.57739   1.59375   1.83694   1.93215
          Condensed to atoms (all electrons):
               1          2          3          4          5          6
     1  N    7.113648   0.264177   0.156141   0.056159  -0.090022  -0.108523
     2  H    0.264177   0.627889  -0.129828  -0.064177   0.013969  -0.006132
     3  C    0.156141  -0.129828   5.782349   0.033895   0.283014   0.364900
     4  H    0.056159  -0.064177   0.033895   0.715638  -0.003955  -0.140515
     5  C   -0.090022   0.013969   0.283014  -0.003955   5.205307  -0.051646
     6  C   -0.108523  -0.006132   0.364900  -0.140515  -0.051646   5.230998
     7  H    0.012167   0.011291  -0.091253  -0.017663   0.361563  -0.001215
     8  H    0.005092  -0.000327  -0.021566   0.001352   0.351411  -0.002256
     9  H   -0.006671  -0.002037  -0.027589   0.001318   0.365750   0.002362
    10  O   -0.010894   0.024967  -0.214699   0.076046   0.007000   0.213459
    11  H    0.326666  -0.034761  -0.026707  -0.009440  -0.005507   0.009012
    12  O    0.000203  -0.000870  -0.096894   0.026468  -0.000515   0.151912
    13  H   -0.000263   0.000146   0.009569  -0.003514  -0.000690  -0.019850
               7          8          9         10         11         12
     1  N    0.012167   0.005092  -0.006671  -0.010894   0.326666   0.000203
     2  H    0.011291  -0.000327  -0.002037   0.024967  -0.034761  -0.000870
     3  C   -0.091253  -0.021566  -0.027589  -0.214699  -0.026707  -0.096894
     4  H   -0.017663   0.001352   0.001318   0.076046  -0.009440   0.026468
     5  C    0.361563   0.351411   0.365750   0.007000  -0.005507  -0.000515
     6  C   -0.001215  -0.002256   0.002362   0.213459   0.009012   0.151912
     7  H    0.692173  -0.029430  -0.050116   0.006778  -0.002267  -0.000733
     8  H   -0.029430   0.543241  -0.022395   0.000019   0.000087   0.003336
     9  H   -0.050116  -0.022395   0.588238  -0.000287   0.006860   0.000133
    10  O    0.006778   0.000019  -0.000287   8.407939  -0.000297  -0.110965
    11  H   -0.002267   0.000087   0.006860  -0.000297   0.413892   0.000013
    12  O   -0.000733   0.003336   0.000133  -0.110965   0.000013   8.323563
    13  H    0.000161  -0.000161   0.000005   0.002360   0.000006   0.223529
              13
     1  N   -0.000263
     2  H    0.000146
     3  C    0.009569
     4  H   -0.003514
     5  C   -0.000690
     6  C   -0.019850
     7  H    0.000161
     8  H   -0.000161
     9  H    0.000005
    10  O    0.002360
    11  H    0.000006
    12  O    0.223529
    13  H    0.421783
 Mulliken charges:
               1
     1  N   -0.717880
     2  H    0.295693
     3  C   -0.021333
     4  H    0.328387
     5  C   -0.435679
     6  C    0.357492
     7  H    0.108545
     8  H    0.171598
     9  H    0.144427
    10  O   -0.401427
    11  H    0.322442
    12  O   -0.519182
    13  H    0.366918
 Sum of Mulliken charges =   0.00000
 Mulliken charges with hydrogens summed into heavy atoms:
               1
     1  N   -0.099745
     3  C   -0.021333
     5  C   -0.011110
     6  C    0.685879
    10  O   -0.401427
    12  O   -0.152264
 APT charges:
               1
     1  N   -1.212002
     2  H    0.279702
     3  C    0.204752
     4  H    0.366719
     5  C   -1.237753
     6  C   -0.019466
     7  H    0.258039
     8  H    0.384087
     9  H    0.485371
    10  O   -0.189335
    11  H    0.667201
    12  O   -0.646638
    13  H    0.659324
 Sum of APT charges =   0.00000
 APT charges with hydrogens summed into heavy atoms:
               1
     1  N   -0.265099
     3  C    0.204752
     5  C   -0.110257
     6  C    0.347252
    10  O   -0.189335
    12  O    0.012686
 Electronic spatial extent (au):  <R**2>=            574.4384
 Charge=              0.0000 electrons
 Dipole moment (field-independent basis, Debye):
    X=             -0.6691    Y=              0.1364    Z=              2.5238  Tot=              2.6145
 Quadrupole moment (field-independent basis, Debye-Ang):
   XX=            -26.9204   YY=            -39.8246   ZZ=            -42.2906
   XY=              2.2115   XZ=             -1.7402   YZ=              0.6281
 Traceless Quadrupole moment (field-independent basis, Debye-Ang):
   XX=              9.4248   YY=             -3.4794   ZZ=             -5.9454
   XY=              2.2115   XZ=             -1.7402   YZ=              0.6281
 Octapole moment (field-independent basis, Debye-Ang**2):
  XXX=             13.4633  YYY=              0.7079  ZZZ=              4.9736  XYY=             -1.4387
  XXY=              0.0995  XXZ=             -0.7658  XZZ=              3.5552  YZZ=              0.2506
  YYZ=              3.8856  XYZ=              6.7413
 Hexadecapole moment (field-independent basis, Debye-Ang**3):
 XXXX=           -269.9136 YYYY=           -235.6594 ZZZZ=           -101.2813 XXXY=             25.2477
 XXXZ=              6.0595 YYYX=              6.0565 YYYZ=             -7.2540 ZZZX=             -2.4019
 ZZZY=             -4.7471 XXYY=           -106.0431 XXZZ=            -85.1354 YYZZ=            -61.8228
 XXYZ=              0.6351 YYXZ=             -5.8340 ZZXY=              0.5759
 N-N= 2.519883514031D+02 E-N=-1.260657120771D+03  KE= 3.223571234053D+02
  Exact polarizability:   0.000   0.000   0.000   0.000   0.000   0.000
 Approx polarizability:  94.436  -4.025  71.485  14.807 -17.984  53.126
 No NMR shielding tensors so no spin-rotation constants.
 Leave Link  601 at Tue Apr 12 20:43:27 2016, MaxMem=    33554432 cpu:         0.1
 (Enter /usr/local/gau/g09/l701.exe)
 Compute integral second derivatives.
 ... and contract with generalized density number  0.
 Leave Link  701 at Tue Apr 12 20:43:27 2016, MaxMem=    33554432 cpu:         0.1
 (Enter /usr/local/gau/g09/l702.exe)
 L702 exits ... SP integral derivatives will be done elsewhere.
 Leave Link  702 at Tue Apr 12 20:43:27 2016, MaxMem=    33554432 cpu:         0.0
 (Enter /usr/local/gau/g09/l703.exe)
 Compute integral second derivatives, UseDBF=F ICtDFT=           0.
 Integral derivatives from FoFJK, PRISM(SPDF).
 Calling FoFJK, ICntrl=    100147 FMM=F ISym2X=0 I1Cent= 0 IOpClX= 0 NMat=1 NMatS=1 NMatT=0.
 FoFJK:  IHMeth= 1 ICntrl=  100147 DoSepK=F KAlg= 0 I1Cent=   0 FoldK=F
 IRaf=         0 NMat=   1 IRICut=       1 DoRegI=T DoRafI=F ISym2E= 0.
 FoFCou: FMM=F IPFlag=           0 FMFlag=      100000 FMFlg1=         800
         NFxFlg=           0 DoJE=F BraDBF=F KetDBF=F FulRan=T
         wScrn=  0.000000 ICntrl=  100147 IOpCl=  0 I1Cent=           0 NGrid=           0
         NMat0=    1 NMatS0=      1 NMatT0=    0 NMatD0=    1 NMtDS0=    0 NMtDT0=    0
 Symmetry not used in FoFCou.
 Leave Link  703 at Tue Apr 12 20:44:06 2016, MaxMem=    33554432 cpu:        29.2
 (Enter /usr/local/gau/g09/l716.exe)
 Dipole        =-2.63234987D-01 5.36599785D-02 9.92932601D-01
 Polarizability= 0.00000000D+00 0.00000000D+00 0.00000000D+00
                 0.00000000D+00 0.00000000D+00 0.00000000D+00
 ***** Axes restored to original set *****
 -------------------------------------------------------------------
 Center     Atomic                   Forces (Hartrees/Bohr)
 Number     Number              X              Y              Z
 -------------------------------------------------------------------
      1        7          -0.028113572   -0.024177793   -0.005807132
      2        1          -0.038110924   -0.041276453    0.015027659
      3        6           0.053037488    0.021402599    0.021074696
      4        1          -0.001532065    0.005795531    0.029106896
      5        6           0.000861461   -0.002999563   -0.013297511
      6        6          -0.043724916    0.145714774   -0.124867633
      7        1          -0.003335876    0.001835464    0.009357496
      8        1           0.000040618   -0.000458342   -0.000566654
      9        1          -0.001619173    0.002196377   -0.000572853
     10        8           0.036406116   -0.115506637    0.065441981
     11        1          -0.001288526   -0.004096764   -0.006126140
     12        8           0.008670909    0.006100757    0.005844314
     13        1           0.018708460    0.005470049    0.005384881
 -------------------------------------------------------------------
 Cartesian Forces:  Max     0.145714774 RMS     0.041751350
 Force constants in Cartesian coordinates: 
                1             2             3             4             5 
      1  0.661529D+00
      2 -0.792715D-02  0.371745D+00
      3  0.107911D+00 -0.178660D+00  0.261352D+00
      4 -0.642313D-01  0.282440D-01 -0.483400D-01  0.888778D-01
      5  0.507662D-01 -0.135983D+00  0.153644D+00  0.613091D-03  0.175118D+00
      6 -0.114383D+00  0.172803D+00 -0.246856D+00  0.728880D-01 -0.189189D+00
      7 -0.126689D+00 -0.594085D-01  0.400175D-02 -0.729716D-02 -0.555310D-02
      8 -0.129754D+00 -0.183840D+00  0.117848D-01 -0.267244D-01 -0.197194D-01
      9 -0.246476D-02 -0.126731D-01 -0.549541D-02  0.269738D-01  0.118722D-01
     10 -0.234353D-01 -0.333355D-01 -0.268078D-01 -0.270335D-01 -0.465718D-01
     11  0.458797D-01  0.292567D-01  0.112005D-01 -0.308715D-01 -0.193343D-01
     12 -0.987311D-02 -0.973568D-02  0.288559D-02 -0.975487D-02  0.723262D-02
     13  0.348851D-02 -0.287704D-01 -0.948628D-02 -0.894950D-03 -0.110549D-02
     14  0.822722D-02 -0.365196D-01 -0.205828D-01  0.111916D-02 -0.106571D-02
     15  0.133439D-03  0.421524D-02 -0.585560D-02  0.295044D-02  0.402228D-02
     16 -0.470647D-01  0.163488D-01 -0.487115D-02  0.150406D-01  0.492085D-02
     17 -0.518090D-01 -0.161332D-01 -0.133212D-01 -0.916512D-02 -0.276326D-03
     18 -0.114660D-01  0.209333D-01 -0.881945D-02  0.957182D-02  0.488557D-02
     19  0.123641D-03  0.536713D-03 -0.695609D-03  0.539241D-03  0.458426D-03
     20  0.998505D-03  0.654056D-02  0.109443D-02  0.908856D-03 -0.606114D-03
     21 -0.377633D-02 -0.738183D-03  0.305215D-02 -0.113966D-02 -0.712891D-03
     22 -0.575689D-03  0.324398D-02  0.362491D-03  0.194068D-03  0.455187D-03
     23  0.258002D-02 -0.436365D-02 -0.201527D-02  0.110891D-03 -0.335381D-03
     24  0.117985D-02 -0.609622D-02 -0.693043D-03  0.826951D-04 -0.114513D-02
     25  0.332724D-02 -0.499272D-03  0.369743D-03 -0.816737D-04  0.502807D-03
     26  0.932524D-03  0.264071D-02  0.203668D-02 -0.678925D-03 -0.128504D-03
     27  0.244156D-03  0.217046D-02  0.586621D-03 -0.473915D-03  0.126689D-03
     28  0.239266D-01  0.196130D-01  0.453314D-02  0.253384D-02 -0.465619D-02
     29 -0.961936D-02  0.183398D-01  0.394436D-02  0.134308D-01  0.246535D-02
     30  0.926603D-02 -0.681672D-02  0.117231D-02 -0.514574D-02 -0.283185D-02
     31 -0.424857D+00  0.629617D-01 -0.287204D-01 -0.690655D-02  0.236729D-02
     32  0.887864D-01 -0.453971D-01  0.306523D-01  0.253357D-01 -0.106028D-02
     33  0.233975D-01  0.203440D-01 -0.633080D-02 -0.447219D-01  0.130245D-01
     34 -0.478412D-02 -0.350241D-03 -0.880485D-03 -0.518984D-04 -0.156348D-02
     35  0.666772D-03 -0.538402D-02 -0.496356D-03 -0.210075D-02  0.150107D-02
     36 -0.169940D-02 -0.289250D-02  0.351779D-02 -0.163859D-02 -0.589999D-03
     37 -0.758497D-03 -0.657136D-03  0.262320D-02 -0.688491D-03 -0.633844D-03
     38  0.271813D-03 -0.901725D-03  0.718476D-03 -0.221915D-03 -0.574591D-03
     39  0.153039D-02 -0.285354D-02  0.148324D-02 -0.125200D-02 -0.338746D-03
                6             7             8             9            10 
      6  0.225386D+00
      7  0.188534D-01  0.408031D+00
      8 -0.131465D-01  0.551300D-01  0.397736D+00
      9  0.118269D-01 -0.320883D-01  0.840329D-01  0.130199D+00
     10  0.105634D-01  0.296360D-01  0.371425D-01  0.152362D-01  0.663453D-01
     11  0.296163D-01  0.304882D-01  0.251836D-01 -0.184353D-01  0.113217D+00
     12  0.203531D-01 -0.278539D-01  0.351871D-01 -0.316396D-01 -0.353207D-01
     13 -0.234903D-02 -0.838798D-01  0.311726D-01  0.266096D-01 -0.690995D-02
     14 -0.289910D-03  0.356796D-02 -0.984624D-01 -0.293682D-01 -0.664307D-02
     15  0.500033D-02  0.451992D-01 -0.624819D-01 -0.824253D-01  0.317233D-02
     16 -0.546432D-02 -0.133452D+00 -0.741035D-02 -0.998019D-02 -0.175507D-01
     17  0.550365D-02 -0.396726D-02 -0.972494D-01 -0.130895D-01 -0.132388D+00
     18 -0.251206D-02 -0.135484D-01 -0.445642D-01 -0.334953D-01  0.625720D-01
     19 -0.646182D-03 -0.484998D-02  0.170396D-02  0.139062D-01  0.193396D-03
     20  0.250397D-02  0.841887D-02  0.173341D-03 -0.261588D-01  0.237608D-02
     21 -0.163979D-02  0.135328D-01 -0.611596D-02 -0.184895D-01  0.132013D-02
     22  0.165149D-03  0.631753D-02  0.104031D-01 -0.355357D-04  0.826743D-03
     23 -0.404258D-03 -0.116849D-01 -0.150173D-01  0.205391D-03 -0.206622D-02
     24 -0.837338D-03 -0.127832D-01 -0.146639D-01 -0.635459D-04 -0.152028D-02
     25 -0.456769D-03 -0.112338D-01  0.167872D-02  0.833021D-03 -0.125112D-02
     26  0.703498D-04  0.210084D-01 -0.873806D-02 -0.114646D-02  0.159815D-02
     27 -0.343384D-03  0.213134D-01 -0.834487D-02  0.244941D-02  0.797414D-03
     28  0.100919D-01 -0.987154D-02  0.478758D-01 -0.393423D-01 -0.156071D-01
     29 -0.817473D-02  0.242667D-01 -0.111664D-01  0.117191D-01  0.671726D-01
     30  0.109851D-02 -0.563550D-02  0.315838D-01  0.119679D-01 -0.288060D-01
     31  0.731524D-02 -0.202595D-01  0.289410D-02  0.464085D-02 -0.194336D-02
     32 -0.243391D-03 -0.472093D-01 -0.728139D-02 -0.221018D-02 -0.290704D-03
     33 -0.114700D-01 -0.636790D-02 -0.184868D-01  0.848088D-02  0.451378D-02
     34  0.370191D-02 -0.493043D-01 -0.166763D-01 -0.348227D-02 -0.131437D-02
     35  0.303685D-03 -0.100504D-01  0.178749D-01 -0.470804D-02  0.192909D-02
     36 -0.250449D-03 -0.373956D-02  0.896829D-03  0.508211D-02 -0.445877D-02
     37 -0.279559D-03  0.285263D-02 -0.743592D-02 -0.806258D-03 -0.195600D-02
     38  0.646955D-03 -0.500655D-02  0.506155D-03 -0.399158D-04 -0.213979D-02
     39  0.243595D-03 -0.883683D-03  0.431877D-02  0.160264D-02 -0.126169D-02
               11            12            13            14            15 
     11 -0.447381D-01
     12 -0.162408D-01 -0.122687D-01
     13 -0.571391D-05  0.694729D-02  0.570151D+00
     14 -0.631899D-02 -0.975708D-02  0.423956D-01  0.521284D+00
     15 -0.824530D-02  0.942724D-02  0.361353D-01 -0.662272D-01  0.474634D+00
     16 -0.915135D-01  0.534205D-01 -0.222266D-01  0.300804D-01 -0.781463D-02
     17  0.653383D-01 -0.342325D-01  0.353905D-01 -0.123100D-01  0.123143D-01
     18 -0.988691D-02  0.412643D-01  0.162021D-01  0.513423D-02 -0.184944D-01
     19  0.356235D-04  0.873239D-03 -0.486838D-01 -0.245115D-02 -0.293460D-02
     20 -0.958607D-03 -0.113496D-02 -0.231545D-02 -0.802497D-01  0.843156D-01
     21  0.306527D-02  0.717742D-03 -0.671456D-02  0.930309D-01 -0.269698D+00
     22  0.929012D-03  0.556584D-03 -0.132480D+00 -0.127298D+00  0.662588D-02
     23 -0.604309D-03 -0.108428D-02 -0.125185D+00 -0.234960D+00  0.114828D-01
     24  0.361268D-03 -0.747093D-03  0.760983D-02  0.124458D-01 -0.493496D-01
     25 -0.228573D-02  0.243613D-03 -0.281289D+00  0.551604D-01 -0.698375D-01
     26  0.176611D-02 -0.268411D-02  0.553383D-01 -0.592476D-01  0.202872D-01
     27  0.130543D-02 -0.223970D-02 -0.688360D-01  0.178293D-01 -0.666997D-01
     28 -0.704946D-01  0.220249D-01 -0.239747D-02 -0.116948D-02 -0.165329D-01
     29 -0.355650D-01  0.278855D-01 -0.734863D-02  0.117843D-01 -0.466957D-02
     30 -0.386751D-02 -0.146426D-01 -0.430048D-02 -0.500354D-02 -0.811654D-03
     31 -0.385068D-03  0.355914D-02  0.411977D-02  0.174657D-02  0.208587D-03
     32 -0.554204D-02 -0.294910D-02 -0.163445D-02  0.366015D-02 -0.458781D-03
     33  0.750124D-02 -0.959106D-02  0.102456D-03  0.252573D-02  0.270081D-02
     34  0.417987D-02 -0.383151D-02  0.108459D-02 -0.577408D-02  0.325446D-02
     35 -0.109148D-01  0.981196D-02  0.223817D-02 -0.736399D-02  0.478581D-02
     36  0.551060D-02 -0.460120D-02 -0.149432D-02  0.449714D-03  0.108832D-02
     37  0.827008D-03 -0.991163D-03 -0.822814D-04  0.103877D-02 -0.559903D-03
     38  0.243156D-02 -0.229862D-02 -0.169591D-03 -0.229983D-03  0.659528D-03
     39 -0.188474D-02  0.108198D-02 -0.425928D-03 -0.186889D-03  0.483083D-03
               16            17            18            19            20 
     16  0.590962D+00
     17  0.132239D-01  0.754121D+00
     18  0.774868D-01 -0.394449D+00  0.392360D+00
     19  0.368612D-02 -0.158135D-02  0.799660D-02  0.490424D-01
     20 -0.465366D-02  0.200649D-02 -0.764102D-02 -0.405831D-02  0.855726D-01
     21 -0.840833D-02  0.240740D-02 -0.463972D-02 -0.157893D-02 -0.914301D-01
     22  0.419509D-03  0.570839D-03 -0.863300D-03  0.652986D-03  0.194735D-02
     23 -0.261502D-02 -0.244200D-02  0.179201D-02 -0.667678D-02 -0.917754D-02
     24 -0.121893D-03 -0.922731D-03  0.179481D-02  0.182652D-01  0.272841D-01
     25  0.156646D-02  0.185553D-02  0.517750D-03 -0.195816D-03 -0.817847D-03
     26 -0.288346D-03 -0.662348D-02  0.432841D-04  0.119425D-01 -0.284542D-02
     27  0.992373D-04 -0.491625D-02  0.168176D-03 -0.312268D-01  0.745567D-02
     28 -0.133456D+00  0.272013D+00 -0.188119D+00  0.114139D-02 -0.337110D-02
     29  0.140170D+00 -0.506015D+00  0.362673D+00  0.121490D-02 -0.188052D-02
     30 -0.137815D+00  0.386662D+00 -0.289877D+00 -0.285752D-02  0.275008D-02
     31  0.237599D-03 -0.217728D-02 -0.109673D-02 -0.196497D-03 -0.184410D-03
     32 -0.221816D-02 -0.117528D-01  0.886188D-04  0.336322D-03 -0.464780D-03
     33  0.278707D-02 -0.215328D-02 -0.230469D-02 -0.517773D-03  0.153722D-03
     34 -0.205369D+00 -0.131237D+00  0.579367D-01 -0.142460D-02  0.746511D-03
     35 -0.549343D-01 -0.171092D+00  0.669262D-01 -0.143998D-02  0.169466D-02
     36  0.200965D-01  0.537013D-01 -0.826702D-01 -0.587072D-03  0.593855D-03
     37 -0.527934D-01  0.927166D-02 -0.171905D-01 -0.285356D-04  0.458824D-05
     38 -0.411110D-01  0.242837D-02 -0.593518D-02 -0.209264D-04  0.194964D-03
     39  0.205854D-01  0.249627D-02  0.722497D-02  0.331891D-05  0.213381D-03
               21            22            23            24            25 
     21  0.300442D+00
     22 -0.101223D-02  0.141953D+00
     23 -0.301662D-03  0.137215D+00  0.256809D+00
     24 -0.112047D-02 -0.871358D-02 -0.106021D-01  0.512329D-01
     25  0.809047D-03 -0.165552D-01  0.583429D-02 -0.546114D-02  0.306706D+00
     26  0.459612D-02 -0.274173D-01  0.736241D-02 -0.805834D-02 -0.640875D-01
     27 -0.940648D-02  0.188286D-02  0.161590D-03  0.225668D-03  0.737000D-01
     28  0.487114D-02 -0.962995D-04  0.123841D-02  0.905016D-03 -0.717728D-03
     29 -0.576897D-02 -0.242997D-03 -0.477721D-04  0.611235D-03  0.568748D-03
     30  0.232100D-02  0.496258D-03 -0.238223D-03 -0.461945D-03 -0.715206D-03
     31 -0.548342D-03  0.110776D-03  0.691524D-03  0.665170D-03 -0.398112D-03
     32 -0.456986D-03  0.219258D-03  0.711161D-03  0.640921D-03  0.169281D-02
     33 -0.138456D-02  0.210825D-03  0.876561D-03  0.154941D-03  0.134061D-03
     34  0.295017D-02 -0.779016D-03  0.389177D-03 -0.121132D-03  0.504862D-04
     35  0.229416D-02 -0.394075D-04  0.195224D-02 -0.107303D-03  0.312108D-03
     36 -0.353643D-03  0.173691D-03  0.205247D-03 -0.141109D-03 -0.255768D-04
     37 -0.304865D-03  0.116659D-04  0.169032D-03  0.135291D-04  0.719369D-04
     38  0.130879D-03  0.142779D-04  0.113534D-03  0.252442D-03  0.849106D-04
     39  0.198645D-03  0.150898D-03 -0.778058D-04  0.579945D-05 -0.111013D-03
               26            27            28            29            30 
     26  0.654509D-01
     27 -0.159023D-01  0.733232D-01
     28  0.307388D-02  0.335252D-02  0.101383D+00
     29  0.103879D-02  0.212483D-03 -0.225098D+00  0.558098D+00
     30  0.115340D-02  0.187206D-02  0.166620D+00 -0.438569D+00  0.298076D+00
     31 -0.128779D-02 -0.105857D-02  0.297452D-02 -0.220754D-03  0.735555D-03
     32 -0.926389D-03  0.148282D-03  0.372430D-02  0.386105D-02  0.178079D-03
     33 -0.736110D-03  0.179588D-03  0.378808D-02  0.337271D-02 -0.231244D-03
     34 -0.186707D-03  0.213907D-03  0.215646D-01 -0.507156D-02  0.803458D-02
     35  0.335895D-03 -0.781363D-04 -0.488117D-01 -0.400528D-01  0.370082D-01
     36  0.378506D-03 -0.714222D-04  0.300304D-01  0.473586D-01 -0.631453D-02
     37  0.527501D-04 -0.822089D-05  0.862235D-02  0.776945D-03  0.122972D-03
     38 -0.853808D-04 -0.168351D-03  0.606255D-02 -0.859339D-03 -0.200821D-02
     39 -0.382777D-04 -0.440482D-04 -0.222309D-02 -0.594728D-03 -0.416876D-02
               31            32            33            34            35 
     31  0.447340D+00
     32 -0.668531D-01  0.636590D-01
     33  0.146575D-01 -0.257093D-01  0.185033D-01
     34 -0.490093D-04 -0.169065D-02  0.111709D-02  0.636129D+00
     35  0.552271D-03  0.517894D-03 -0.118409D-02  0.297967D-01  0.267700D+00
     36 -0.547437D-03 -0.256247D-03  0.120091D-02  0.888571D-01 -0.165275D+00
     37 -0.172440D-03 -0.198366D-03  0.899243D-03 -0.395753D+00  0.818814D-01
     38 -0.105052D-03  0.155069D-04  0.471223D-03  0.127438D+00 -0.567695D-01
     39  0.189363D-03  0.575775D-03  0.919036D-04 -0.157751D+00  0.507188D-01
               36            37            38            39 
     36  0.159723D+00
     37 -0.124967D+00  0.440674D+00
     38  0.599191D-01 -0.850969D-01  0.537305D-01
     39 -0.762096D-01  0.141449D+00 -0.523483D-01  0.680065D-01
 FormGI is forming the generalized inverse of G from B-inverse, IUseBI=4.
 Leave Link  716 at Tue Apr 12 20:44:06 2016, MaxMem=    33554432 cpu:         0.0
 (Enter /usr/local/gau/g09/l103.exe)

 GradGradGradGradGradGradGradGradGradGradGradGradGradGradGradGradGradGrad
 Berny optimization.
 Red2BG is reusing G-inverse.
 Internal  Forces:  Max     0.136669528 RMS     0.022277931
 Search for a saddle point.
 Step number   1 out of a maximum of   69
 All quantities printed in internal units (Hartrees-Bohrs-Radians)
 Swapping is turned off.
 Second derivative matrix not updated -- analytic derivatives used.
 ITU=  0
     Eigenvalues ---   -0.15419  -0.01381  -0.00711   0.00297   0.00489
     Eigenvalues ---    0.01007   0.01927   0.02653   0.04532   0.04979
     Eigenvalues ---    0.06293   0.06352   0.06627   0.09708   0.10394
     Eigenvalues ---    0.12118   0.13146   0.15332   0.15542   0.16044
     Eigenvalues ---    0.18746   0.20765   0.25703   0.29729   0.31045
     Eigenvalues ---    0.33634   0.34625   0.35157   0.39631   0.45337
     Eigenvalues ---    0.45983   0.51750   0.98860
 Eigenvectors required to have negative eigenvalues:
                          A17       A21       A20       A14       R4
   1                    0.50500  -0.38936   0.34648  -0.32189   0.23395
                          A15       A1        A6        R6        D17
   1                    0.18322  -0.17212   0.16472   0.14149  -0.14115
 Eigenvalue     2 is  -1.38D-02 should be greater than     0.000000 Eigenvector:
                          A22       D2        D5        D1        D3
   1                   -0.42108  -0.40621   0.37251  -0.30449   0.27939
                          D6        A23       D16       A4        D20
   1                    0.25399   0.24123   0.19417  -0.18235  -0.16314
 Eigenvalue     3 is  -7.11D-03 should be greater than     0.000000 Eigenvector:
                          D6        A20       D21       D20       D2
   1                    0.41207  -0.28629   0.28135   0.26949  -0.25360
                          R4        A23       D8        D4        D16
   1                    0.23617  -0.23138   0.22378   0.21812  -0.18365
 RFO step:  Lambda0=7.995763215D-04 Lambda=-7.62061076D-02.
 Linear search not attempted -- option 19 set.
 Maximum step size (   0.300) exceeded in Quadratic search.
    -- Step size scaled by   0.365
 Iteration  1 RMS(Cart)=  0.04752549 RMS(Int)=  0.00338948
 Iteration  2 RMS(Cart)=  0.00440968 RMS(Int)=  0.00151714
 Iteration  3 RMS(Cart)=  0.00001226 RMS(Int)=  0.00151709
 Iteration  4 RMS(Cart)=  0.00000002 RMS(Int)=  0.00151709
 ITry= 1 IFail=0 DXMaxC= 1.57D-01 DCOld= 1.00D+10 DXMaxT= 3.00D-01 DXLimC= 3.00D+00 Rises=F
 Variable       Old X    -DE/DX   Delta X   Delta X   Delta X     New X
                                 (Linear)    (Quad)   (Total)
    R1        1.91907   0.01575   0.00000   0.00349   0.00353   1.92260
    R2        2.75672   0.05292   0.00000   0.04653   0.04599   2.80271
    R3        1.91554   0.00054   0.00000   0.00253   0.00253   1.91807
    R4        2.24497   0.04054   0.00000   0.11108   0.11198   2.35695
    R5        2.92167  -0.00133   0.00000  -0.00844  -0.00844   2.91323
    R6        2.87127  -0.01647   0.00000  -0.06939  -0.07066   2.80062
    R7        2.49800   0.04419   0.00000   0.05545   0.05657   2.55457
    R8        2.06633   0.00822   0.00000   0.00257   0.00257   2.06890
    R9        2.06555  -0.00035   0.00000   0.00026   0.00026   2.06581
   R10        2.06588   0.00218   0.00000   0.00203   0.00203   2.06791
   R11        2.27773   0.13667   0.00000   0.05411   0.05411   2.33184
   R12        2.55737   0.02172   0.00000   0.01182   0.01182   2.56918
   R13        1.83183   0.01741   0.00000   0.00688   0.00688   1.83871
    A1        1.92679   0.00763   0.00000   0.00777   0.00506   1.93185
    A2        1.89661  -0.00356   0.00000   0.00038   0.00197   1.89858
    A3        1.93821   0.00660   0.00000  -0.01334  -0.01263   1.92559
    A4        1.38179  -0.01447   0.00000   0.02002   0.01725   1.39904
    A5        2.01211  -0.00924   0.00000  -0.00143  -0.00270   2.00942
    A6        1.88940   0.00923   0.00000   0.04840   0.04378   1.93318
    A7        1.89436   0.00801   0.00000   0.05063   0.05012   1.94448
    A8        1.93007   0.00904   0.00000   0.00803   0.00801   1.93807
    A9        1.94576  -0.00290   0.00000  -0.00518  -0.00517   1.94059
   A10        1.90963   0.00006   0.00000   0.00914   0.00912   1.91875
   A11        1.90095  -0.00223   0.00000  -0.00295  -0.00294   1.89801
   A12        1.89033  -0.00328   0.00000  -0.00334  -0.00340   1.88693
   A13        1.88575  -0.00096   0.00000  -0.00604  -0.00603   1.87973
   A14        1.02185   0.00171   0.00000  -0.00562  -0.00679   1.01507
   A15        2.18471  -0.00618   0.00000  -0.02302  -0.02634   2.15837
   A16        1.95411   0.01247   0.00000   0.03580   0.03729   1.99140
   A17        1.16542  -0.00868   0.00000  -0.02600  -0.02086   1.14456
   A18        2.14353  -0.00630   0.00000  -0.01248  -0.01068   2.13285
   A19        1.87233   0.01679   0.00000   0.01509   0.01506   1.88739
   A20        3.00335  -0.00210   0.00000  -0.03826  -0.04213   2.96122
   A21        2.97596   0.01418   0.00000   0.03017   0.03051   3.00647
   A22        3.30355   0.01122   0.00000   0.18753   0.18542   3.48897
   A23        3.18061  -0.01341   0.00000  -0.13114  -0.13170   3.04892
    D1       -0.38019   0.01071   0.00000   0.11318   0.11324  -0.26695
    D2       -2.50976   0.00003   0.00000   0.12456   0.12442  -2.38533
    D3       -1.36609  -0.00370   0.00000  -0.09797  -0.09897  -1.46506
    D4        0.75870   0.00743   0.00000   0.00355   0.00192   0.76062
    D5        0.73876   0.00126   0.00000  -0.10110  -0.10146   0.63730
    D6        2.86355   0.01239   0.00000   0.00042  -0.00056   2.86299
    D7        0.47287   0.00406   0.00000  -0.00286  -0.00232   0.47056
    D8       -2.81846   0.00914   0.00000   0.02093   0.02079  -2.79767
    D9       -2.76505   0.00150   0.00000  -0.01449  -0.01411  -2.77916
   D10        1.04853   0.00517   0.00000   0.04830   0.04701   1.09554
   D11       -3.11704   0.00660   0.00000   0.04656   0.04525  -3.07179
   D12       -1.03222   0.00363   0.00000   0.04175   0.04041  -0.99181
   D13       -1.07359  -0.00661   0.00000  -0.05218  -0.05085  -1.12444
   D14        1.04402  -0.00518   0.00000  -0.05392  -0.05261   0.99142
   D15        3.12885  -0.00815   0.00000  -0.05873  -0.05745   3.07140
   D16       -0.41676  -0.00404   0.00000  -0.10310  -0.10514  -0.52189
   D17       -0.49906   0.00890   0.00000   0.03567   0.03424  -0.46482
   D18        2.68582   0.00937   0.00000   0.02804   0.02656   2.71237
   D19        1.77891  -0.00427   0.00000  -0.04051  -0.04004   1.73887
   D20        1.69661   0.00867   0.00000   0.09827   0.09934   1.79595
   D21       -1.40170   0.00914   0.00000   0.09063   0.09166  -1.31004
   D22        3.08349  -0.00504   0.00000  -0.01607  -0.01627   3.06721
   D23       -0.01601  -0.00457   0.00000  -0.02316  -0.02336  -0.03937
         Item               Value     Threshold  Converged?
 Maximum Force            0.136670     0.000450     NO 
 RMS     Force            0.022278     0.000300     NO 
 Maximum Displacement     0.156706     0.001800     NO 
 RMS     Displacement     0.046707     0.001200     NO 
 Predicted change in Energy=-2.954380D-02
 Lowest energy point so far.  Saving SCF results.
 GradGradGradGradGradGradGradGradGradGradGradGradGradGradGradGradGradGrad

 Leave Link  103 at Tue Apr 12 20:44:06 2016, MaxMem=    33554432 cpu:         0.0
 (Enter /usr/local/gau/g09/l202.exe)
                          Input orientation:                          
 ---------------------------------------------------------------------
 Center     Atomic      Atomic             Coordinates (Angstroms)
 Number     Number       Type             X           Y           Z
 ---------------------------------------------------------------------
      1          7           0       -1.355506   -1.085680   -0.448517
      2          1           0       -1.130355   -1.703514    0.327806
      3          6           0       -0.550242    0.157863   -0.379026
      4          1           0       -0.158972   -0.923472    0.387508
      5          6           0       -1.121085    1.257076    0.538822
      6          6           0        0.860674   -0.147896   -0.044030
      7          1           0       -1.160806    0.918939    1.579354
      8          1           0       -0.517546    2.167125    0.487914
      9          1           0       -2.137602    1.514040    0.225568
     10          8           0        1.212102   -1.145573    0.591413
     11          1           0       -2.346031   -0.866660   -0.415184
     12          8           0        1.747139    0.794598   -0.461489
     13          1           0        2.630368    0.543373   -0.139727
 ---------------------------------------------------------------------
                    Distance matrix (angstroms):
                    1          2          3          4          5
     1  N    0.000000
     2  H    1.017394   0.000000
     3  C    1.483131   2.073854   0.000000
     4  H    1.468653   1.247243   1.382010   0.000000
     5  C    2.553095   2.968115   1.541615   2.388168   0.000000
     6  C    2.440185   2.553900   1.482024   1.351821   2.498206
     7  H    2.858087   2.905952   2.187985   2.412187   1.094816
     8  H    3.487093   3.922119   2.188558   3.112948   1.093179
     9  H    2.797250   3.373078   2.173583   3.143671   1.094288
    10  O    2.770857   2.422373   2.397197   1.403834   3.349514
    11  H    1.014998   1.652340   2.067804   2.330402   2.630755
    12  O    3.627949   3.891468   2.385412   2.702928   3.072656
    13  H    4.316985   4.405693   3.212813   3.195314   3.878557
                    6          7          8          9         10
     6  C    0.000000
     7  H    2.803550   0.000000
     8  H    2.746230   1.778481   0.000000
     9  H    3.438659   1.772291   1.766332   0.000000
    10  O    1.233956   3.296806   3.738497   4.292773   0.000000
    11  H    3.307165   2.927679   3.655516   2.474215   3.708280
    12  O    1.359554   3.554805   2.813181   4.010094   2.271372
    13  H    1.902322   4.179628   3.597202   4.879465   2.323485
                   11         12         13
    11  H    0.000000
    12  O    4.417688   0.000000
    13  H    5.179636   0.973005   0.000000
 Stoichiometry    C3H7NO2
 Framework group  C1[X(C3H7NO2)]
 Deg. of freedom    33
 Full point group                 C1      NOp   1
 RotChk:  IX=0 Diff= 2.13D-02
 Largest Abelian subgroup         C1      NOp   1
 Largest concise Abelian subgroup C1      NOp   1
                         Standard orientation:                         
 ---------------------------------------------------------------------
 Center     Atomic      Atomic             Coordinates (Angstroms)
 Number     Number       Type             X           Y           Z
 ---------------------------------------------------------------------
      1          7           0       -1.460543   -1.046317   -0.469726
      2          1           0       -1.265173   -1.644091    0.330016
      3          6           0       -0.631242    0.182306   -0.420499
      4          1           0       -0.279272   -0.882302    0.387387
      5          6           0       -1.198804    1.320846    0.450235
      6          6           0        0.765414   -0.141244   -0.044916
      7          1           0       -1.268082    1.016141    1.499509
      8          1           0       -0.575478    2.216521    0.384887
      9          1           0       -2.202727    1.588364    0.106665
     10          8           0        1.082140   -1.125530    0.628518
     11          1           0       -2.446780   -0.806449   -0.465214
     12          8           0        1.680150    0.769740   -0.471240
     13          1           0        2.550781    0.510908   -0.122315
 ---------------------------------------------------------------------
 Rotational constants (GHZ):      5.0574094      3.0824371      2.2634759
 Leave Link  202 at Tue Apr 12 20:44:06 2016, MaxMem=    33554432 cpu:         0.0
 (Enter /usr/local/gau/g09/l301.exe)
 Standard basis: 6-31G (6D, 7F)
 Ernie: Thresh=  0.10000D-02 Tol=  0.10000D-05 Strict=F.
 There are    68 symmetry adapted cartesian basis functions of A   symmetry.
 There are    68 symmetry adapted basis functions of A   symmetry.
    68 basis functions,   160 primitive gaussians,    68 cartesian basis functions
    24 alpha electrons       24 beta electrons
       nuclear repulsion energy       250.4560348907 Hartrees.
 IExCor=  402 DFT=T Ex+Corr=B3LYP ExCW=0 ScaHFX=  0.200000
 ScaDFX=  0.800000  0.720000  1.000000  0.810000 ScalE2=  1.000000  1.000000
 IRadAn=      0 IRanWt=     -1 IRanGd=            0 ICorTp=0 IEmpDi=  4
 NAtoms=   13 NActive=   13 NUniq=   13 SFac= 1.00D+00 NAtFMM=   60 NAOKFM=F Big=F
 Integral buffers will be    131072 words long.
 Raffenetti 2 integral format.
 Two-electron integral symmetry is turned on.
 Leave Link  301 at Tue Apr 12 20:44:06 2016, MaxMem=    33554432 cpu:         0.0
 (Enter /usr/local/gau/g09/l302.exe)
 NPDir=0 NMtPBC=     1 NCelOv=     1 NCel=       1 NClECP=     1 NCelD=      1
         NCelK=      1 NCelE2=     1 NClLst=     1 CellRange=     0.0.
 One-electron integrals computed using PRISM.
 NBasis=    68 RedAO= T EigKep=  4.94D-03  NBF=    68
 NBsUse=    68 1.00D-06 EigRej= -1.00D+00 NBFU=    68
 Precomputing XC quadrature grid using
 IXCGrd= 4 IRadAn=           0 IRanWt=          -1 IRanGd=           0 AccXCQ= 0.00D+00.
 Generated NRdTot=       0 NPtTot=           0 NUsed=           0 NTot=          32
 NSgBfM=    68    68    68    68    68 MxSgAt=    13 MxSgA2=    13.
 Leave Link  302 at Tue Apr 12 20:44:07 2016, MaxMem=    33554432 cpu:         0.2
 (Enter /usr/local/gau/g09/l303.exe)
 DipDrv:  MaxL=1.
 Leave Link  303 at Tue Apr 12 20:44:07 2016, MaxMem=    33554432 cpu:         0.0
 (Enter /usr/local/gau/g09/l401.exe)
 Initial guess from the checkpoint file:  "Ala-S-opt-freq-tsb1-6-31g.chk"
 B after Tr=     0.000000    0.000000    0.000000
         Rot=    0.999991   -0.003539    0.000766    0.002040 Ang=  -0.48 deg.
 Guess basis will be translated and rotated to current coordinates.
 JPrj=2 DoOrth=T DoCkMO=T.
 Generating alternative initial guess.
 ExpMin= 1.61D-01 ExpMax= 5.48D+03 ExpMxC= 8.25D+02 IAcc=1 IRadAn=         1 AccDes= 0.00D+00
 Harris functional with IExCor=  402 and IRadAn=       1 diagonalized for initial guess.
 HarFok:  IExCor=  402 AccDes= 0.00D+00 IRadAn=         1 IDoV= 1 UseB2=F ITyADJ=14
 ICtDFT=  3500011 ScaDFX=  1.000000  1.000000  1.000000  1.000000
 FoFCou: FMM=F IPFlag=           0 FMFlag=      100000 FMFlg1=           0
         NFxFlg=           0 DoJE=T BraDBF=F KetDBF=T FulRan=T
         wScrn=  0.000000 ICntrl=     500 IOpCl=  0 I1Cent=   200000004 NGrid=           0
         NMat0=    1 NMatS0=      1 NMatT0=    0 NMatD0=    1 NMtDS0=    0 NMtDT0=    0
 Petite list used in FoFCou.
 Harris En= -323.448831862380    
 Leave Link  401 at Tue Apr 12 20:44:08 2016, MaxMem=    33554432 cpu:         0.6
 (Enter /usr/local/gau/g09/l502.exe)
 Closed shell SCF:
 Using DIIS extrapolation, IDIIS=  1040.
 Integral symmetry usage will be decided dynamically.
 Keep R1 ints in memory in canonical form, NReq=3676491.
 IVT=       33364 IEndB=       33364 NGot=    33554432 MDV=    30768038
 LenX=    30768038 LenY=    30762973
 Requested convergence on RMS density matrix=1.00D-08 within 128 cycles.
 Requested convergence on MAX density matrix=1.00D-06.
 Requested convergence on             energy=1.00D-06.
 No special actions if energy rises.
 FoFCou: FMM=F IPFlag=           0 FMFlag=           0 FMFlg1=           0
         NFxFlg=           0 DoJE=F BraDBF=F KetDBF=F FulRan=T
         wScrn=  0.000000 ICntrl=     600 IOpCl=  0 I1Cent=           0 NGrid=           0
         NMat0=    1 NMatS0=   2346 NMatT0=    0 NMatD0=    1 NMtDS0=    0 NMtDT0=    0
 Symmetry not used in FoFCou.
 Integral accuracy reduced to 1.0D-05 until final iterations.

 Cycle   1  Pass 0  IDiag  1:
 E= -323.369894708427    
 DIIS: error= 5.28D-03 at cycle   1 NSaved=   1.
 NSaved= 1 IEnMin= 1 EnMin= -323.369894708427     IErMin= 1 ErrMin= 5.28D-03
 ErrMax= 5.28D-03  0.00D+00 EMaxC= 1.00D-01 BMatC= 4.80D-03 BMatP= 4.80D-03
 IDIUse=3 WtCom= 9.47D-01 WtEn= 5.28D-02
 Coeff-Com:  0.100D+01
 Coeff-En:   0.100D+01
 Coeff:      0.100D+01
 Gap=     0.543 Goal=   None    Shift=    0.000
 GapD=    0.543 DampG=2.000 DampE=1.000 DampFc=2.0000 IDamp=-1.
 RMSDP=3.35D-03 MaxDP=2.25D-02              OVMax= 3.76D-02

 Cycle   2  Pass 0  IDiag  1:
 E= -323.378978886576     Delta-E=       -0.009084178149 Rises=F Damp=F
 DIIS: error= 3.65D-03 at cycle   2 NSaved=   2.
 NSaved= 2 IEnMin= 2 EnMin= -323.378978886576     IErMin= 2 ErrMin= 3.65D-03
 ErrMax= 3.65D-03  0.00D+00 EMaxC= 1.00D-01 BMatC= 1.32D-03 BMatP= 4.80D-03
 IDIUse=3 WtCom= 9.64D-01 WtEn= 3.65D-02
 Coeff-Com:  0.258D+00 0.742D+00
 Coeff-En:   0.000D+00 0.100D+01
 Coeff:      0.248D+00 0.752D+00
 Gap=     0.155 Goal=   None    Shift=    0.000
 RMSDP=1.31D-03 MaxDP=1.53D-02 DE=-9.08D-03 OVMax= 2.90D-02

 Cycle   3  Pass 0  IDiag  1:
 E= -323.377561339936     Delta-E=        0.001417546640 Rises=F Damp=F
 DIIS: error= 6.05D-03 at cycle   3 NSaved=   3.
 NSaved= 3 IEnMin= 2 EnMin= -323.378978886576     IErMin= 2 ErrMin= 3.65D-03
 ErrMax= 6.05D-03  0.00D+00 EMaxC= 1.00D-01 BMatC= 3.02D-03 BMatP= 1.32D-03
 IDIUse=3 WtCom= 1.14D-01 WtEn= 8.86D-01
 Coeff-Com: -0.315D-01 0.617D+00 0.415D+00
 Coeff-En:   0.000D+00 0.648D+00 0.352D+00
 Coeff:     -0.359D-02 0.644D+00 0.359D+00
 Gap=     0.159 Goal=   None    Shift=    0.000
 RMSDP=8.34D-04 MaxDP=9.14D-03 DE= 1.42D-03 OVMax= 1.69D-02

 Cycle   4  Pass 0  IDiag  1:
 E= -323.380077842846     Delta-E=       -0.002516502910 Rises=F Damp=F
 DIIS: error= 8.36D-04 at cycle   4 NSaved=   4.
 NSaved= 4 IEnMin= 4 EnMin= -323.380077842846     IErMin= 4 ErrMin= 8.36D-04
 ErrMax= 8.36D-04  0.00D+00 EMaxC= 1.00D-01 BMatC= 6.50D-05 BMatP= 1.32D-03
 IDIUse=3 WtCom= 9.92D-01 WtEn= 8.36D-03
 Coeff-Com: -0.251D-01 0.325D+00 0.174D+00 0.527D+00
 Coeff-En:   0.000D+00 0.000D+00 0.000D+00 0.100D+01
 Coeff:     -0.249D-01 0.322D+00 0.172D+00 0.531D+00
 Gap=     0.159 Goal=   None    Shift=    0.000
 RMSDP=1.53D-04 MaxDP=2.08D-03 DE=-2.52D-03 OVMax= 2.38D-03

 Cycle   5  Pass 0  IDiag  1:
 E= -323.380133244401     Delta-E=       -0.000055401555 Rises=F Damp=F
 DIIS: error= 1.95D-04 at cycle   5 NSaved=   5.
 NSaved= 5 IEnMin= 5 EnMin= -323.380133244401     IErMin= 5 ErrMin= 1.95D-04
 ErrMax= 1.95D-04  0.00D+00 EMaxC= 1.00D-01 BMatC= 3.96D-06 BMatP= 6.50D-05
 IDIUse=3 WtCom= 9.98D-01 WtEn= 1.95D-03
 Coeff-Com: -0.647D-02 0.543D-01 0.254D-01 0.240D+00 0.686D+00
 Coeff-En:   0.000D+00 0.000D+00 0.000D+00 0.000D+00 0.100D+01
 Coeff:     -0.646D-02 0.542D-01 0.254D-01 0.240D+00 0.687D+00
 Gap=     0.159 Goal=   None    Shift=    0.000
 RMSDP=4.88D-05 MaxDP=5.01D-04 DE=-5.54D-05 OVMax= 5.87D-04

 Cycle   6  Pass 0  IDiag  1:
 E= -323.380136799610     Delta-E=       -0.000003555209 Rises=F Damp=F
 DIIS: error= 4.98D-05 at cycle   6 NSaved=   6.
 NSaved= 6 IEnMin= 6 EnMin= -323.380136799610     IErMin= 6 ErrMin= 4.98D-05
 ErrMax= 4.98D-05  0.00D+00 EMaxC= 1.00D-01 BMatC= 2.68D-07 BMatP= 3.96D-06
 IDIUse=1 WtCom= 1.00D+00 WtEn= 0.00D+00
 Coeff-Com: -0.128D-02 0.753D-02 0.203D-03 0.879D-01 0.311D+00 0.594D+00
 Coeff:     -0.128D-02 0.753D-02 0.203D-03 0.879D-01 0.311D+00 0.594D+00
 Gap=     0.159 Goal=   None    Shift=    0.000
 RMSDP=1.36D-05 MaxDP=1.98D-04 DE=-3.56D-06 OVMax= 4.18D-04

 Cycle   7  Pass 0  IDiag  1:
 E= -323.380137017122     Delta-E=       -0.000000217512 Rises=F Damp=F
 DIIS: error= 3.02D-05 at cycle   7 NSaved=   7.
 NSaved= 7 IEnMin= 7 EnMin= -323.380137017122     IErMin= 7 ErrMin= 3.02D-05
 ErrMax= 3.02D-05  0.00D+00 EMaxC= 1.00D-01 BMatC= 8.25D-08 BMatP= 2.68D-07
 IDIUse=1 WtCom= 1.00D+00 WtEn= 0.00D+00
 Coeff-Com: -0.101D-03-0.260D-02-0.472D-02 0.237D-01 0.877D-01 0.373D+00
 Coeff-Com:  0.523D+00
 Coeff:     -0.101D-03-0.260D-02-0.472D-02 0.237D-01 0.877D-01 0.373D+00
 Coeff:      0.523D+00
 Gap=     0.159 Goal=   None    Shift=    0.000
 RMSDP=7.41D-06 MaxDP=6.83D-05 DE=-2.18D-07 OVMax= 1.39D-04

 Initial convergence to 1.0D-05 achieved.  Increase integral accuracy.
 Cycle   8  Pass 1  IDiag  1:
 E= -323.380166083666     Delta-E=       -0.000029066544 Rises=F Damp=F
 DIIS: error= 1.40D-05 at cycle   1 NSaved=   1.
 NSaved= 1 IEnMin= 1 EnMin= -323.380166083666     IErMin= 1 ErrMin= 1.40D-05
 ErrMax= 1.40D-05  0.00D+00 EMaxC= 1.00D-01 BMatC= 1.92D-08 BMatP= 1.92D-08
 IDIUse=1 WtCom= 1.00D+00 WtEn= 0.00D+00
 Coeff-Com:  0.100D+01
 Coeff:      0.100D+01
 Gap=     0.159 Goal=   None    Shift=    0.000
 RMSDP=7.41D-06 MaxDP=6.83D-05 DE=-2.91D-05 OVMax= 8.43D-05

 Cycle   9  Pass 1  IDiag  1:
 E= -323.380166104782     Delta-E=       -0.000000021116 Rises=F Damp=F
 DIIS: error= 1.32D-05 at cycle   2 NSaved=   2.
 NSaved= 2 IEnMin= 2 EnMin= -323.380166104782     IErMin= 2 ErrMin= 1.32D-05
[...]
   A22        3.84224  -0.00001   0.00000  -0.00017  -0.00017   3.84207
   A23        2.86006   0.00000   0.00000   0.00006   0.00006   2.86011
    D1       -0.78088   0.00000   0.00000  -0.00013  -0.00013  -0.78101
    D2        3.05012   0.00001   0.00000   0.00074   0.00074   3.05085
    D3       -1.48399   0.00001   0.00000   0.00040   0.00040  -1.48359
    D4        2.29610   0.00000   0.00000   0.00037   0.00037   2.29647
    D5        0.94478   0.00000   0.00000  -0.00051  -0.00051   0.94428
    D6       -1.55831  -0.00001   0.00000  -0.00054  -0.00054  -1.55885
    D7        1.56898   0.00000   0.00000   0.00054   0.00054   1.56952
    D8       -2.27343   0.00000   0.00000   0.00046   0.00046  -2.27296
    D9       -2.04440   0.00000   0.00000   0.00058   0.00058  -2.04382
   D10        1.10778   0.00000   0.00000  -0.00036  -0.00036   1.10742
   D11       -3.08567   0.00000   0.00000  -0.00039  -0.00039  -3.08606
   D12       -0.96951   0.00000   0.00000  -0.00036  -0.00036  -0.96987
   D13       -2.71191   0.00000   0.00000  -0.00032  -0.00032  -2.71224
   D14       -0.62218   0.00000   0.00000  -0.00035  -0.00035  -0.62253
   D15        1.49398   0.00000   0.00000  -0.00032  -0.00032   1.49366
   D16       -1.34508   0.00001   0.00000   0.00004   0.00004  -1.34504
   D17       -1.18333   0.00000   0.00000  -0.00006  -0.00006  -1.18340
   D18        2.07805   0.00000   0.00000  -0.00002  -0.00002   2.07803
   D19        2.44701   0.00001   0.00000   0.00003   0.00003   2.44705
   D20        2.60876   0.00000   0.00000  -0.00007  -0.00007   2.60869
   D21       -0.41304   0.00000   0.00000  -0.00002  -0.00002  -0.41307
   D22        2.90094   0.00000   0.00000  -0.00005  -0.00005   2.90089
   D23       -0.11183   0.00001   0.00000   0.00000   0.00000  -0.11182
         Item               Value     Threshold  Converged?
 Maximum Force            0.000074     0.000450     YES
 RMS     Force            0.000012     0.000300     YES
 Maximum Displacement     0.000558     0.001800     YES
 RMS     Displacement     0.000212     0.001200     YES
 Predicted change in Energy=-1.793701D-08
 Optimization completed.
    -- Stationary point found.
                           ----------------------------
                           !   Optimized Parameters   !
                           ! (Angstroms and Degrees)  !
 --------------------------                            --------------------------
 ! Name  Definition              Value          Derivative Info.                !
 --------------------------------------------------------------------------------
 ! R1    R(1,2)                  1.0086         -DE/DX =    0.0                 !
 ! R2    R(1,3)                  1.4523         -DE/DX =    0.0                 !
 ! R3    R(1,11)                 1.0159         -DE/DX =    0.0                 !
 ! R4    R(2,4)                  2.4315         -DE/DX =    0.0                 !
 ! R5    R(3,5)                  1.5153         -DE/DX =    0.0                 !
 ! R6    R(3,6)                  1.4396         -DE/DX =    0.0                 !
 ! R7    R(4,6)                  1.6279         -DE/DX =    0.0                 !
 ! R8    R(5,7)                  1.0968         -DE/DX =    0.0                 !
 ! R9    R(5,8)                  1.096          -DE/DX =    0.0                 !
 ! R10   R(5,9)                  1.1035         -DE/DX =    0.0                 !
 ! R11   R(6,10)                 1.319          -DE/DX =   -0.0001              !
 ! R12   R(6,12)                 1.3434         -DE/DX =    0.0                 !
 ! R13   R(12,13)                0.9819         -DE/DX =    0.0                 !
 ! A1    A(2,1,3)              117.148          -DE/DX =    0.0                 !
 ! A2    A(2,1,11)             113.3281         -DE/DX =    0.0                 !
 ! A3    A(3,1,11)             116.7307         -DE/DX =    0.0                 !
 ! A4    A(1,2,4)               61.2949         -DE/DX =    0.0                 !
 ! A5    A(1,3,5)              117.1208         -DE/DX =    0.0                 !
 ! A6    A(1,3,6)              112.7822         -DE/DX =    0.0                 !
 ! A7    A(5,3,6)              118.8434         -DE/DX =    0.0                 !
 ! A8    A(3,5,7)              109.8366         -DE/DX =    0.0                 !
 ! A9    A(3,5,8)              112.1851         -DE/DX =    0.0                 !
 ! A10   A(3,5,9)              112.1247         -DE/DX =    0.0                 !
 ! A11   A(7,5,8)              107.6896         -DE/DX =    0.0                 !
 ! A12   A(7,5,9)              107.1531         -DE/DX =    0.0                 !
 ! A13   A(8,5,9)              107.6223         -DE/DX =    0.0                 !
 ! A14   A(3,6,4)               62.4752         -DE/DX =    0.0                 !
 ! A15   A(3,6,10)             112.2311         -DE/DX =    0.0                 !
 ! A16   A(3,6,12)             126.8493         -DE/DX =    0.0                 !
 ! A17   A(4,6,10)              50.5555         -DE/DX =    0.0                 !
 ! A18   A(10,6,12)            120.5657         -DE/DX =    0.0                 !
 ! A19   A(6,12,13)            112.3042         -DE/DX =    0.0                 !
 ! A20   L(2,4,6,3,-1)         111.9786         -DE/DX =    0.0                 !
 ! A21   L(4,6,12,3,-1)        189.3245         -DE/DX =    0.0                 !
 ! A22   L(2,4,6,3,-2)         220.1439         -DE/DX =    0.0                 !
 ! A23   L(4,6,12,3,-2)        163.8692         -DE/DX =    0.0                 !
 ! D1    D(3,1,2,4)            -44.741          -DE/DX =    0.0                 !
 ! D2    D(11,1,2,4)           174.7588         -DE/DX =    0.0                 !
 ! D3    D(2,1,3,5)            -85.0264         -DE/DX =    0.0                 !
 ! D4    D(2,1,3,6)            131.5568         -DE/DX =    0.0                 !
 ! D5    D(11,1,3,5)            54.1322         -DE/DX =    0.0                 !
 ! D6    D(11,1,3,6)           -89.2846         -DE/DX =    0.0                 !
 ! D7    D(1,2,6,3)             89.8961         -DE/DX =    0.0                 !
 ! D8    D(1,2,6,10)          -130.2577         -DE/DX =    0.0                 !
 ! D9    D(1,2,12,13)         -117.1357         -DE/DX =    0.0                 !
 ! D10   D(1,3,5,7)             63.4711         -DE/DX =    0.0                 !
 ! D11   D(1,3,5,8)           -176.7957         -DE/DX =    0.0                 !
 ! D12   D(1,3,5,9)            -55.549          -DE/DX =    0.0                 !
 ! D13   D(6,3,5,7)           -155.3813         -DE/DX =    0.0                 !
 ! D14   D(6,3,5,8)            -35.6481         -DE/DX =    0.0                 !
 ! D15   D(6,3,5,9)             85.5986         -DE/DX =    0.0                 !
 ! D16   D(1,3,6,4)            -77.0676         -DE/DX =    0.0                 !
 ! D17   D(1,3,6,10)           -67.8            -DE/DX =    0.0                 !
 ! D18   D(1,3,6,12)           119.0632         -DE/DX =    0.0                 !
 ! D19   D(5,3,6,4)            140.2035         -DE/DX =    0.0                 !
 ! D20   D(5,3,6,10)           149.471          -DE/DX =    0.0                 !
 ! D21   D(5,3,6,12)           -23.6657         -DE/DX =    0.0                 !
 ! D22   D(3,6,12,13)          166.2118         -DE/DX =    0.0                 !
 ! D23   D(10,6,12,13)          -6.4071         -DE/DX =    0.0                 !
 --------------------------------------------------------------------------------
 GradGradGradGradGradGradGradGradGradGradGradGradGradGradGradGradGradGrad

 Leave Link  103 at Tue Apr 12 21:02:21 2016, MaxMem=    33554432 cpu:         0.0
 (Enter /usr/local/gau/g09/l9999.exe)

 Test job not archived.
 1\1\GINC-KALI\Freq\RB3LYP\6-31G\C3H7N1O2\ROOT\12-Apr-2016\0\\#P Geom=A
 llCheck Guess=TCheck SCRF=Check Test GenChk RB3LYP/6-31G Freq\\Ala-S-o
 pt-freq-tsb1-6-31g\\0,1\N,-1.3568580139,-1.0874830155,-0.2062418564\H,
 -1.9187993826,-1.6500377945,0.4142249857\C,-0.5075507926,-0.0779856188
 ,0.4010439931\H,0.4095016337,-1.2485832016,0.9885623814\C,-1.139576285
 5,1.2655289765,0.7035363754\C,0.8433780057,-0.114028029,-0.0951817858\
 H,-1.9366261927,1.1429578687,1.4468988431\H,-0.4151802051,1.9821975472
 ,1.1070644686\H,-1.5967042303,1.7207746923,-0.1917130766\O,1.481775291
 2,-1.2073869306,0.27447843\H,-1.8408218562,-0.8242347577,-1.0598410606
 \O,1.4912757445,0.8703105811,-0.7401102795\H,2.4583244038,0.7081870719
 ,-0.7923087085\\Version=ES64L-G09RevD.01\State=1-A\HF=-323.5003008\RMS
 D=1.132e-09\RMSF=1.634e-05\ZeroPoint=0.100787\Thermal=0.1075687\Dipole
 =-0.0630413,0.4408448,-0.082331\DipoleDeriv=-0.3672267,0.1760566,0.185
 3334,0.2241416,-0.6974147,-0.3373826,-0.0618342,-0.4380082,-0.1212191,
 0.0955458,-0.142108,-0.0371648,-0.0672922,0.2768145,0.0436445,0.014651
 1,0.0602527,0.0969071,-0.0579601,0.062795,0.0883107,-0.1740629,0.08976
 13,0.4188124,0.2823939,0.3762769,-0.3796041,0.5726125,-0.4728664,0.171
 8896,-0.1297291,0.424264,-0.0452873,-0.0639799,0.2144745,0.0701554,0.0
 758019,0.0356868,0.0477134,-0.0792403,-0.0027538,-0.1083779,-0.0187944
 ,-0.0158108,0.1838511,1.3708159,0.2319683,-0.5786454,0.299819,0.825748
 3,-0.396932,-0.4229879,-0.4680443,0.6379752,-0.0679089,0.0211113,0.114
 6983,-0.0022062,0.0397104,0.0333634,0.1164787,-0.0020509,-0.0279136,-0
 .0262319,-0.1173094,-0.0712905,-0.056781,-0.0682536,-0.0724952,-0.0536
 182,-0.0590447,0.0334524,-0.0277203,0.0975854,-0.0686025,0.1175272,-0.
 0595887,0.0263251,-0.1321193,0.1104063,-0.1071585,-1.1622944,0.604278,
 -0.0245644,0.332618,-0.6372259,-0.0306792,0.2344412,-0.1595926,-0.3020
 819,0.0021758,-0.1460129,-0.1586319,-0.036822,0.2130844,0.1411105,-0.1
 470501,0.0883526,0.1066112,-0.6269079,-0.4083151,0.3288619,-0.5373792,
 -0.7132372,0.2808381,0.3367748,0.2547911,-0.6174308,0.2192983,0.057130
 5,0.0020924,0.1094071,0.3090911,0.0470601,-0.0843558,0.0379974,0.42645
 56\Polar=58.9808874,-0.16357,48.4881002,-4.1720978,-4.6134493,36.49397
 48\PG=C01 [X(C3H7N1O2)]\NImag=1\\0.42578665,0.22984661,0.39496588,0.07
 778406,-0.20127141,0.61381600,-0.15585778,-0.15768299,0.13142457,0.166
 78520,-0.13091923,-0.14376203,0.13975697,0.15028232,0.16499278,0.11949
 846,0.16091424,-0.21758350,-0.12489337,-0.15461751,0.22493353,-0.11785
 815,-0.04198557,-0.03879691,-0.01316439,-0.01582193,-0.01512992,0.5937
 4485,-0.10817086,-0.13287735,-0.07237289,0.00137399,-0.01313861,-0.016
 44861,-0.03584514,0.41198145,-0.04432487,-0.03966315,-0.07591301,0.005
 56601,0.00982494,0.00894128,-0.03482013,0.12016202,0.20550344,-0.01772
 854,0.01265615,-0.03538912,0.00556181,0.00100152,0.00025023,-0.0153992
 3,-0.06842961,0.04839815,-0.08214668,0.00482801,-0.00667385,0.01197481
 ,-0.00350201,0.00008701,-0.00227892,0.00130289,0.02421300,-0.01375590,
 0.08375911,0.02669769,0.00266409,-0.00606764,0.00488744,-0.00264901,0.
 00029816,0.00076320,0.00434222,0.02815055,-0.04372007,0.03261060,-0.06
 911475,0.06991679,0.00507485,-0.02848554,-0.00991202,0.00080652,-0.001
 04947,-0.00123837,-0.10858263,0.05003294,0.01897842,-0.00052373,-0.000
 84657,0.00141554,0.55881035,0.00404138,-0.02982664,-0.00827799,0.00084
 928,-0.00117334,-0.00052625,0.04646884,-0.16737654,-0.02755285,-0.0004
 1909,-0.00112159,-0.00090645,0.04776991,0.49073062,0.00040416,-0.02021
 851,-0.00048690,-0.00045861,0.00107557,0.00021258,0.00888689,-0.003410
 12,-0.08030076,0.01528592,-0.00914575,-0.00071587,0.00097249,0.0019893
 8,0.53731182,-0.02755164,-0.03485435,0.03596196,-0.00783305,0.00021725
 ,-0.00091525,-0.25589193,0.08866979,-0.00928207,0.11194445,-0.05539435
 ,-0.02753548,-0.01418358,0.00834297,0.00647843,0.60164210,-0.02134098,
 -0.01028280,-0.00416396,-0.00402603,0.00033104,-0.00210428,0.00445455,
 -0.10547830,0.01728927,-0.09708146,-0.00496878,0.07065260,0.03189262,-
 0.00106232,-0.00630904,0.01606028,0.60461502,-0.01857271,0.00258740,-0
 .01107712,0.00070728,-0.00097765,-0.00023155,0.06638824,-0.02408699,-0
 .05587451,0.01371507,0.05056670,-0.03619091,0.00340101,0.00177092,-0.0
 0827629,-0.12180208,-0.20136489,0.31513228,0.00187582,-0.00014291,-0.0
 0110246,0.00009918,0.00040912,0.00046231,-0.01360236,-0.00015845,0.008
 08051,0.00050157,-0.00032106,-0.00011473,-0.18275230,-0.02549011,0.127
 63021,-0.00002762,0.00161591,0.00129916,0.20092040,-0.00111030,0.00303
 949,0.00174719,-0.00016218,-0.00064870,0.00005308,0.02701116,-0.000194
 02,-0.02237185,0.00095168,-0.00031277,0.00001869,-0.02548433,-0.050131
 59,0.02113771,-0.00055888,-0.00515252,-0.00252974,0.02379190,0.0573975
 7,-0.00172343,0.00062660,0.00056624,0.00039249,-0.00067637,-0.00026573
 ,0.00504728,0.00015854,-0.00119975,-0.00108290,0.00025718,0.00079746,0
 .12753382,0.02206070,-0.16759552,0.00029662,-0.00112232,-0.00071958,-0
 .14182409,-0.02463019,0.18125622,0.00095841,0.00255371,0.00077217,-0.0
 0016194,0.00045573,0.00012587,0.01013473,0.01056176,0.00616706,-0.0002
 7826,0.00025745,-0.00012462,-0.16710731,-0.11270247,-0.06490769,-0.000
 22856,-0.00048395,0.00064147,-0.01602670,-0.01571412,-0.01055549,0.181
 47905,0.00244704,-0.00736193,-0.00233422,0.00014131,0.00018208,-0.0001
 7085,-0.02250133,-0.01454860,-0.00928849,-0.00006599,-0.00064958,0.000
 00708,-0.11017007,-0.15793402,-0.06174399,-0.00163811,-0.00056521,0.00
 013756,-0.00214720,-0.00272331,-0.00182499,0.12313168,0.17383664,0.000
 40771,-0.00259298,0.00111622,0.00024444,-0.00046061,-0.00025641,-0.004
 55834,-0.00182870,-0.00330479,-0.00036127,-0.00006918,0.00013740,-0.06
 366073,-0.06194893,-0.08444727,-0.00100317,-0.00187211,0.00087671,0.01
 614851,0.01594081,0.00880984,0.07138410,0.06948495,0.08769168,0.000960
 02,-0.00169981,0.00226732,-0.00001364,0.00004764,0.00010411,-0.0098698
 7,0.01236189,-0.01227035,0.00330636,-0.00279194,-0.00031908,-0.0870243
 9,0.03568937,-0.08201036,0.00186393,0.00346744,-0.00318327,0.00939034,
 -0.00980774,0.02128999,-0.00902361,0.00938710,-0.01969292,0.09377117,-
 0.00040642,0.00430312,0.00078558,-0.00010053,-0.00012632,-0.00017577,0
 .01854589,-0.02089589,0.02326019,-0.00457725,0.00299814,0.00031328,0.0
 3660847,-0.08573634,0.08076114,-0.00241127,-0.00288619,0.00332566,0.00
 205120,-0.00169037,0.00460983,-0.00899554,0.00854656,-0.01871638,-0.04
 640645,0.09533864,0.00184962,0.00106664,0.00213332,0.00004164,0.000176
 19,-0.00008994,0.00124014,-0.00501588,0.01002617,-0.00133655,-0.000329
 73,0.00027566,-0.07923117,0.07510189,-0.21173294,0.00284211,0.00011738
 ,0.00023324,-0.01064253,0.00891206,-0.02088953,-0.00381348,0.00553480,
 -0.01055718,0.09008524,-0.08771163,0.23218297,0.00415555,-0.00185239,0
 .00343320,-0.00291620,0.00081665,-0.00070190,-0.04872160,0.08823957,0.
 00356274,0.01580152,-0.03307832,-0.02129620,-0.00682605,-0.00272731,-0
 .01400955,-0.21376365,0.17691874,-0.02582613,-0.00067749,0.00079217,0.
 00058653,0.00083740,0.00014105,0.00049072,-0.00394270,0.00565567,0.000
 22807,0.23158563,-0.00250223,-0.00465903,0.02362202,-0.00366978,-0.000
 62486,0.00011216,0.04168826,0.02639851,-0.04535027,0.07001873,-0.03886
 598,-0.02867870,0.00074757,0.00160359,0.00031612,0.07224553,-0.2592106
 2,0.07436700,-0.00028926,-0.00007023,0.00048502,-0.00001027,-0.0002374
 8,0.00014456,0.00032155,-0.00093944,0.00129597,-0.20768578,0.31399063,
 -0.00396790,0.00929609,-0.01178697,0.00434170,-0.00019154,0.00038888,0
 .01420067,-0.03938281,0.03725962,-0.06543633,0.03118693,-0.00294908,0.
 00108538,-0.00258164,0.01471572,0.01601553,0.03091622,-0.07974924,-0.0
 0001674,0.00171182,-0.00058231,-0.00023719,0.00015062,-0.00052163,0.00
 290252,-0.00404110,-0.00112684,0.05336487,-0.06127344,0.05080901,-0.11
 875062,0.02373523,-0.16863748,0.00821828,-0.00535753,0.02375925,-0.020
 12022,-0.00102964,-0.01142511,-0.00555421,-0.00078527,0.00121364,0.001
 46336,0.00024239,0.00234266,0.01197764,-0.00212460,-0.00871605,0.00025
 143,0.00000279,0.00014093,-0.00022601,0.00047314,0.00010837,0.00083565
 ,-0.00098292,-0.00030724,-0.00245991,0.00835889,-0.00205015,0.12564498
 ,0.02222263,-0.07057586,0.11369312,0.01594704,-0.00586771,0.01530496,-
 0.01903179,0.00287123,-0.02638671,-0.00089464,0.00008094,-0.00115097,-
 0.00139985,0.00337813,-0.00179253,0.00173870,-0.00102157,-0.00285792,0
 .00006758,-0.00029633,0.00001541,0.00042709,-0.00001919,0.00070147,0.0
 0073268,-0.00057655,0.00155797,0.00028786,-0.00009921,0.00113924,-0.02
 035218,0.07228252,-0.13562725,0.09538093,-0.30567558,-0.01550470,0.005
 86552,-0.01740705,-0.01330092,0.00203690,-0.00631992,-0.00104887,-0.00
 144942,-0.00093099,0.00128307,0.00083136,0.00074261,0.00294252,-0.0005
 0054,0.00029871,0.00008904,-0.00024487,-0.00053308,0.00038968,0.000360
 04,0.00056714,0.00017078,-0.00145954,-0.00055492,-0.00035372,0.0004939
 3,0.00069940,0.16172022,-0.10079923,0.32960486,-0.00119157,-0.00080258
 ,0.00086817,-0.00129851,-0.00021646,-0.00106619,-0.00723056,-0.0361576
 8,0.02287034,-0.01141578,0.00624730,0.00840138,0.00054668,-0.00196312,
 -0.00069577,-0.17448300,-0.11366747,0.08576754,-0.00000860,0.00023639,
 -0.00014326,-0.00023089,0.00078331,0.00048214,-0.00041952,0.00122577,-
 0.00089373,0.02118901,0.01787895,-0.01509624,-0.00175948,0.00015179,-0
 .00067969,0.60758531,0.00057042,0.00394484,-0.00296823,0.00059418,-0.0
 0029082,0.00007054,-0.00552649,-0.00644518,0.00939559,0.00845907,-0.00
 347498,0.00306693,-0.00009650,-0.00113521,-0.00290545,-0.04788887,-0.2
 1369162,0.09138571,0.00059100,0.00063720,0.00011245,0.00053093,0.00137
 146,0.00105144,-0.00117737,0.00163736,-0.00053750,-0.03174789,-0.04055
 762,0.04014675,-0.00211795,-0.00016887,-0.00038887,0.02659708,0.305763
 83,-0.00000290,-0.00170320,0.00251598,0.00009317,-0.00005375,0.0004009
 5,0.00793930,0.01004704,-0.00326810,-0.00342386,0.00138959,0.00625472,
 -0.00067115,0.00040146,0.00020783,0.06099511,0.09992300,-0.11890380,0.
 00008722,0.00017264,0.00035968,0.00005962,-0.00020557,-0.00004312,0.00
 063473,-0.00107820,0.00038440,0.00355022,0.03582036,-0.00363371,0.0024
 2414,0.00055342,-0.00029219,-0.10457889,-0.14984018,0.13988099,0.00012
 701,-0.00128556,0.00132655,-0.00022549,0.00013439,-0.00025522,0.006561
 35,-0.00144857,-0.00150072,-0.00406927,0.00032476,0.00139165,0.0002982
 2,-0.00010204,0.00008121,-0.03346509,0.00431495,0.00618048,0.00005633,
 0.00005147,0.00004151,-0.00012631,0.00001806,0.00001045,0.00016629,-0.
 00020662,-0.00006212,0.00573849,0.00289784,-0.00510612,0.00047912,0.00
 010308,-0.00008016,-0.43128309,0.05121239,0.03289330,0.45574244,0.0004
 9393,-0.00023386,-0.00019101,-0.00004461,0.00003949,-0.00013277,0.0012
 4067,-0.00450969,0.00443720,-0.00537822,0.00199074,0.00341122,0.000480
 83,-0.00021477,0.00024548,-0.04452870,-0.00062614,0.00767624,0.0000222
 9,0.00014558,-0.00007185,-0.00001201,0.00010258,0.00016566,-0.00012436
 ,0.00002727,-0.00016816,0.00423996,0.00327175,-0.00707714,-0.00006235,
 0.00001247,-0.00012621,0.09968673,-0.04759040,0.00457337,-0.05601416,0
 .04758498,0.00161098,0.00164498,-0.00251213,0.00069439,-0.00001994,0.0
 0019376,-0.00143851,0.00199095,0.00817041,-0.00218107,0.00076846,0.001
 47424,0.00004371,-0.00036159,0.00036497,0.03500575,-0.00146133,-0.0055
 1794,-0.00009640,0.00008265,-0.00000397,0.00009850,-0.00010694,-0.0000
 6861,0.00002129,0.00012695,-0.00028441,-0.00302885,-0.00135474,-0.0035
 2287,-0.00057316,0.00002177,-0.00019900,0.00476419,0.01141080,-0.02386
 362,-0.03492082,-0.01274203,0.02576916\\-0.00002165,-0.00000581,0.0000
 1463,0.00002494,0.00001357,-0.00000857,-0.00001298,-0.00001279,0.00000
 881,-0.00000858,0.00001488,0.00001106,-0.00001294,0.00001235,0.0000041
 8,-0.00001709,0.00003074,-0.00000692,0.00000283,0.00000838,-0.00000938
 ,0.00000056,0.00000572,-0.00000776,-0.00000144,-0.00000190,-0.00000694
 ,0.00004577,-0.00005982,0.00001233,0.00000595,-0.00000834,-0.00000541,
 -0.00000574,0.00000562,-0.00000503,0.00000036,-0.00000259,-0.00000099\
 \\@


 CURIOUSER AND CURIOUSER

                  -- ALICE, IN WONDERLAND
 Job cpu time:       0 days  0 hours  1 minutes 24.4 seconds.
 File lengths (MBytes):  RWF=     13 Int=      0 D2E=      0 Chk=      2 Scr=      1
 Normal termination of Gaussian 09 at Tue Apr 12 21:02:22 2016.
