 Entering Gaussian System, Link 0=g09
 Input=Ala-S-opt-freq-pb1-6-31g.com
 Output=Ala-S-opt-freq-pb1-6-31g.log
 Initial command:
 /usr/local/gau/g09/l1.exe "/tmp/Gau-9434.inp" -scrdir="/tmp/"
 Entering Link 1 = /usr/local/gau/g09/l1.exe PID=      9436.
  
 Copyright (c) 1988,1990,1992,1993,1995,1998,2003,2009,2013,
            Gaussian, Inc.  All Rights Reserved.
  
 This is part of the Gaussian(R) 09 program.  It is based on
 the Gaussian(R) 03 system (copyright 2003, Gaussian, Inc.),
 the Gaussian(R) 98 system (copyright 1998, Gaussian, Inc.),
 the Gaussian(R) 94 system (copyright 1995, Gaussian, Inc.),
 the Gaussian 92(TM) system (copyright 1992, Gaussian, Inc.),
 the Gaussian 90(TM) system (copyright 1990, Gaussian, Inc.),
 the Gaussian 88(TM) system (copyright 1988, Gaussian, Inc.),
 the Gaussian 86(TM) system (copyright 1986, Carnegie Mellon
 University), and the Gaussian 82(TM) system (copyright 1983,
 Carnegie Mellon University). Gaussian is a federally registered
 trademark of Gaussian, Inc.
  
 This software contains proprietary and confidential information,
 including trade secrets, belonging to Gaussian, Inc.
  
 This software is provided under written license and may be
 used, copied, transmitted, or stored only in accord with that
 written license.
  
 The following legend is applicable only to US Government
 contracts under FAR:
  
                    RESTRICTED RIGHTS LEGEND
  
 Use, reproduction and disclosure by the US Government is
 subject to restrictions as set forth in subparagraphs (a)
 and (c) of the Commercial Computer Software - Restricted
 Rights clause in FAR 52.227-19.
  
 Gaussian, Inc.
 340 Quinnipiac St., Bldg. 40, Wallingford CT 06492
  
  
 ---------------------------------------------------------------
 Warning -- This program may not be used in any manner that
 competes with the business of Gaussian, Inc. or will provide
 assistance to any competitor of Gaussian, Inc.  The licensee
 of this program is prohibited from giving any competitor of
 Gaussian, Inc. access to this program.  By using this program,
 the user acknowledges that Gaussian, Inc. is engaged in the
 business of creating and licensing software in the field of
 computational chemistry and represents and warrants to the
 licensee that it is not a competitor of Gaussian, Inc. and that
 it will not use this program in any manner prohibited above.
 ---------------------------------------------------------------
  

 Cite this work as:
 Gaussian 09, Revision D.01,
 M. J. Frisch, G. W. Trucks, H. B. Schlegel, G. E. Scuseria, 
 M. A. Robb, J. R. Cheeseman, G. Scalmani, V. Barone, B. Mennucci, 
 G. A. Petersson, H. Nakatsuji, M. Caricato, X. Li, H. P. Hratchian, 
 A. F. Izmaylov, J. Bloino, G. Zheng, J. L. Sonnenberg, M. Hada, 
 M. Ehara, K. Toyota, R. Fukuda, J. Hasegawa, M. Ishida, T. Nakajima, 
 Y. Honda, O. Kitao, H. Nakai, T. Vreven, J. A. Montgomery, Jr., 
 J. E. Peralta, F. Ogliaro, M. Bearpark, J. J. Heyd, E. Brothers, 
 K. N. Kudin, V. N. Staroverov, T. Keith, R. Kobayashi, J. Normand, 
 K. Raghavachari, A. Rendell, J. C. Burant, S. S. Iyengar, J. Tomasi, 
 M. Cossi, N. Rega, J. M. Millam, M. Klene, J. E. Knox, J. B. Cross, 
 V. Bakken, C. Adamo, J. Jaramillo, R. Gomperts, R. E. Stratmann, 
 O. Yazyev, A. J. Austin, R. Cammi, C. Pomelli, J. W. Ochterski, 
 R. L. Martin, K. Morokuma, V. G. Zakrzewski, G. A. Voth, 
 P. Salvador, J. J. Dannenberg, S. Dapprich, A. D. Daniels, 
 O. Farkas, J. B. Foresman, J. V. Ortiz, J. Cioslowski, 
 and D. J. Fox, Gaussian, Inc., Wallingford CT, 2013.
 
 ******************************************
 Gaussian 09:  ES64L-G09RevD.01 24-Apr-2013
                12-Apr-2016 
 ******************************************
 %chk=Ala-S-opt-freq-pb1-6-31g.chk
 ------------------------------------
 #p opt=(calcfc,ts) freq rb3lyp/6-31g
 ------------------------------------
 1/5=1,10=4,14=-1,18=20,26=3,38=1/1,3;
 2/9=110,12=2,17=6,18=5,40=1/2;
 3/5=1,6=6,11=2,16=1,25=1,30=1,71=2,74=-5,116=1,140=1/1,2,3;
 4//1;
 5/5=2,38=5/2;
 8/6=4,10=90,11=11/1;
 11/6=1,8=1,9=11,15=111,16=1/1,2,10;
 10/6=1,13=1/2;
 6/7=2,8=2,9=2,10=2,28=1/1;
 7/10=1,18=20,25=1/1,2,3,16;
 1/5=1,10=4,14=-1,18=20,26=3/3(2);
 2/9=110/2;
 99//99;
 2/9=110/2;
 3/5=1,6=6,11=2,16=1,25=1,30=1,71=1,74=-5,116=1/1,2,3;
 4/5=5,16=3,69=1/1;
 5/5=2,38=5/2;
 7//1,2,3,16;
 1/5=1,14=-1,18=20,26=3/3(-5);
 2/9=110/2;
 6/7=2,8=2,9=2,10=2,19=2,28=1/1;
 99/9=1/99;
 Leave Link    1 at Tue Apr 12 23:00:55 2016, MaxMem=           0 cpu:         0.0
 (Enter /usr/local/gau/g09/l101.exe)
 ------------------------
 Ala-S-opt-freq-pb1-6-31g
 ------------------------
 Symbolic Z-matrix:
 Charge =  0 Multiplicity = 1
 N                    -1.27355  -1.19213  -0.4892 
 H                    -1.90602  -1.79254   0.01746 
 C                    -0.6325   -0.12411   0.25753 
 H                    -0.28844  -0.8131    0.84624 
 C                    -1.4035    1.17138   0.40998 
 C                     0.7888   -0.06453   0.03637 
 H                    -2.32066   0.99325   0.98442 
 H                    -0.82419   1.9382    0.93685 
 H                    -1.7062    1.59198  -0.56426 
 O                     1.41649  -1.10931   0.54044 
 H                    -1.59734  -0.9649   -1.42498 
 O                     1.48083   0.96269  -0.48377 
 H                     2.44815   0.86969  -0.34293 
 
 NAtoms=     13 NQM=       13 NQMF=       0 NMMI=      0 NMMIF=      0
                NMic=       0 NMicF=      0.
                    Isotopes and Nuclear Properties:
 (Nuclear quadrupole moments (NQMom) in fm**2, nuclear magnetic moments (NMagM)
  in nuclear magnetons)

  Atom         1           2           3           4           5           6           7           8           9          10
 IAtWgt=          14           1          12           1          12          12           1           1           1          16
 AtmWgt=  14.0030740   1.0078250  12.0000000   1.0078250  12.0000000  12.0000000   1.0078250   1.0078250   1.0078250  15.9949146
 NucSpn=           2           1           0           1           0           0           1           1           1           0
 AtZEff=   0.0000000   0.0000000   0.0000000   0.0000000   0.0000000   0.0000000   0.0000000   0.0000000   0.0000000   0.0000000
 NQMom=    2.0440000   0.0000000   0.0000000   0.0000000   0.0000000   0.0000000   0.0000000   0.0000000   0.0000000   0.0000000
 NMagM=    0.4037610   2.7928460   0.0000000   2.7928460   0.0000000   0.0000000   2.7928460   2.7928460   2.7928460   0.0000000
 AtZNuc=   7.0000000   1.0000000   6.0000000   1.0000000   6.0000000   6.0000000   1.0000000   1.0000000   1.0000000   8.0000000

  Atom        11          12          13
 IAtWgt=           1          16           1
 AtmWgt=   1.0078250  15.9949146   1.0078250
 NucSpn=           1           0           1
 AtZEff=   0.0000000   0.0000000   0.0000000
 NQMom=    0.0000000   0.0000000   0.0000000
 NMagM=    2.7928460   0.0000000   2.7928460
 AtZNuc=   1.0000000   8.0000000   1.0000000
 Leave Link  101 at Tue Apr 12 23:00:55 2016, MaxMem=    33554432 cpu:         0.1
 (Enter /usr/local/gau/g09/l103.exe)

 GradGradGradGradGradGradGradGradGradGradGradGradGradGradGradGradGradGrad
 Berny optimization.
 Initialization pass.
                           ----------------------------
                           !    Initial Parameters    !
                           ! (Angstroms and Degrees)  !
 --------------------------                            --------------------------
 ! Name  Definition              Value          Derivative Info.                !
 --------------------------------------------------------------------------------
 ! R1    R(1,2)                  1.0086         calculate D2E/DX2 analytically  !
 ! R2    R(1,3)                  1.4523         calculate D2E/DX2 analytically  !
 ! R3    R(1,11)                 1.0159         calculate D2E/DX2 analytically  !
 ! R4    R(3,4)                  0.9694         calculate D2E/DX2 analytically  !
 ! R5    R(3,5)                  1.5153         calculate D2E/DX2 analytically  !
 ! R6    R(3,6)                  1.4396         calculate D2E/DX2 analytically  !
 ! R7    R(5,7)                  1.0968         calculate D2E/DX2 analytically  !
 ! R8    R(5,8)                  1.096          calculate D2E/DX2 analytically  !
 ! R9    R(5,9)                  1.1035         calculate D2E/DX2 analytically  !
 ! R10   R(6,10)                 1.319          calculate D2E/DX2 analytically  !
 ! R11   R(6,12)                 1.3434         calculate D2E/DX2 analytically  !
 ! R12   R(12,13)                0.9819         calculate D2E/DX2 analytically  !
 ! A1    A(2,1,3)              117.148          calculate D2E/DX2 analytically  !
 ! A2    A(2,1,11)             113.3282         calculate D2E/DX2 analytically  !
 ! A3    A(3,1,11)             116.7307         calculate D2E/DX2 analytically  !
 ! A4    A(1,3,4)               86.9184         calculate D2E/DX2 analytically  !
 ! A5    A(1,3,5)              117.1208         calculate D2E/DX2 analytically  !
 ! A6    A(1,3,6)              112.7823         calculate D2E/DX2 analytically  !
 ! A7    A(4,3,5)              136.6504         calculate D2E/DX2 analytically  !
 ! A8    A(4,3,6)               76.8383         calculate D2E/DX2 analytically  !
 ! A9    A(5,3,6)              118.8434         calculate D2E/DX2 analytically  !
 ! A10   A(3,5,7)              109.8367         calculate D2E/DX2 analytically  !
 ! A11   A(3,5,8)              112.1851         calculate D2E/DX2 analytically  !
 ! A12   A(3,5,9)              112.1248         calculate D2E/DX2 analytically  !
 ! A13   A(7,5,8)              107.6895         calculate D2E/DX2 analytically  !
 ! A14   A(7,5,9)              107.1531         calculate D2E/DX2 analytically  !
 ! A15   A(8,5,9)              107.6223         calculate D2E/DX2 analytically  !
 ! A16   A(3,6,10)             112.2311         calculate D2E/DX2 analytically  !
 ! A17   A(3,6,12)             126.8493         calculate D2E/DX2 analytically  !
 ! A18   A(10,6,12)            120.5658         calculate D2E/DX2 analytically  !
 ! A19   A(6,12,13)            112.3042         calculate D2E/DX2 analytically  !
 ! D1    D(2,1,3,4)             57.2172         calculate D2E/DX2 analytically  !
 ! D2    D(2,1,3,5)            -85.0264         calculate D2E/DX2 analytically  !
 ! D3    D(2,1,3,6)            131.5568         calculate D2E/DX2 analytically  !
 ! D4    D(11,1,3,4)          -163.6243         calculate D2E/DX2 analytically  !
 ! D5    D(11,1,3,5)            54.1322         calculate D2E/DX2 analytically  !
 ! D6    D(11,1,3,6)           -89.2847         calculate D2E/DX2 analytically  !
 ! D7    D(1,3,5,7)             63.4711         calculate D2E/DX2 analytically  !
 ! D8    D(1,3,5,8)           -176.7958         calculate D2E/DX2 analytically  !
 ! D9    D(1,3,5,9)            -55.5491         calculate D2E/DX2 analytically  !
 ! D10   D(4,3,5,7)            -53.5673         calculate D2E/DX2 analytically  !
 ! D11   D(4,3,5,8)             66.1659         calculate D2E/DX2 analytically  !
 ! D12   D(4,3,5,9)           -172.5874         calculate D2E/DX2 analytically  !
 ! D13   D(6,3,5,7)           -155.3812         calculate D2E/DX2 analytically  !
 ! D14   D(6,3,5,8)            -35.6481         calculate D2E/DX2 analytically  !
 ! D15   D(6,3,5,9)             85.5986         calculate D2E/DX2 analytically  !
 ! D16   D(1,3,6,10)           -67.8            calculate D2E/DX2 analytically  !
 ! D17   D(1,3,6,12)           119.0632         calculate D2E/DX2 analytically  !
 ! D18   D(4,3,6,10)            13.1038         calculate D2E/DX2 analytically  !
 ! D19   D(4,3,6,12)          -160.033          calculate D2E/DX2 analytically  !
 ! D20   D(5,3,6,10)           149.471          calculate D2E/DX2 analytically  !
 ! D21   D(5,3,6,12)           -23.6657         calculate D2E/DX2 analytically  !
 ! D22   D(3,6,12,13)          166.2118         calculate D2E/DX2 analytically  !
 ! D23   D(10,6,12,13)          -6.4072         calculate D2E/DX2 analytically  !
 --------------------------------------------------------------------------------
 Trust Radius=3.00D-01 FncErr=1.00D-07 GrdErr=1.00D-06
 Number of steps in this run=     64 maximum allowed number of steps=    100.
 Search for a saddle point of order  1.
 GradGradGradGradGradGradGradGradGradGradGradGradGradGradGradGradGradGrad

 Leave Link  103 at Tue Apr 12 23:00:55 2016, MaxMem=    33554432 cpu:         0.0
 (Enter /usr/local/gau/g09/l202.exe)
                          Input orientation:                          
 ---------------------------------------------------------------------
 Center     Atomic      Atomic             Coordinates (Angstroms)
 Number     Number       Type             X           Y           Z
 ---------------------------------------------------------------------
      1          7           0       -1.273551   -1.192126   -0.489201
      2          1           0       -1.906024   -1.792540    0.017460
      3          6           0       -0.632498   -0.124114    0.257530
      4          1           0       -0.288441   -0.813102    0.846239
      5          6           0       -1.403500    1.171379    0.409982
      6          6           0        0.788800   -0.064531    0.036375
      7          1           0       -2.320663    0.993249    0.984423
      8          1           0       -0.824194    1.938196    0.936855
      9          1           0       -1.706202    1.591977   -0.564264
     10          8           0        1.416486   -1.109311    0.540437
     11          1           0       -1.597341   -0.964902   -1.424979
     12          8           0        1.480828    0.962685   -0.483771
     13          1           0        2.448147    0.869692   -0.342925
 ---------------------------------------------------------------------
                    Distance matrix (angstroms):
                    1          2          3          4          5
     1  N    0.000000
     2  H    1.008575   0.000000
     3  C    1.452310   2.112616   0.000000
     4  H    1.702206   2.064643   0.969360   0.000000
     5  C    2.532108   3.031735   1.515252   2.317723   0.000000
     6  C    2.408525   3.201320   1.439635   1.541651   2.544255
     7  H    2.836173   2.977845   2.150994   2.722485   1.096768
     8  H    3.469074   3.991746   2.179760   2.804440   1.095992
     9  H    2.818519   3.439955   2.184755   3.127934   1.103488
    10  O    2.881547   3.432110   2.291066   1.757279   3.629172
    11  H    1.015948   1.691420   2.113926   2.625776   2.822827
    12  O    3.497119   4.394686   2.489338   2.837721   3.026829
    13  H    4.257173   5.116264   3.292198   3.425612   3.936124
                    6          7          8          9         10
     6  C    0.000000
     7  H    3.418546   0.000000
     8  H    2.724615   1.770482   0.000000
     9  H    3.054476   1.770443   1.775152   0.000000
    10  O    1.318952   4.310935   3.803300   4.274167   0.000000
    11  H    2.939369   3.187910   3.821517   2.700058   3.600954
    12  O    1.343364   4.075274   2.878007   3.249561   2.312209
    13  H    1.941668   4.951633   3.672568   4.222476   2.400230
                   11         12         13
    11  H    0.000000
    12  O    3.751878   0.000000
    13  H    4.571931   0.981932   0.000000
 Stoichiometry    C3H7NO2
 Framework group  C1[X(C3H7NO2)]
 Deg. of freedom    33
 Full point group                 C1      NOp   1
 Largest Abelian subgroup         C1      NOp   1
 Largest concise Abelian subgroup C1      NOp   1
                         Standard orientation:                         
 ---------------------------------------------------------------------
 Center     Atomic      Atomic             Coordinates (Angstroms)
 Number     Number       Type             X           Y           Z
 ---------------------------------------------------------------------
      1          7           0        1.297933   -1.145271    0.515203
      2          1           0        1.941638   -1.729218    0.003466
      3          6           0        0.647195   -0.074523   -0.219129
      4          1           0        0.316191   -0.758866   -0.820603
      5          6           0        1.401547    1.233411   -0.346602
      6          6           0       -0.776139   -0.037462   -0.006308
      7          1           0        2.324624    1.076532   -0.917757
      8          1           0        0.815242    2.000451   -0.865346
      9          1           0        1.692410    1.642893    0.635951
     10          8           0       -1.386460   -1.082641   -0.530466
     11          1           0        1.612738   -0.928244    1.456451
     12          8           0       -1.485249    0.972189    0.525101
     13          1           0       -2.450319    0.868410    0.376567
 ---------------------------------------------------------------------
 Rotational constants (GHZ):      4.8934511      3.0418074      2.1941938
 Leave Link  202 at Tue Apr 12 23:00:55 2016, MaxMem=    33554432 cpu:         0.0
 (Enter /usr/local/gau/g09/l301.exe)
 Standard basis: 6-31G (6D, 7F)
 Ernie: Thresh=  0.10000D-02 Tol=  0.10000D-05 Strict=F.
 There are    68 symmetry adapted cartesian basis functions of A   symmetry.
 There are    68 symmetry adapted basis functions of A   symmetry.
    68 basis functions,   160 primitive gaussians,    68 cartesian basis functions
    24 alpha electrons       24 beta electrons
       nuclear repulsion energy       247.7642889038 Hartrees.
 IExCor=  402 DFT=T Ex+Corr=B3LYP ExCW=0 ScaHFX=  0.200000
 ScaDFX=  0.800000  0.720000  1.000000  0.810000 ScalE2=  1.000000  1.000000
 IRadAn=      0 IRanWt=     -1 IRanGd=            0 ICorTp=0 IEmpDi=  4
 NAtoms=   13 NActive=   13 NUniq=   13 SFac= 1.00D+00 NAtFMM=   60 NAOKFM=F Big=F
 Integral buffers will be    131072 words long.
 Raffenetti 2 integral format.
 Two-electron integral symmetry is turned on.
 Leave Link  301 at Tue Apr 12 23:00:55 2016, MaxMem=    33554432 cpu:         0.0
 (Enter /usr/local/gau/g09/l302.exe)
 NPDir=0 NMtPBC=     1 NCelOv=     1 NCel=       1 NClECP=     1 NCelD=      1
         NCelK=      1 NCelE2=     1 NClLst=     1 CellRange=     0.0.
 One-electron integrals computed using PRISM.
 NBasis=    68 RedAO= T EigKep=  3.51D-03  NBF=    68
 NBsUse=    68 1.00D-06 EigRej= -1.00D+00 NBFU=    68
 Precomputing XC quadrature grid using
 IXCGrd= 4 IRadAn=           0 IRanWt=          -1 IRanGd=           0 AccXCQ= 0.00D+00.
 Generated NRdTot=       0 NPtTot=           0 NUsed=           0 NTot=          32
 NSgBfM=    68    68    68    68    68 MxSgAt=    13 MxSgA2=    13.
 Leave Link  302 at Tue Apr 12 23:00:56 2016, MaxMem=    33554432 cpu:         0.2
 (Enter /usr/local/gau/g09/l303.exe)
 DipDrv:  MaxL=1.
 Leave Link  303 at Tue Apr 12 23:00:56 2016, MaxMem=    33554432 cpu:         0.0
 (Enter /usr/local/gau/g09/l401.exe)
 ExpMin= 1.61D-01 ExpMax= 5.48D+03 ExpMxC= 8.25D+02 IAcc=1 IRadAn=         1 AccDes= 0.00D+00
 Harris functional with IExCor=  402 and IRadAn=       1 diagonalized for initial guess.
 HarFok:  IExCor=  402 AccDes= 0.00D+00 IRadAn=         1 IDoV= 1 UseB2=F ITyADJ=14
 ICtDFT=  3500011 ScaDFX=  1.000000  1.000000  1.000000  1.000000
 FoFCou: FMM=F IPFlag=           0 FMFlag=      100000 FMFlg1=           0
         NFxFlg=           0 DoJE=T BraDBF=F KetDBF=T FulRan=T
         wScrn=  0.000000 ICntrl=     500 IOpCl=  0 I1Cent=   200000004 NGrid=           0
         NMat0=    1 NMatS0=      1 NMatT0=    0 NMatD0=    1 NMtDS0=    0 NMtDT0=    0
 Petite list used in FoFCou.
 Harris En= -323.595069728418    
 JPrj=0 DoOrth=F DoCkMO=F.
 Leave Link  401 at Tue Apr 12 23:00:56 2016, MaxMem=    33554432 cpu:         0.5
 (Enter /usr/local/gau/g09/l502.exe)
 Closed shell SCF:
 Using DIIS extrapolation, IDIIS=  1040.
 Integral symmetry usage will be decided dynamically.
 Keep R1 ints in memory in canonical form, NReq=3676491.
 IVT=       33364 IEndB=       33364 NGot=    33554432 MDV=    30768038
 LenX=    30768038 LenY=    30762973
 Requested convergence on RMS density matrix=1.00D-08 within 128 cycles.
 Requested convergence on MAX density matrix=1.00D-06.
 Requested convergence on             energy=1.00D-06.
 No special actions if energy rises.
 FoFCou: FMM=F IPFlag=           0 FMFlag=           0 FMFlg1=           0
         NFxFlg=           0 DoJE=F BraDBF=F KetDBF=F FulRan=T
         wScrn=  0.000000 ICntrl=     600 IOpCl=  0 I1Cent=           0 NGrid=           0
         NMat0=    1 NMatS0=   2346 NMatT0=    0 NMatD0=    1 NMtDS0=    0 NMtDT0=    0
 Symmetry not used in FoFCou.
 Integral accuracy reduced to 1.0D-05 until final iterations.

 Cycle   1  Pass 0  IDiag  1:
 E= -323.303453505351    
 DIIS: error= 4.14D-02 at cycle   1 NSaved=   1.
 NSaved= 1 IEnMin= 1 EnMin= -323.303453505351     IErMin= 1 ErrMin= 4.14D-02
 ErrMax= 4.14D-02  0.00D+00 EMaxC= 1.00D-01 BMatC= 2.48D-01 BMatP= 2.48D-01
 IDIUse=3 WtCom= 5.86D-01 WtEn= 4.14D-01
 Coeff-Com:  0.100D+01
 Coeff-En:   0.100D+01
 Coeff:      0.100D+01
 Gap=     0.098 Goal=   None    Shift=    0.000
 GapD=    0.098 DampG=0.500 DampE=0.500 DampFc=0.2500 IDamp=-1.
 Damping current iteration by 2.50D-01
 RMSDP=2.27D-02 MaxDP=3.62D-01              OVMax= 3.85D-01

 Cycle   2  Pass 0  IDiag  1:
 E= -323.380546462979     Delta-E=       -0.077092957628 Rises=F Damp=T
 DIIS: error= 1.90D-02 at cycle   2 NSaved=   2.
 NSaved= 2 IEnMin= 2 EnMin= -323.380546462979     IErMin= 2 ErrMin= 1.90D-02
 ErrMax= 1.90D-02  0.00D+00 EMaxC= 1.00D-01 BMatC= 3.99D-02 BMatP= 2.48D-01
 IDIUse=3 WtCom= 8.10D-01 WtEn= 1.90D-01
 Coeff-Com: -0.397D+00 0.140D+01
 Coeff-En:   0.000D+00 0.100D+01
 Coeff:     -0.321D+00 0.132D+01
 Gap=     0.224 Goal=   None    Shift=    0.000
 RMSDP=5.76D-03 MaxDP=5.85D-02 DE=-7.71D-02 OVMax= 2.75D-01

 Cycle   3  Pass 0  IDiag  1:
 E= -323.470691379769     Delta-E=       -0.090144916790 Rises=F Damp=F
 DIIS: error= 3.15D-02 at cycle   3 NSaved=   3.
 NSaved= 3 IEnMin= 3 EnMin= -323.470691379769     IErMin= 2 ErrMin= 1.90D-02
 ErrMax= 3.15D-02  0.00D+00 EMaxC= 1.00D-01 BMatC= 7.03D-02 BMatP= 3.99D-02
 IDIUse=2 WtCom= 0.00D+00 WtEn= 1.00D+00
 Coeff-En:   0.000D+00 0.000D+00 0.100D+01
 Coeff:      0.000D+00 0.000D+00 0.100D+01
 Gap=     0.232 Goal=   None    Shift=    0.000
 RMSDP=1.48D-02 MaxDP=2.32D-01 DE=-9.01D-02 OVMax= 3.68D-01

 Cycle   4  Pass 0  IDiag  1:
 E= -323.101319790881     Delta-E=        0.369371588888 Rises=F Damp=F
 DIIS: error= 9.01D-02 at cycle   4 NSaved=   4.
 NSaved= 4 IEnMin= 3 EnMin= -323.470691379769     IErMin= 2 ErrMin= 1.90D-02
 ErrMax= 9.01D-02  0.00D+00 EMaxC= 1.00D-01 BMatC= 5.18D-01 BMatP= 3.99D-02
 IDIUse=2 WtCom= 0.00D+00 WtEn= 1.00D+00
 Coeff-En:   0.000D+00 0.000D+00 0.820D+00 0.180D+00
 Coeff:      0.000D+00 0.000D+00 0.820D+00 0.180D+00
 Gap=     0.199 Goal=   None    Shift=    0.000
 RMSDP=8.76D-03 MaxDP=1.46D-01 DE= 3.69D-01 OVMax= 2.06D-01

 Cycle   5  Pass 0  IDiag  1:
 E= -323.498084745394     Delta-E=       -0.396764954513 Rises=F Damp=F
 DIIS: error= 2.47D-02 at cycle   5 NSaved=   5.
 NSaved= 5 IEnMin= 5 EnMin= -323.498084745394     IErMin= 2 ErrMin= 1.90D-02
 ErrMax= 2.47D-02  0.00D+00 EMaxC= 1.00D-01 BMatC= 4.08D-02 BMatP= 3.99D-02
 IDIUse=3 WtCom= 7.53D-01 WtEn= 2.47D-01
 Coeff-Com: -0.107D+00 0.223D+00 0.351D+00-0.709D-01 0.605D+00
 Coeff-En:   0.000D+00 0.000D+00 0.391D+00 0.000D+00 0.609D+00
 Coeff:     -0.807D-01 0.168D+00 0.361D+00-0.534D-01 0.606D+00
 Gap=     0.232 Goal=   None    Shift=    0.000
 RMSDP=2.90D-03 MaxDP=3.85D-02 DE=-3.97D-01 OVMax= 7.37D-02

 Cycle   6  Pass 0  IDiag  1:
 E= -323.531557208146     Delta-E=       -0.033472462752 Rises=F Damp=F
 DIIS: error= 1.81D-03 at cycle   6 NSaved=   6.
 NSaved= 6 IEnMin= 6 EnMin= -323.531557208146     IErMin= 6 ErrMin= 1.81D-03
 ErrMax= 1.81D-03  0.00D+00 EMaxC= 1.00D-01 BMatC= 2.29D-04 BMatP= 3.99D-02
 IDIUse=3 WtCom= 9.82D-01 WtEn= 1.81D-02
 Coeff-Com: -0.389D-01 0.591D-01 0.153D+00-0.401D-01 0.340D+00 0.526D+00
 Coeff-En:   0.000D+00 0.000D+00 0.000D+00 0.000D+00 0.000D+00 0.100D+01
 Coeff:     -0.382D-01 0.581D-01 0.151D+00-0.394D-01 0.334D+00 0.535D+00
 Gap=     0.206 Goal=   None    Shift=    0.000
 RMSDP=2.28D-04 MaxDP=3.87D-03 DE=-3.35D-02 OVMax= 5.34D-03

 Cycle   7  Pass 0  IDiag  1:
 E= -323.531732030651     Delta-E=       -0.000174822505 Rises=F Damp=F
 DIIS: error= 4.56D-04 at cycle   7 NSaved=   7.
 NSaved= 7 IEnMin= 7 EnMin= -323.531732030651     IErMin= 7 ErrMin= 4.56D-04
 ErrMax= 4.56D-04  0.00D+00 EMaxC= 1.00D-01 BMatC= 1.38D-05 BMatP= 2.29D-04
 IDIUse=3 WtCom= 9.95D-01 WtEn= 4.56D-03
 Coeff-Com: -0.616D-02 0.686D-02 0.276D-01-0.997D-02 0.738D-01 0.257D+00
 Coeff-Com:  0.651D+00
 Coeff-En:   0.000D+00 0.000D+00 0.000D+00 0.000D+00 0.000D+00 0.215D-01
 Coeff-En:   0.979D+00
 Coeff:     -0.613D-02 0.683D-02 0.275D-01-0.993D-02 0.735D-01 0.256D+00
 Coeff:      0.652D+00
 Gap=     0.207 Goal=   None    Shift=    0.000
 RMSDP=4.88D-05 MaxDP=7.26D-04 DE=-1.75D-04 OVMax= 7.95D-04

 Cycle   8  Pass 0  IDiag  1:
 E= -323.531742518578     Delta-E=       -0.000010487926 Rises=F Damp=F
 DIIS: error= 9.96D-05 at cycle   8 NSaved=   8.
 NSaved= 8 IEnMin= 8 EnMin= -323.531742518578     IErMin= 8 ErrMin= 9.96D-05
 ErrMax= 9.96D-05  0.00D+00 EMaxC= 1.00D-01 BMatC= 7.40D-07 BMatP= 1.38D-05
 IDIUse=1 WtCom= 1.00D+00 WtEn= 0.00D+00
 Coeff-Com:  0.103D-02-0.212D-02-0.822D-03-0.569D-03 0.119D-02 0.789D-01
 Coeff-Com:  0.301D+00 0.621D+00
 Coeff:      0.103D-02-0.212D-02-0.822D-03-0.569D-03 0.119D-02 0.789D-01
 Coeff:      0.301D+00 0.621D+00
 Gap=     0.207 Goal=   None    Shift=    0.000
 RMSDP=1.79D-05 MaxDP=2.28D-04 DE=-1.05D-05 OVMax= 2.50D-04

 Cycle   9  Pass 0  IDiag  1:
 E= -323.531743221202     Delta-E=       -0.000000702624 Rises=F Damp=F
 DIIS: error= 5.67D-06 at cycle   9 NSaved=   9.
 NSaved= 9 IEnMin= 9 EnMin= -323.531743221202     IErMin= 9 ErrMin= 5.67D-06
 ErrMax= 5.67D-06  0.00D+00 EMaxC= 1.00D-01 BMatC= 4.80D-09 BMatP= 7.40D-07
 IDIUse=1 WtCom= 1.00D+00 WtEn= 0.00D+00
 Coeff-Com:  0.368D-03-0.732D-03-0.361D-03-0.763D-04-0.117D-03 0.201D-01
 Coeff-Com:  0.727D-01 0.157D+00 0.751D+00
 Coeff:      0.368D-03-0.732D-03-0.361D-03-0.763D-04-0.117D-03 0.201D-01
 Coeff:      0.727D-01 0.157D+00 0.751D+00
 Gap=     0.207 Goal=   None    Shift=    0.000
 RMSDP=1.59D-06 MaxDP=1.91D-05 DE=-7.03D-07 OVMax= 2.07D-05

 Initial convergence to 1.0D-05 achieved.  Increase integral accuracy.
 Cycle  10  Pass 1  IDiag  1:
 E= -323.531738313170     Delta-E=        0.000004908032 Rises=F Damp=F
 DIIS: error= 6.73D-06 at cycle   1 NSaved=   1.
 NSaved= 1 IEnMin= 1 EnMin= -323.531738313170     IErMin= 1 ErrMin= 6.73D-06
 ErrMax= 6.73D-06  0.00D+00 EMaxC= 1.00D-01 BMatC= 9.78D-09 BMatP= 9.78D-09
 IDIUse=1 WtCom= 1.00D+00 WtEn= 0.00D+00
 Coeff-Com:  0.100D+01
 Coeff:      0.100D+01
 Gap=     0.207 Goal=   None    Shift=    0.000
 RMSDP=1.59D-06 MaxDP=1.91D-05 DE= 4.91D-06 OVMax= 4.18D-05

 Cycle  11  Pass 1  IDiag  1:
 E= -323.531738326583     Delta-E=       -0.000000013413 Rises=F Damp=F
 DIIS: error= 6.60D-06 at cycle   2 NSaved=   2.
 NSaved= 2 IEnMin= 2 EnMin= -323.531738326583     IErMin= 2 ErrMin= 6.60D-06
 ErrMax= 6.60D-06  0.00D+00 EMaxC= 1.00D-01 BMatC= 3.80D-09 BMatP= 9.78D-09
 IDIUse=1 WtCom= 1.00D+00 WtEn= 0.00D+00
 Coeff-Com:  0.325D+00 0.675D+00
 Coeff:      0.325D+00 0.675D+00
 Gap=     0.207 Goal=   None    Shift=    0.000
 RMSDP=1.52D-06 MaxDP=1.92D-05 DE=-1.34D-08 OVMax= 2.39D-05

 Cycle  12  Pass 1  IDiag  1:
 E= -323.531738327950     Delta-E=       -0.000000001368 Rises=F Damp=F
 DIIS: error= 4.78D-06 at cycle   3 NSaved=   3.
 NSaved= 3 IEnMin= 3 EnMin= -323.531738327950     IErMin= 3 ErrMin= 4.78D-06
 ErrMax= 4.78D-06  0.00D+00 EMaxC= 1.00D-01 BMatC= 2.44D-09 BMatP= 3.80D-09
 IDIUse=1 WtCom= 1.00D+00 WtEn= 0.00D+00
 Coeff-Com:  0.365D-02 0.442D+00 0.554D+00
 Coeff:      0.365D-02 0.442D+00 0.554D+00
 Gap=     0.207 Goal=   None    Shift=    0.000
 RMSDP=8.86D-07 MaxDP=1.20D-05 DE=-1.37D-09 OVMax= 2.15D-05

 Cycle  13  Pass 1  IDiag  1:
 E= -323.531738329579     Delta-E=       -0.000000001629 Rises=F Damp=F
 DIIS: error= 2.80D-06 at cycle   4 NSaved=   4.
 NSaved= 4 IEnMin= 4 EnMin= -323.531738329579     IErMin= 4 ErrMin= 2.80D-06
 ErrMax= 2.80D-06  0.00D+00 EMaxC= 1.00D-01 BMatC= 5.16D-10 BMatP= 2.44D-09
 IDIUse=1 WtCom= 1.00D+00 WtEn= 0.00D+00
 Coeff-Com: -0.205D-01 0.284D+00 0.407D+00 0.329D+00
 Coeff:     -0.205D-01 0.284D+00 0.407D+00 0.329D+00
 Gap=     0.207 Goal=   None    Shift=    0.000
 RMSDP=3.60D-07 MaxDP=5.83D-06 DE=-1.63D-09 OVMax= 8.95D-06

 Cycle  14  Pass 1  IDiag  1:
 E= -323.531738330003     Delta-E=       -0.000000000424 Rises=F Damp=F
 DIIS: error= 1.66D-07 at cycle   5 NSaved=   5.
 NSaved= 5 IEnMin= 5 EnMin= -323.531738330003     IErMin= 5 ErrMin= 1.66D-07
 ErrMax= 1.66D-07  0.00D+00 EMaxC= 1.00D-01 BMatC= 4.30D-12 BMatP= 5.16D-10
 IDIUse=1 WtCom= 1.00D+00 WtEn= 0.00D+00
 Coeff-Com: -0.799D-02 0.956D-01 0.137D+00 0.145D+00 0.630D+00
 Coeff:     -0.799D-02 0.956D-01 0.137D+00 0.145D+00 0.630D+00
 Gap=     0.207 Goal=   None    Shift=    0.000
 RMSDP=4.69D-08 MaxDP=4.10D-07 DE=-4.24D-10 OVMax= 5.98D-07

 Cycle  15  Pass 1  IDiag  1:
 E= -323.531738330005     Delta-E=       -0.000000000001 Rises=F Damp=F
 DIIS: error= 7.63D-08 at cycle   6 NSaved=   6.
 NSaved= 6 IEnMin= 6 EnMin= -323.531738330005     IErMin= 6 ErrMin= 7.63D-08
 ErrMax= 7.63D-08  0.00D+00 EMaxC= 1.00D-01 BMatC= 5.72D-13 BMatP= 4.30D-12
 IDIUse=1 WtCom= 1.00D+00 WtEn= 0.00D+00
 Coeff-Com: -0.214D-02 0.195D-01 0.271D-01 0.417D-01 0.320D+00 0.594D+00
 Coeff:     -0.214D-02 0.195D-01 0.271D-01 0.417D-01 0.320D+00 0.594D+00
 Gap=     0.207 Goal=   None    Shift=    0.000
 RMSDP=1.08D-08 MaxDP=1.39D-07 DE=-1.36D-12 OVMax= 1.53D-07

 Cycle  16  Pass 1  IDiag  1:
 E= -323.531738330005     Delta-E=        0.000000000000 Rises=F Damp=F
 DIIS: error= 2.08D-08 at cycle   7 NSaved=   7.
 NSaved= 7 IEnMin= 6 EnMin= -323.531738330005     IErMin= 7 ErrMin= 2.08D-08
 ErrMax= 2.08D-08  0.00D+00 EMaxC= 1.00D-01 BMatC= 3.25D-14 BMatP= 5.72D-13
 IDIUse=1 WtCom= 1.00D+00 WtEn= 0.00D+00
 Coeff-Com: -0.376D-03 0.179D-02 0.211D-02 0.701D-02 0.904D-01 0.254D+00
 Coeff-Com:  0.645D+00
 Coeff:     -0.376D-03 0.179D-02 0.211D-02 0.701D-02 0.904D-01 0.254D+00
 Coeff:      0.645D+00
 Gap=     0.207 Goal=   None    Shift=    0.000
 RMSDP=3.55D-09 MaxDP=4.36D-08 DE= 1.14D-13 OVMax= 4.56D-08

 SCF Done:  E(RB3LYP) =  -323.531738330     A.U. after   16 cycles
            NFock= 16  Conv=0.36D-08     -V/T= 2.0043
 KE= 3.221340202095D+02 PE=-1.253322099061D+03 EE= 3.598920516176D+02
 Leave Link  502 at Tue Apr 12 23:01:11 2016, MaxMem=    33554432 cpu:        13.7
 (Enter /usr/local/gau/g09/l801.exe)
 DoSCS=F DFT=T ScalE2(SS,OS)=  1.000000  1.000000
 Range of M.O.s used for correlation:     1    68
 NBasis=    68 NAE=    24 NBE=    24 NFC=     0 NFV=     0
 NROrb=     68 NOA=    24 NOB=    24 NVA=    44 NVB=    44
 Leave Link  801 at Tue Apr 12 23:01:11 2016, MaxMem=    33554432 cpu:         0.0
 (Enter /usr/local/gau/g09/l1101.exe)
 Using compressed storage, NAtomX=    13.
 Will process     14 centers per pass.
 Leave Link 1101 at Tue Apr 12 23:01:12 2016, MaxMem=    33554432 cpu:         0.1
 (Enter /usr/local/gau/g09/l1102.exe)
 Symmetrizing basis deriv contribution to polar:
 IMax=3 JMax=2 DiffMx= 0.00D+00
 Leave Link 1102 at Tue Apr 12 23:01:12 2016, MaxMem=    33554432 cpu:         0.0
 (Enter /usr/local/gau/g09/l1110.exe)
 Forming Gx(P) for the SCF density, NAtomX=    13.
 Integral derivatives from FoFJK, PRISM(SPDF).
 Do as many integral derivatives as possible in FoFJK.
 G2DrvN: MDV=      33554224.
 G2DrvN: will do    14 centers at a time, making    1 passes.
 Calling FoFCou, ICntrl=  3107 FMM=F I1Cent=   0 AccDes= 0.00D+00.
 FoFJK:  IHMeth= 1 ICntrl=    3107 DoSepK=F KAlg= 0 I1Cent=   0 FoldK=F
 IRaf=         0 NMat=   1 IRICut=       1 DoRegI=T DoRafI=F ISym2E= 0.
 FoFCou: FMM=F IPFlag=           0 FMFlag=      100000 FMFlg1=           0
         NFxFlg=           0 DoJE=F BraDBF=F KetDBF=F FulRan=T
         wScrn=  0.000000 ICntrl=    3107 IOpCl=  0 I1Cent=           0 NGrid=           0
         NMat0=    1 NMatS0=      1 NMatT0=    0 NMatD0=    1 NMtDS0=    0 NMtDT0=    0
 Symmetry not used in FoFCou.
 End of G2Drv F.D. properties file   721 does not exist.
 End of G2Drv F.D. properties file   722 does not exist.
 End of G2Drv F.D. properties file   788 does not exist.
 Leave Link 1110 at Tue Apr 12 23:01:50 2016, MaxMem=    33554432 cpu:        30.0
 (Enter /usr/local/gau/g09/l1002.exe)
 Minotr:  Closed shell wavefunction.
          IDoAtm=1111111111111
          Direct CPHF calculation.
          Differentiating once with respect to nuclear coordinates.
          Requested convergence is 1.0D-08 RMS, and 1.0D-07 maximum.
          Secondary convergence is 1.0D-12 RMS, and 1.0D-12 maximum.
          NewPWx=T KeepS1=F KeepF1=F KeepIn=T MapXYZ=F SortEE=F KeepMc=T.
          MDV=      33554230 using IRadAn=       2.
 Generate precomputed XC quadrature information.
 Keep R1 ints in memory in canonical form, NReq=3645290.
 FoFCou: FMM=F IPFlag=           0 FMFlag=           0 FMFlg1=           0
         NFxFlg=           0 DoJE=F BraDBF=F KetDBF=F FulRan=T
         wScrn=  0.000000 ICntrl=     600 IOpCl=  0 I1Cent=           0 NGrid=           0
         NMat0=    1 NMatS0=   2346 NMatT0=    0 NMatD0=    1 NMtDS0=    0 NMtDT0=    0
 Symmetry not used in FoFCou.
          Solving linear equations simultaneously, MaxMat=       0.
          There are    42 degrees of freedom in the 1st order CPHF.  IDoFFX=6 NUNeed=     0.
     36 vectors produced by pass  0 Test12= 2.51D-15 2.38D-09 XBig12= 1.84D-01 1.04D-01.
 AX will form    36 AO Fock derivatives at one time.
     36 vectors produced by pass  1 Test12= 2.51D-15 2.38D-09 XBig12= 4.57D-02 5.55D-02.
     36 vectors produced by pass  2 Test12= 2.51D-15 2.38D-09 XBig12= 2.33D-04 2.67D-03.
     36 vectors produced by pass  3 Test12= 2.51D-15 2.38D-09 XBig12= 4.45D-07 1.07D-04.
     36 vectors produced by pass  4 Test12= 2.51D-15 2.38D-09 XBig12= 3.23D-10 2.77D-06.
     17 vectors produced by pass  5 Test12= 2.51D-15 2.38D-09 XBig12= 1.36D-13 4.89D-08.
 InvSVY:  IOpt=1 It=  1 EMax= 2.22D-15
 Solved reduced A of dimension   197 with    36 vectors.
 End of Minotr F.D. properties file   721 does not exist.
 End of Minotr F.D. properties file   722 does not exist.
 End of Minotr F.D. properties file   788 does not exist.
 Leave Link 1002 at Tue Apr 12 23:02:16 2016, MaxMem=    33554432 cpu:        20.9
 (Enter /usr/local/gau/g09/l601.exe)
 Copying SCF densities to generalized density rwf, IOpCl= 0 IROHF=0.

 **********************************************************************

            Population analysis using the SCF density.

 **********************************************************************

 Orbital symmetries:
       Occupied  (A) (A) (A) (A) (A) (A) (A) (A) (A) (A) (A) (A)
                 (A) (A) (A) (A) (A) (A) (A) (A) (A) (A) (A) (A)
       Virtual   (A) (A) (A) (A) (A) (A) (A) (A) (A) (A) (A) (A)
                 (A) (A) (A) (A) (A) (A) (A) (A) (A) (A) (A) (A)
                 (A) (A) (A) (A) (A) (A) (A) (A) (A) (A) (A) (A)
                 (A) (A) (A) (A) (A) (A) (A) (A)
 The electronic state is 1-A.
 Alpha  occ. eigenvalues --  -19.21004 -19.12564 -14.31415 -10.32817 -10.21322
 Alpha  occ. eigenvalues --  -10.18576  -1.11899  -1.00276  -0.90514  -0.76835
 Alpha  occ. eigenvalues --   -0.69877  -0.64151  -0.51680  -0.50231  -0.46963
 Alpha  occ. eigenvalues --   -0.46013  -0.42426  -0.41432  -0.40085  -0.36727
 Alpha  occ. eigenvalues --   -0.34205  -0.28949  -0.26147  -0.23155
 Alpha virt. eigenvalues --   -0.02443   0.05447   0.08406   0.12291   0.14314
 Alpha virt. eigenvalues --    0.15472   0.16408   0.20269   0.22143   0.22989
 Alpha virt. eigenvalues --    0.29199   0.31625   0.36647   0.52529   0.53791
 Alpha virt. eigenvalues --    0.56524   0.58733   0.61078   0.64169   0.69120
 Alpha virt. eigenvalues --    0.72488   0.75029   0.77316   0.80505   0.81339
 Alpha virt. eigenvalues --    0.87693   0.90575   0.91816   0.93304   0.94155
 Alpha virt. eigenvalues --    0.94616   0.96273   0.98419   0.98837   1.04918
 Alpha virt. eigenvalues --    1.10370   1.13522   1.22903   1.27299   1.33567
 Alpha virt. eigenvalues --    1.50125   1.51963   1.79335   1.92100
          Condensed to atoms (all electrons):
               1          2          3          4          5          6
     1  N    6.896245   0.341487   0.347512  -0.060141  -0.079741  -0.077349
     2  H    0.341487   0.436892  -0.034630  -0.015762   0.001171   0.006711
     3  C    0.347512  -0.034630   5.567430   0.284566   0.261315   0.020037
     4  H   -0.060141  -0.015762   0.284566   0.588726  -0.007160  -0.076191
     5  C   -0.079741   0.001171   0.261315  -0.007160   5.182054  -0.059236
     6  C   -0.077349   0.006711   0.020037  -0.076191  -0.059236   5.104078
     7  H    0.001962   0.001330  -0.030994  -0.005355   0.364078   0.006057
     8  H    0.005332  -0.000107  -0.028976  -0.001143   0.347868   0.002555
     9  H   -0.004248  -0.000232  -0.025422   0.003018   0.373435  -0.008437
    10  O    0.004049   0.000079  -0.206898   0.043542   0.003848   0.493871
    11  H    0.321809  -0.037718  -0.045572   0.010478   0.000139  -0.007094
    12  O   -0.000567  -0.000074  -0.107676   0.014485   0.007603   0.144197
    13  H   -0.000173   0.000007   0.008964  -0.001156  -0.000868  -0.013655
               7          8          9         10         11         12
     1  N    0.001962   0.005332  -0.004248   0.004049   0.321809  -0.000567
     2  H    0.001330  -0.000107  -0.000232   0.000079  -0.037718  -0.000074
     3  C   -0.030994  -0.028976  -0.025422  -0.206898  -0.045572  -0.107676
     4  H   -0.005355  -0.001143   0.003018   0.043542   0.010478   0.014485
     5  C    0.364078   0.347868   0.373435   0.003848   0.000139   0.007603
     6  C    0.006057   0.002555  -0.008437   0.493871  -0.007094   0.144197
     7  H    0.582295  -0.027830  -0.032986  -0.000101  -0.000664   0.000023
     8  H   -0.027830   0.583820  -0.029017   0.000043  -0.000005   0.000974
     9  H   -0.032986  -0.029017   0.571130  -0.000074   0.004522   0.000967
    10  O   -0.000101   0.000043  -0.000074   8.224823  -0.000037  -0.101689
    11  H   -0.000664  -0.000005   0.004522  -0.000037   0.472828   0.000473
    12  O    0.000023   0.000974   0.000967  -0.101689   0.000473   8.346332
    13  H    0.000011   0.000027  -0.000016   0.004470  -0.000017   0.232448
              13
     1  N   -0.000173
     2  H    0.000007
     3  C    0.008964
     4  H   -0.001156
     5  C   -0.000868
     6  C   -0.013655
     7  H    0.000011
     8  H    0.000027
     9  H   -0.000016
    10  O    0.004470
    11  H   -0.000017
    12  O    0.232448
    13  H    0.370449
 Mulliken charges:
               1
     1  N   -0.696176
     2  H    0.300847
     3  C   -0.009657
     4  H    0.222094
     5  C   -0.394505
     6  C    0.464455
     7  H    0.142174
     8  H    0.146459
     9  H    0.147361
    10  O   -0.465925
    11  H    0.280858
    12  O   -0.537495
    13  H    0.399508
 Sum of Mulliken charges =   0.00000
 Mulliken charges with hydrogens summed into heavy atoms:
               1
     1  N   -0.114471
     3  C    0.212437
     5  C    0.041489
     6  C    0.464455
    10  O   -0.465925
    12  O   -0.137986
 APT charges:
               1
     1  N   -1.321905
     2  H    0.679147
     3  C   -0.101929
     4  H    0.273980
     5  C   -1.235505
     6  C    0.079776
     7  H    0.469620
     8  H    0.358042
     9  H    0.416162
    10  O   -0.229602
    11  H    0.520103
    12  O   -0.662832
    13  H    0.754943
 Sum of APT charges =   0.00000
 APT charges with hydrogens summed into heavy atoms:
               1
     1  N   -0.122654
     3  C    0.172051
     5  C    0.008319
     6  C    0.079776
    10  O   -0.229602
    12  O    0.092111
 Electronic spatial extent (au):  <R**2>=            594.6786
 Charge=              0.0000 electrons
 Dipole moment (field-independent basis, Debye):
    X=              1.6700    Y=              2.0566    Z=              0.4257  Tot=              2.6833
 Quadrupole moment (field-independent basis, Debye-Ang):
   XX=            -28.7578   YY=            -40.1496   ZZ=            -35.8045
   XY=             -6.2459   XZ=             -0.8821   YZ=             -1.4072
 Traceless Quadrupole moment (field-independent basis, Debye-Ang):
   XX=              6.1461   YY=             -5.2456   ZZ=             -0.9005
   XY=             -6.2459   XZ=             -0.8821   YZ=             -1.4072
 Octapole moment (field-independent basis, Debye-Ang**2):
  XXX=            -17.2788  YYY=              0.7263  ZZZ=              4.6442  XYY=              6.3114
  XXY=              5.0947  XXZ=              6.5262  XZZ=              1.7936  YZZ=             -1.0082
  YYZ=             -1.5679  XYZ=              3.0952
 Hexadecapole moment (field-independent basis, Debye-Ang**3):
 XXXX=           -324.2856 YYYY=           -253.8129 ZZZZ=            -80.1277 XXXY=            -49.5989
 XXXZ=             -9.9566 YYYX=            -17.9903 YYYZ=              3.7064 ZZZX=              6.6679
 ZZZY=              0.0934 XXYY=            -97.0799 XXZZ=            -74.9831 YYZZ=            -56.2989
 XXYZ=             -1.6453 YYXZ=             -1.5810 ZZXY=             -4.5509
 N-N= 2.477642889038D+02 E-N=-1.253322099108D+03  KE= 3.221340202095D+02
  Exact polarizability:   0.000   0.000   0.000   0.000   0.000   0.000
 Approx polarizability:  60.743  -0.224  70.653   3.929  12.371  47.446
 No NMR shielding tensors so no spin-rotation constants.
 Leave Link  601 at Tue Apr 12 23:02:16 2016, MaxMem=    33554432 cpu:         0.1
 (Enter /usr/local/gau/g09/l701.exe)
 Compute integral second derivatives.
 ... and contract with generalized density number  0.
 Leave Link  701 at Tue Apr 12 23:02:16 2016, MaxMem=    33554432 cpu:         0.2
 (Enter /usr/local/gau/g09/l702.exe)
 L702 exits ... SP integral derivatives will be done elsewhere.
 Leave Link  702 at Tue Apr 12 23:02:16 2016, MaxMem=    33554432 cpu:         0.0
 (Enter /usr/local/gau/g09/l703.exe)
 Compute integral second derivatives, UseDBF=F ICtDFT=           0.
 Integral derivatives from FoFJK, PRISM(SPDF).
 Calling FoFJK, ICntrl=    100147 FMM=F ISym2X=0 I1Cent= 0 IOpClX= 0 NMat=1 NMatS=1 NMatT=0.
 FoFJK:  IHMeth= 1 ICntrl=  100147 DoSepK=F KAlg= 0 I1Cent=   0 FoldK=F
 IRaf=         0 NMat=   1 IRICut=       1 DoRegI=T DoRafI=F ISym2E= 0.
 FoFCou: FMM=F IPFlag=           0 FMFlag=      100000 FMFlg1=         800
         NFxFlg=           0 DoJE=F BraDBF=F KetDBF=F FulRan=T
         wScrn=  0.000000 ICntrl=  100147 IOpCl=  0 I1Cent=           0 NGrid=           0
         NMat0=    1 NMatS0=      1 NMatT0=    0 NMatD0=    1 NMtDS0=    0 NMtDT0=    0
 Symmetry not used in FoFCou.
 Leave Link  703 at Tue Apr 12 23:02:45 2016, MaxMem=    33554432 cpu:        28.8
 (Enter /usr/local/gau/g09/l716.exe)
 Dipole        = 6.57039463D-01 8.09142063D-01 1.67488323D-01
 Polarizability= 0.00000000D+00 0.00000000D+00 0.00000000D+00
                 0.00000000D+00 0.00000000D+00 0.00000000D+00
 ***** Axes restored to original set *****
 -------------------------------------------------------------------
 Center     Atomic                   Forces (Hartrees/Bohr)
 Number     Number              X              Y              Z
 -------------------------------------------------------------------
      1        7          -0.018147903    0.006574276   -0.047615570
      2        1           0.002460135    0.001481857    0.003659564
      3        6          -0.058587428    0.052507681   -0.082059418
      4        1          -0.014168542   -0.061387609    0.145823666
      5        6          -0.003780718    0.001451723    0.014515690
      6        6           0.096958955   -0.062328945    0.004775441
      7        1          -0.000027942    0.000826877   -0.000365783
      8        1          -0.000193104    0.000370125   -0.000338015
      9        1           0.004780943   -0.005069840    0.001818706
     10        8          -0.000929537    0.058611394   -0.034139800
     11        1          -0.000969487   -0.003332587    0.000475182
     12        8          -0.005683066    0.014879285   -0.005506024
     13        1          -0.001712305   -0.004584237   -0.001043639
 -------------------------------------------------------------------
 Cartesian Forces:  Max     0.145823666 RMS     0.039003712
 Force constants in Cartesian coordinates: 
                1             2             3             4             5 
      1  0.377190D+00
      2  0.277829D+00  0.417567D+00
      3  0.731381D-01 -0.137377D+00  0.700548D+00
      4 -0.182183D+00 -0.195231D+00  0.125814D+00  0.190520D+00
      5 -0.161962D+00 -0.165062D+00  0.120340D+00  0.181577D+00  0.186940D+00
      6  0.115736D+00  0.137613D+00 -0.173011D+00 -0.121903D+00 -0.131758D+00
      7 -0.944807D-01 -0.402608D-01 -0.209042D-01 -0.105979D-01 -0.184131D-01
      8 -0.859417D-01 -0.133696D+00 -0.650722D-01  0.432379D-02 -0.159048D-01
      9 -0.512358D-01 -0.498650D-01 -0.124884D+00  0.867061D-02  0.103896D-01
     10 -0.170484D-01 -0.316266D-02 -0.469079D-01 -0.102811D-02  0.105676D-02
     11 -0.138678D-01 -0.176111D-02 -0.264000D-01 -0.107320D-02  0.383165D-03
     12 -0.214478D-01 -0.761603D-04 -0.431138D-01  0.743289D-03  0.109885D-02
     13  0.832817D-02 -0.184023D-01 -0.827605D-02  0.169491D-02 -0.106520D-02
     14  0.683552D-02 -0.331533D-01 -0.103039D-01  0.932374D-03 -0.701115D-03
     15  0.644207D-02 -0.240972D-01 -0.105832D-02  0.365199D-03  0.449875D-03
     16 -0.220643D-01 -0.229288D-01  0.789486D-02 -0.155004D-02  0.178390D-02
     17 -0.167964D-01 -0.190951D-01  0.119027D-01 -0.628260D-02  0.128866D-03
     18 -0.277025D-01 -0.922631D-02  0.453739D-02 -0.177175D-02 -0.246484D-02
     19  0.226811D-02 -0.530151D-03 -0.109090D-02  0.265899D-04  0.566701D-03
     20 -0.132071D-02  0.279208D-02  0.148725D-02 -0.523147D-04 -0.698592D-03
     21 -0.150405D-02  0.507836D-03 -0.163874D-03  0.418533D-03 -0.573517D-03
     22  0.190315D-03  0.366180D-02  0.658388D-03 -0.399269D-03  0.619033D-03
     23  0.345715D-02 -0.636527D-02 -0.166088D-02  0.370166D-03  0.112814D-03
     24  0.293481D-03 -0.176899D-02  0.869812D-03  0.267775D-03 -0.315188D-03
     25  0.472084D-03 -0.180848D-02  0.159291D-02  0.174569D-03 -0.765527D-04
     26 -0.122299D-02  0.389044D-02  0.542497D-03 -0.316919D-04 -0.732536D-04
     27  0.846813D-03  0.699514D-03  0.275789D-02 -0.115827D-03 -0.678394D-04
     28 -0.514401D-03  0.272434D-02 -0.532293D-02 -0.164797D-03  0.535405D-03
     29 -0.509731D-02  0.302601D-02  0.393510D-02  0.137748D-02 -0.713823D-03
     30  0.988787D-03  0.204453D-02  0.104307D-02  0.800801D-04  0.318296D-03
     31 -0.717757D-01  0.793638D-03 -0.129797D+00  0.490841D-02 -0.492444D-02
     32 -0.215638D-02 -0.710152D-01  0.103258D+00  0.137136D-01 -0.428155D-02
     33 -0.969676D-01  0.811683D-01 -0.364650D+00 -0.127160D-01  0.258996D-02
     34 -0.471975D-03 -0.158901D-02  0.285134D-02 -0.121276D-02  0.933157D-04
     35 -0.578175D-03  0.303722D-02 -0.460162D-03  0.412672D-03 -0.206260D-03
     36  0.132288D-03 -0.736123D-03 -0.108873D-02 -0.297653D-03 -0.399425D-04
     37  0.900440D-04 -0.109543D-02  0.349185D-03 -0.188865D-03  0.209073D-03
     38  0.822169D-03 -0.164303D-03 -0.191047D-03 -0.366585D-04  0.767230D-04
     39  0.127982D-02  0.111385D-02 -0.178640D-02  0.444781D-03  0.327243D-04
                6             7             8             9            10 
      6  0.179585D+00
      7 -0.195276D-01  0.630498D+00
      8 -0.185185D-01 -0.180843D+00  0.685329D+00
      9  0.615471D-02  0.134951D+00 -0.228802D+00  0.523810D+00
     10 -0.335436D-03 -0.388479D-01  0.147878D+00 -0.127232D+00  0.112519D+00
     11 -0.282872D-02  0.155017D+00 -0.283499D+00  0.310599D+00 -0.111871D+00
     12  0.376378D-02 -0.124472D+00  0.293882D+00 -0.265836D+00  0.128946D+00
     13 -0.810435D-03 -0.119231D+00  0.585207D-01  0.126868D-01 -0.356433D-02
     14 -0.377820D-05  0.564053D-01 -0.162065D+00 -0.847950D-02  0.218005D-02
     15 -0.230640D-03  0.342057D-02  0.493661D-02 -0.943802D-01 -0.742821D-02
     16  0.132056D-03 -0.292599D+00  0.241898D-01  0.237313D-01 -0.127645D-01
     17 -0.422095D-02 -0.295801D-02 -0.630149D-01 -0.558752D-02 -0.524484D-01
     18 -0.236827D-02  0.246972D-01 -0.523441D-02 -0.624622D-01  0.593877D-01
     19  0.376178D-03 -0.181564D-01 -0.328799D-02  0.855639D-02 -0.317702D-04
     20 -0.242515D-04  0.300409D-01  0.220840D-02 -0.186195D-01 -0.341472D-03
     21 -0.347567D-04  0.219872D-02  0.931919D-03  0.235275D-03 -0.325232D-03
     22  0.186060D-03  0.104561D-01  0.124464D-01  0.103325D-01  0.459818D-03
     23 -0.180325D-03 -0.185619D-01 -0.160215D-01 -0.131035D-01 -0.588561D-03
     24 -0.161566D-03 -0.184509D-02 -0.260914D-03 -0.206121D-02 -0.501649D-04
     25  0.115403D-03 -0.693414D-02  0.986316D-02 -0.186066D-01 -0.265622D-03
     26 -0.999602D-04  0.104981D-01 -0.172327D-01  0.290740D-01  0.730565D-03
     27  0.134649D-04  0.146052D-02 -0.424576D-02  0.576753D-02  0.919524D-03
     28 -0.967917D-04 -0.540142D-01  0.400121D-01 -0.204615D-02 -0.317750D-01
     29  0.634190D-03  0.183742D-01  0.642345D-02  0.150382D-03  0.185392D-01
     30 -0.441689D-04  0.297410D-02  0.769282D-02  0.151888D-01 -0.159385D-02
     31  0.275456D-01 -0.863622D-02  0.295150D-02 -0.133350D-01 -0.903173D-03
     32  0.193941D-01 -0.118042D-01  0.367896D-02 -0.312592D-01 -0.406138D-02
     33 -0.144380D-01 -0.899396D-02  0.924093D-02 -0.121901D-01 -0.234245D-02
     34 -0.126927D-02 -0.392335D-02 -0.297086D-01  0.141048D-01 -0.537520D-02
     35  0.205103D-04  0.308078D-03 -0.367914D-02  0.147437D-02  0.438747D-02
     36  0.484293D-03  0.513770D-02  0.152026D-02  0.510223D-02 -0.229898D-02
     37 -0.149165D-03  0.646661D-02 -0.404140D-03 -0.577465D-03 -0.137502D-02
     38 -0.275985D-04  0.219783D-02 -0.252703D-02  0.402835D-02 -0.229831D-02
     39  0.287568D-03  0.903577D-03  0.392904D-02  0.555500D-02 -0.738829D-03
               11            12            13            14            15 
     11  0.302507D+00
     12 -0.311951D+00  0.309918D+00
     13 -0.148195D-02  0.118743D-02  0.555499D+00
     14 -0.304820D-02 -0.681656D-02  0.415765D-01  0.507801D+00
     15  0.555361D-02  0.185376D-01  0.219830D-02  0.740845D-02  0.555643D+00
     16 -0.336385D-01  0.145743D-01 -0.182909D-01  0.701218D-02  0.100476D-01
     17 -0.113968D-02  0.264994D-01  0.318973D-01  0.307049D-02 -0.745160D-02
     18  0.335266D-01 -0.273382D-01  0.532079D-02  0.339735D-02 -0.552878D-02
     19 -0.232899D-05 -0.781175D-03 -0.228156D+00 -0.378911D-01  0.113693D+00
     20  0.840874D-03  0.173469D-02 -0.394873D-01 -0.565432D-01  0.233423D-01
     21 -0.230974D-03  0.620329D-03  0.113857D+00  0.230648D-01 -0.121466D+00
     22 -0.271472D-04 -0.736175D-03 -0.126326D+00 -0.966204D-01 -0.686203D-01
     23 -0.912257D-03  0.325100D-03 -0.940369D-01 -0.175418D+00 -0.867202D-01
     24 -0.552505D-04  0.671979D-05 -0.667739D-01 -0.868904D-01 -0.110003D+00
     25 -0.699290D-03  0.218510D-02 -0.661877D-01  0.244374D-01 -0.581910D-01
     26 -0.213455D-03 -0.351962D-02  0.233740D-01 -0.825475D-01  0.805537D-01
     27 -0.237437D-02 -0.628051D-03 -0.579463D-01  0.803565D-01 -0.246494D+00
     28  0.134361D-01 -0.251755D-02 -0.455818D-02 -0.311880D-02 -0.366412D-02
     29 -0.884901D-02 -0.484234D-03  0.158938D-03  0.893796D-03 -0.105911D-02
     30 -0.106212D-02  0.352897D-02 -0.172476D-02 -0.242404D-02  0.385655D-02
     31 -0.353425D-02 -0.277182D-02  0.297077D-04 -0.840523D-04  0.247186D-02
     32 -0.190328D-02 -0.423759D-02 -0.833552D-03  0.318046D-02 -0.142797D-02
     33 -0.540221D-02 -0.276556D-02  0.116293D-02  0.106901D-02  0.904224D-03
     34 -0.133018D-02  0.458223D-02  0.518961D-03 -0.165108D-02 -0.691358D-03
     35 -0.266925D-02  0.231828D-02 -0.478504D-03 -0.142434D-02 -0.157887D-02
     36  0.712065D-03  0.242732D-02 -0.367506D-03 -0.357177D-03 -0.113347D-03
     37 -0.926768D-03  0.508581D-03  0.244122D-03 -0.139263D-04 -0.439553D-04
     38  0.263857D-03  0.122746D-02  0.258403D-03 -0.452118D-04  0.903375D-04
     39 -0.863827D-04  0.878300D-03 -0.514442D-03 -0.208390D-04  0.332546D-03
               16            17            18            19            20 
     16  0.755316D+00
     17  0.576123D-01  0.550877D+00
     18 -0.705737D-01 -0.173919D+00  0.309768D+00
     19  0.107422D-02  0.217756D-02  0.148731D-02  0.251574D+00
     20  0.397765D-03 -0.542413D-02 -0.186648D-02  0.389976D-01  0.624476D-01
     21 -0.497661D-03 -0.194608D-04  0.330147D-03 -0.126244D+00 -0.266614D-01
     22 -0.634576D-04  0.128565D-03  0.176150D-03 -0.146257D-01 -0.196193D-01
     23 -0.119958D-02 -0.100285D-02 -0.949326D-04 -0.240071D-02 -0.386992D-02
     24 -0.100993D-02 -0.197308D-02  0.105799D-02  0.104031D-01  0.137724D-01
     25  0.189024D-02  0.162001D-02 -0.215391D-02  0.711665D-02 -0.101913D-01
     26 -0.175300D-02 -0.101916D-02  0.893199D-03  0.142224D-02 -0.221281D-02
     27  0.231316D-03  0.115541D-02  0.161041D-03 -0.585371D-02  0.584649D-02
     28 -0.180340D+00  0.973648D-01 -0.381423D-01 -0.939868D-03  0.122664D-02
     29  0.919661D-01 -0.248609D+00  0.726271D-01  0.474281D-03 -0.109989D-03
     30 -0.447800D-01  0.671705D-01 -0.126595D+00 -0.599133D-03  0.107193D-02
     31  0.535806D-02  0.253067D-02 -0.467762D-02 -0.433785D-04  0.150106D-03
     32  0.320178D-02  0.297343D-03 -0.208303D-03  0.198429D-03 -0.328302D-03
     33  0.777835D-03  0.940441D-03  0.498892D-03  0.166712D-03 -0.255631D-03
     34 -0.198478D+00 -0.116314D+00  0.554168D-01 -0.190991D-03  0.165880D-03
     35 -0.764245D-01 -0.217045D+00  0.861504D-01  0.234519D-03  0.811750D-03
     36  0.335040D-01  0.831476D-01 -0.932105D-01  0.410881D-05  0.116258D-03
     37 -0.374898D-01  0.146780D-02 -0.146422D-02  0.845539D-04  0.335280D-04
     38 -0.502194D-01  0.197658D-02 -0.358032D-02  0.409143D-04  0.862499D-04
     39  0.259681D-01  0.235563D-02  0.114944D-02 -0.118645D-03  0.559705D-04
               21            22            23            24            25 
     21  0.128840D+00
     22 -0.150100D-01  0.135433D+00
     23 -0.294673D-02  0.105343D+00  0.193272D+00
     24  0.895647D-02  0.753695D-01  0.972301D-01  0.115877D+00
     25  0.266571D-01 -0.465593D-02  0.670515D-02 -0.171185D-01  0.691663D-01
     26  0.586848D-02 -0.602256D-02  0.862852D-02 -0.220877D-01 -0.290677D-01
     27 -0.169717D-01 -0.284642D-02  0.670337D-02 -0.146428D-01  0.638881D-01
     28  0.697760D-04  0.440088D-03  0.254707D-03  0.337350D-03 -0.137137D-02
     29  0.211972D-04 -0.133028D-03  0.255171D-03  0.478389D-03 -0.453108D-03
     30 -0.123102D-03  0.203170D-03  0.179119D-04 -0.407707D-03  0.722791D-03
     31  0.306612D-03 -0.227173D-03  0.759354D-04 -0.192828D-03  0.766208D-03
     32 -0.402017D-04  0.142364D-03  0.107401D-03  0.646391D-03  0.415158D-03
     33 -0.412370D-03  0.124419D-03  0.405442D-03  0.511241D-03  0.281561D-03
     34  0.204157D-04 -0.547889D-03  0.430673D-03  0.277208D-03 -0.233992D-03
     35  0.139668D-03  0.120232D-03  0.111242D-02  0.107542D-02 -0.609561D-03
     36  0.216984D-03  0.127066D-04  0.194122D-03  0.715240D-04  0.577731D-03
     37  0.521257D-04 -0.133520D-03  0.150467D-03  0.420341D-04  0.626961D-04
     38 -0.616193D-04 -0.393775D-04  0.101474D-03  0.148845D-03 -0.134838D-03
     39 -0.274086D-04  0.150043D-03 -0.169423D-03 -0.751691D-04  0.493084D-04
               26            27            28            29            30 
     26  0.905159D-01
     27 -0.890253D-01  0.270160D+00
     28  0.182135D-02 -0.358873D-03  0.246085D+00
     29  0.220361D-03  0.104017D-03 -0.139503D+00  0.306067D+00
     30 -0.713224D-03 -0.279783D-05  0.494353D-01 -0.117090D+00  0.105315D+00
     31 -0.390891D-03 -0.279870D-05 -0.328925D-02  0.193254D-02  0.386080D-03
     32 -0.638492D-03  0.124030D-02  0.437295D-04  0.595745D-03  0.420916D-03
     33 -0.123092D-02 -0.223079D-03 -0.475755D-03 -0.180401D-03  0.331361D-03
     34  0.654802D-03 -0.258004D-03  0.264889D-01  0.778476D-02 -0.371821D-02
     35  0.630886D-03 -0.306371D-03 -0.207882D-01 -0.608282D-01  0.460012D-01
     36 -0.236041D-03  0.162182D-03  0.523426D-02  0.444331D-01  0.203590D-02
     37 -0.121938D-04  0.356808D-04  0.395305D-02  0.457940D-02 -0.237432D-02
     38  0.512891D-04 -0.859853D-04  0.599128D-02  0.162889D-02 -0.344872D-02
     39 -0.190880D-04 -0.600307D-04 -0.245227D-02 -0.356971D-02 -0.412716D-02
               31            32            33            34            35 
     31  0.740458D-01
     32  0.135427D-02  0.707014D-01
     33  0.119444D+00 -0.878786D-01  0.392492D+00
     34 -0.440160D-03 -0.212780D-03 -0.465381D-03  0.615834D+00
     35 -0.865814D-03 -0.362092D-03 -0.434662D-03  0.747655D-01  0.322320D+00
     36  0.924060D-03  0.122274D-03  0.194871D-04  0.639766D-02 -0.148615D+00
     37  0.206917D-03 -0.103007D-05  0.366659D-05 -0.431968D+00  0.195162D-01
     38  0.107692D-04 -0.323822D-04 -0.316268D-04  0.669102D-01 -0.416982D-01
     39 -0.301491D-03 -0.302361D-04 -0.780969D-04 -0.772482D-01  0.142149D-01
               36            37            38            39 
     36  0.116148D+00
     37 -0.489604D-01  0.460047D+00
     38  0.197384D-01 -0.235030D-01  0.402820D-01
     39 -0.322550D-01  0.525782D-01 -0.178064D-01  0.302064D-01
 FormGI is forming the generalized inverse of G from B-inverse, IUseBI=4.
 Leave Link  716 at Tue Apr 12 23:02:46 2016, MaxMem=    33554432 cpu:         0.0
 (Enter /usr/local/gau/g09/l103.exe)

 GradGradGradGradGradGradGradGradGradGradGradGradGradGradGradGradGradGrad
 Berny optimization.
 Red2BG is reusing G-inverse.
 Internal  Forces:  Max     0.127163820 RMS     0.028934005
 Search for a saddle point.
 Step number   1 out of a maximum of   64
 All quantities printed in internal units (Hartrees-Bohrs-Radians)
 Swapping is turned off.
 Second derivative matrix not updated -- analytic derivatives used.
 ITU=  0
     Eigenvalues ---    0.00083   0.00169   0.00352   0.00940   0.02067
     Eigenvalues ---    0.02284   0.04454   0.04647   0.04706   0.04909
     Eigenvalues ---    0.05832   0.12688   0.13382   0.13679   0.14453
     Eigenvalues ---    0.15209   0.16032   0.19005   0.19465   0.22548
     Eigenvalues ---    0.29786   0.31408   0.32651   0.33935   0.34418
     Eigenvalues ---    0.38226   0.40342   0.45195   0.47312   0.47896
     Eigenvalues ---    0.50276   0.62006   0.67441
 Eigenvectors required to have negative eigenvalues:
                          D17       D16       D19       D21       D18
   1                   -0.42071  -0.38676  -0.36213  -0.34409  -0.32818
                          D20       D14       D15       D13       D11
   1                   -0.31014  -0.19205  -0.18735  -0.18099  -0.14225
 Eigenvalue     1 is   8.30D-04 should be less than     0.000000 Eigenvector:
                          D17       D16       D19       D21       D18
   1                   -0.42071  -0.38676  -0.36213  -0.34409  -0.32818
                          D20       D14       D15       D13       D11
   1                   -0.31014  -0.19205  -0.18735  -0.18099  -0.14225
 RFO step:  Lambda0=8.420924657D-03 Lambda=-1.05211595D-01.
 Linear search not attempted -- option 19 set.
 Maximum step size (   0.300) exceeded in Quadratic search.
    -- Step size scaled by   0.645
 Iteration  1 RMS(Cart)=  0.11123712 RMS(Int)=  0.02575924
 Iteration  2 RMS(Cart)=  0.02722799 RMS(Int)=  0.00075626
 Iteration  3 RMS(Cart)=  0.00076713 RMS(Int)=  0.00048428
 Iteration  4 RMS(Cart)=  0.00000043 RMS(Int)=  0.00048428
 ITry= 1 IFail=0 DXMaxC= 5.45D-01 DCOld= 1.00D+10 DXMaxT= 3.00D-01 DXLimC= 3.00D+00 Rises=F
 Variable       Old X    -DE/DX   Delta X   Delta X   Delta X     New X
                                 (Linear)    (Quad)   (Total)
    R1        1.90593  -0.00058   0.00000  -0.00359  -0.00359   1.90234
    R2        2.74447   0.02623   0.00000   0.00814   0.00814   2.75261
    R3        1.91986  -0.00088   0.00000  -0.00582  -0.00582   1.91404
    R4        1.83182   0.12716   0.00000   0.10289   0.10289   1.93472
    R5        2.86341  -0.00089   0.00000   0.00099   0.00099   2.86440
    R6        2.72052   0.09329   0.00000   0.07960   0.07960   2.80012
    R7        2.07259  -0.00031   0.00000  -0.00068  -0.00068   2.07191
    R8        2.07113   0.00000   0.00000  -0.00213  -0.00213   2.06899
    R9        2.08529  -0.00485   0.00000  -0.00752  -0.00752   2.07777
   R10        2.49246  -0.05991   0.00000  -0.11094  -0.11094   2.38151
   R11        2.53859   0.00659   0.00000   0.02794   0.02794   2.56653
   R12        1.85558  -0.00140   0.00000  -0.00014  -0.00014   1.85544
    A1        2.04462  -0.00756   0.00000   0.00336   0.00284   2.04746
    A2        1.97795   0.00073   0.00000   0.01890   0.01825   1.99620
    A3        2.03733   0.00707   0.00000   0.01666   0.01614   2.05347
    A4        1.51701   0.02252   0.00000   0.07439   0.07431   1.59132
    A5        2.04414   0.00171   0.00000  -0.00015  -0.00088   2.04327
    A6        1.96842   0.00701   0.00000   0.00636   0.00625   1.97467
    A7        2.38500  -0.04058   0.00000  -0.14242  -0.14297   2.24203
    A8        1.34108   0.04256   0.00000   0.08724   0.08873   1.42981
    A9        2.07421  -0.01962   0.00000  -0.00806  -0.00717   2.06704
   A10        1.91701   0.00271   0.00000   0.00936   0.00935   1.92636
   A11        1.95800   0.00170   0.00000   0.00114   0.00108   1.95908
   A12        1.95695  -0.00817   0.00000  -0.02097  -0.02098   1.93596
   A13        1.87954  -0.00075   0.00000   0.00572   0.00567   1.88520
   A14        1.87017   0.00257   0.00000   0.00233   0.00237   1.87254
   A15        1.87836   0.00222   0.00000   0.00331   0.00324   1.88161
   A16        1.95880   0.06082   0.00000   0.08982   0.08981   2.04861
   A17        2.21394  -0.04218   0.00000  -0.10503  -0.10502   2.10892
   A18        2.10427  -0.01836   0.00000   0.01441   0.01444   2.11871
   A19        1.96008  -0.00694   0.00000  -0.02075  -0.02075   1.93933
    D1        0.99863  -0.03041   0.00000  -0.14051  -0.14107   0.85755
    D2       -1.48399   0.00252   0.00000  -0.01782  -0.01749  -1.50148
    D3        2.29610   0.02529   0.00000  -0.01222  -0.01232   2.28378
    D4       -2.85578  -0.02976   0.00000  -0.07977  -0.08011  -2.93589
    D5        0.94479   0.00317   0.00000   0.04293   0.04348   0.98827
    D6       -1.55831   0.02594   0.00000   0.04852   0.04865  -1.50966
    D7        1.10778   0.00307   0.00000   0.08367   0.08402   1.19180
    D8       -3.08567   0.00505   0.00000   0.09795   0.09831  -2.98736
    D9       -0.96951   0.00326   0.00000   0.08790   0.08830  -0.88121
   D10       -0.93493   0.00453   0.00000   0.10630   0.10549  -0.82944
   D11        1.15481   0.00652   0.00000   0.12058   0.11978   1.27459
   D12       -3.01222   0.00473   0.00000   0.11053   0.10977  -2.90245
   D13       -2.71191  -0.01057   0.00000   0.08333   0.08373  -2.62818
   D14       -0.62218  -0.00858   0.00000   0.09760   0.09802  -0.52415
   D15        1.49398  -0.01037   0.00000   0.08756   0.08801   1.58199
   D16       -1.18333  -0.01799   0.00000   0.21248   0.21285  -0.97048
   D17        2.07805  -0.02051   0.00000   0.21724   0.21779   2.29583
   D18        0.22870   0.02494   0.00000   0.33471   0.33349   0.56220
   D19       -2.79310   0.02242   0.00000   0.33947   0.33843  -2.45468
   D20        2.60876  -0.00354   0.00000   0.21490   0.21549   2.82425
   D21       -0.41305  -0.00606   0.00000   0.21966   0.22042  -0.19262
   D22        2.90094   0.00627   0.00000  -0.01611  -0.01585   2.88510
   D23       -0.11183  -0.00107   0.00000  -0.01464  -0.01490  -0.12672
         Item               Value     Threshold  Converged?
 Maximum Force            0.127164     0.000450     NO 
 RMS     Force            0.028934     0.000300     NO 
 Maximum Displacement     0.545335     0.001800     NO 
 RMS     Displacement     0.126895     0.001200     NO 
 Predicted change in Energy=-4.849339D-02
 Optimization stopped.
    -- Wrong number of Negative eigenvalues: Desired=  1 Actual=  0
    -- Flag reset to prevent archiving.
                           ----------------------------
                           ! Non-Optimized Parameters !
                           ! (Angstroms and Degrees)  !
 --------------------------                            --------------------------
 ! Name  Definition              Value          Derivative Info.                !
 --------------------------------------------------------------------------------
 ! R1    R(1,2)                  1.0067         -DE/DX =   -0.0006              !
 ! R2    R(1,3)                  1.4566         -DE/DX =    0.0262              !
 ! R3    R(1,11)                 1.0129         -DE/DX =   -0.0009              !
 ! R4    R(3,4)                  1.0238         -DE/DX =    0.1272              !
 ! R5    R(3,5)                  1.5158         -DE/DX =   -0.0009              !
 ! R6    R(3,6)                  1.4818         -DE/DX =    0.0933              !
 ! R7    R(5,7)                  1.0964         -DE/DX =   -0.0003              !
 ! R8    R(5,8)                  1.0949         -DE/DX =    0.0                 !
 ! R9    R(5,9)                  1.0995         -DE/DX =   -0.0048              !
 ! R10   R(6,10)                 1.2602         -DE/DX =   -0.0599              !
 ! R11   R(6,12)                 1.3582         -DE/DX =    0.0066              !
 ! R12   R(12,13)                0.9819         -DE/DX =   -0.0014              !
 ! A1    A(2,1,3)              117.3108         -DE/DX =   -0.0076              !
 ! A2    A(2,1,11)             114.374          -DE/DX =    0.0007              !
 ! A3    A(3,1,11)             117.6553         -DE/DX =    0.0071              !
 ! A4    A(1,3,4)               91.176          -DE/DX =    0.0225              !
 ! A5    A(1,3,5)              117.0706         -DE/DX =    0.0017              !
 ! A6    A(1,3,6)              113.1403         -DE/DX =    0.007               !
 ! A7    A(4,3,5)              128.4587         -DE/DX =   -0.0406              !
 ! A8    A(4,3,6)               81.9223         -DE/DX =    0.0426              !
 ! A9    A(5,3,6)              118.4325         -DE/DX =   -0.0196              !
 ! A10   A(3,5,7)              110.3725         -DE/DX =    0.0027              !
 ! A11   A(3,5,8)              112.247          -DE/DX =    0.0017              !
 ! A12   A(3,5,9)              110.9225         -DE/DX =   -0.0082              !
 ! A13   A(7,5,8)              108.0143         -DE/DX =   -0.0008              !
 ! A14   A(7,5,9)              107.2888         -DE/DX =    0.0026              !
 ! A15   A(8,5,9)              107.8082         -DE/DX =    0.0022              !
 ! A16   A(3,6,10)             117.3766         -DE/DX =    0.0608              !
 ! A17   A(3,6,12)             120.832          -DE/DX =   -0.0422              !
 ! A18   A(10,6,12)            121.393          -DE/DX =   -0.0184              !
 ! A19   A(6,12,13)            111.1153         -DE/DX =   -0.0069              !
 ! D1    D(2,1,3,4)             49.1342         -DE/DX =   -0.0304              !
 ! D2    D(2,1,3,5)            -86.0282         -DE/DX =    0.0025              !
 ! D3    D(2,1,3,6)            130.8509         -DE/DX =    0.0253              !
 ! D4    D(11,1,3,4)          -168.2141         -DE/DX =   -0.0298              !
 ! D5    D(11,1,3,5)            56.6235         -DE/DX =    0.0032              !
 ! D6    D(11,1,3,6)           -86.4974         -DE/DX =    0.0259              !
 ! D7    D(1,3,5,7)             68.285          -DE/DX =    0.0031              !
 ! D8    D(1,3,5,8)           -171.1629         -DE/DX =    0.005               !
 ! D9    D(1,3,5,9)            -50.4899         -DE/DX =    0.0033              !
 ! D10   D(4,3,5,7)            -47.5234         -DE/DX =    0.0045              !
 ! D11   D(4,3,5,8)             73.0287         -DE/DX =    0.0065              !
 ! D12   D(4,3,5,9)           -166.2983         -DE/DX =    0.0047              !
 ! D13   D(6,3,5,7)           -150.5839         -DE/DX =   -0.0106              !
 ! D14   D(6,3,5,8)            -30.0318         -DE/DX =   -0.0086              !
 ! D15   D(6,3,5,9)             90.6413         -DE/DX =   -0.0104              !
 ! D16   D(1,3,6,10)           -55.6044         -DE/DX =   -0.018               !
 ! D17   D(1,3,6,12)           131.5415         -DE/DX =   -0.0205              !
 ! D18   D(4,3,6,10)            32.2115         -DE/DX =    0.0249              !
 ! D19   D(4,3,6,12)          -140.6426         -DE/DX =    0.0224              !
 ! D20   D(5,3,6,10)           161.8176         -DE/DX =   -0.0035              !
 ! D21   D(5,3,6,12)           -11.0364         -DE/DX =   -0.0061              !
 ! D22   D(3,6,12,13)          165.3038         -DE/DX =    0.0063              !
 ! D23   D(10,6,12,13)          -7.2608         -DE/DX =   -0.0011              !
 --------------------------------------------------------------------------------
 Lowest energy point so far.  Saving SCF results.
 GradGradGradGradGradGradGradGradGradGradGradGradGradGradGradGradGradGrad

 Largest change from initial coordinates is atom    7       0.000 Angstoms.
 Leave Link  103 at Tue Apr 12 23:02:46 2016, MaxMem=    33554432 cpu:         0.0
 (Enter /usr/local/gau/g09/l202.exe)
                          Input orientation:                          
 ---------------------------------------------------------------------
 Center     Atomic      Atomic             Coordinates (Angstroms)
 Number     Number       Type             X           Y           Z
 ---------------------------------------------------------------------
      1          7           0       -1.273551   -1.192126   -0.489201
      2          1           0       -1.906024   -1.792540    0.017460
      3          6           0       -0.632498   -0.124114    0.257530
      4          1           0       -0.288441   -0.813102    0.846239
      5          6           0       -1.403500    1.171379    0.409982
      6          6           0        0.788800   -0.064531    0.036375
      7          1           0       -2.320663    0.993249    0.984423
      8          1           0       -0.824194    1.938196    0.936855
      9          1           0       -1.706202    1.591977   -0.564264
     10          8           0        1.416486   -1.109311    0.540437
     11          1           0       -1.597341   -0.964902   -1.424979
     12          8           0        1.480828    0.962685   -0.483771
     13          1           0        2.448147    0.869692   -0.342925
 ---------------------------------------------------------------------
                    Distance matrix (angstroms):
                    1          2          3          4          5
     1  N    0.000000
     2  H    1.008575   0.000000
     3  C    1.452310   2.112616   0.000000
     4  H    1.702206   2.064643   0.969360   0.000000
     5  C    2.532108   3.031735   1.515252   2.317723   0.000000
     6  C    2.408525   3.201320   1.439635   1.541651   2.544255
     7  H    2.836173   2.977845   2.150994   2.722485   1.096768
     8  H    3.469074   3.991746   2.179760   2.804440   1.095992
     9  H    2.818519   3.439955   2.184755   3.127934   1.103488
    10  O    2.881547   3.432110   2.291066   1.757279   3.629172
    11  H    1.015948   1.691420   2.113926   2.625776   2.822827
    12  O    3.497119   4.394686   2.489338   2.837721   3.026829
    13  H    4.257173   5.116264   3.292198   3.425612   3.936124
                    6          7          8          9         10
     6  C    0.000000
     7  H    3.418546   0.000000
     8  H    2.724615   1.770482   0.000000
     9  H    3.054476   1.770443   1.775152   0.000000
    10  O    1.318952   4.310935   3.803300   4.274167   0.000000
    11  H    2.939369   3.187910   3.821517   2.700058   3.600954
    12  O    1.343364   4.075274   2.878007   3.249561   2.312209
    13  H    1.941668   4.951633   3.672568   4.222476   2.400230
                   11         12         13
    11  H    0.000000
    12  O    3.751878   0.000000
    13  H    4.571931   0.981932   0.000000
 Stoichiometry    C3H7NO2
 Framework group  C1[X(C3H7NO2)]
 Deg. of freedom    33
 Full point group                 C1      NOp   1
 RotChk:  IX=0 Diff= 3.68D-16
 Largest Abelian subgroup         C1      NOp   1
 Largest concise Abelian subgroup C1      NOp   1
                         Standard orientation:                         
 ---------------------------------------------------------------------
 Center     Atomic      Atomic             Coordinates (Angstroms)
 Number     Number       Type             X           Y           Z
 ---------------------------------------------------------------------
      1          7           0        1.297933   -1.145271    0.515203
      2          1           0        1.941638   -1.729218    0.003466
      3          6           0        0.647195   -0.074523   -0.219129
      4          1           0        0.316191   -0.758866   -0.820603
      5          6           0        1.401547    1.233411   -0.346602
      6          6           0       -0.776139   -0.037462   -0.006308
      7          1           0        2.324624    1.076532   -0.917757
      8          1           0        0.815242    2.000451   -0.865346
      9          1           0        1.692410    1.642893    0.635951
     10          8           0       -1.386460   -1.082641   -0.530466
     11          1           0        1.612738   -0.928244    1.456451
     12          8           0       -1.485249    0.972189    0.525101
     13          1           0       -2.450319    0.868410    0.376567
 ---------------------------------------------------------------------
 Rotational constants (GHZ):      4.8934511      3.0418074      2.1941938
 Leave Link  202 at Tue Apr 12 23:02:46 2016, MaxMem=    33554432 cpu:         0.0
 (Enter /usr/local/gau/g09/l9999.exe)


 IT TAKES GREATER CHARACTER TO CARRY OFF GOOD FORTUNE THAN BAD.
                     FRENCH PROVERB.
 Error termination request processed by link 9999.
 Error termination via Lnk1e in /usr/local/gau/g09/l9999.exe at Tue Apr 12 23:02:46 2016.
 Job cpu time:       0 days  0 hours  1 minutes 35.1 seconds.
 File lengths (MBytes):  RWF=     12 Int=      0 D2E=      0 Chk=      2 Scr=      1
