 Entering Gaussian System, Link 0=g09
 Input=Asp-S-opt-freq-cpcm-w-pa2-6-311++gdp.com
 Output=Asp-S-opt-freq-cpcm-w-pa2-6-311++gdp.log
 Initial command:
<<<<<<< HEAD
 /usr/local/gau/g09/l1.exe "/tmp/Gau-1565.inp" -scrdir="/tmp/"
 Entering Link 1 = /usr/local/gau/g09/l1.exe PID=      1567.
=======
 /usr/local/gau/g09/l1.exe "/tmp/Gau-4121.inp" -scrdir="/tmp/"
 Entering Link 1 = /usr/local/gau/g09/l1.exe PID=      4122.
>>>>>>> 7247658d25b277b9e756e5742d8ccf13e5ff18d4
  
 Copyright (c) 1988,1990,1992,1993,1995,1998,2003,2009,2013,
            Gaussian, Inc.  All Rights Reserved.
  
 This is part of the Gaussian(R) 09 program.  It is based on
 the Gaussian(R) 03 system (copyright 2003, Gaussian, Inc.),
 the Gaussian(R) 98 system (copyright 1998, Gaussian, Inc.),
 the Gaussian(R) 94 system (copyright 1995, Gaussian, Inc.),
 the Gaussian 92(TM) system (copyright 1992, Gaussian, Inc.),
 the Gaussian 90(TM) system (copyright 1990, Gaussian, Inc.),
 the Gaussian 88(TM) system (copyright 1988, Gaussian, Inc.),
 the Gaussian 86(TM) system (copyright 1986, Carnegie Mellon
 University), and the Gaussian 82(TM) system (copyright 1983,
 Carnegie Mellon University). Gaussian is a federally registered
 trademark of Gaussian, Inc.
  
 This software contains proprietary and confidential information,
 including trade secrets, belonging to Gaussian, Inc.
  
 This software is provided under written license and may be
 used, copied, transmitted, or stored only in accord with that
 written license.
  
 The following legend is applicable only to US Government
 contracts under FAR:
  
                    RESTRICTED RIGHTS LEGEND
  
 Use, reproduction and disclosure by the US Government is
 subject to restrictions as set forth in subparagraphs (a)
 and (c) of the Commercial Computer Software - Restricted
 Rights clause in FAR 52.227-19.
  
 Gaussian, Inc.
 340 Quinnipiac St., Bldg. 40, Wallingford CT 06492
  
  
 ---------------------------------------------------------------
 Warning -- This program may not be used in any manner that
 competes with the business of Gaussian, Inc. or will provide
 assistance to any competitor of Gaussian, Inc.  The licensee
 of this program is prohibited from giving any competitor of
 Gaussian, Inc. access to this program.  By using this program,
 the user acknowledges that Gaussian, Inc. is engaged in the
 business of creating and licensing software in the field of
 computational chemistry and represents and warrants to the
 licensee that it is not a competitor of Gaussian, Inc. and that
 it will not use this program in any manner prohibited above.
 ---------------------------------------------------------------
  

 Cite this work as:
 Gaussian 09, Revision D.01,
 M. J. Frisch, G. W. Trucks, H. B. Schlegel, G. E. Scuseria, 
 M. A. Robb, J. R. Cheeseman, G. Scalmani, V. Barone, B. Mennucci, 
 G. A. Petersson, H. Nakatsuji, M. Caricato, X. Li, H. P. Hratchian, 
 A. F. Izmaylov, J. Bloino, G. Zheng, J. L. Sonnenberg, M. Hada, 
 M. Ehara, K. Toyota, R. Fukuda, J. Hasegawa, M. Ishida, T. Nakajima, 
 Y. Honda, O. Kitao, H. Nakai, T. Vreven, J. A. Montgomery, Jr., 
 J. E. Peralta, F. Ogliaro, M. Bearpark, J. J. Heyd, E. Brothers, 
 K. N. Kudin, V. N. Staroverov, T. Keith, R. Kobayashi, J. Normand, 
 K. Raghavachari, A. Rendell, J. C. Burant, S. S. Iyengar, J. Tomasi, 
 M. Cossi, N. Rega, J. M. Millam, M. Klene, J. E. Knox, J. B. Cross, 
 V. Bakken, C. Adamo, J. Jaramillo, R. Gomperts, R. E. Stratmann, 
 O. Yazyev, A. J. Austin, R. Cammi, C. Pomelli, J. W. Ochterski, 
 R. L. Martin, K. Morokuma, V. G. Zakrzewski, G. A. Voth, 
 P. Salvador, J. J. Dannenberg, S. Dapprich, A. D. Daniels, 
 O. Farkas, J. B. Foresman, J. V. Ortiz, J. Cioslowski, 
 and D. J. Fox, Gaussian, Inc., Wallingford CT, 2013.
 
 ******************************************
 Gaussian 09:  ES64L-G09RevD.01 24-Apr-2013
                21-Apr-2016 
 ******************************************
<<<<<<< HEAD
 %mem=1gb
=======
>>>>>>> 7247658d25b277b9e756e5742d8ccf13e5ff18d4
 %chk=Asp-S-opt-freq-cpcm-w-pa2-6-311++gdp.chk
 -----------------------------------------------------------------
 #p opt freq rb3lyp/6-311++g(d,p) scrf=(cpcm,solvent=water) nosymm
 -----------------------------------------------------------------
 1/14=-1,18=20,19=15,26=3,38=1/1,3;
 2/9=110,12=2,15=1,17=6,18=5,40=1/2;
 3/5=4,6=6,7=1111,11=2,16=1,25=1,30=1,70=2101,71=1,72=1,74=-5,116=1/1,2,3;
 4//1;
 5/5=2,38=5,53=1/2;
 6/7=2,8=2,9=2,10=2,28=1/1;
 7/30=1/1,2,3,16;
 1/14=-1,18=20,19=15,26=3/3(2);
 2/9=110,15=1/2;
 99//99;
 2/9=110,15=1/2;
 3/5=4,6=6,7=1111,11=2,16=1,25=1,30=1,70=2105,71=1,72=1,74=-5,116=1/1,2,3;
 4/5=5,16=3,69=1/1;
 5/5=2,38=5,53=1/2;
 7/30=1/1,2,3,16;
 1/14=-1,18=20,19=15,26=3/3(-5);
 2/9=110,15=1/2;
 6/7=2,8=2,9=2,10=2,19=2,28=1/1;
 99/9=1/99;
<<<<<<< HEAD
 Leave Link    1 at Thu Apr 21 01:01:59 2016, MaxMem=   134217728 cpu:         0.0
=======
 Leave Link    1 at Thu Apr 21 12:59:32 2016, MaxMem=           0 cpu:         0.1
>>>>>>> 7247658d25b277b9e756e5742d8ccf13e5ff18d4
 (Enter /usr/local/gau/g09/l101.exe)
 ------------------------------------
 Asp-S-opt-freq-cpcm-w-pa2-6-311++gdp
 ------------------------------------
 Symbolic Z-matrix:
 Charge =  0 Multiplicity = 1
 N                    -1.4491    1.90076  -0.12476 
 H                    -1.62399   2.05424   0.86491 
 C                    -0.5967    0.72182  -0.33369 
 H                    -0.27548  -0.28581   1.53551 
 C                     0.79609   0.99529   0.22634 
 C                    -1.22146  -0.51916   0.30876 
 H                     1.17147   1.93226  -0.19372 
 H                     0.76353   1.13004   1.31121 
 C                     1.79032  -0.09367  -0.08785 
 O                    -2.09292  -1.1224   -0.52131 
 O                     1.5651   -1.08166  -0.75113 
 H                    -2.3499    1.77842  -0.57681 
 O                    -1.02773  -0.89141   1.44462 
 H                    -2.52019  -1.85337  -0.04579 
 O                     2.99575   0.1605    0.45586 
 H                     3.59952  -0.5613    0.21741 
 
 NAtoms=     16 NQM=       16 NQMF=       0 NMMI=      0 NMMIF=      0
                NMic=       0 NMicF=      0.
                    Isotopes and Nuclear Properties:
 (Nuclear quadrupole moments (NQMom) in fm**2, nuclear magnetic moments (NMagM)
  in nuclear magnetons)

  Atom         1           2           3           4           5           6           7           8           9          10
 IAtWgt=          14           1          12           1          12          12           1           1          12          16
 AtmWgt=  14.0030740   1.0078250  12.0000000   1.0078250  12.0000000  12.0000000   1.0078250   1.0078250  12.0000000  15.9949146
 NucSpn=           2           1           0           1           0           0           1           1           0           0
 AtZEff=   0.0000000   0.0000000   0.0000000   0.0000000   0.0000000   0.0000000   0.0000000   0.0000000   0.0000000   0.0000000
 NQMom=    2.0440000   0.0000000   0.0000000   0.0000000   0.0000000   0.0000000   0.0000000   0.0000000   0.0000000   0.0000000
 NMagM=    0.4037610   2.7928460   0.0000000   2.7928460   0.0000000   0.0000000   2.7928460   2.7928460   0.0000000   0.0000000
 AtZNuc=   7.0000000   1.0000000   6.0000000   1.0000000   6.0000000   6.0000000   1.0000000   1.0000000   6.0000000   8.0000000

  Atom        11          12          13          14          15          16
 IAtWgt=          16           1          16           1          16           1
 AtmWgt=  15.9949146   1.0078250  15.9949146   1.0078250  15.9949146   1.0078250
 NucSpn=           0           1           0           1           0           1
 AtZEff=   0.0000000   0.0000000   0.0000000   0.0000000   0.0000000   0.0000000
 NQMom=    0.0000000   0.0000000   0.0000000   0.0000000   0.0000000   0.0000000
 NMagM=    0.0000000   2.7928460   0.0000000   2.7928460   0.0000000   2.7928460
 AtZNuc=   8.0000000   1.0000000   8.0000000   1.0000000   8.0000000   1.0000000
<<<<<<< HEAD
 Leave Link  101 at Thu Apr 21 01:01:59 2016, MaxMem=   134217728 cpu:         0.3
=======
 Leave Link  101 at Thu Apr 21 12:59:37 2016, MaxMem=    33554432 cpu:         0.4
>>>>>>> 7247658d25b277b9e756e5742d8ccf13e5ff18d4
 (Enter /usr/local/gau/g09/l103.exe)

 GradGradGradGradGradGradGradGradGradGradGradGradGradGradGradGradGradGrad
 Berny optimization.
 Initialization pass.
                           ----------------------------
                           !    Initial Parameters    !
                           ! (Angstroms and Degrees)  !
 --------------------------                            --------------------------
 ! Name  Definition              Value          Derivative Info.                !
 --------------------------------------------------------------------------------
 ! R1    R(1,2)                  1.0167         estimate D2E/DX2                !
 ! R2    R(1,3)                  1.4697         estimate D2E/DX2                !
 ! R3    R(1,12)                 1.0153         estimate D2E/DX2                !
 ! R4    R(3,5)                  1.5259         estimate D2E/DX2                !
 ! R5    R(3,6)                  1.5307         estimate D2E/DX2                !
 ! R6    R(4,13)                 0.97           estimate D2E/DX2                !
 ! R7    R(5,7)                  1.0933         estimate D2E/DX2                !
 ! R8    R(5,8)                  1.0937         estimate D2E/DX2                !
 ! R9    R(5,9)                  1.5077         estimate D2E/DX2                !
 ! R10   R(6,10)                 1.3462         estimate D2E/DX2                !
 ! R11   R(6,13)                 1.2109         estimate D2E/DX2                !
 ! R12   R(9,11)                 1.2111         estimate D2E/DX2                !
 ! R13   R(9,15)                 1.3466         estimate D2E/DX2                !
 ! R14   R(10,14)                0.9711         estimate D2E/DX2                !
 ! R15   R(15,16)                0.9708         estimate D2E/DX2                !
 ! A1    A(2,1,3)              111.0536         estimate D2E/DX2                !
 ! A2    A(2,1,12)             107.3974         estimate D2E/DX2                !
 ! A3    A(3,1,12)             110.7706         estimate D2E/DX2                !
 ! A4    A(1,3,5)              109.4785         estimate D2E/DX2                !
 ! A5    A(1,3,6)              110.7281         estimate D2E/DX2                !
 ! A6    A(5,3,6)              111.3346         estimate D2E/DX2                !
 ! A7    A(3,5,7)              109.0251         estimate D2E/DX2                !
 ! A8    A(3,5,8)              111.0366         estimate D2E/DX2                !
 ! A9    A(3,5,9)              113.3283         estimate D2E/DX2                !
 ! A10   A(7,5,8)              106.6039         estimate D2E/DX2                !
 ! A11   A(7,5,9)              108.2112         estimate D2E/DX2                !
 ! A12   A(8,5,9)              108.3816         estimate D2E/DX2                !
 ! A13   A(3,6,10)             111.6358         estimate D2E/DX2                !
 ! A14   A(3,6,13)             125.2831         estimate D2E/DX2                !
 ! A15   A(10,6,13)            122.9694         estimate D2E/DX2                !
 ! A16   A(5,9,11)             125.5015         estimate D2E/DX2                !
 ! A17   A(5,9,15)             111.706          estimate D2E/DX2                !
 ! A18   A(11,9,15)            122.7909         estimate D2E/DX2                !
 ! A19   A(6,10,14)            108.6743         estimate D2E/DX2                !
 ! A20   A(4,13,6)              91.1484         estimate D2E/DX2                !
 ! A21   A(9,15,16)            108.4956         estimate D2E/DX2                !
 ! D1    D(2,1,3,5)            -66.7644         estimate D2E/DX2                !
 ! D2    D(2,1,3,6)             56.3599         estimate D2E/DX2                !
 ! D3    D(12,1,3,5)           173.9835         estimate D2E/DX2                !
 ! D4    D(12,1,3,6)           -62.8922         estimate D2E/DX2                !
 ! D5    D(1,3,5,7)            -52.5136         estimate D2E/DX2                !
 ! D6    D(1,3,5,8)             64.6457         estimate D2E/DX2                !
 ! D7    D(1,3,5,9)           -173.0917         estimate D2E/DX2                !
 ! D8    D(6,3,5,7)           -175.278          estimate D2E/DX2                !
 ! D9    D(6,3,5,8)            -58.1188         estimate D2E/DX2                !
 ! D10   D(6,3,5,9)             64.1438         estimate D2E/DX2                !
 ! D11   D(1,3,6,10)            86.119          estimate D2E/DX2                !
 ! D12   D(1,3,6,13)           -90.1198         estimate D2E/DX2                !
 ! D13   D(5,3,6,10)          -151.8372         estimate D2E/DX2                !
 ! D14   D(5,3,6,13)            31.924          estimate D2E/DX2                !
 ! D15   D(3,5,9,11)             2.3629         estimate D2E/DX2                !
 ! D16   D(3,5,9,15)          -178.0883         estimate D2E/DX2                !
 ! D17   D(7,5,9,11)          -118.6751         estimate D2E/DX2                !
 ! D18   D(7,5,9,15)            60.8737         estimate D2E/DX2                !
 ! D19   D(8,5,9,11)           126.0905         estimate D2E/DX2                !
 ! D20   D(8,5,9,15)           -54.3607         estimate D2E/DX2                !
 ! D21   D(3,6,10,14)         -175.0375         estimate D2E/DX2                !
 ! D22   D(13,6,10,14)           1.303          estimate D2E/DX2                !
 ! D23   D(3,6,13,4)           -13.0901         estimate D2E/DX2                !
 ! D24   D(10,6,13,4)          171.0778         estimate D2E/DX2                !
 ! D25   D(5,9,15,16)         -179.3746         estimate D2E/DX2                !
 ! D26   D(11,9,15,16)           0.1884         estimate D2E/DX2                !
 --------------------------------------------------------------------------------
 Trust Radius=3.00D-01 FncErr=1.00D-07 GrdErr=1.00D-06
 Number of steps in this run=     72 maximum allowed number of steps=    100.
 GradGradGradGradGradGradGradGradGradGradGradGradGradGradGradGradGradGrad

<<<<<<< HEAD
 Leave Link  103 at Thu Apr 21 01:01:59 2016, MaxMem=   134217728 cpu:         0.0
=======
 Leave Link  103 at Thu Apr 21 12:59:41 2016, MaxMem=    33554432 cpu:         0.0
>>>>>>> 7247658d25b277b9e756e5742d8ccf13e5ff18d4
 (Enter /usr/local/gau/g09/l202.exe)
                          Input orientation:                          
 ---------------------------------------------------------------------
 Center     Atomic      Atomic             Coordinates (Angstroms)
 Number     Number       Type             X           Y           Z
 ---------------------------------------------------------------------
      1          7           0       -1.449098    1.900759   -0.124760
      2          1           0       -1.623987    2.054239    0.864912
      3          6           0       -0.596696    0.721819   -0.333685
      4          1           0       -0.275479   -0.285809    1.535515
      5          6           0        0.796095    0.995287    0.226342
      6          6           0       -1.221463   -0.519161    0.308758
      7          1           0        1.171475    1.932258   -0.193723
      8          1           0        0.763531    1.130038    1.311208
      9          6           0        1.790318   -0.093671   -0.087852
     10          8           0       -2.092916   -1.122400   -0.521310
     11          8           0        1.565104   -1.081661   -0.751127
     12          1           0       -2.349899    1.778416   -0.576809
     13          8           0       -1.027733   -0.891409    1.444623
     14          1           0       -2.520188   -1.853372   -0.045789
     15          8           0        2.995754    0.160504    0.455860
     16          1           0        3.599522   -0.561301    0.217415
 ---------------------------------------------------------------------
                    Distance matrix (angstroms):
                    1          2          3          4          5
     1  N    0.000000
     2  H    1.016658   0.000000
     3  C    1.469741   2.065746   0.000000
     4  H    2.985795   2.782805   2.147650   0.000000
     5  C    2.446231   2.717710   1.525871   2.122124   0.000000
     6  C    2.468961   2.663404   1.530718   1.566612   2.524061
     7  H    2.621669   2.991688   2.147366   3.162872   1.093288
     8  H    2.748043   2.598763   2.173139   1.770445   1.093688
     9  C    3.804330   4.144726   2.534422   2.634341   1.507656
    10  O    3.116287   3.497505   2.382230   2.869406   3.659230
    11  O    4.286325   4.755602   2.846081   3.041358   2.420854
    12  H    1.015263   1.637555   2.061365   3.609176   3.340003
    13  O    3.230590   3.060788   2.439401   0.970000   2.893126
    14  H    3.904737   4.111201   3.227122   3.161724   4.380256
    15  O    4.808567   5.009547   3.720773   3.473588   2.363904
    16  H    5.627378   5.877529   4.422483   4.102306   3.206595
                    6          7          8          9         10
     6  C    0.000000
     7  H    3.462383   0.000000
     8  H    2.768567   1.753509   0.000000
     9  C    3.067436   2.120982   2.123470   0.000000
    10  O    1.346232   4.482689   4.073191   4.040504   0.000000
    11  O    3.033928   3.090202   3.128475   1.211107   3.665458
    12  H    2.708589   3.545490   3.698439   4.570031   2.912706
    13  O    1.210904   3.936215   2.704196   3.305492   2.247858
    14  H    1.895392   5.289731   4.639503   4.656048   0.971083
    15  O    4.274167   2.624703   2.579619   1.346590   5.338096
    16  H    4.822034   3.504609   3.478485   1.893432   5.767530
                   11         12         13         14         15
    11  O    0.000000
    12  H    4.851564   0.000000
    13  O    3.402987   3.600316   0.000000
    14  H    4.216948   3.674352   2.318215   0.000000
    15  O    2.246453   5.679793   4.274649   5.893468   0.000000
    16  H    2.312510   6.442102   4.798594   6.260158   0.970770
                   16
    16  H    0.000000
 Symmetry turned off by external request.
 Stoichiometry    C4H7NO4
 Framework group  C1[X(C4H7NO4)]
 Deg. of freedom    42
 Full point group                 C1      NOp   1
 Rotational constants (GHZ):      2.5545417      1.1137629      0.9418701
<<<<<<< HEAD
 Leave Link  202 at Thu Apr 21 01:01:59 2016, MaxMem=   134217728 cpu:         0.0
=======
 Leave Link  202 at Thu Apr 21 12:59:43 2016, MaxMem=    33554432 cpu:         0.0
>>>>>>> 7247658d25b277b9e756e5742d8ccf13e5ff18d4
 (Enter /usr/local/gau/g09/l301.exe)
 Standard basis: 6-311++G(d,p) (5D, 7F)
 Ernie: Thresh=  0.10000D-02 Tol=  0.10000D-05 Strict=F.
   247 basis functions,   387 primitive gaussians,   256 cartesian basis functions
    35 alpha electrons       35 beta electrons
       nuclear repulsion energy       471.8318337382 Hartrees.
 IExCor=  402 DFT=T Ex+Corr=B3LYP ExCW=0 ScaHFX=  0.200000
 ScaDFX=  0.800000  0.720000  1.000000  0.810000 ScalE2=  1.000000  1.000000
 IRadAn=      0 IRanWt=     -1 IRanGd=            0 ICorTp=0 IEmpDi=  4
 NAtoms=   16 NActive=   16 NUniq=   16 SFac= 1.00D+00 NAtFMM=   60 NAOKFM=F Big=F
 Integral buffers will be    131072 words long.
 Raffenetti 2 integral format.
 Two-electron integral symmetry is turned off.
 ------------------------------------------------------------------------------
 Polarizable Continuum Model (PCM)
 =================================
 Model                : C-PCM.
 Atomic radii         : UFF (Universal Force Field).
 Polarization charges : Total charges.
 Charge compensation  : None.
 Solution method      : On-the-fly selection.
 Cavity type          : Scaled VdW (van der Waals Surface) (Alpha=1.100).
 Cavity algorithm     : GePol (No added spheres)
                        Default sphere list used, NSphG=   16.
                        Lebedev-Laikov grids with approx.  5.0 points / Ang**2.
                        Smoothing algorithm: Karplus/York (Gamma=1.0000).
                        Polarization charges: spherical gaussians, with
                                              point-specific exponents (IZeta= 3).
                        Self-potential: point-specific (ISelfS= 7).
                        Self-field    : sphere-specific E.n sum rule (ISelfD= 2).
 1st derivatives      : Analytical E(r).r(x)/FMM algorithm (CHGder, D1EAlg=3).
                        Cavity 1st derivative terms included.
 Solvent              : Water, Eps=  78.355300 Eps(inf)=   1.777849
 ------------------------------------------------------------------------------
 Spheres list:
 ISph  on   Nord     Re0    Alpha      Xe            Ye            Ze
    1   N      1    1.8300  1.100     -1.449098      1.900759     -0.124760
    2   H      2    1.4430  1.100     -1.623987      2.054239      0.864912
    3   C      3    1.9255  1.100     -0.596696      0.721819     -0.333685
    4   H      4    1.4430  1.100     -0.275479     -0.285809      1.535515
    5   C      5    1.9255  1.100      0.796095      0.995287      0.226342
    6   C      6    1.9255  1.100     -1.221463     -0.519161      0.308758
    7   H      7    1.4430  1.100      1.171475      1.932258     -0.193723
    8   H      8    1.4430  1.100      0.763531      1.130038      1.311208
    9   C      9    1.9255  1.100      1.790318     -0.093671     -0.087852
   10   O     10    1.7500  1.100     -2.092916     -1.122400     -0.521310
   11   O     11    1.7500  1.100      1.565104     -1.081661     -0.751127
   12   H     12    1.4430  1.100     -2.349899      1.778416     -0.576809
   13   O     13    1.7500  1.100     -1.027733     -0.891409      1.444623
   14   H     14    1.4430  1.100     -2.520188     -1.853372     -0.045789
   15   O     15    1.7500  1.100      2.995754      0.160504      0.455860
   16   H     16    1.4430  1.100      3.599522     -0.561301      0.217415
 ------------------------------------------------------------------------------
 GePol: Number of generator spheres                  =      16
 GePol: Total number of spheres                      =      16
 GePol: Number of exposed spheres                    =      16 (100.00%)
 GePol: Number of points                             =    1372
 GePol: Average weight of points                     =       0.13
 GePol: Minimum weight of points                     =   0.18D-08
 GePol: Maximum weight of points                     =    0.20577
 GePol: Number of points with low weight             =      80
 GePol: Fraction of low-weight points (<1% of avg)   =       5.83%
 GePol: Cavity surface area                          =    184.831 Ang**2
 GePol: Cavity volume                                =    178.165 Ang**3
<<<<<<< HEAD
 Leave Link  301 at Thu Apr 21 01:01:59 2016, MaxMem=   134217728 cpu:         0.1
=======
 Leave Link  301 at Thu Apr 21 12:59:50 2016, MaxMem=    33554432 cpu:         0.1
>>>>>>> 7247658d25b277b9e756e5742d8ccf13e5ff18d4
 (Enter /usr/local/gau/g09/l302.exe)
 NPDir=0 NMtPBC=     1 NCelOv=     1 NCel=       1 NClECP=     1 NCelD=      1
         NCelK=      1 NCelE2=     1 NClLst=     1 CellRange=     0.0.
 One-electron integrals computed using PRISM.
 NBasis=   247 RedAO= T EigKep=  1.14D-05  NBF=   247
 NBsUse=   247 1.00D-06 EigRej= -1.00D+00 NBFU=   247
 Precomputing XC quadrature grid using
 IXCGrd= 4 IRadAn=           0 IRanWt=          -1 IRanGd=           0 AccXCQ= 0.00D+00.
 Generated NRdTot=       0 NPtTot=           0 NUsed=           0 NTot=          32
 NSgBfM=   256   256   256   256   256 MxSgAt=    16 MxSgA2=    16.
<<<<<<< HEAD
 Leave Link  302 at Thu Apr 21 01:02:00 2016, MaxMem=   134217728 cpu:         0.5
 (Enter /usr/local/gau/g09/l303.exe)
 DipDrv:  MaxL=1.
 Leave Link  303 at Thu Apr 21 01:02:00 2016, MaxMem=   134217728 cpu:         0.1
=======
 Leave Link  302 at Thu Apr 21 12:59:59 2016, MaxMem=    33554432 cpu:         0.5
 (Enter /usr/local/gau/g09/l303.exe)
 DipDrv:  MaxL=1.
 Leave Link  303 at Thu Apr 21 13:00:04 2016, MaxMem=    33554432 cpu:         0.0
>>>>>>> 7247658d25b277b9e756e5742d8ccf13e5ff18d4
 (Enter /usr/local/gau/g09/l401.exe)
 ExpMin= 3.60D-02 ExpMax= 8.59D+03 ExpMxC= 1.30D+03 IAcc=3 IRadAn=         5 AccDes= 0.00D+00
 Harris functional with IExCor=  402 and IRadAn=       5 diagonalized for initial guess.
 HarFok:  IExCor=  402 AccDes= 0.00D+00 IRadAn=         5 IDoV= 1 UseB2=F ITyADJ=14
 ICtDFT=  3500011 ScaDFX=  1.000000  1.000000  1.000000  1.000000
 FoFCou: FMM=F IPFlag=           0 FMFlag=      100000 FMFlg1=           0
         NFxFlg=           0 DoJE=T BraDBF=F KetDBF=T FulRan=T
         wScrn=  0.000000 ICntrl=     500 IOpCl=  0 I1Cent=   200000004 NGrid=           0
         NMat0=    1 NMatS0=      1 NMatT0=    0 NMatD0=    1 NMtDS0=    0 NMtDT0=    0
 Symmetry not used in FoFCou.
 Harris En= -512.388738414688    
 JPrj=0 DoOrth=F DoCkMO=F.
<<<<<<< HEAD
 Leave Link  401 at Thu Apr 21 01:02:11 2016, MaxMem=   134217728 cpu:        10.8
=======
 Leave Link  401 at Thu Apr 21 13:00:24 2016, MaxMem=    33554432 cpu:        13.6
>>>>>>> 7247658d25b277b9e756e5742d8ccf13e5ff18d4
 (Enter /usr/local/gau/g09/l502.exe)
 Closed shell SCF:
 Using DIIS extrapolation, IDIIS=  1040.
 Two-electron integral symmetry not used.
<<<<<<< HEAD
 IVT=      218262 IEndB=      218262 NGot=   134217728 MDV=   134081899
 LenX=   134081899 LenY=   134015922
=======
 IVT=      218262 IEndB=      218262 NGot=    33554432 MDV=    33418603
 LenX=    33418603 LenY=    33352626
>>>>>>> 7247658d25b277b9e756e5742d8ccf13e5ff18d4
 Requested convergence on RMS density matrix=1.00D-08 within 128 cycles.
 Requested convergence on MAX density matrix=1.00D-06.
 Requested convergence on             energy=1.00D-06.
 No special actions if energy rises.
 Fock matrices will be formed incrementally for  20 cycles.

 Cycle   1  Pass 1  IDiag  1:
 FoFJK:  IHMeth= 1 ICntrl=       0 DoSepK=F KAlg= 0 I1Cent=   0 FoldK=F
 IRaf= 940000000 NMat=   1 IRICut=       1 DoRegI=T DoRafI=F ISym2E= 0.
 FoFCou: FMM=F IPFlag=           0 FMFlag=      100000 FMFlg1=           0
         NFxFlg=           0 DoJE=F BraDBF=F KetDBF=F FulRan=T
         wScrn=  0.000000 ICntrl=       0 IOpCl=  0 I1Cent=           0 NGrid=           0
         NMat0=    1 NMatS0=      1 NMatT0=    0 NMatD0=    1 NMtDS0=    0 NMtDT0=    0
 Symmetry not used in FoFCou.
 Inv3:  Mode=1 IEnd=     5647152.
 Iteration    1 A*A^-1 deviation from unit magnitude is 3.77D-15 for   1362.
 Iteration    1 A*A^-1 deviation from orthogonality  is 3.05D-15 for   1366    790.
 Iteration    1 A^-1*A deviation from unit magnitude is 3.55D-15 for   1362.
 Iteration    1 A^-1*A deviation from orthogonality  is 1.39D-15 for   1184    871.
 E= -512.022693158647    
 DIIS: error= 2.56D-02 at cycle   1 NSaved=   1.
 NSaved= 1 IEnMin= 1 EnMin= -512.022693158647     IErMin= 1 ErrMin= 2.56D-02
 ErrMax= 2.56D-02  0.00D+00 EMaxC= 1.00D-01 BMatC= 4.37D-01 BMatP= 4.37D-01
 IDIUse=3 WtCom= 7.44D-01 WtEn= 2.56D-01
 Coeff-Com:  0.100D+01
 Coeff-En:   0.100D+01
 Coeff:      0.100D+01
 Gap=    -0.001 Goal=   None    Shift=    0.000
 GapD=   -0.001 DampG=0.250 DampE=0.500 DampFc=0.2500 IDamp=-1.
 Damping current iteration by 2.50D-01
 RMSDP=1.61D-02 MaxDP=1.43D+00              OVMax= 5.55D-01

 Cycle   2  Pass 1  IDiag  1:
 RMSU=  3.77D-03    CP:  1.07D+00
 E= -512.133793713882     Delta-E=       -0.111100555235 Rises=F Damp=T
 DIIS: error= 1.03D-02 at cycle   2 NSaved=   2.
 NSaved= 2 IEnMin= 2 EnMin= -512.133793713882     IErMin= 2 ErrMin= 1.03D-02
 ErrMax= 1.03D-02  0.00D+00 EMaxC= 1.00D-01 BMatC= 7.63D-02 BMatP= 4.37D-01
 IDIUse=3 WtCom= 8.97D-01 WtEn= 1.03D-01
 Coeff-Com: -0.539D+00 0.154D+01
 Coeff-En:   0.000D+00 0.100D+01
 Coeff:     -0.483D+00 0.148D+01
 Gap=     0.096 Goal=   None    Shift=    0.000
 RMSDP=5.14D-03 MaxDP=5.31D-01 DE=-1.11D-01 OVMax= 5.22D-01

 Cycle   3  Pass 1  IDiag  1:
 RMSU=  3.53D-03    CP:  9.26D-01  3.58D-01
 E= -512.304006548803     Delta-E=       -0.170212834921 Rises=F Damp=F
 DIIS: error= 9.43D-03 at cycle   3 NSaved=   3.
 NSaved= 3 IEnMin= 3 EnMin= -512.304006548803     IErMin= 3 ErrMin= 9.43D-03
 ErrMax= 9.43D-03  0.00D+00 EMaxC= 1.00D-01 BMatC= 4.58D-02 BMatP= 7.63D-02
 IDIUse=3 WtCom= 9.06D-01 WtEn= 9.43D-02
 Coeff-Com: -0.361D+00 0.933D+00 0.427D+00
 Coeff-En:   0.000D+00 0.000D+00 0.100D+01
 Coeff:     -0.327D+00 0.845D+00 0.481D+00
 Gap=     0.117 Goal=   None    Shift=    0.000
 RMSDP=1.75D-03 MaxDP=2.00D-01 DE=-1.70D-01 OVMax= 1.01D-01

 Cycle   4  Pass 1  IDiag  1:
 RMSU=  1.58D-03    CP:  8.88D-01  3.21D-01  1.02D+00
 E= -512.341078533159     Delta-E=       -0.037071984356 Rises=F Damp=F
 DIIS: error= 2.89D-03 at cycle   4 NSaved=   4.
 NSaved= 4 IEnMin= 4 EnMin= -512.341078533159     IErMin= 4 ErrMin= 2.89D-03
 ErrMax= 2.89D-03  0.00D+00 EMaxC= 1.00D-01 BMatC= 3.85D-03 BMatP= 4.58D-02
 IDIUse=3 WtCom= 9.71D-01 WtEn= 2.89D-02
 Coeff-Com: -0.125D+00 0.261D+00 0.237D+00 0.627D+00
 Coeff-En:   0.000D+00 0.000D+00 0.000D+00 0.100D+01
 Coeff:     -0.121D+00 0.254D+00 0.230D+00 0.638D+00
 Gap=     0.120 Goal=   None    Shift=    0.000
 RMSDP=9.38D-04 MaxDP=7.05D-02 DE=-3.71D-02 OVMax= 2.06D-02

 Cycle   5  Pass 1  IDiag  1:
 RMSU=  5.18D-04    CP:  8.63D-01  2.08D-01  1.14D+00  9.73D-01
 E= -512.343148179154     Delta-E=       -0.002069645995 Rises=F Damp=F
 DIIS: error= 1.97D-03 at cycle   5 NSaved=   5.
 NSaved= 5 IEnMin= 5 EnMin= -512.343148179154     IErMin= 5 ErrMin= 1.97D-03
 ErrMax= 1.97D-03  0.00D+00 EMaxC= 1.00D-01 BMatC= 7.07D-04 BMatP= 3.85D-03
 IDIUse=3 WtCom= 9.80D-01 WtEn= 1.97D-02
 Coeff-Com: -0.439D-01 0.705D-01 0.766D-01 0.375D+00 0.521D+00
 Coeff-En:   0.000D+00 0.000D+00 0.000D+00 0.165D+00 0.835D+00
 Coeff:     -0.430D-01 0.691D-01 0.751D-01 0.371D+00 0.528D+00
 Gap=     0.121 Goal=   None    Shift=    0.000
 RMSDP=3.04D-04 MaxDP=3.78D-02 DE=-2.07D-03 OVMax= 8.31D-03

 Cycle   6  Pass 1  IDiag  1:
 RMSU=  2.01D-04    CP:  8.55D-01  1.88D-01  1.17D+00  1.04D+00  1.09D+00
 E= -512.343685565329     Delta-E=       -0.000537386175 Rises=F Damp=F
 DIIS: error= 4.08D-04 at cycle   6 NSaved=   6.
 NSaved= 6 IEnMin= 6 EnMin= -512.343685565329     IErMin= 6 ErrMin= 4.08D-04
 ErrMax= 4.08D-04  0.00D+00 EMaxC= 1.00D-01 BMatC= 4.51D-05 BMatP= 7.07D-04
 IDIUse=3 WtCom= 9.96D-01 WtEn= 4.08D-03
 Coeff-Com: -0.101D-01 0.109D-01 0.705D-02 0.114D+00 0.274D+00 0.604D+00
 Coeff-En:   0.000D+00 0.000D+00 0.000D+00 0.000D+00 0.000D+00 0.100D+01
 Coeff:     -0.101D-01 0.109D-01 0.702D-02 0.113D+00 0.273D+00 0.606D+00
 Gap=     0.120 Goal=   None    Shift=    0.000
 RMSDP=1.11D-04 MaxDP=7.37D-03 DE=-5.37D-04 OVMax= 2.53D-03

 Cycle   7  Pass 1  IDiag  1:
 RMSU=  4.66D-05    CP:  8.52D-01  1.82D-01  1.19D+00  1.06D+00  1.20D+00
                    CP:  1.02D+00
 E= -512.343714030549     Delta-E=       -0.000028465220 Rises=F Damp=F
 DIIS: error= 2.37D-04 at cycle   7 NSaved=   7.
 NSaved= 7 IEnMin= 7 EnMin= -512.343714030549     IErMin= 7 ErrMin= 2.37D-04
 ErrMax= 2.37D-04  0.00D+00 EMaxC= 1.00D-01 BMatC= 1.23D-05 BMatP= 4.51D-05
 IDIUse=3 WtCom= 9.98D-01 WtEn= 2.37D-03
 Coeff-Com: -0.198D-02 0.654D-03-0.664D-02 0.191D-01 0.107D+00 0.403D+00
 Coeff-Com:  0.478D+00
 Coeff-En:   0.000D+00 0.000D+00 0.000D+00 0.000D+00 0.000D+00 0.164D+00
 Coeff-En:   0.836D+00
 Coeff:     -0.197D-02 0.652D-03-0.662D-02 0.191D-01 0.107D+00 0.403D+00
 Coeff:      0.479D+00
 Gap=     0.121 Goal=   None    Shift=    0.000
 RMSDP=5.23D-05 MaxDP=2.45D-03 DE=-2.85D-05 OVMax= 1.50D-03

 Cycle   8  Pass 1  IDiag  1:
 RMSU=  2.80D-05    CP:  8.51D-01  1.77D-01  1.19D+00  1.05D+00  1.26D+00
                    CP:  1.00D+00  9.55D-01
 E= -512.343724414236     Delta-E=       -0.000010383686 Rises=F Damp=F
 DIIS: error= 2.04D-05 at cycle   8 NSaved=   8.
 NSaved= 8 IEnMin= 8 EnMin= -512.343724414236     IErMin= 8 ErrMin= 2.04D-05
 ErrMax= 2.04D-05  0.00D+00 EMaxC= 1.00D-01 BMatC= 3.39D-07 BMatP= 1.23D-05
 IDIUse=1 WtCom= 1.00D+00 WtEn= 0.00D+00
 Coeff-Com:  0.321D-03-0.659D-03-0.373D-02-0.635D-02 0.566D-02 0.412D-01
 Coeff-Com:  0.141D+00 0.822D+00
 Coeff:      0.321D-03-0.659D-03-0.373D-02-0.635D-02 0.566D-02 0.412D-01
 Coeff:      0.141D+00 0.822D+00
 Gap=     0.121 Goal=   None    Shift=    0.000
 RMSDP=3.36D-05 MaxDP=3.32D-03 DE=-1.04D-05 OVMax= 6.24D-04

 Cycle   9  Pass 1  IDiag  1:
 RMSU=  6.34D-06    CP:  8.50D-01  1.73D-01  1.20D+00  1.06D+00  1.29D+00
                    CP:  1.05D+00  1.03D+00  1.11D+00
 E= -512.343724831245     Delta-E=       -0.000000417009 Rises=F Damp=F
 DIIS: error= 1.08D-05 at cycle   9 NSaved=   9.
 NSaved= 9 IEnMin= 9 EnMin= -512.343724831245     IErMin= 9 ErrMin= 1.08D-05
 ErrMax= 1.08D-05  0.00D+00 EMaxC= 1.00D-01 BMatC= 6.47D-08 BMatP= 3.39D-07
 IDIUse=1 WtCom= 1.00D+00 WtEn= 0.00D+00
 Coeff-Com:  0.185D-03-0.241D-03-0.153D-02-0.397D-02-0.447D-02-0.141D-01
 Coeff-Com:  0.348D-01 0.373D+00 0.617D+00
 Coeff:      0.185D-03-0.241D-03-0.153D-02-0.397D-02-0.447D-02-0.141D-01
 Coeff:      0.348D-01 0.373D+00 0.617D+00
 Gap=     0.121 Goal=   None    Shift=    0.000
 RMSDP=5.63D-06 MaxDP=3.22D-04 DE=-4.17D-07 OVMax= 2.09D-04

 Cycle  10  Pass 1  IDiag  1:
 RMSU=  1.42D-06    CP:  8.50D-01  1.73D-01  1.20D+00  1.06D+00  1.30D+00
                    CP:  1.06D+00  1.06D+00  1.16D+00  1.02D+00
 E= -512.343724899103     Delta-E=       -0.000000067859 Rises=F Damp=F
 DIIS: error= 4.78D-06 at cycle  10 NSaved=  10.
 NSaved=10 IEnMin=10 EnMin= -512.343724899103     IErMin=10 ErrMin= 4.78D-06
 ErrMax= 4.78D-06  0.00D+00 EMaxC= 1.00D-01 BMatC= 1.28D-08 BMatP= 6.47D-08
 IDIUse=1 WtCom= 1.00D+00 WtEn= 0.00D+00
 Coeff-Com:  0.659D-04-0.659D-04-0.421D-03-0.152D-02-0.414D-02-0.179D-01
 Coeff-Com: -0.321D-02 0.571D-01 0.292D+00 0.678D+00
 Coeff:      0.659D-04-0.659D-04-0.421D-03-0.152D-02-0.414D-02-0.179D-01
 Coeff:     -0.321D-02 0.571D-01 0.292D+00 0.678D+00
 Gap=     0.121 Goal=   None    Shift=    0.000
 RMSDP=3.10D-06 MaxDP=1.78D-04 DE=-6.79D-08 OVMax= 1.00D-04

 Cycle  11  Pass 1  IDiag  1:
 RMSU=  6.37D-07    CP:  8.50D-01  1.73D-01  1.20D+00  1.06D+00  1.30D+00
                    CP:  1.06D+00  1.08D+00  1.19D+00  1.09D+00  1.18D+00
 E= -512.343724914455     Delta-E=       -0.000000015352 Rises=F Damp=F
 DIIS: error= 1.52D-06 at cycle  11 NSaved=  11.
 NSaved=11 IEnMin=11 EnMin= -512.343724914455     IErMin=11 ErrMin= 1.52D-06
 ErrMax= 1.52D-06  0.00D+00 EMaxC= 1.00D-01 BMatC= 1.47D-09 BMatP= 1.28D-08
 IDIUse=1 WtCom= 1.00D+00 WtEn= 0.00D+00
 Coeff-Com: -0.862D-05 0.174D-04-0.214D-04-0.970D-04-0.120D-02-0.668D-02
 Coeff-Com: -0.564D-02-0.299D-01 0.350D-01 0.314D+00 0.695D+00
 Coeff:     -0.862D-05 0.174D-04-0.214D-04-0.970D-04-0.120D-02-0.668D-02
 Coeff:     -0.564D-02-0.299D-01 0.350D-01 0.314D+00 0.695D+00
 Gap=     0.121 Goal=   None    Shift=    0.000
 RMSDP=1.09D-06 MaxDP=8.85D-05 DE=-1.54D-08 OVMax= 4.32D-05

 Cycle  12  Pass 1  IDiag  1:
 RMSU=  2.23D-07    CP:  8.50D-01  1.73D-01  1.20D+00  1.06D+00  1.30D+00
                    CP:  1.06D+00  1.08D+00  1.20D+00  1.15D+00  1.30D+00
                    CP:  1.07D+00
 E= -512.343724916100     Delta-E=       -0.000000001645 Rises=F Damp=F
 DIIS: error= 6.75D-07 at cycle  12 NSaved=  12.
 NSaved=12 IEnMin=12 EnMin= -512.343724916100     IErMin=12 ErrMin= 6.75D-07
 ErrMax= 6.75D-07  0.00D+00 EMaxC= 1.00D-01 BMatC= 2.26D-10 BMatP= 1.47D-09
 IDIUse=1 WtCom= 1.00D+00 WtEn= 0.00D+00
 Coeff-Com: -0.138D-04 0.192D-04 0.166D-04 0.113D-03-0.902D-04-0.122D-02
 Coeff-Com: -0.189D-02-0.185D-01-0.161D-01 0.686D-01 0.377D+00 0.592D+00
 Coeff:     -0.138D-04 0.192D-04 0.166D-04 0.113D-03-0.902D-04-0.122D-02
 Coeff:     -0.189D-02-0.185D-01-0.161D-01 0.686D-01 0.377D+00 0.592D+00
 Gap=     0.121 Goal=   None    Shift=    0.000
 RMSDP=1.43D-07 MaxDP=1.17D-05 DE=-1.64D-09 OVMax= 1.10D-05

 Cycle  13  Pass 1  IDiag  1:
 RMSU=  7.76D-08    CP:  8.50D-01  1.73D-01  1.20D+00  1.06D+00  1.30D+00
                    CP:  1.06D+00  1.08D+00  1.20D+00  1.16D+00  1.35D+00
                    CP:  1.10D+00  1.01D+00
 E= -512.343724916323     Delta-E=       -0.000000000223 Rises=F Damp=F
 DIIS: error= 2.13D-07 at cycle  13 NSaved=  13.
 NSaved=13 IEnMin=13 EnMin= -512.343724916323     IErMin=13 ErrMin= 2.13D-07
 ErrMax= 2.13D-07  0.00D+00 EMaxC= 1.00D-01 BMatC= 1.69D-11 BMatP= 2.26D-10
 IDIUse=1 WtCom= 1.00D+00 WtEn= 0.00D+00
 Coeff-Com: -0.251D-05 0.251D-05 0.534D-05 0.500D-04 0.743D-04 0.116D-03
 Coeff-Com: -0.335D-03-0.496D-02-0.114D-01-0.984D-02 0.926D-01 0.258D+00
 Coeff-Com:  0.676D+00
 Coeff:     -0.251D-05 0.251D-05 0.534D-05 0.500D-04 0.743D-04 0.116D-03
 Coeff:     -0.335D-03-0.496D-02-0.114D-01-0.984D-02 0.926D-01 0.258D+00
 Coeff:      0.676D+00
 Gap=     0.121 Goal=   None    Shift=    0.000
 RMSDP=4.82D-08 MaxDP=1.92D-06 DE=-2.23D-10 OVMax= 2.76D-06

 Cycle  14  Pass 1  IDiag  1:
 RMSU=  2.26D-08    CP:  8.50D-01  1.73D-01  1.20D+00  1.06D+00  1.30D+00
                    CP:  1.06D+00  1.08D+00  1.20D+00  1.16D+00  1.36D+00
                    CP:  1.13D+00  1.07D+00  9.59D-01
 E= -512.343724916308     Delta-E=        0.000000000014 Rises=F Damp=F
 DIIS: error= 9.57D-08 at cycle  14 NSaved=  14.
 NSaved=14 IEnMin=13 EnMin= -512.343724916323     IErMin=14 ErrMin= 9.57D-08
 ErrMax= 9.57D-08  0.00D+00 EMaxC= 1.00D-01 BMatC= 3.91D-12 BMatP= 1.69D-11
 IDIUse=1 WtCom= 1.00D+00 WtEn= 0.00D+00
 Coeff-Com: -0.684D-06 0.114D-05 0.937D-06 0.177D-04 0.626D-04 0.234D-03
 Coeff-Com:  0.762D-04-0.257D-03-0.423D-02-0.151D-01 0.656D-02 0.766D-01
 Coeff-Com:  0.407D+00 0.529D+00
 Coeff:     -0.684D-06 0.114D-05 0.937D-06 0.177D-04 0.626D-04 0.234D-03
 Coeff:      0.762D-04-0.257D-03-0.423D-02-0.151D-01 0.656D-02 0.766D-01
 Coeff:      0.407D+00 0.529D+00
 Gap=     0.121 Goal=   None    Shift=    0.000
 RMSDP=3.13D-08 MaxDP=3.28D-06 DE= 1.42D-11 OVMax= 7.83D-07

 Cycle  15  Pass 1  IDiag  1:
 RMSU=  7.63D-09    CP:  8.50D-01  1.73D-01  1.20D+00  1.06D+00  1.30D+00
                    CP:  1.06D+00  1.08D+00  1.20D+00  1.16D+00  1.36D+00
                    CP:  1.14D+00  1.09D+00  1.01D+00  9.58D-01
 E= -512.343724916330     Delta-E=       -0.000000000022 Rises=F Damp=F
 DIIS: error= 1.20D-08 at cycle  15 NSaved=  15.
 NSaved=15 IEnMin=15 EnMin= -512.343724916330     IErMin=15 ErrMin= 1.20D-08
 ErrMax= 1.20D-08  0.00D+00 EMaxC= 1.00D-01 BMatC= 7.34D-14 BMatP= 3.91D-12
 IDIUse=1 WtCom= 1.00D+00 WtEn= 0.00D+00
 Coeff-Com: -0.376D-08 0.896D-07-0.692D-06 0.126D-05 0.127D-04 0.589D-04
 Coeff-Com:  0.591D-04 0.351D-03-0.299D-03-0.369D-02-0.459D-02 0.467D-02
 Coeff-Com:  0.727D-01 0.158D+00 0.773D+00
 Coeff:     -0.376D-08 0.896D-07-0.692D-06 0.126D-05 0.127D-04 0.589D-04
 Coeff:      0.591D-04 0.351D-03-0.299D-03-0.369D-02-0.459D-02 0.467D-02
 Coeff:      0.727D-01 0.158D+00 0.773D+00
 Gap=     0.121 Goal=   None    Shift=    0.000
 RMSDP=1.01D-08 MaxDP=5.77D-07 DE=-2.22D-11 OVMax= 1.84D-07

 Cycle  16  Pass 1  IDiag  1:
 RMSU=  2.14D-09    CP:  8.50D-01  1.73D-01  1.20D+00  1.06D+00  1.30D+00
                    CP:  1.06D+00  1.08D+00  1.20D+00  1.16D+00  1.36D+00
                    CP:  1.14D+00  1.10D+00  1.04D+00  1.04D+00  1.10D+00
 E= -512.343724916315     Delta-E=        0.000000000016 Rises=F Damp=F
 DIIS: error= 5.50D-09 at cycle  16 NSaved=  16.
 NSaved=16 IEnMin=15 EnMin= -512.343724916330     IErMin=16 ErrMin= 5.50D-09
 ErrMax= 5.50D-09  0.00D+00 EMaxC= 1.00D-01 BMatC= 1.80D-14 BMatP= 7.34D-14
 IDIUse=1 WtCom= 1.00D+00 WtEn= 0.00D+00
 Coeff-Com:  0.537D-07-0.995D-07-0.322D-06-0.505D-06 0.788D-06 0.811D-05
 Coeff-Com:  0.196D-04 0.152D-03 0.197D-03-0.416D-03-0.296D-02-0.521D-02
 Coeff-Com: -0.559D-02 0.249D-01 0.373D+00 0.616D+00
 Coeff:      0.537D-07-0.995D-07-0.322D-06-0.505D-06 0.788D-06 0.811D-05
 Coeff:      0.196D-04 0.152D-03 0.197D-03-0.416D-03-0.296D-02-0.521D-02
 Coeff:     -0.559D-02 0.249D-01 0.373D+00 0.616D+00
 Gap=     0.121 Goal=   None    Shift=    0.000
 RMSDP=1.36D-09 MaxDP=5.66D-08 DE= 1.59D-11 OVMax= 5.88D-08

 Error on total polarization charges =  0.01524
 SCF Done:  E(RB3LYP) =  -512.343724916     A.U. after   16 cycles
            NFock= 16  Conv=0.14D-08     -V/T= 2.0030
 KE= 5.107973994977D+02 PE=-2.146200471276D+03 EE= 6.512275131242D+02
<<<<<<< HEAD
 Leave Link  502 at Thu Apr 21 01:07:10 2016, MaxMem=   134217728 cpu:       299.2
=======
 Leave Link  502 at Thu Apr 21 13:08:13 2016, MaxMem=    33554432 cpu:       412.0
>>>>>>> 7247658d25b277b9e756e5742d8ccf13e5ff18d4
 (Enter /usr/local/gau/g09/l601.exe)
 Copying SCF densities to generalized density rwf, IOpCl= 0 IROHF=0.

 **********************************************************************

            Population analysis using the SCF density.

 **********************************************************************

 Alpha  occ. eigenvalues --  -19.24553 -19.20828 -19.18307 -19.13048 -14.30195
 Alpha  occ. eigenvalues --  -10.34772 -10.32079 -10.19200 -10.16408  -1.23033
 Alpha  occ. eigenvalues --   -1.12612  -1.10675  -1.03699  -0.88405  -0.78199
 Alpha  occ. eigenvalues --   -0.71132  -0.67700  -0.63138  -0.59072  -0.54609
 Alpha  occ. eigenvalues --   -0.52206  -0.51396  -0.49938  -0.48799  -0.47233
 Alpha  occ. eigenvalues --   -0.44890  -0.43374  -0.41383  -0.39824  -0.39350
 Alpha  occ. eigenvalues --   -0.37938  -0.34354  -0.30015  -0.26396  -0.16963
 Alpha virt. eigenvalues --   -0.04898  -0.01841  -0.01647  -0.00061   0.00986
 Alpha virt. eigenvalues --    0.01706   0.02860   0.04139   0.05048   0.05960
 Alpha virt. eigenvalues --    0.06849   0.08009   0.08493   0.09082   0.09330
 Alpha virt. eigenvalues --    0.09727   0.10459   0.10857   0.11625   0.11952
 Alpha virt. eigenvalues --    0.13033   0.13564   0.14554   0.14746   0.16324
 Alpha virt. eigenvalues --    0.16679   0.17481   0.18847   0.19838   0.20548
 Alpha virt. eigenvalues --    0.20770   0.21580   0.22206   0.23083   0.23914
 Alpha virt. eigenvalues --    0.24479   0.24862   0.25746   0.26132   0.27025
 Alpha virt. eigenvalues --    0.27211   0.27904   0.28648   0.29426   0.29672
 Alpha virt. eigenvalues --    0.29863   0.30528   0.31591   0.32407   0.32983
 Alpha virt. eigenvalues --    0.34199   0.34811   0.35737   0.36534   0.37719
 Alpha virt. eigenvalues --    0.38729   0.39531   0.41660   0.45552   0.47592
 Alpha virt. eigenvalues --    0.50769   0.53498   0.53864   0.55098   0.57495
 Alpha virt. eigenvalues --    0.57674   0.59301   0.60102   0.62209   0.63488
 Alpha virt. eigenvalues --    0.64917   0.67436   0.68790   0.70225   0.71828
 Alpha virt. eigenvalues --    0.73096   0.74723   0.78166   0.78559   0.82797
 Alpha virt. eigenvalues --    0.84273   0.87390   0.88823   0.92651   0.95904
 Alpha virt. eigenvalues --    0.98596   1.02486   1.04303   1.04790   1.05292
 Alpha virt. eigenvalues --    1.08305   1.10029   1.13112   1.14217   1.15715
 Alpha virt. eigenvalues --    1.15928   1.16982   1.17954   1.22377   1.22731
 Alpha virt. eigenvalues --    1.24797   1.26326   1.29225   1.31660   1.33455
 Alpha virt. eigenvalues --    1.38872   1.42324   1.42931   1.46092   1.49033
 Alpha virt. eigenvalues --    1.49466   1.52492   1.53534   1.54115   1.56818
 Alpha virt. eigenvalues --    1.59024   1.61001   1.61701   1.64996   1.66030
 Alpha virt. eigenvalues --    1.69269   1.70738   1.75351   1.78169   1.80608
 Alpha virt. eigenvalues --    1.82200   1.86006   1.88286   1.91444   1.95031
 Alpha virt. eigenvalues --    1.98410   2.00331   2.02021   2.06140   2.09739
 Alpha virt. eigenvalues --    2.10337   2.14703   2.17135   2.22908   2.28587
 Alpha virt. eigenvalues --    2.30539   2.40237   2.52024   2.52933   2.55213
 Alpha virt. eigenvalues --    2.55956   2.57098   2.58919   2.62801   2.66035
 Alpha virt. eigenvalues --    2.70403   2.71448   2.72886   2.76959   2.83599
 Alpha virt. eigenvalues --    2.86928   2.89657   2.93294   2.93363   2.96384
 Alpha virt. eigenvalues --    2.98421   3.01143   3.03913   3.04914   3.07943
 Alpha virt. eigenvalues --    3.11699   3.12516   3.16019   3.16662   3.20096
 Alpha virt. eigenvalues --    3.24279   3.25839   3.27669   3.35170   3.37653
 Alpha virt. eigenvalues --    3.54028   3.56318   3.59597   3.65790   3.73636
 Alpha virt. eigenvalues --    3.78846   3.80409   3.84290   3.90701   4.01903
 Alpha virt. eigenvalues --    4.05663   4.07130   4.11232   4.32645   4.73736
 Alpha virt. eigenvalues --    4.80254   4.92937   4.95816   4.98061   5.05153
 Alpha virt. eigenvalues --    5.17712   5.32743   5.36828   5.47750   5.54203
 Alpha virt. eigenvalues --    5.59539   5.83680   5.84509  23.75229  23.78960
 Alpha virt. eigenvalues --   23.80195  23.92224  35.60399  49.82932  49.85530
 Alpha virt. eigenvalues --   49.91734  49.99083
          Condensed to atoms (all electrons):
               1          2          3          4          5          6
     1  N    6.709155   0.394827  -0.032243   0.011065  -0.008323  -0.082113
     2  H    0.394827   0.629900  -0.199027   0.015186   0.005288  -0.034413
     3  C   -0.032243  -0.199027   8.741176  -0.012462  -0.956360  -0.604337
     4  H    0.011065   0.015186  -0.012462   0.399785   0.008514  -0.066803
     5  C   -0.008323   0.005288  -0.956360   0.008514   7.696236   0.153313
     6  C   -0.082113  -0.034413  -0.604337  -0.066803   0.153313   6.184097
     7  H    0.003188  -0.011667  -0.075765   0.001131   0.384336   0.029043
     8  H    0.011073   0.051732  -0.134006   0.019243   0.507989  -0.105671
     9  C   -0.020079  -0.018972  -0.058032  -0.040244  -0.871361   0.190622
    10  O   -0.043684  -0.010772  -0.110991   0.002084   0.006408   0.313126
    11  O   -0.001312   0.000132   0.050590   0.000806  -0.143803   0.014403
    12  H    0.406692  -0.076311  -0.112130  -0.001934   0.012852   0.040324
    13  O    0.021123   0.043400  -0.256115   0.308247   0.082464   0.159697
    14  H    0.006591   0.001748  -0.026071   0.004695  -0.004039   0.045674
    15  O   -0.000547   0.000839   0.040878   0.003229  -0.338549   0.003716
    16  H   -0.000281  -0.000228  -0.011910  -0.001311  -0.043086   0.004074
               7          8          9         10         11         12
     1  N    0.003188   0.011073  -0.020079  -0.043684  -0.001312   0.406692
     2  H   -0.011667   0.051732  -0.018972  -0.010772   0.000132  -0.076311
     3  C   -0.075765  -0.134006  -0.058032  -0.110991   0.050590  -0.112130
     4  H    0.001131   0.019243  -0.040244   0.002084   0.000806  -0.001934
     5  C    0.384336   0.507989  -0.871361   0.006408  -0.143803   0.012852
     6  C    0.029043  -0.105671   0.190622   0.313126   0.014403   0.040324
     7  H    0.436653  -0.045674   0.028017   0.002847   0.001159   0.002143
     8  H   -0.045674   0.685737  -0.206084  -0.012378   0.005373  -0.005774
     9  C    0.028017  -0.206084   6.095157   0.012560   0.456857   0.008615
    10  O    0.002847  -0.012378   0.012560   7.867200  -0.000780   0.007854
    11  O    0.001159   0.005373   0.456857  -0.000780   8.081691   0.000277
    12  H    0.002143  -0.005774   0.008615   0.007854   0.000277   0.453400
    13  O   -0.004962   0.039434  -0.046691  -0.121247   0.000407  -0.008766
    14  H    0.000223  -0.000822   0.001760   0.230576   0.000408   0.000111
    15  O   -0.004067   0.003416   0.324375   0.000043  -0.128250  -0.000031
    16  H    0.000475   0.000057   0.052162   0.000047  -0.003928   0.000076
              13         14         15         16
     1  N    0.021123   0.006591  -0.000547  -0.000281
     2  H    0.043400   0.001748   0.000839  -0.000228
     3  C   -0.256115  -0.026071   0.040878  -0.011910
     4  H    0.308247   0.004695   0.003229  -0.001311
     5  C    0.082464  -0.004039  -0.338549  -0.043086
     6  C    0.159697   0.045674   0.003716   0.004074
     7  H   -0.004962   0.000223  -0.004067   0.000475
     8  H    0.039434  -0.000822   0.003416   0.000057
     9  C   -0.046691   0.001760   0.324375   0.052162
    10  O   -0.121247   0.230576   0.000043   0.000047
    11  O    0.000407   0.000408  -0.128250  -0.003928
    12  H   -0.008766   0.000111  -0.000031   0.000076
    13  O    7.749778  -0.005368  -0.001377  -0.000042
    14  H   -0.005368   0.445051   0.000183   0.000026
    15  O   -0.001377   0.000183   8.010735   0.268054
    16  H   -0.000042   0.000026   0.268054   0.420879
 Mulliken charges:
               1
     1  N   -0.375130
     2  H    0.208335
     3  C   -0.243195
     4  H    0.348770
     5  C   -0.491878
     6  C   -0.244752
     7  H    0.252919
     8  H    0.186356
     9  C    0.091337
    10  O   -0.142893
    11  O   -0.334032
    12  H    0.272602
    13  O    0.040019
    14  H    0.299253
    15  O   -0.182647
    16  H    0.314936
 Sum of Mulliken charges =   0.00000
 Mulliken charges with hydrogens summed into heavy atoms:
               1
     1  N    0.105807
     3  C   -0.243195
     5  C   -0.052603
     6  C   -0.244752
     9  C    0.091337
    10  O    0.156360
    11  O   -0.334032
    13  O    0.388789
    15  O    0.132289
 Electronic spatial extent (au):  <R**2>=           1267.8895
 Charge=              0.0000 electrons
 Dipole moment (field-independent basis, Debye):
    X=             -1.3808    Y=             -2.5705    Z=              6.2017  Tot=              6.8539
 Quadrupole moment (field-independent basis, Debye-Ang):
   XX=            -38.5182   YY=            -56.2362   ZZ=            -56.9859
   XY=              4.3037   XZ=             -3.1812   YZ=             -0.5024
 Traceless Quadrupole moment (field-independent basis, Debye-Ang):
   XX=             12.0619   YY=             -5.6561   ZZ=             -6.4058
   XY=              4.3037   XZ=             -3.1812   YZ=             -0.5024
 Octapole moment (field-independent basis, Debye-Ang**2):
  XXX=             -4.6361  YYY=            -37.2221  ZZZ=             -1.9167  XYY=            -14.4846
  XXY=            -27.7316  XXZ=             -2.1474  XZZ=             -3.4245  YZZ=             -0.6427
  YYZ=              4.1318  XYZ=             -7.0693
 Hexadecapole moment (field-independent basis, Debye-Ang**3):
 XXXX=           -727.5749 YYYY=           -446.5108 ZZZZ=           -197.3743 XXXY=            -29.8243
 XXXZ=            -16.8656 YYYX=             60.7861 YYYZ=             10.1493 ZZZX=             -4.5425
 ZZZY=              3.9590 XXYY=           -185.4442 XXZZ=           -203.9412 YYZZ=           -106.2000
 XXYZ=            -18.0017 YYXZ=             -4.6082 ZZXY=             -1.9340
 N-N= 4.718318337382D+02 E-N=-2.146200470749D+03  KE= 5.107973994977D+02
 No NMR shielding tensors so no spin-rotation constants.
<<<<<<< HEAD
 Leave Link  601 at Thu Apr 21 01:07:11 2016, MaxMem=   134217728 cpu:         0.2
=======
 Leave Link  601 at Thu Apr 21 13:08:13 2016, MaxMem=    33554432 cpu:         0.2
>>>>>>> 7247658d25b277b9e756e5742d8ccf13e5ff18d4
 (Enter /usr/local/gau/g09/l701.exe)
 Compute integral first derivatives.
 ... and contract with generalized density number  0.
 D1PCM: C-PCM CHGder 1st derivatives, ID1Alg=3 FixD1E=F DoIter=F DoCFld=F I1PDM=0.
 GePol: Maximum number of non-zero 1st derivatives   =     193
<<<<<<< HEAD
 Leave Link  701 at Thu Apr 21 01:07:15 2016, MaxMem=   134217728 cpu:         4.6
 (Enter /usr/local/gau/g09/l702.exe)
 L702 exits ... SP integral derivatives will be done elsewhere.
 Leave Link  702 at Thu Apr 21 01:07:15 2016, MaxMem=   134217728 cpu:         0.0
=======
 Leave Link  701 at Thu Apr 21 13:08:21 2016, MaxMem=    33554432 cpu:         6.7
 (Enter /usr/local/gau/g09/l702.exe)
 L702 exits ... SP integral derivatives will be done elsewhere.
 Leave Link  702 at Thu Apr 21 13:08:21 2016, MaxMem=    33554432 cpu:         0.0
>>>>>>> 7247658d25b277b9e756e5742d8ccf13e5ff18d4
 (Enter /usr/local/gau/g09/l703.exe)
 Compute integral first derivatives, UseDBF=F ICtDFT=           0.
 Integral derivatives from FoFJK, PRISM(SPDF).
 Calling FoFJK, ICntrl=      2127 FMM=F ISym2X=0 I1Cent= 0 IOpClX= 0 NMat=1 NMatS=1 NMatT=0.
 FoFJK:  IHMeth= 1 ICntrl=    2127 DoSepK=F KAlg= 0 I1Cent=   0 FoldK=F
 IRaf=         0 NMat=   1 IRICut=       1 DoRegI=T DoRafI=F ISym2E= 0.
 FoFCou: FMM=F IPFlag=           0 FMFlag=      100000 FMFlg1=         800
         NFxFlg=           0 DoJE=F BraDBF=F KetDBF=F FulRan=T
         wScrn=  0.000000 ICntrl=    2127 IOpCl=  0 I1Cent=           0 NGrid=           0
         NMat0=    1 NMatS0=      1 NMatT0=    0 NMatD0=    1 NMtDS0=    0 NMtDT0=    0
 Symmetry not used in FoFCou.
<<<<<<< HEAD
 Leave Link  703 at Thu Apr 21 01:08:04 2016, MaxMem=   134217728 cpu:        48.8
=======
 Leave Link  703 at Thu Apr 21 13:09:50 2016, MaxMem=    33554432 cpu:        81.9
>>>>>>> 7247658d25b277b9e756e5742d8ccf13e5ff18d4
 (Enter /usr/local/gau/g09/l716.exe)
 Dipole        =-5.43229917D-01-1.01130792D+00 2.43994659D+00
 -------------------------------------------------------------------
 Center     Atomic                   Forces (Hartrees/Bohr)
 Number     Number              X              Y              Z
 -------------------------------------------------------------------
      1        7          -0.002779203   -0.002882894   -0.011035516
      2        1          -0.005361868    0.002700612    0.005570847
      3        6          -0.001351975   -0.032859799    0.014595189
      4        1           0.013731252    0.000653598    0.047597601
      5        6          -0.018878842   -0.007937278   -0.007145494
      6        6          -0.038180056    0.080334594   -0.182355776
      7        1          -0.000692639    0.000746418    0.003303298
      8        1           0.011536951    0.007380973    0.013481311
      9        6           0.001844013    0.000081690   -0.004144550
     10        8           0.007284096   -0.000995290    0.036816862
     11        8           0.003686640   -0.001766717    0.002764874
     12        1           0.000417335    0.004005403   -0.000763222
     13        8           0.033204139   -0.046124082    0.082465598
     14        1          -0.007317305   -0.002763917   -0.001538865
     15        8           0.002737457   -0.000577329    0.000288828
     16        1           0.000120004    0.000004018    0.000099016
 -------------------------------------------------------------------
 Cartesian Forces:  Max     0.182355776 RMS     0.034624181
<<<<<<< HEAD
 Leave Link  716 at Thu Apr 21 01:08:04 2016, MaxMem=   134217728 cpu:         0.0
=======
 Leave Link  716 at Thu Apr 21 13:09:51 2016, MaxMem=    33554432 cpu:         0.0
>>>>>>> 7247658d25b277b9e756e5742d8ccf13e5ff18d4
 (Enter /usr/local/gau/g09/l103.exe)

 GradGradGradGradGradGradGradGradGradGradGradGradGradGradGradGradGradGrad
 Berny optimization.
 FormGI is forming the generalized inverse of G from B-inverse, IUseBI=4.
 GSVD:  received Info=                   1 from GESDD.
 Internal  Forces:  Max     0.143492145 RMS     0.023228773
 Search for a local minimum.
 Step number   1 out of a maximum of   72
 All quantities printed in internal units (Hartrees-Bohrs-Radians)
 RMS Force = .23229D-01 SwitMx=.10000D-02 MixMth= 1
 Mixed Optimization -- RFO/linear search
 Second derivative matrix not updated -- first step.
 ITU=  0
     Eigenvalues ---    0.00360   0.00424   0.00665   0.00769   0.01078
     Eigenvalues ---    0.01964   0.02398   0.02403   0.03186   0.04193
     Eigenvalues ---    0.04729   0.05221   0.06347   0.10074   0.13341
     Eigenvalues ---    0.16000   0.16000   0.16000   0.16000   0.16000
     Eigenvalues ---    0.17491   0.18827   0.21987   0.24969   0.24986
     Eigenvalues ---    0.25000   0.25000   0.29357   0.29808   0.31587
     Eigenvalues ---    0.34390   0.34435   0.35771   0.44876   0.45103
     Eigenvalues ---    0.53156   0.53220   0.53377   0.55753   0.55831
     Eigenvalues ---    0.99435   0.99529
 RFO step:  Lambda=-7.24087300D-02 EMin= 3.59604692D-03
 Linear search not attempted -- first point.
 Maximum step size (   0.300) exceeded in Quadratic search.
    -- Step size scaled by   0.674
 Iteration  1 RMS(Cart)=  0.07615597 RMS(Int)=  0.00996017
 Iteration  2 RMS(Cart)=  0.01665689 RMS(Int)=  0.00058036
 Iteration  3 RMS(Cart)=  0.00058757 RMS(Int)=  0.00018818
 Iteration  4 RMS(Cart)=  0.00000078 RMS(Int)=  0.00018818
 ITry= 1 IFail=0 DXMaxC= 3.81D-01 DCOld= 1.00D+10 DXMaxT= 3.00D-01 DXLimC= 3.00D+00 Rises=F
 Variable       Old X    -DE/DX   Delta X   Delta X   Delta X     New X
                                 (Linear)    (Quad)   (Total)
    R1        1.92120   0.00670   0.00000   0.00867   0.00867   1.92988
    R2        2.77741   0.00662   0.00000   0.01038   0.01038   2.78779
    R3        1.91857  -0.00049   0.00000  -0.00063  -0.00063   1.91794
    R4        2.88348   0.00318   0.00000   0.00579   0.00579   2.88927
    R5        2.89264  -0.03591   0.00000  -0.06617  -0.06617   2.82647
    R6        1.83303   0.01552   0.00000   0.01727   0.01727   1.85031
    R7        2.06602  -0.00086   0.00000  -0.00140  -0.00140   2.06462
    R8        2.06677   0.01393   0.00000   0.02257   0.02257   2.08934
    R9        2.84906   0.00734   0.00000   0.01275   0.01275   2.86181
   R10        2.54401  -0.02006   0.00000  -0.02145  -0.02145   2.52256
   R11        2.28828   0.14349   0.00000   0.09063   0.09063   2.37891
   R12        2.28866  -0.00077   0.00000  -0.00049  -0.00049   2.28817
   R13        2.54469   0.00265   0.00000   0.00284   0.00284   2.54752
   R14        1.83508   0.00456   0.00000   0.00509   0.00509   1.84017
   R15        1.83449   0.00003   0.00000   0.00003   0.00003   1.83452
    A1        1.93825   0.00584   0.00000   0.01870   0.01858   1.95683
    A2        1.87444  -0.00329   0.00000  -0.00616  -0.00639   1.86805
    A3        1.93331   0.00445   0.00000   0.01468   0.01456   1.94787
    A4        1.91076   0.00032   0.00000   0.00455   0.00448   1.91523
    A5        1.93257   0.00236   0.00000   0.01042   0.01037   1.94294
    A6        1.94316   0.00016   0.00000   0.00393   0.00385   1.94700
    A7        1.90285  -0.00569   0.00000  -0.01819  -0.01794   1.88491
    A8        1.93795   0.00891   0.00000   0.03922   0.03917   1.97712
    A9        1.97795   0.00911   0.00000   0.02470   0.02444   2.00239
   A10        1.86059  -0.00353   0.00000  -0.02198  -0.02202   1.83857
   A11        1.88864  -0.00153   0.00000  -0.00782  -0.00782   1.88082
   A12        1.89162  -0.00824   0.00000  -0.01981  -0.02063   1.87099
   A13        1.94841   0.02165   0.00000   0.04543   0.04542   1.99383
   A14        2.18660   0.01571   0.00000   0.03303   0.03302   2.21963
   A15        2.14622  -0.03727   0.00000  -0.07790  -0.07792   2.06830
   A16        2.19041   0.00574   0.00000   0.01203   0.01202   2.20244
   A17        1.94964  -0.00139   0.00000  -0.00289  -0.00290   1.94674
   A18        2.14311  -0.00435   0.00000  -0.00908  -0.00909   2.13401
   A19        1.89672   0.01057   0.00000   0.03066   0.03066   1.92738
   A20        1.59084   0.08494   0.00000   0.24649   0.24649   1.83733
   A21        1.89360   0.00032   0.00000   0.00094   0.00094   1.89455
    D1       -1.16526  -0.00194   0.00000  -0.01931  -0.01925  -1.18451
    D2        0.98367   0.00006   0.00000  -0.00428  -0.00417   0.97950
    D3        3.03659  -0.00453   0.00000  -0.03335  -0.03346   3.00313
    D4       -1.09768  -0.00253   0.00000  -0.01831  -0.01837  -1.11605
    D5       -0.91653   0.00225   0.00000   0.00994   0.01001  -0.90652
    D6        1.12828  -0.00031   0.00000  -0.00502  -0.00546   1.12282
    D7       -3.02102   0.00224   0.00000   0.01652   0.01689  -3.00413
    D8       -3.05918  -0.00107   0.00000  -0.00905  -0.00898  -3.06815
    D9       -1.01436  -0.00363   0.00000  -0.02401  -0.02445  -1.03882
   D10        1.11952  -0.00108   0.00000  -0.00247  -0.00210   1.11742
   D11        1.50306  -0.01067   0.00000  -0.09017  -0.08998   1.41308
   D12       -1.57289  -0.01077   0.00000  -0.09662  -0.09684  -1.66973
   D13       -2.65006  -0.00850   0.00000  -0.07437  -0.07415  -2.72421
   D14        0.55718  -0.00860   0.00000  -0.08082  -0.08101   0.47617
   D15        0.04124  -0.00590   0.00000  -0.03202  -0.03192   0.00932
   D16       -3.10823  -0.00490   0.00000  -0.02385  -0.02371  -3.13194
   D17       -2.07127  -0.00349   0.00000  -0.01942  -0.01928  -2.09055
   D18        1.06245  -0.00249   0.00000  -0.01125  -0.01107   1.05137
   D19        2.20069   0.00574   0.00000   0.02080   0.02051   2.22120
   D20       -0.94877   0.00674   0.00000   0.02898   0.02871  -0.92006
   D21       -3.05498   0.00150   0.00000   0.01322   0.01344  -3.04154
   D22        0.02274   0.00386   0.00000   0.02423   0.02402   0.04676
   D23       -0.22847   0.00873   0.00000   0.05018   0.04998  -0.17849
   D24        2.98587   0.00623   0.00000   0.03803   0.03823   3.02411
   D25       -3.13068  -0.00059   0.00000  -0.00455  -0.00451  -3.13519
   D26        0.00329   0.00043   0.00000   0.00348   0.00343   0.00672
         Item               Value     Threshold  Converged?
 Maximum Force            0.143492     0.000450     NO 
 RMS     Force            0.023229     0.000300     NO 
 Maximum Displacement     0.380771     0.001800     NO 
 RMS     Displacement     0.088439     0.001200     NO 
 Predicted change in Energy=-3.707750D-02
 Lowest energy point so far.  Saving SCF results.
 GradGradGradGradGradGradGradGradGradGradGradGradGradGradGradGradGradGrad

<<<<<<< HEAD
 Leave Link  103 at Thu Apr 21 01:08:04 2016, MaxMem=   134217728 cpu:         0.0
=======
 Leave Link  103 at Thu Apr 21 13:09:51 2016, MaxMem=    33554432 cpu:         0.0
>>>>>>> 7247658d25b277b9e756e5742d8ccf13e5ff18d4
 (Enter /usr/local/gau/g09/l202.exe)
                          Input orientation:                          
 ---------------------------------------------------------------------
 Center     Atomic      Atomic             Coordinates (Angstroms)
 Number     Number       Type             X           Y           Z
 ---------------------------------------------------------------------
      1          7           0       -1.457798    1.911801   -0.156661
      2          1           0       -1.664421    2.079374    0.829327
      3          6           0       -0.607525    0.722115   -0.351595
      4          1           0       -0.215293   -0.487304    1.731519
      5          6           0        0.787818    0.986372    0.214826
      6          6           0       -1.226874   -0.494916    0.258629
      7          1           0        1.153194    1.923678   -0.211344
      8          1           0        0.792937    1.141137    1.309560
      9          6           0        1.809462   -0.089097   -0.090179
     10          8           0       -2.166300   -1.068874   -0.496330
     11          8           0        1.615852   -1.098035   -0.731046
     12          1           0       -2.347922    1.817405   -0.635046
     13          8           0       -0.996804   -0.974837    1.399456
     14          1           0       -2.593695   -1.797372   -0.011700
     15          8           0        3.010598    0.202330    0.448052
     16          1           0        3.631106   -0.509248    0.222107
 ---------------------------------------------------------------------
                    Distance matrix (angstroms):
                    1          2          3          4          5
     1  N    0.000000
     2  H    1.021248   0.000000
     3  C    1.475235   2.086567   0.000000
     4  H    3.296172   3.082492   2.440472   0.000000
     5  C    2.457074   2.754222   1.528937   2.340578   0.000000
     6  C    2.453177   2.672848   1.495704   1.786829   2.501023
     7  H    2.611591   3.007688   2.136248   3.385307   1.092549
     8  H    2.794555   2.673859   2.212761   1.961223   1.105632
     9  C    3.831840   4.197096   2.562856   2.752595   1.514403
    10  O    3.082495   3.452639   2.378732   3.017940   3.668323
    11  O    4.340087   4.826063   2.898333   3.128947   2.434146
    12  H    1.014930   1.637129   2.075810   3.931974   3.353470
    13  O    3.311601   3.177887   2.469285   0.979139   2.904232
    14  H    3.881912   4.074315   3.226176   3.226746   4.385792
    15  O    4.822295   5.052174   3.741714   3.539668   2.368515
    16  H    5.648175   5.925562   4.450998   4.132019   3.212665
                    6          7          8          9         10
     6  C    0.000000
     7  H    3.425667   0.000000
     8  H    2.803705   1.747943   0.000000
     9  C    3.083130   2.120526   2.122750   0.000000
    10  O    1.334883   4.478350   4.111261   4.114803   0.000000
    11  O    3.069902   3.100788   3.139292   1.210848   3.789541
    12  H    2.720704   3.528261   3.755506   4.606025   2.895313
    13  O    1.258866   3.952032   2.772832   3.298284   2.229477
    14  H    1.907268   5.284434   4.674381   4.723574   0.973777
    15  O    4.298627   2.616828   2.557650   1.348091   5.413694
    16  H    4.858138   3.499579   3.458544   1.895372   5.868496
                   11         12         13         14         15
    11  O    0.000000
    12  H    4.921434   0.000000
    13  O    3.373454   3.709628   0.000000
    14  H    4.327449   3.676354   2.284291   0.000000
    15  O    2.241994   5.700465   4.283709   5.968105   0.000000
    16  H    2.305736   6.472773   4.797965   6.360980   0.970785
                   16
    16  H    0.000000
 Symmetry turned off by external request.
 Stoichiometry    C4H7NO4
 Framework group  C1[X(C4H7NO4)]
 Deg. of freedom    42
 Full point group                 C1      NOp   1
 Rotational constants (GHZ):      2.5621624      1.0954907      0.9215057
<<<<<<< HEAD
 Leave Link  202 at Thu Apr 21 01:08:04 2016, MaxMem=   134217728 cpu:         0.0
=======
 Leave Link  202 at Thu Apr 21 13:09:51 2016, MaxMem=    33554432 cpu:         0.0
>>>>>>> 7247658d25b277b9e756e5742d8ccf13e5ff18d4
 (Enter /usr/local/gau/g09/l301.exe)
 Standard basis: 6-311++G(d,p) (5D, 7F)
 Ernie: Thresh=  0.10000D-02 Tol=  0.10000D-05 Strict=F.
   247 basis functions,   387 primitive gaussians,   256 cartesian basis functions
    35 alpha electrons       35 beta electrons
       nuclear repulsion energy       468.8606663985 Hartrees.
 IExCor=  402 DFT=T Ex+Corr=B3LYP ExCW=0 ScaHFX=  0.200000
 ScaDFX=  0.800000  0.720000  1.000000  0.810000 ScalE2=  1.000000  1.000000
 IRadAn=      0 IRanWt=     -1 IRanGd=            0 ICorTp=0 IEmpDi=  4
 NAtoms=   16 NActive=   16 NUniq=   16 SFac= 1.00D+00 NAtFMM=   60 NAOKFM=F Big=F
 Integral buffers will be    131072 words long.
 Raffenetti 2 integral format.
 Two-electron integral symmetry is turned off.
 ------------------------------------------------------------------------------
 Polarizable Continuum Model (PCM)
 =================================
 Model                : C-PCM.
 Atomic radii         : UFF (Universal Force Field).
 Polarization charges : Total charges.
 Charge compensation  : None.
 Solution method      : On-the-fly selection.
 Cavity type          : Scaled VdW (van der Waals Surface) (Alpha=1.100).
 Cavity algorithm     : GePol (No added spheres)
                        Default sphere list used, NSphG=   16.
                        Lebedev-Laikov grids with approx.  5.0 points / Ang**2.
                        Smoothing algorithm: Karplus/York (Gamma=1.0000).
                        Polarization charges: spherical gaussians, with
                                              point-specific exponents (IZeta= 3).
                        Self-potential: point-specific (ISelfS= 7).
                        Self-field    : sphere-specific E.n sum rule (ISelfD= 2).
 1st derivatives      : Analytical E(r).r(x)/FMM algorithm (CHGder, D1EAlg=3).
                        Cavity 1st derivative terms included.
 Solvent              : Water, Eps=  78.355300 Eps(inf)=   1.777849
 ------------------------------------------------------------------------------
 Spheres list:
 ISph  on   Nord     Re0    Alpha      Xe            Ye            Ze
    1   N      1    1.8300  1.100     -1.457798      1.911801     -0.156661
    2   H      2    1.4430  1.100     -1.664421      2.079374      0.829327
    3   C      3    1.9255  1.100     -0.607525      0.722115     -0.351595
    4   H      4    1.4430  1.100     -0.215293     -0.487304      1.731519
    5   C      5    1.9255  1.100      0.787818      0.986372      0.214826
    6   C      6    1.9255  1.100     -1.226874     -0.494916      0.258629
    7   H      7    1.4430  1.100      1.153194      1.923678     -0.211344
    8   H      8    1.4430  1.100      0.792937      1.141137      1.309560
    9   C      9    1.9255  1.100      1.809462     -0.089097     -0.090179
   10   O     10    1.7500  1.100     -2.166300     -1.068874     -0.496330
   11   O     11    1.7500  1.100      1.615852     -1.098035     -0.731046
   12   H     12    1.4430  1.100     -2.347922      1.817405     -0.635046
   13   O     13    1.7500  1.100     -0.996804     -0.974837      1.399456
   14   H     14    1.4430  1.100     -2.593695     -1.797372     -0.011700
   15   O     15    1.7500  1.100      3.010598      0.202330      0.448052
   16   H     16    1.4430  1.100      3.631106     -0.509248      0.222107
 ------------------------------------------------------------------------------
 GePol: Number of generator spheres                  =      16
 GePol: Total number of spheres                      =      16
 GePol: Number of exposed spheres                    =      16 (100.00%)
 GePol: Number of points                             =    1387
 GePol: Average weight of points                     =       0.13
 GePol: Minimum weight of points                     =   0.12D-08
 GePol: Maximum weight of points                     =    0.20577
 GePol: Number of points with low weight             =      83
 GePol: Fraction of low-weight points (<1% of avg)   =       5.98%
 GePol: Cavity surface area                          =    186.360 Ang**2
 GePol: Cavity volume                                =    179.764 Ang**3
<<<<<<< HEAD
 Leave Link  301 at Thu Apr 21 01:08:04 2016, MaxMem=   134217728 cpu:         0.1
=======
 Leave Link  301 at Thu Apr 21 13:09:51 2016, MaxMem=    33554432 cpu:         0.1
>>>>>>> 7247658d25b277b9e756e5742d8ccf13e5ff18d4
 (Enter /usr/local/gau/g09/l302.exe)
 NPDir=0 NMtPBC=     1 NCelOv=     1 NCel=       1 NClECP=     1 NCelD=      1
         NCelK=      1 NCelE2=     1 NClLst=     1 CellRange=     0.0.
 One-electron integrals computed using PRISM.
 NBasis=   247 RedAO= T EigKep=  1.13D-05  NBF=   247
 NBsUse=   247 1.00D-06 EigRej= -1.00D+00 NBFU=   247
 Precomputing XC quadrature grid using
 IXCGrd= 4 IRadAn=           0 IRanWt=          -1 IRanGd=           0 AccXCQ= 0.00D+00.
 Generated NRdTot=       0 NPtTot=           0 NUsed=           0 NTot=          32
 NSgBfM=   256   256   256   256   256 MxSgAt=    16 MxSgA2=    16.
<<<<<<< HEAD
 Leave Link  302 at Thu Apr 21 01:08:05 2016, MaxMem=   134217728 cpu:         0.4
 (Enter /usr/local/gau/g09/l303.exe)
 DipDrv:  MaxL=1.
 Leave Link  303 at Thu Apr 21 01:08:05 2016, MaxMem=   134217728 cpu:         0.0
=======
 Leave Link  302 at Thu Apr 21 13:09:52 2016, MaxMem=    33554432 cpu:         0.6
 (Enter /usr/local/gau/g09/l303.exe)
 DipDrv:  MaxL=1.
 Leave Link  303 at Thu Apr 21 13:09:52 2016, MaxMem=    33554432 cpu:         0.1
>>>>>>> 7247658d25b277b9e756e5742d8ccf13e5ff18d4
 (Enter /usr/local/gau/g09/l401.exe)
 Initial guess from the checkpoint file:  "Asp-S-opt-freq-cpcm-w-pa2-6-311++gdp.chk"
 B after Tr=     0.002505    0.004251   -0.017920
         Rot=    0.999998   -0.001779    0.000562   -0.000733 Ang=  -0.23 deg.
 Guess basis will be translated and rotated to current coordinates.
 JPrj=2 DoOrth=T DoCkMO=T.
 Generating alternative initial guess.
 ExpMin= 3.60D-02 ExpMax= 8.59D+03 ExpMxC= 1.30D+03 IAcc=3 IRadAn=         5 AccDes= 0.00D+00
 Harris functional with IExCor=  402 and IRadAn=       5 diagonalized for initial guess.
 HarFok:  IExCor=  402 AccDes= 0.00D+00 IRadAn=         5 IDoV= 1 UseB2=F ITyADJ=14
 ICtDFT=  3500011 ScaDFX=  1.000000  1.000000  1.000000  1.000000
 FoFCou: FMM=F IPFlag=           0 FMFlag=      100000 FMFlg1=           0
         NFxFlg=           0 DoJE=T BraDBF=F KetDBF=T FulRan=T
         wScrn=  0.000000 ICntrl=     500 IOpCl=  0 I1Cent=   200000004 NGrid=           0
         NMat0=    1 NMatS0=      1 NMatT0=    0 NMatD0=    1 NMtDS0=    0 NMtDT0=    0
 Symmetry not used in FoFCou.
 Harris En= -512.419737216478    
<<<<<<< HEAD
 Leave Link  401 at Thu Apr 21 01:08:16 2016, MaxMem=   134217728 cpu:        10.8
=======
 Leave Link  401 at Thu Apr 21 13:10:12 2016, MaxMem=    33554432 cpu:        16.5
>>>>>>> 7247658d25b277b9e756e5742d8ccf13e5ff18d4
 (Enter /usr/local/gau/g09/l502.exe)
 Closed shell SCF:
 Using DIIS extrapolation, IDIIS=  1040.
 Two-electron integral symmetry not used.
<<<<<<< HEAD
 IVT=      218262 IEndB=      218262 NGot=   134217728 MDV=   134081899
 LenX=   134081899 LenY=   134015922
=======
 IVT=      218262 IEndB=      218262 NGot=    33554432 MDV=    33418603
 LenX=    33418603 LenY=    33352626
>>>>>>> 7247658d25b277b9e756e5742d8ccf13e5ff18d4
 Requested convergence on RMS density matrix=1.00D-08 within 128 cycles.
 Requested convergence on MAX density matrix=1.00D-06.
 Requested convergence on             energy=1.00D-06.
 No special actions if energy rises.
 Fock matrices will be formed incrementally for  20 cycles.

 Cycle   1  Pass 1  IDiag  1:
 FoFJK:  IHMeth= 1 ICntrl=       0 DoSepK=F KAlg= 0 I1Cent=   0 FoldK=F
 IRaf= 940000000 NMat=   1 IRICut=       1 DoRegI=T DoRafI=F ISym2E= 0.
 FoFCou: FMM=F IPFlag=           0 FMFlag=      100000 FMFlg1=           0
         NFxFlg=           0 DoJE=F BraDBF=F KetDBF=F FulRan=T
         wScrn=  0.000000 ICntrl=       0 IOpCl=  0 I1Cent=           0 NGrid=           0
         NMat0=    1 NMatS0=      1 NMatT0=    0 NMatD0=    1 NMtDS0=    0 NMtDT0=    0
 Symmetry not used in FoFCou.
 Inv3:  Mode=1 IEnd=     5771307.
 Iteration    1 A*A^-1 deviation from unit magnitude is 3.89D-15 for   1381.
<<<<<<< HEAD
 Iteration    1 A*A^-1 deviation from orthogonality  is 2.52D-15 for   1381    799.
 Iteration    1 A^-1*A deviation from unit magnitude is 3.55D-15 for   1360.
 Iteration    1 A^-1*A deviation from orthogonality  is 1.75D-15 for   1363    934.
 E= -512.357204500292    
 DIIS: error= 7.08D-03 at cycle   1 NSaved=   1.
 NSaved= 1 IEnMin= 1 EnMin= -512.357204500292     IErMin= 1 ErrMin= 7.08D-03
=======
 Iteration    1 A*A^-1 deviation from orthogonality  is 2.08D-15 for   1381    799.
 Iteration    1 A^-1*A deviation from unit magnitude is 3.44D-15 for   1381.
 Iteration    1 A^-1*A deviation from orthogonality  is 2.20D-15 for   1363    934.
 E= -512.357204500286    
 DIIS: error= 7.08D-03 at cycle   1 NSaved=   1.
 NSaved= 1 IEnMin= 1 EnMin= -512.357204500286     IErMin= 1 ErrMin= 7.08D-03
>>>>>>> 7247658d25b277b9e756e5742d8ccf13e5ff18d4
 ErrMax= 7.08D-03  0.00D+00 EMaxC= 1.00D-01 BMatC= 1.71D-02 BMatP= 1.71D-02
 IDIUse=3 WtCom= 9.29D-01 WtEn= 7.08D-02
 Coeff-Com:  0.100D+01
 Coeff-En:   0.100D+01
 Coeff:      0.100D+01
 Gap=     0.295 Goal=   None    Shift=    0.000
 GapD=    0.295 DampG=1.000 DampE=1.000 DampFc=1.0000 IDamp=-1.
 RMSDP=1.86D-03 MaxDP=5.36D-02              OVMax= 4.15D-02

 Cycle   2  Pass 1  IDiag  1:
 RMSU=  1.81D-03    CP:  9.75D-01
<<<<<<< HEAD
 E= -512.378593555628     Delta-E=       -0.021389055336 Rises=F Damp=F
 DIIS: error= 1.01D-03 at cycle   2 NSaved=   2.
 NSaved= 2 IEnMin= 2 EnMin= -512.378593555628     IErMin= 2 ErrMin= 1.01D-03
=======
 E= -512.378593555614     Delta-E=       -0.021389055328 Rises=F Damp=F
 DIIS: error= 1.01D-03 at cycle   2 NSaved=   2.
 NSaved= 2 IEnMin= 2 EnMin= -512.378593555614     IErMin= 2 ErrMin= 1.01D-03
>>>>>>> 7247658d25b277b9e756e5742d8ccf13e5ff18d4
 ErrMax= 1.01D-03  0.00D+00 EMaxC= 1.00D-01 BMatC= 5.60D-04 BMatP= 1.71D-02
 IDIUse=3 WtCom= 9.90D-01 WtEn= 1.01D-02
 Coeff-Com:  0.848D-02 0.992D+00
 Coeff-En:   0.000D+00 0.100D+01
 Coeff:      0.840D-02 0.992D+00
 Gap=     0.128 Goal=   None    Shift=    0.000
 RMSDP=4.74D-04 MaxDP=4.54D-02 DE=-2.14D-02 OVMax= 1.80D-02

 Cycle   3  Pass 1  IDiag  1:
 RMSU=  4.48D-04    CP:  9.84D-01  1.00D+00
<<<<<<< HEAD
 E= -512.378395936941     Delta-E=        0.000197618687 Rises=F Damp=F
 DIIS: error= 1.64D-03 at cycle   3 NSaved=   3.
 NSaved= 3 IEnMin= 2 EnMin= -512.378593555628     IErMin= 2 ErrMin= 1.01D-03
=======
 E= -512.378395936942     Delta-E=        0.000197618672 Rises=F Damp=F
 DIIS: error= 1.64D-03 at cycle   3 NSaved=   3.
 NSaved= 3 IEnMin= 2 EnMin= -512.378593555614     IErMin= 2 ErrMin= 1.01D-03
>>>>>>> 7247658d25b277b9e756e5742d8ccf13e5ff18d4
 ErrMax= 1.64D-03  0.00D+00 EMaxC= 1.00D-01 BMatC= 1.04D-03 BMatP= 5.60D-04
 IDIUse=3 WtCom= 1.98D-01 WtEn= 8.02D-01
 Coeff-Com: -0.298D-01 0.597D+00 0.433D+00
 Coeff-En:   0.000D+00 0.585D+00 0.415D+00
 Coeff:     -0.589D-02 0.587D+00 0.419D+00
 Gap=     0.130 Goal=   None    Shift=    0.000
 RMSDP=1.55D-04 MaxDP=6.09D-03 DE= 1.98D-04 OVMax= 7.81D-03

 Cycle   4  Pass 1  IDiag  1:
 RMSU=  1.12D-04    CP:  9.82D-01  1.01D+00  7.75D-01
<<<<<<< HEAD
 E= -512.379110244553     Delta-E=       -0.000714307612 Rises=F Damp=F
 DIIS: error= 2.44D-04 at cycle   4 NSaved=   4.
 NSaved= 4 IEnMin= 4 EnMin= -512.379110244553     IErMin= 4 ErrMin= 2.44D-04
=======
 E= -512.379110244550     Delta-E=       -0.000714307608 Rises=F Damp=F
 DIIS: error= 2.44D-04 at cycle   4 NSaved=   4.
 NSaved= 4 IEnMin= 4 EnMin= -512.379110244550     IErMin= 4 ErrMin= 2.44D-04
>>>>>>> 7247658d25b277b9e756e5742d8ccf13e5ff18d4
 ErrMax= 2.44D-04  0.00D+00 EMaxC= 1.00D-01 BMatC= 2.79D-05 BMatP= 5.60D-04
 IDIUse=3 WtCom= 9.98D-01 WtEn= 2.44D-03
 Coeff-Com: -0.115D-01 0.167D+00 0.191D+00 0.653D+00
 Coeff-En:   0.000D+00 0.000D+00 0.000D+00 0.100D+01
 Coeff:     -0.114D-01 0.167D+00 0.191D+00 0.654D+00
 Gap=     0.129 Goal=   None    Shift=    0.000
 RMSDP=6.27D-05 MaxDP=4.36D-03 DE=-7.14D-04 OVMax= 2.83D-03

 Cycle   5  Pass 1  IDiag  1:
 RMSU=  5.90D-05    CP:  9.81D-01  1.01D+00  8.10D-01  9.12D-01
<<<<<<< HEAD
 E= -512.379129875877     Delta-E=       -0.000019631324 Rises=F Damp=F
 DIIS: error= 1.06D-04 at cycle   5 NSaved=   5.
 NSaved= 5 IEnMin= 5 EnMin= -512.379129875877     IErMin= 5 ErrMin= 1.06D-04
=======
 E= -512.379129875890     Delta-E=       -0.000019631340 Rises=F Damp=F
 DIIS: error= 1.06D-04 at cycle   5 NSaved=   5.
 NSaved= 5 IEnMin= 5 EnMin= -512.379129875890     IErMin= 5 ErrMin= 1.06D-04
>>>>>>> 7247658d25b277b9e756e5742d8ccf13e5ff18d4
 ErrMax= 1.06D-04  0.00D+00 EMaxC= 1.00D-01 BMatC= 4.93D-06 BMatP= 2.79D-05
 IDIUse=3 WtCom= 9.99D-01 WtEn= 1.06D-03
 Coeff-Com: -0.243D-02 0.144D-01 0.470D-01 0.351D+00 0.590D+00
 Coeff-En:   0.000D+00 0.000D+00 0.000D+00 0.611D-01 0.939D+00
 Coeff:     -0.243D-02 0.144D-01 0.469D-01 0.351D+00 0.590D+00
 Gap=     0.129 Goal=   None    Shift=    0.000
 RMSDP=2.71D-05 MaxDP=2.64D-03 DE=-1.96D-05 OVMax= 8.17D-04

 Cycle   6  Pass 1  IDiag  1:
 RMSU=  1.38D-05    CP:  9.82D-01  1.01D+00  8.58D-01  9.48D-01  9.37D-01
<<<<<<< HEAD
 E= -512.379134194956     Delta-E=       -0.000004319079 Rises=F Damp=F
 DIIS: error= 2.62D-05 at cycle   6 NSaved=   6.
 NSaved= 6 IEnMin= 6 EnMin= -512.379134194956     IErMin= 6 ErrMin= 2.62D-05
=======
 E= -512.379134194968     Delta-E=       -0.000004319078 Rises=F Damp=F
 DIIS: error= 2.62D-05 at cycle   6 NSaved=   6.
 NSaved= 6 IEnMin= 6 EnMin= -512.379134194968     IErMin= 6 ErrMin= 2.62D-05
>>>>>>> 7247658d25b277b9e756e5742d8ccf13e5ff18d4
 ErrMax= 2.62D-05  0.00D+00 EMaxC= 1.00D-01 BMatC= 3.42D-07 BMatP= 4.93D-06
 IDIUse=1 WtCom= 1.00D+00 WtEn= 0.00D+00
 Coeff-Com:  0.179D-03-0.112D-01-0.122D-02 0.952D-01 0.255D+00 0.662D+00
 Coeff:      0.179D-03-0.112D-01-0.122D-02 0.952D-01 0.255D+00 0.662D+00
 Gap=     0.129 Goal=   None    Shift=    0.000
 RMSDP=1.59D-05 MaxDP=1.60D-03 DE=-4.32D-06 OVMax= 7.02D-04

 Cycle   7  Pass 1  IDiag  1:
 RMSU=  7.29D-06    CP:  9.82D-01  1.01D+00  8.86D-01  9.63D-01  9.82D-01
                    CP:  1.12D+00
<<<<<<< HEAD
 E= -512.379134495422     Delta-E=       -0.000000300465 Rises=F Damp=F
 DIIS: error= 2.28D-05 at cycle   7 NSaved=   7.
 NSaved= 7 IEnMin= 7 EnMin= -512.379134495422     IErMin= 7 ErrMin= 2.28D-05
=======
[...]
 ,0.00480306,0.00362738,-0.00722531,0.00000466,-0.00002365,-0.00002149,
 0.00093588,-0.00005616,-0.00013620,-0.00002304,-0.00000878,-0.00000150
 ,-0.19957500,0.17060201,0.10882313,0.22639025,-0.00000190,-0.00006373,
 0.00005105,0.00000717,-0.00000172,-0.00000852,0.00019591,0.00020164,0.
 00004450,-0.00008961,-0.00009682,-0.00004833,-0.00219219,-0.00022788,0
 .00213629,0.00003753,0.00005612,-0.00003415,-0.00017156,0.00026480,0.0
 0009481,-0.00016345,0.00042008,0.00014701,-0.01384906,0.02127362,0.007
 51781,-0.00005365,-0.00001421,-0.00002452,0.00100621,-0.00380918,-0.00
 077645,0.00000467,0.00000687,-0.00001681,0.00012230,0.00003654,0.00003
 398,0.00000060,-0.00000428,-0.00000448,0.20830155,-0.26252436,-0.11859
 552,-0.19315454,0.24448250,0.00000400,-0.00008884,0.00003457,0.0000122
 5,-0.00001905,0.00001195,0.00157377,0.00030308,-0.00103299,0.00131234,
 0.00019704,-0.00035301,0.00314663,0.00292958,0.00409950,-0.00006120,-0
 .00121529,0.00054020,-0.00033131,0.00015690,0.00013541,-0.00039375,0.0
 0017139,-0.00005632,0.02600578,-0.01774346,-0.01383319,0.00026510,0.00
 031037,0.00006884,-0.00713533,-0.00313959,0.00033999,0.00001187,-0.000
 01579,-0.00002324,-0.00099706,0.00054056,-0.00038837,0.00001315,-0.000
 01595,0.00011122,0.10468855,-0.09185428,-0.08090466,-0.12811479,0.1094
 8334,0.09125012\\-0.00000200,0.00000982,-0.00002292,-0.00000157,-0.000
 00343,0.00000204,0.00001808,-0.00001388,0.00000245,0.00000409,-0.00000
 111,-0.00000442,0.00000076,-0.00000388,0.00003603,-0.00001252,0.000007
 44,-0.00002135,-0.00000126,0.00000101,-0.00000124,-0.00000090,0.000008
 53,0.00000047,-0.00001417,0.00001682,-0.00003670,0.00001729,-0.0000034
 4,-0.00000407,-0.00001245,-0.00001132,0.00001813,-0.00000893,-0.000001
 35,-0.00000330,0.00001700,-0.00001017,0.00001820,-0.00000188,-0.000003
 62,0.00000011,-0.00000213,0.00000418,0.00001157,0.00000058,0.00000441,
 0.00000503\\\@


 ADVERTISING--  HE WHO HAS SOMETHING TO SELL AND GOES AND WHISPERS
                IN A WELL, IS NOT SO APT TO GET THE DOLLARS AS HE
                WHO CLIMBS A TREE AND HOLLERS.

                   -- FROM THE BACK OF A SUGAR PACKET
 Job cpu time:       0 days  0 hours 27 minutes  5.8 seconds.
 File lengths (MBytes):  RWF=    119 Int=      0 D2E=      0 Chk=     10 Scr=      1
 Normal termination of Gaussian 09 at Thu Apr 21 03:57:48 2016.
=======
 Leave Link  103 at Thu Apr 21 16:49:36 2016, MaxMem=    33554432 cpu:         0.0
 (Enter /usr/local/gau/g09/l9999.exe)
 1\1\GINC-KALI\Freq\RB3LYP\6-311++G(d,p)\C4H7N1O4\ROOT\21-Apr-2016\0\\#
 P Geom=AllCheck Guess=TCheck SCRF=Check GenChk RB3LYP/6-311++G(d,p) Fr
 eq\\Asp-S-opt-freq-cpcm-w-pa2-6-311++gdp\\0,1\N,-1.0946930933,1.704561
 2369,-0.6946424353\H,-1.1925499512,2.619828625,-0.2631533184\C,-0.6460
 770257,0.7195432075,0.2338554906\H,0.0988199002,-1.5701203949,1.027863
 9099\C,0.7118093913,0.9684335065,0.8652704204\C,-1.327605836,-0.412175
 0584,0.4674990214\H,0.9989983178,2.0089245908,0.7217008396\H,0.6834577
 96,0.7679674861,1.9404194962\C,1.7637366395,0.0562887646,0.2767850331\
 O,-2.6041773809,-0.5815219413,0.0140290878\O,1.766848271,-1.1549416401
 ,0.4356280095\H,-1.9916615821,1.4505267618,-1.0940643227\O,-0.86903114
 64,-1.4911759389,1.163530411\H,-2.767412699,-1.5277033748,-0.095606785
 \O,2.6884350782,0.6829271029,-0.4551183532\H,3.3054377404,0.0231661562
 ,-0.814421455\\Version=ES64L-G09RevD.01\HF=-512.4648477\RMSD=1.951e-09
 \RMSF=1.214e-05\ZeroPoint=0.1218624\Thermal=0.1314796\Dipole=0.5515209
 ,0.5650998,-0.1391338\DipoleDeriv=-0.5502947,0.0495399,-0.0009166,-0.0
 434934,-0.744087,0.3491287,0.0617289,0.6556726,-0.7526037,0.3027848,0.
 2049572,-0.1129328,0.0625927,0.1362974,-0.0443353,-0.0622499,-0.181483
 2,0.1997908,-0.0238908,-0.3584688,0.3133603,-0.2185657,0.172375,-0.462
 7111,0.2312935,-0.5867782,0.179416,0.7724203,-0.002181,-0.0614686,-0.0
 114533,0.3604794,0.0364263,-0.1034928,-0.0630403,0.3831798,-0.1280025,
 0.1886125,0.0279137,0.1189381,0.1109591,-0.0207639,-0.0178117,0.052053
 2,0.0719559,1.6554579,0.401205,0.4156822,0.5835839,1.4502454,-0.424320
 2,0.4005555,-0.4695824,0.4494631,0.0529314,-0.026544,0.0049362,-0.0298
 013,-0.08562,-0.0021728,0.0131438,0.0282237,0.1164231,0.0346726,-0.001
 7237,-0.0017231,0.0317912,0.0736233,0.0682205,-0.0685312,0.0068473,-0.
 0574677,1.6538044,0.1983671,-0.7054401,0.1008479,1.9580332,-0.4526132,
 -0.9318869,-0.4761987,0.8979726,-1.6188144,-0.6727909,-0.1339341,-0.41
 75137,-0.5930281,0.0405297,-0.3345956,-0.068944,-0.5394342,-0.9697183,
 0.0778902,0.1578963,-0.0069647,-1.5737475,0.2988752,0.2375683,0.120797
 ,-0.6099416,0.1074556,0.0001185,-0.1008747,-0.0136361,0.1744199,0.0075
 171,0.0029606,0.0110832,0.3427147,-0.8944289,0.3373698,-0.2898399,0.02
 99104,-1.3515222,0.4188859,-0.0269187,0.6059578,-0.7294394,0.4010427,0
 .1099452,-0.006983,0.0615315,0.3239925,-0.0116428,-0.0730813,-0.051501
 9,0.4247492,-1.2243305,-0.5345179,0.4860969,-0.2887193,-0.6679909,0.20
 80022,0.6471889,0.4126464,-0.7975156,0.4289104,0.0282211,0.0082272,0.0
 409517,0.2555704,-0.0090263,0.0241284,0.0042477,0.4207368\Polar=104.11
 41396,11.1124736,107.7697143,-3.7602382,-12.002624,75.7693977\PG=C01 [
 X(C4H7N1O4)]\NImag=0\\0.48149163,0.01116819,0.63038524,0.22444064,0.08
 528993,0.33684824,-0.04264158,0.05906837,-0.00137676,0.04134411,0.0254
 3627,-0.33632569,-0.14244950,-0.03470550,0.36898889,-0.01306638,-0.171
 77647,-0.11145696,0.00914240,0.14967391,0.11297015,-0.08895815,0.00580
 790,-0.04095050,-0.00062008,0.00249785,-0.00137879,0.52176438,0.036577
 62,-0.17927466,0.07334136,0.00900231,-0.02608961,0.03247286,0.18845096
 ,0.68025574,-0.07533307,0.08921921,-0.13093788,0.00760233,-0.00359895,
 0.00785143,0.12388949,-0.17963064,0.30101475,-0.00068440,-0.00363964,0
 .00202301,0.00098311,-0.00028480,0.00001467,0.00153186,-0.00231966,0.0
 0276011,0.42239847,-0.00024125,-0.00021356,0.00174121,0.00031614,0.000
 32368,-0.00041762,-0.00017754,-0.00056885,0.00042072,-0.04743968,0.054
 83449,0.00051990,-0.00079009,-0.00007900,0.00036111,-0.00016444,-0.000
 01042,-0.00098642,0.00036316,0.00017220,-0.04730970,-0.01692072,0.0368
 9465,-0.01498989,0.00078145,-0.01347216,0.00099354,-0.00043049,0.00104
 805,-0.15795198,-0.02106824,-0.04257645,-0.00084519,-0.00024249,0.0004
 0338,0.42743152,0.02058212,0.00436420,0.01033790,0.00099310,0.00037529
 ,0.00036044,-0.03058447,-0.08216929,-0.00392733,0.00175355,-0.00116671
 ,0.00046975,0.04024556,0.58920937,-0.02271359,-0.00244421,-0.01432826,
 0.00039046,0.00020441,0.00023817,-0.05151304,-0.00060987,-0.08180665,-
 0.00021793,-0.00001123,0.00103219,-0.01284641,-0.05426475,0.52885874,0
 .00848653,0.01601373,-0.00505598,-0.00368122,0.00398306,-0.00302479,-0
 .18475385,-0.18011184,0.02096899,-0.01740770,0.03743593,-0.02402297,-0
 .02259849,-0.02216029,0.00192139,0.59602556,-0.00855326,-0.01885002,0.
 00082451,-0.00268796,-0.00010057,0.00254677,-0.16874904,-0.37374002,0.
 07765149,0.01526399,-0.00618259,0.00112005,-0.00583426,-0.00391532,-0.
 00362194,0.19254198,0.73081929,0.00730787,0.03071946,-0.00919736,-0.00
 064682,-0.00019889,-0.00045947,0.01569453,0.05995736,-0.08165231,-0.01
 006324,-0.00187668,0.00024636,-0.00746912,-0.01043132,0.00238464,0.103
 60703,-0.17318992,0.25885779,0.00257443,-0.00014742,0.00146895,-0.0015
 0557,0.00084594,-0.00017273,-0.01039497,-0.02994326,0.00426095,-0.0008
 9645,0.00012657,0.00022907,-0.06621714,-0.06995001,0.01112160,-0.00230
 471,0.00170859,-0.00333452,0.07658410,0.00135857,0.00173434,0.00123588
 ,-0.00023996,0.00004587,-0.00041554,-0.00213284,-0.00393633,0.00083227
 ,0.00058984,0.00033324,-0.00017365,-0.06545355,-0.29564307,0.03357067,
 0.00046776,0.00053654,-0.00073325,0.07152258,0.31938308,0.00068270,-0.
 00033038,0.00064418,-0.00055255,0.00034952,0.00028340,-0.00514119,-0.0
 1436430,0.00060829,0.00025637,-0.00029624,-0.00041787,0.01194319,0.039
 82633,-0.05370119,-0.00125972,0.00120783,-0.00200592,-0.01030916,-0.03
 924040,0.05324524,-0.00336600,-0.00214176,-0.00227291,0.00019432,0.000
 01173,0.00005099,-0.00204627,0.00546794,-0.02964450,-0.00011245,-0.000
 55513,-0.00024923,-0.04090711,-0.00110696,0.01192676,0.00140363,0.0020
 7955,-0.00166824,-0.00081280,-0.00061271,0.00780585,0.05351379,0.00064
 080,-0.00000937,0.00030732,-0.00020312,0.00016995,0.00012100,-0.000445
 45,0.00101989,-0.00470436,-0.00040239,-0.00076436,-0.00069084,-0.00243
 284,-0.05954638,0.04803440,-0.00035078,-0.00036910,-0.00110471,-0.0005
 7628,-0.00266010,0.02956444,-0.00062176,0.05801319,-0.00102807,-0.0017
 4983,-0.00094461,0.00024375,-0.00015745,-0.00006800,-0.00470831,0.0019
 8748,-0.00966191,-0.00039191,-0.00084162,-0.00052131,0.01180269,0.0469
 8606,-0.29594963,0.00053280,0.00393083,0.00048988,0.00015399,0.0007715
 2,-0.00151756,-0.01162988,-0.05152306,0.32186663,0.00195079,-0.0015317
 5,0.00389169,-0.00005230,0.00037358,0.00022182,-0.03683288,0.01337639,
 -0.00271569,0.00062311,-0.00669836,0.00094557,-0.11686659,0.04870880,0
 .03181768,-0.00474890,-0.00620625,0.00108773,0.00823678,-0.00842007,-0
 .00538175,-0.00162711,0.00036488,0.00303797,0.46822488,-0.00318557,-0.
 00080714,-0.00141482,0.00046758,-0.00015112,-0.00023028,0.00475034,0.0
 0077092,0.01133287,-0.02917967,-0.00707007,0.00833354,0.03269740,-0.11
 705422,-0.02720854,-0.00347042,0.01761633,-0.00997571,0.02207820,-0.01
 889502,-0.01362200,-0.00467244,0.00298711,0.00300127,-0.03726912,0.880
 85261,-0.00435055,0.00002746,-0.00311417,0.00048467,-0.00017920,0.0001
 2409,-0.00447960,0.01003101,0.01046613,0.00382334,0.00427656,-0.001673
 75,0.02540352,-0.03056764,-0.10499342,0.00320572,0.00436682,0.00016202
 ,-0.00608483,0.00578576,0.00046242,0.02568196,-0.02257314,-0.01591251,
 -0.16461629,-0.05280629,0.35368512,0.00122765,-0.00443173,0.00988354,0
 .00319972,0.00049600,-0.00069782,-0.04245496,-0.00663583,-0.02011591,0
 .00249754,-0.00076016,-0.00700142,0.00355883,-0.00142996,-0.00036957,-
 0.24511086,-0.01215432,-0.06522864,-0.00155798,-0.00036889,-0.00116088
 ,-0.00187993,-0.00056888,-0.00092298,0.00510756,-0.00365975,-0.0040037
 4,0.36643234,-0.00039891,-0.00270098,-0.00054434,0.00025245,-0.0001625
 8,0.00028844,-0.04110208,0.00125356,-0.01332235,-0.00147477,-0.0017726
 9,0.00558007,-0.00373407,-0.00209885,0.00438726,-0.05802760,-0.1107783
 1,-0.00691605,-0.00151534,-0.00007538,-0.00049715,0.00014581,0.0001637
 0,-0.00037962,0.00241553,-0.00495301,-0.00234914,0.10004149,0.60586573
 ,0.00118036,-0.00481503,0.00162565,0.00180831,-0.00036981,-0.00030426,
 -0.00501689,0.00363198,0.00611674,0.00157998,0.00092156,-0.00389532,-0
 .00173057,0.00318054,0.00374871,-0.06363982,0.00738792,-0.06251792,0.0
 0015460,-0.00007892,0.00043274,0.00037982,0.00030818,-0.00016475,0.000
 25905,0.00036760,-0.00172072,0.12325563,0.03956017,0.07360009,-0.00027
 100,0.00141553,-0.00148270,-0.00021517,-0.00009987,-0.00000740,0.00338
 357,-0.00058844,0.00174707,0.00668586,0.00647596,-0.00376799,0.0095676
 0,0.02846114,0.00077841,0.00376578,-0.00558729,0.00581662,-0.00412855,
 0.00414689,0.00292696,0.00017460,0.00054474,-0.00014189,-0.10103605,0.
 02295298,0.01274221,-0.00319993,0.00051951,-0.00221590,0.09706610,0.00
 233888,-0.00004970,0.00167848,-0.00049141,0.00007842,-0.00001762,-0.00
 324852,0.00229284,-0.00584974,0.02039772,-0.00190386,-0.00549254,0.010
 48353,-0.04032848,0.00582325,-0.00124575,-0.01447372,0.00716374,0.0062
 5878,-0.00343873,-0.00293986,-0.00116372,0.00052436,0.00109664,0.03056
 100,-0.62523359,0.05039659,0.00297451,0.00349643,-0.00059248,-0.001323
 83,0.74076777,0.00098010,0.00041343,0.00028452,-0.00026210,0.00001223,
 -0.00012945,-0.00039069,-0.00257436,0.00111884,-0.00517458,-0.00278766
 ,-0.00485356,0.00247521,-0.01159476,0.01514866,-0.00063727,0.00391164,
 -0.00140902,0.00289238,-0.00243603,0.00078318,-0.00206332,0.00190173,0
 .00246716,0.01467512,0.05660628,-0.09270211,0.00112571,-0.00048382,0.0
 0082545,-0.03634076,-0.09411032,0.07102227,-0.34469766,-0.08583217,-0.
 16471621,0.00341118,0.00318432,0.00599177,-0.01156256,-0.00460553,0.00
 093831,-0.00027251,-0.00003714,-0.00002970,0.00031510,0.00141430,-0.00
 239228,0.00132123,-0.00019478,-0.00022416,0.00042710,0.00025516,0.0001
 5515,-0.00072942,0.00021453,-0.00014609,0.00066018,-0.00077443,-0.0005
 9593,-0.00041186,-0.00092946,0.00080014,-0.00007546,0.00063022,0.00007
 283,0.35169975,-0.08221258,-0.08851112,-0.04053655,-0.03332363,-0.0071
 5252,-0.01262532,0.02490344,0.00817753,0.01031153,0.00007999,0.0000036
 6,-0.00014235,0.00185961,-0.00312118,0.00323563,0.00339200,0.00042554,
 0.00239601,-0.00005818,0.00008044,-0.00007579,0.00083124,0.00005543,0.
 00034019,-0.00069427,0.00091054,0.00088757,-0.00180879,-0.00018337,-0.
 00065793,0.00007107,-0.00056854,-0.00009534,0.08715999,0.08995743,-0.1
 1906953,-0.03108112,-0.07353320,-0.01464696,-0.00430778,-0.00819621,-0
 .02341184,-0.00249941,-0.01525457,-0.00011863,0.00005675,0.00013789,-0
 .00019568,0.00248222,-0.00003979,-0.00239121,-0.00009949,0.00048522,0.
 00006811,0.00008267,0.00006693,-0.00033770,-0.00005864,-0.00008792,-0.
 00061865,0.00040778,-0.00020190,0.00039050,-0.00147749,-0.00006845,0.0
 0013501,-0.00043405,0.00014451,0.15927345,0.03805351,0.09654092,0.0007
 7002,0.00248759,-0.01057065,-0.00140091,-0.00133797,0.00174370,0.01102
 784,-0.00820185,0.00836024,-0.41731042,0.01015233,0.08086262,0.0004697
 9,-0.00230728,0.00062353,-0.11273043,0.04596671,-0.03777617,0.00014494
 ,-0.00015898,0.00057387,0.00134953,0.00059232,0.00107276,-0.00168726,0
 .01963234,-0.00209708,-0.03921240,0.04401063,-0.03788352,-0.02198599,-
 0.01685734,0.00774947,0.00012882,-0.00015307,0.00050424,0.57715757,-0.
 00402069,-0.01122541,0.01190673,0.00213322,0.00006273,0.00007053,0.016
 71823,-0.02856612,0.02193607,0.03731154,-0.03676347,0.01002487,0.00273
 712,0.00200975,0.00069807,0.01614497,-0.21191464,0.10244291,-0.0002987
 5,0.00001150,0.00015262,-0.00013587,0.00069942,-0.00165310,0.00474696,
 -0.00937605,-0.00324582,0.01513399,0.00024047,0.00768673,0.00116368,0.
 01051590,-0.00072177,-0.00056318,-0.00014763,-0.00113969,-0.09090636,0
 .28227613,-0.00209962,0.00868753,0.00249296,-0.00314645,0.00140485,-0.
 00078732,-0.00083759,0.01484563,-0.00145864,0.05723721,0.01654558,-0.0
 3020222,0.00147869,-0.00507049,-0.00234042,-0.02135336,0.09523887,-0.1
 0140743,-0.00019562,0.00011359,0.00057647,0.00105279,0.00074505,0.0010
 1250,-0.00087859,0.00458069,0.00235651,-0.01801495,0.01402898,-0.00796
 933,0.00232600,-0.00296283,0.00208258,0.00060738,-0.00003397,-0.000423
 46,-0.01935452,-0.14849701,0.13808071,0.00011911,0.00065206,-0.0009756
 6,-0.00009550,0.00001213,0.00013167,-0.00342596,0.00184365,-0.00333066
 ,-0.00090855,0.00035972,0.00082570,-0.00090671,-0.00110307,0.00078397,
 -0.01963885,-0.05043172,-0.00612975,-0.00034172,0.00002790,-0.00010018
 ,0.00021953,0.00005645,0.00008797,-0.00010698,-0.00053439,0.00013932,-
 0.04515032,-0.03890060,-0.01805352,0.00054936,0.00028077,-0.00019341,0
 .00000536,-0.00028688,0.00034677,0.00492424,0.00107631,0.00190087,0.06
 462610,0.00027088,0.00079961,-0.00106458,-0.00039482,-0.00010506,-0.00
 001411,0.00214700,0.00072640,-0.00019578,0.00033809,-0.00018500,0.0006
 3187,-0.00007269,0.00033831,0.00051762,-0.00581924,-0.00633193,-0.0006
 1956,0.00010388,0.00006765,0.00008306,0.00021004,0.00016207,0.00003630
 ,-0.00049465,0.00020143,0.00023774,-0.08671702,-0.48902756,-0.05608699
 ,0.00027901,-0.00023132,-0.00010753,0.00005331,0.00007736,-0.00007624,
 0.00314314,0.00052278,0.00071360,0.08675288,0.49295058,0.00170713,-0.0
 0025621,0.00037374,0.00050726,-0.00013655,-0.00010093,-0.00291644,0.00
 153188,-0.00131608,-0.00078890,0.00038640,0.00069273,-0.00086187,0.001
 49452,0.00113824,-0.00613168,-0.01722753,-0.00491546,0.00013201,-0.000
 01229,0.00010144,-0.00004612,-0.00008480,-0.00007118,0.00009450,-0.001
 43607,-0.00043910,-0.02024894,-0.03935325,-0.01074845,0.00044072,0.000
 98536,-0.00021251,0.00001023,-0.00076474,0.00065807,0.00360382,-0.0015
 5572,0.00065010,0.02474501,0.05618113,0.01386080,-0.00099263,0.0003935
 8,-0.00098938,0.00007175,0.00001249,-0.00002485,0.00106954,-0.00117755
 ,0.00408417,0.00507073,0.00151262,-0.00110098,-0.02314542,-0.01025242,
 0.02522686,0.00226232,0.00291002,-0.00067311,-0.00020577,-0.00089875,-
 0.00006624,-0.00401177,0.00252893,0.00151748,-0.18940871,-0.04189276,0
 .09316652,-0.00324038,-0.00136983,-0.00105530,0.00491620,-0.05322225,0
 .02231668,-0.00022414,0.00026375,0.00009364,-0.00258138,-0.00118481,0.
 00141393,0.00015392,0.00020902,-0.00024519,0.40984072,0.00024051,0.000
 74828,-0.00070435,-0.00019388,0.00004370,-0.00002862,0.00096816,-0.000
 35371,-0.00052000,0.00909536,0.00119292,-0.00210037,0.01265614,0.00897
 431,-0.01044682,0.00116896,-0.00279725,0.00240129,0.00001630,0.0021912
 7,0.00008747,0.00242745,-0.00086586,-0.00199269,-0.02538376,-0.1410725
 7,0.02819408,-0.00005708,0.00074707,-0.00041918,-0.05943727,-0.0676385
 2,0.05284265,0.00002057,-0.00001045,0.00010782,-0.00618434,0.00161797,
 -0.00037410,0.00019427,0.00003883,0.00025227,-0.10613362,0.45970870,0.
 00083793,-0.00102471,0.00128770,0.00007915,-0.00006349,0.00003376,0.00
 057338,0.00121272,-0.00422759,-0.00494220,-0.00139404,0.00283043,0.021
 45087,0.00778886,-0.00348937,-0.00265789,-0.00283235,0.00039909,-0.000
 05348,0.00054086,0.00030281,0.00140746,-0.00041395,-0.00088048,0.09217
 400,0.03980697,-0.13266531,0.00284438,0.00116798,0.00097090,0.02417900
 ,0.04839501,0.00508946,0.00024343,-0.00027665,-0.00020475,0.00358484,0
 .00135398,-0.00227472,-0.00019121,-0.00022067,0.00021732,-0.24835280,0
 .02455502,0.21351541,-0.00001883,-0.00006394,0.00015509,0.00001460,0.0
 0000528,0.00002767,0.00022446,-0.00006667,-0.00089538,-0.00135299,-0.0
 0022752,0.00032107,0.00209217,-0.00326411,0.00546215,-0.00029005,-0.00
 007196,-0.00030000,0.00039833,-0.00008296,-0.00037241,-0.00136253,0.00
 065885,0.00051971,-0.03243651,0.02205971,0.02158079,0.00019498,0.00006
 723,0.00017762,0.00480310,0.00362742,-0.00722537,0.00000489,-0.0000236
 8,-0.00002153,0.00093606,-0.00005637,-0.00013616,-0.00002302,-0.000008
 82,-0.00000153,-0.19957497,0.17060221,0.10882315,0.22639032,-0.0000015
 9,-0.00006403,0.00005081,0.00000712,-0.00000138,-0.00000839,0.00019606
 ,0.00020170,0.00004498,-0.00008948,-0.00009683,-0.00004832,-0.00219217
 ,-0.00022774,0.00213605,0.00003751,0.00005579,-0.00003468,-0.00017160,
 0.00026470,0.00009485,-0.00016341,0.00042006,0.00014708,-0.01384892,0.
 02127385,0.00751763,-0.00005359,-0.00001425,-0.00002434,0.00100618,-0.
 00380925,-0.00077639,0.00000431,0.00000688,-0.00001684,0.00012213,0.00
 003667,0.00003404,0.00000054,-0.00000418,-0.00000439,0.20830159,-0.262
 52468,-0.11859553,-0.19315466,0.24448268,0.00000418,-0.00008896,0.0000
 3446,0.00001222,-0.00001888,0.00001202,0.00157389,0.00030314,-0.001032
 75,0.00131241,0.00019703,-0.00035300,0.00314665,0.00292965,0.00409939,
 -0.00006124,-0.00121548,0.00053989,-0.00033133,0.00015684,0.00013543,-
 0.00039373,0.00017138,-0.00005630,0.02600585,-0.01774330,-0.01383329,0
 .00026510,0.00031032,0.00006892,-0.00713534,-0.00313963,0.00034002,0.0
 0001167,-0.00001580,-0.00002327,-0.00099714,0.00054060,-0.00038831,0.0
 0001311,-0.00001587,0.00011128,0.10468858,-0.09185448,-0.08090467,-0.1
 2811487,0.10948344,0.09125018\\-0.00000200,0.00000982,-0.00002292,-0.0
 0000157,-0.00000343,0.00000204,0.00001808,-0.00001388,0.00000245,0.000
 00409,-0.00000111,-0.00000442,0.00000076,-0.00000388,0.00003603,-0.000
 01252,0.00000744,-0.00002135,-0.00000126,0.00000101,-0.00000124,-0.000
 00090,0.00000853,0.00000047,-0.00001417,0.00001682,-0.00003670,0.00001
 729,-0.00000344,-0.00000407,-0.00001245,-0.00001132,0.00001813,-0.0000
 0893,-0.00000135,-0.00000330,0.00001700,-0.00001017,0.00001820,-0.0000
 0188,-0.00000362,0.00000011,-0.00000213,0.00000418,0.00001157,0.000000
 58,0.00000441,0.00000503\\\@


 THE PROBLEM WITH THE LADDER OF SUCCESS IS YOU CAN'T
 CLIMB IT WHILE YOU'RE TWIDDLING YOUR THUMBS.
 Job cpu time:       0 days  0 hours 33 minutes 44.3 seconds.
 File lengths (MBytes):  RWF=    119 Int=      0 D2E=      0 Chk=     10 Scr=      1
 Normal termination of Gaussian 09 at Thu Apr 21 16:49:36 2016.
>>>>>>> 7247658d25b277b9e756e5742d8ccf13e5ff18d4
