 Entering Gaussian System, Link 0=g09
 Input=Ala-S-opt-freq-p2-6-31g.com
 Output=Ala-S-opt-freq-p2-6-31g.log
 Initial command:
 /usr/local/gau/g09/l1.exe "/tmp/Gau-2270.inp" -scrdir="/tmp/"
 Entering Link 1 = /usr/local/gau/g09/l1.exe PID=      2272.
  
 Copyright (c) 1988,1990,1992,1993,1995,1998,2003,2009,2013,
            Gaussian, Inc.  All Rights Reserved.
  
 This is part of the Gaussian(R) 09 program.  It is based on
 the Gaussian(R) 03 system (copyright 2003, Gaussian, Inc.),
 the Gaussian(R) 98 system (copyright 1998, Gaussian, Inc.),
 the Gaussian(R) 94 system (copyright 1995, Gaussian, Inc.),
 the Gaussian 92(TM) system (copyright 1992, Gaussian, Inc.),
 the Gaussian 90(TM) system (copyright 1990, Gaussian, Inc.),
 the Gaussian 88(TM) system (copyright 1988, Gaussian, Inc.),
 the Gaussian 86(TM) system (copyright 1986, Carnegie Mellon
 University), and the Gaussian 82(TM) system (copyright 1983,
 Carnegie Mellon University). Gaussian is a federally registered
 trademark of Gaussian, Inc.
  
 This software contains proprietary and confidential information,
 including trade secrets, belonging to Gaussian, Inc.
  
 This software is provided under written license and may be
 used, copied, transmitted, or stored only in accord with that
 written license.
  
 The following legend is applicable only to US Government
 contracts under FAR:
  
                    RESTRICTED RIGHTS LEGEND
  
 Use, reproduction and disclosure by the US Government is
 subject to restrictions as set forth in subparagraphs (a)
 and (c) of the Commercial Computer Software - Restricted
 Rights clause in FAR 52.227-19.
  
 Gaussian, Inc.
 340 Quinnipiac St., Bldg. 40, Wallingford CT 06492
  
  
 ---------------------------------------------------------------
 Warning -- This program may not be used in any manner that
 competes with the business of Gaussian, Inc. or will provide
 assistance to any competitor of Gaussian, Inc.  The licensee
 of this program is prohibited from giving any competitor of
 Gaussian, Inc. access to this program.  By using this program,
 the user acknowledges that Gaussian, Inc. is engaged in the
 business of creating and licensing software in the field of
 computational chemistry and represents and warrants to the
 licensee that it is not a competitor of Gaussian, Inc. and that
 it will not use this program in any manner prohibited above.
 ---------------------------------------------------------------
  

 Cite this work as:
 Gaussian 09, Revision D.01,
 M. J. Frisch, G. W. Trucks, H. B. Schlegel, G. E. Scuseria, 
 M. A. Robb, J. R. Cheeseman, G. Scalmani, V. Barone, B. Mennucci, 
 G. A. Petersson, H. Nakatsuji, M. Caricato, X. Li, H. P. Hratchian, 
 A. F. Izmaylov, J. Bloino, G. Zheng, J. L. Sonnenberg, M. Hada, 
 M. Ehara, K. Toyota, R. Fukuda, J. Hasegawa, M. Ishida, T. Nakajima, 
 Y. Honda, O. Kitao, H. Nakai, T. Vreven, J. A. Montgomery, Jr., 
 J. E. Peralta, F. Ogliaro, M. Bearpark, J. J. Heyd, E. Brothers, 
 K. N. Kudin, V. N. Staroverov, T. Keith, R. Kobayashi, J. Normand, 
 K. Raghavachari, A. Rendell, J. C. Burant, S. S. Iyengar, J. Tomasi, 
 M. Cossi, N. Rega, J. M. Millam, M. Klene, J. E. Knox, J. B. Cross, 
 V. Bakken, C. Adamo, J. Jaramillo, R. Gomperts, R. E. Stratmann, 
 O. Yazyev, A. J. Austin, R. Cammi, C. Pomelli, J. W. Ochterski, 
 R. L. Martin, K. Morokuma, V. G. Zakrzewski, G. A. Voth, 
 P. Salvador, J. J. Dannenberg, S. Dapprich, A. D. Daniels, 
 O. Farkas, J. B. Foresman, J. V. Ortiz, J. Cioslowski, 
 and D. J. Fox, Gaussian, Inc., Wallingford CT, 2013.
 
 ******************************************
 Gaussian 09:  ES64L-G09RevD.01 24-Apr-2013
                10-Apr-2016 
 ******************************************
 %chk=Ala-S-opt-freq-p2-6-31g.chk
 -----------------------------------------------
 # opt=(calcfc,ts) freq rb3lyp/6-31g iop(1/11=1)
 -----------------------------------------------
 1/5=1,10=4,11=1,14=-1,18=20,26=3,38=1/1,3;
 2/9=110,12=2,17=6,18=5,40=1/2;
 3/5=1,6=6,11=2,16=1,25=1,30=1,71=2,74=-5,116=1,140=1/1,2,3;
 4//1;
 5/5=2,38=5/2;
 8/6=4,10=90,11=11/1;
 11/6=1,8=1,9=11,15=111,16=1/1,2,10;
 10/6=1,13=1/2;
 6/7=2,8=2,9=2,10=2,28=1/1;
 7/10=1,18=20,25=1/1,2,3,16;
 1/5=1,10=4,11=1,14=-1,18=20,26=3/3(2);
 2/9=110/2;
 99//99;
 2/9=110/2;
 3/5=1,6=6,11=2,16=1,25=1,30=1,71=1,74=-5,116=1/1,2,3;
 4/5=5,16=3,69=1/1;
 5/5=2,38=5/2;
 7//1,2,3,16;
 1/5=1,11=1,14=-1,18=20,26=3/3(-5);
 2/9=110/2;
 6/7=2,8=2,9=2,10=2,19=2,28=1/1;
 99/9=1/99;
 -----------------------
 Ala-S-opt-freq-p2-6-31g
 -----------------------
 Symbolic Z-matrix:
 Charge =  0 Multiplicity = 1
 N                     1.29209   1.28974   0.02015 
 H                     2.28932   1.36567  -0.06231 
 C                     0.67415   0.04132  -0.00508 
 H                    -1.89915  -1.44078  -0.71071 
 C                     1.58218  -1.15676  -0.01276 
 C                    -0.66689  -0.06517  -0.01156 
 H                     2.2277   -1.15967   0.87589 
 H                     1.00091  -2.07927  -0.01574 
 H                     2.2374   -1.14971  -0.89529 
 O                    -1.47617   1.08603  -0.10286 
 H                     0.72975   2.11753  -0.07657 
 O                    -1.35714  -1.2807    0.09255 
 H                    -0.08911   1.25228   0.44324 
 
 Add virtual bond connecting atoms H13        and N1         Dist= 2.73D+00.
 Add virtual bond connecting atoms H13        and H11        Dist= 2.46D+00.

 GradGradGradGradGradGradGradGradGradGradGradGradGradGradGradGradGradGrad
 Berny optimization.
 Initialization pass.
                           ----------------------------
                           !    Initial Parameters    !
                           ! (Angstroms and Degrees)  !
 --------------------------                            --------------------------
 ! Name  Definition              Value          Derivative Info.                !
 --------------------------------------------------------------------------------
 ! R1    R(1,2)                  1.0035         calculate D2E/DX2 analytically  !
 ! R2    R(1,3)                  1.3932         calculate D2E/DX2 analytically  !
 ! R3    R(1,11)                 1.0054         calculate D2E/DX2 analytically  !
 ! R4    R(1,13)                 1.445          calculate D2E/DX2 analytically  !
 ! R5    R(3,5)                  1.5033         calculate D2E/DX2 analytically  !
 ! R6    R(3,6)                  1.3453         calculate D2E/DX2 analytically  !
 ! R7    R(4,12)                 0.9822         calculate D2E/DX2 analytically  !
 ! R8    R(5,7)                  1.0984         calculate D2E/DX2 analytically  !
 ! R9    R(5,8)                  1.0904         calculate D2E/DX2 analytically  !
 ! R10   R(5,9)                  1.0992         calculate D2E/DX2 analytically  !
 ! R11   R(6,10)                 1.4102         calculate D2E/DX2 analytically  !
 ! R12   R(6,12)                 1.4017         calculate D2E/DX2 analytically  !
 ! R13   R(11,13)                1.2998         calculate D2E/DX2 analytically  !
 ! A1    A(2,1,3)              120.4689         calculate D2E/DX2 analytically  !
 ! A2    A(2,1,11)             119.0538         calculate D2E/DX2 analytically  !
 ! A3    A(3,1,11)             119.2059         calculate D2E/DX2 analytically  !
 ! A4    A(3,1,13)              63.7768         calculate D2E/DX2 analytically  !
 ! A5    A(1,3,5)              116.508          calculate D2E/DX2 analytically  !
 ! A6    A(1,3,6)              120.8748         calculate D2E/DX2 analytically  !
 ! A7    A(5,3,6)              122.6153         calculate D2E/DX2 analytically  !
 ! A8    A(3,5,7)              110.6686         calculate D2E/DX2 analytically  !
 ! A9    A(3,5,8)              110.6273         calculate D2E/DX2 analytically  !
 ! A10   A(3,5,9)              111.0413         calculate D2E/DX2 analytically  !
 ! A11   A(7,5,8)              108.2564         calculate D2E/DX2 analytically  !
 ! A12   A(7,5,9)              107.4144         calculate D2E/DX2 analytically  !
 ! A13   A(8,5,9)              108.7238         calculate D2E/DX2 analytically  !
 ! A14   A(3,6,10)             120.5154         calculate D2E/DX2 analytically  !
 ! A15   A(3,6,12)             123.9986         calculate D2E/DX2 analytically  !
 ! A16   A(10,6,12)            115.4764         calculate D2E/DX2 analytically  !
 ! A17   A(4,12,6)             110.6311         calculate D2E/DX2 analytically  !
 ! A18   L(2,1,13,3,-1)        184.2456         calculate D2E/DX2 analytically  !
 ! A19   L(2,1,13,3,-2)        166.4914         calculate D2E/DX2 analytically  !
 ! D1    D(2,1,3,5)              6.2762         calculate D2E/DX2 analytically  !
 ! D2    D(2,1,3,6)           -174.2135         calculate D2E/DX2 analytically  !
 ! D3    D(11,1,3,5)           173.2777         calculate D2E/DX2 analytically  !
 ! D4    D(11,1,3,6)            -7.2119         calculate D2E/DX2 analytically  !
 ! D5    D(13,1,3,5)          -160.2153         calculate D2E/DX2 analytically  !
 ! D6    D(13,1,3,6)            19.2951         calculate D2E/DX2 analytically  !
 ! D7    D(1,3,5,7)             59.0596         calculate D2E/DX2 analytically  !
 ! D8    D(1,3,5,8)            179.0434         calculate D2E/DX2 analytically  !
 ! D9    D(1,3,5,9)            -60.1392         calculate D2E/DX2 analytically  !
 ! D10   D(6,3,5,7)           -120.4415         calculate D2E/DX2 analytically  !
 ! D11   D(6,3,5,8)             -0.4577         calculate D2E/DX2 analytically  !
 ! D12   D(6,3,5,9)            120.3597         calculate D2E/DX2 analytically  !
 ! D13   D(1,3,6,10)             5.1914         calculate D2E/DX2 analytically  !
 ! D14   D(1,3,6,12)          -173.6291         calculate D2E/DX2 analytically  !
 ! D15   D(5,3,6,10)          -175.3288         calculate D2E/DX2 analytically  !
 ! D16   D(5,3,6,12)             5.8507         calculate D2E/DX2 analytically  !
 ! D17   D(3,6,12,4)          -118.4765         calculate D2E/DX2 analytically  !
 ! D18   D(10,6,12,4)           62.649          calculate D2E/DX2 analytically  !
 --------------------------------------------------------------------------------
 Trust Radius=3.00D-01 FncErr=1.00D-07 GrdErr=1.00D-06
 Number of steps in this run=     60 maximum allowed number of steps=    100.
 Search for a saddle point of order  1.
 GradGradGradGradGradGradGradGradGradGradGradGradGradGradGradGradGradGrad

                          Input orientation:                          
 ---------------------------------------------------------------------
 Center     Atomic      Atomic             Coordinates (Angstroms)
 Number     Number       Type             X           Y           Z
 ---------------------------------------------------------------------
      1          7           0        1.292094    1.289744    0.020151
      2          1           0        2.289324    1.365670   -0.062313
      3          6           0        0.674153    0.041324   -0.005083
      4          1           0       -1.899149   -1.440782   -0.710709
      5          6           0        1.582179   -1.156760   -0.012763
      6          6           0       -0.666889   -0.065174   -0.011560
      7          1           0        2.227696   -1.159672    0.875893
      8          1           0        1.000912   -2.079268   -0.015743
      9          1           0        2.237404   -1.149710   -0.895292
     10          8           0       -1.476170    1.086033   -0.102862
     11          1           0        0.729746    2.117528   -0.076571
     12          8           0       -1.357137   -1.280705    0.092546
     13          1           0       -0.089115    1.252285    0.443243
 ---------------------------------------------------------------------
                    Distance matrix (angstroms):
                    1          2          3          4          5
     1  N    0.000000
     2  H    1.003510   0.000000
     3  C    1.393212   2.089484   0.000000
     4  H    4.263093   5.083296   3.052283   0.000000
     5  C    2.463862   2.620145   1.503321   3.561944   0.000000
     6  C    2.382105   3.284674   1.345280   1.974733   2.499974
     7  H    2.758131   2.694695   2.152210   4.430257   1.098367
     8  H    3.381762   3.678284   2.145646   3.049753   1.090367
     9  H    2.771747   2.650224   2.157496   4.150887   1.099194
    10  O    2.778474   3.776081   2.392669   2.633094   3.793644
    11  H    1.005394   1.731409   2.078178   4.469317   3.384032
    12  O    3.692001   4.508210   2.425579   0.982151   2.943812
    13  H    1.445043   2.434218   1.500000   3.443899   2.967265
                    6          7          8          9         10
     6  C    0.000000
     7  H    3.219335   0.000000
     8  H    2.614986   1.773604   0.000000
     9  H    3.223681   1.771240   1.779493   0.000000
    10  O    1.410159   4.440695   4.020281   4.406487   0.000000
    11  H    2.592104   3.727074   4.205987   3.690282   2.435311
    12  O    1.401712   3.671418   2.491952   3.730108   2.377772
    13  H    1.508763   3.372289   3.535261   3.601936   1.499931
                   11         12         13
    11  H    0.000000
    12  O    3.991449   0.000000
    13  H    1.299764   2.854278   0.000000
 Stoichiometry    C3H7NO2
 Framework group  C1[X(C3H7NO2)]
 Deg. of freedom    33
 Full point group                 C1      NOp   1
 Largest Abelian subgroup         C1      NOp   1
 Largest concise Abelian subgroup C1      NOp   1
                         Standard orientation:                         
 ---------------------------------------------------------------------
 Center     Atomic      Atomic             Coordinates (Angstroms)
 Number     Number       Type             X           Y           Z
 ---------------------------------------------------------------------
      1          7           0        1.353591   -1.188430   -0.016384
      2          1           0        2.352137   -1.175664    0.082493
      3          6           0        0.626446   -0.000197    0.003670
      4          1           0       -2.079971    1.242726    0.672162
      5          6           0        1.423759    1.273965    0.031580
      6          6           0       -0.718676   -0.013648   -0.011923
      7          1           0        2.080886    1.339396   -0.846094
      8          1           0        0.762566    2.140981    0.028642
      9          1           0        2.062485    1.320344    0.924947
     10          8           0       -1.423449   -1.232881    0.060987
     11          1           0        0.865801   -2.063560    0.067437
     12          8           0       -1.512783    1.136114   -0.122540
     13          1           0       -0.018352   -1.271800   -0.462443
 ---------------------------------------------------------------------
 Rotational constants (GHZ):      4.8679131      3.3249356      2.0158766
 Standard basis: 6-31G (6D, 7F)
 There are    68 symmetry adapted cartesian basis functions of A   symmetry.
 There are    68 symmetry adapted basis functions of A   symmetry.
    68 basis functions,   160 primitive gaussians,    68 cartesian basis functions
    24 alpha electrons       24 beta electrons
       nuclear repulsion energy       247.4057082035 Hartrees.
 NAtoms=   13 NActive=   13 NUniq=   13 SFac= 1.00D+00 NAtFMM=   60 NAOKFM=F Big=F
 Integral buffers will be    131072 words long.
 Raffenetti 2 integral format.
 Two-electron integral symmetry is turned on.
 One-electron integrals computed using PRISM.
 NBasis=    68 RedAO= T EigKep=  2.78D-03  NBF=    68
 NBsUse=    68 1.00D-06 EigRej= -1.00D+00 NBFU=    68
 ExpMin= 1.61D-01 ExpMax= 5.48D+03 ExpMxC= 8.25D+02 IAcc=1 IRadAn=         1 AccDes= 0.00D+00
 Harris functional with IExCor=  402 and IRadAn=       1 diagonalized for initial guess.
 HarFok:  IExCor=  402 AccDes= 0.00D+00 IRadAn=         1 IDoV= 1 UseB2=F ITyADJ=14
 ICtDFT=  3500011 ScaDFX=  1.000000  1.000000  1.000000  1.000000
 FoFCou: FMM=F IPFlag=           0 FMFlag=      100000 FMFlg1=           0
         NFxFlg=           0 DoJE=T BraDBF=F KetDBF=T FulRan=T
         wScrn=  0.000000 ICntrl=     500 IOpCl=  0 I1Cent=   200000004 NGrid=           0
         NMat0=    1 NMatS0=      1 NMatT0=    0 NMatD0=    1 NMtDS0=    0 NMtDT0=    0
 Petite list used in FoFCou.
 Keep R1 ints in memory in canonical form, NReq=3676491.
 Requested convergence on RMS density matrix=1.00D-08 within 128 cycles.
 Requested convergence on MAX density matrix=1.00D-06.
 Requested convergence on             energy=1.00D-06.
 No special actions if energy rises.
 Integral accuracy reduced to 1.0D-05 until final iterations.
 Initial convergence to 1.0D-05 achieved.  Increase integral accuracy.
 SCF Done:  E(RB3LYP) =  -323.430925404     A.U. after   17 cycles
            NFock= 17  Conv=0.99D-08     -V/T= 2.0050
 DoSCS=F DFT=T ScalE2(SS,OS)=  1.000000  1.000000
 Range of M.O.s used for correlation:     1    68
 NBasis=    68 NAE=    24 NBE=    24 NFC=     0 NFV=     0
 NROrb=     68 NOA=    24 NOB=    24 NVA=    44 NVB=    44
 Symmetrizing basis deriv contribution to polar:
 IMax=3 JMax=2 DiffMx= 0.00D+00
 G2DrvN: will do    14 centers at a time, making    1 passes.
 Calling FoFCou, ICntrl=  3107 FMM=F I1Cent=   0 AccDes= 0.00D+00.
 End of G2Drv F.D. properties file   721 does not exist.
 End of G2Drv F.D. properties file   722 does not exist.
 End of G2Drv F.D. properties file   788 does not exist.
          IDoAtm=1111111111111
          Differentiating once with respect to nuclear coordinates.
 Keep R1 ints in memory in canonical form, NReq=3645290.
          There are    42 degrees of freedom in the 1st order CPHF.  IDoFFX=6 NUNeed=     0.
     36 vectors produced by pass  0 Test12= 2.51D-15 2.38D-09 XBig12= 1.79D-01 1.37D-01.
 AX will form    36 AO Fock derivatives at one time.
     36 vectors produced by pass  1 Test12= 2.51D-15 2.38D-09 XBig12= 2.98D-02 4.30D-02.
     36 vectors produced by pass  2 Test12= 2.51D-15 2.38D-09 XBig12= 1.29D-04 1.41D-03.
     36 vectors produced by pass  3 Test12= 2.51D-15 2.38D-09 XBig12= 2.16D-07 8.05D-05.
     36 vectors produced by pass  4 Test12= 2.51D-15 2.38D-09 XBig12= 1.98D-10 2.14D-06.
     17 vectors produced by pass  5 Test12= 2.51D-15 2.38D-09 XBig12= 1.13D-13 4.30D-08.
 InvSVY:  IOpt=1 It=  1 EMax= 1.67D-15
 Solved reduced A of dimension   197 with    36 vectors.
 End of Minotr F.D. properties file   721 does not exist.
 End of Minotr F.D. properties file   722 does not exist.
 End of Minotr F.D. properties file   788 does not exist.

 **********************************************************************

            Population analysis using the SCF density.

 **********************************************************************

 Orbital symmetries:
       Occupied  (A) (A) (A) (A) (A) (A) (A) (A) (A) (A) (A) (A)
                 (A) (A) (A) (A) (A) (A) (A) (A) (A) (A) (A) (A)
       Virtual   (A) (A) (A) (A) (A) (A) (A) (A) (A) (A) (A) (A)
                 (A) (A) (A) (A) (A) (A) (A) (A) (A) (A) (A) (A)
                 (A) (A) (A) (A) (A) (A) (A) (A) (A) (A) (A) (A)
                 (A) (A) (A) (A) (A) (A) (A) (A)
 The electronic state is 1-A.
 Alpha  occ. eigenvalues --  -19.15818 -19.13714 -14.37364 -10.27730 -10.22990
 Alpha  occ. eigenvalues --  -10.18930  -1.05807  -0.99981  -0.94297  -0.77509
 Alpha  occ. eigenvalues --   -0.70706  -0.60432  -0.59448  -0.51675  -0.46087
 Alpha  occ. eigenvalues --   -0.45522  -0.41789  -0.40161  -0.38559  -0.35761
 Alpha  occ. eigenvalues --   -0.31777  -0.30494  -0.27620  -0.18076
 Alpha virt. eigenvalues --   -0.01606   0.05170   0.07207   0.09423   0.10473
 Alpha virt. eigenvalues --    0.13241   0.16952   0.17438   0.20255   0.22549
 Alpha virt. eigenvalues --    0.24542   0.37586   0.43478   0.51850   0.55034
 Alpha virt. eigenvalues --    0.57064   0.58616   0.63389   0.66303   0.66969
 Alpha virt. eigenvalues --    0.71659   0.73428   0.75919   0.79562   0.82560
 Alpha virt. eigenvalues --    0.83857   0.86532   0.89613   0.91682   0.94341
 Alpha virt. eigenvalues --    0.95625   0.97293   1.02113   1.05484   1.08014
 Alpha virt. eigenvalues --    1.10820   1.15253   1.22113   1.24911   1.36737
 Alpha virt. eigenvalues --    1.44204   1.55393   1.76594   1.98671
          Condensed to atoms (all electrons):
               1          2          3          4          5          6
     1  N    7.324145   0.319664   0.150674  -0.000097  -0.061857  -0.133540
     2  H    0.319664   0.345742  -0.020566   0.000002  -0.003580   0.006695
     3  C    0.150674  -0.020566   5.569802   0.001231   0.303084   0.371880
     4  H   -0.000097   0.000002   0.001231   0.418507   0.000485  -0.037420
     5  C   -0.061857  -0.003580   0.303084   0.000485   5.094368   0.009695
     6  C   -0.133540   0.006695   0.371880  -0.037420   0.009695   4.983985
     7  H    0.003560   0.001009  -0.044799  -0.000080   0.363716  -0.001564
     8  H    0.003731  -0.000039  -0.033758  -0.000433   0.376448  -0.003063
     9  H   -0.000245   0.002055  -0.048033   0.000142   0.368939  -0.000481
    10  O   -0.021563   0.000552  -0.153109   0.002690   0.003394   0.245238
    11  H    0.297171  -0.012315  -0.041051   0.000003   0.004688  -0.000462
    12  O    0.002090   0.000014  -0.106460   0.238063  -0.006718   0.217015
    13  H   -0.006917   0.005950  -0.196116  -0.000476   0.004450   0.020982
               7          8          9         10         11         12
     1  N    0.003560   0.003731  -0.000245  -0.021563   0.297171   0.002090
     2  H    0.001009  -0.000039   0.002055   0.000552  -0.012315   0.000014
     3  C   -0.044799  -0.033758  -0.048033  -0.153109  -0.041051  -0.106460
     4  H   -0.000080  -0.000433   0.000142   0.002690   0.000003   0.238063
     5  C    0.363716   0.376448   0.368939   0.003394   0.004688  -0.006718
     6  C   -0.001564  -0.003063  -0.000481   0.245238  -0.000462   0.217015
     7  H    0.600339  -0.023330  -0.044939  -0.000022  -0.000189   0.000238
     8  H   -0.023330   0.506958  -0.023949   0.000182  -0.000170   0.010999
     9  H   -0.044939  -0.023949   0.604094  -0.000018   0.000022   0.000515
    10  O   -0.000022   0.000182  -0.000018   8.371996   0.011599  -0.083426
    11  H   -0.000189  -0.000170   0.000022   0.011599   0.389517   0.000200
    12  O    0.000238   0.010999   0.000515  -0.083426   0.000200   8.313592
    13  H    0.000015  -0.000267  -0.000444   0.168224  -0.005395   0.012769
              13
     1  N   -0.006917
     2  H    0.005950
     3  C   -0.196116
     4  H   -0.000476
     5  C    0.004450
     6  C    0.020982
     7  H    0.000015
     8  H   -0.000267
     9  H   -0.000444
    10  O    0.168224
    11  H   -0.005395
    12  O    0.012769
    13  H    0.650588
 Mulliken charges:
               1
     1  N   -0.876817
     2  H    0.354819
     3  C    0.247221
     4  H    0.377382
     5  C   -0.457113
     6  C    0.321040
     7  H    0.146046
     8  H    0.186691
     9  H    0.142342
    10  O   -0.545738
    11  H    0.356382
    12  O   -0.598891
    13  H    0.346637
 Sum of Mulliken charges =   0.00000
 Mulliken charges with hydrogens summed into heavy atoms:
               1
     1  N    0.181021
     3  C    0.247221
     5  C    0.017966
     6  C    0.321040
    10  O   -0.545738
    12  O   -0.221510
 APT charges:
               1
     1  N   -1.343072
     2  H    0.760106
     3  C    0.320379
     4  H    0.658012
     5  C   -1.235285
     6  C   -0.006269
     7  H    0.421435
     8  H    0.375607
     9  H    0.432989
    10  O   -0.407841
    11  H    0.537097
    12  O   -0.740469
    13  H    0.227310
 Sum of APT charges =   0.00000
 APT charges with hydrogens summed into heavy atoms:
               1
     1  N    0.181442
     3  C    0.320379
     5  C   -0.005253
     6  C   -0.006269
    10  O   -0.407841
    12  O   -0.082458
 Electronic spatial extent (au):  <R**2>=            601.0129
 Charge=              0.0000 electrons
 Dipole moment (field-independent basis, Debye):
    X=              3.9873    Y=             -0.0309    Z=              1.4111  Tot=              4.2297
 Quadrupole moment (field-independent basis, Debye-Ang):
   XX=            -33.4808   YY=            -35.1264   ZZ=            -37.6602
   XY=             -6.5266   XZ=             -2.9311   YZ=              2.6443
 Traceless Quadrupole moment (field-independent basis, Debye-Ang):
   XX=              1.9416   YY=              0.2961   ZZ=             -2.2378
   XY=             -6.5266   XZ=             -2.9311   YZ=              2.6443
 Octapole moment (field-independent basis, Debye-Ang**2):
  XXX=              6.4564  YYY=             -7.5165  ZZZ=              1.4384  XYY=              8.3281
  XXY=              4.4351  XXZ=              9.3166  XZZ=             -4.6651  YZZ=              1.8376
  YYZ=              2.9808  XYZ=             -5.6826
 Hexadecapole moment (field-independent basis, Debye-Ang**3):
 XXXX=           -348.1348 YYYY=           -268.6144 ZZZZ=            -44.3985 XXXY=            -44.9022
 XXXZ=            -13.6047 YYYX=            -26.2961 YYYZ=              3.6950 ZZZX=             -2.3413
 ZZZY=              0.9035 XXYY=           -112.1807 XXZZ=            -72.0789 YYZZ=            -57.2711
 XXYZ=              7.4404 YYXZ=             -4.7348 ZZXY=             -2.5345
 N-N= 2.474057082035D+02 E-N=-1.252281490326D+03  KE= 3.218206525760D+02
  Exact polarizability:   0.000   0.000   0.000   0.000   0.000   0.000
 Approx polarizability: 119.736   2.898  66.390  -7.205   0.368  35.532
 Calling FoFJK, ICntrl=    100147 FMM=F ISym2X=0 I1Cent= 0 IOpClX= 0 NMat=1 NMatS=1 NMatT=0.
 ***** Axes restored to original set *****
 -------------------------------------------------------------------
 Center     Atomic                   Forces (Hartrees/Bohr)
 Number     Number              X              Y              Z
 -------------------------------------------------------------------
      1        7           0.014434162    0.028006588   -0.000822237
      2        1           0.001932297    0.002272100    0.007148447
      3        6           0.011948583   -0.080137899   -0.020483521
      4        1          -0.001240761    0.003137322    0.002082628
      5        6           0.002881230    0.003503660    0.006046436
      6        6          -0.039278471   -0.016985961   -0.018695902
      7        1           0.001548261   -0.001925441    0.000574498
      8        1          -0.001033696    0.001384962    0.000146600
      9        1          -0.000071022    0.000630980   -0.001044797
     10        8           0.072854961    0.006086023    0.030578340
     11        1           0.012581719    0.021845869   -0.024318469
     12        8           0.012655776   -0.000138198   -0.001567471
     13        1          -0.089213038    0.032319995    0.020355447
 -------------------------------------------------------------------
 Cartesian Forces:  Max     0.089213038 RMS     0.026501016
 FormGI is forming the generalized inverse of G from B-inverse, IUseBI=4.

 GradGradGradGradGradGradGradGradGradGradGradGradGradGradGradGradGradGrad
 Berny optimization.
 Internal  Forces:  Max     0.104031905 RMS     0.031603099
 Search for a saddle point.
 Step number   1 out of a maximum of   60
 All quantities printed in internal units (Hartrees-Bohrs-Radians)
 Swapping is turned off.
 Second derivative matrix not updated -- analytic derivatives used.
 ITU=  0
     Eigenvalues ---   -0.33039  -0.06283  -0.00435  -0.00071   0.00179
     Eigenvalues ---    0.00461   0.01201   0.01933   0.03217   0.05685
     Eigenvalues ---    0.06308   0.06458   0.08057   0.12841   0.14275
     Eigenvalues ---    0.14525   0.15734   0.17273   0.20799   0.21538
     Eigenvalues ---    0.25009   0.31995   0.32883   0.33837   0.34877
     Eigenvalues ---    0.35839   0.36968   0.40889   0.46239   0.46853
     Eigenvalues ---    0.49432   0.56161   0.89473
 Eigenvectors required to have negative eigenvalues:
                          R4        A14       A4        D6        D5
   1                    0.46869  -0.41771   0.29980  -0.28618  -0.27607
                          A15       D15       A19       D13       A18
   1                    0.25691  -0.18899   0.18542  -0.17827   0.17409
 RFO step:  Lambda0=7.813031576D-02 Lambda=-1.04416747D-01.
 Linear search not attempted -- option 19 set.
 Maximum step size (   0.300) exceeded in Quadratic search.
    -- Step size scaled by   0.537
 Iteration  1 RMS(Cart)=  0.09095839 RMS(Int)=  0.02116413
 Iteration  2 RMS(Cart)=  0.01747021 RMS(Int)=  0.00856194
 Iteration  3 RMS(Cart)=  0.00087403 RMS(Int)=  0.00852926
 Iteration  4 RMS(Cart)=  0.00003581 RMS(Int)=  0.00852923
 Iteration  5 RMS(Cart)=  0.00000164 RMS(Int)=  0.00852923
 Iteration  6 RMS(Cart)=  0.00000007 RMS(Int)=  0.00852923
 Variable       Old X    -DE/DX   Delta X   Delta X   Delta X     New X
                                 (Linear)    (Quad)   (Total)
    R1        1.89636   0.00151   0.00000   0.00464   0.00464   1.90100
    R2        2.63279   0.04898   0.00000   0.10863   0.10863   2.74142
    R3        1.89992   0.01175   0.00000   0.02054   0.01155   1.91147
    R4        2.73073   0.08554   0.00000  -0.19015  -0.20666   2.52407
    R5        2.84087  -0.00089   0.00000  -0.01523  -0.01523   2.82563
    R6        2.54221  -0.04428   0.00000   0.01156   0.01156   2.55377
    R7        1.85600  -0.00154   0.00000  -0.00272  -0.00272   1.85328
    R8        2.07561   0.00138   0.00000   0.00242   0.00242   2.07803
    R9        2.06050  -0.00062   0.00000  -0.00022  -0.00022   2.06028
   R10        2.07718   0.00080   0.00000   0.00318   0.00318   2.08035
   R11        2.66481  -0.03882   0.00000  -0.07996  -0.07996   2.58486
   R12        2.64885  -0.00818   0.00000   0.00075   0.00075   2.64961
   R13        2.45620   0.00659   0.00000   0.07634   0.09937   2.55557
    A1        2.10258  -0.03053   0.00000  -0.01261  -0.02651   2.07607
    A2        2.07788  -0.00011   0.00000  -0.01422  -0.02335   2.05453
    A3        2.08053   0.02876   0.00000  -0.04684  -0.08085   1.99969
    A4        1.11311   0.06592   0.00000   0.02586   0.04611   1.15923
    A5        2.03345   0.03471   0.00000   0.02581   0.02562   2.05907
    A6        2.10966  -0.07800   0.00000  -0.08865  -0.08876   2.02090
    A7        2.14004   0.04327   0.00000   0.06257   0.06234   2.20238
    A8        1.93153   0.00398   0.00000   0.01658   0.01659   1.94812
    A9        1.93081  -0.00288   0.00000  -0.01204  -0.01204   1.91877
   A10        1.93804  -0.00143   0.00000  -0.00246  -0.00249   1.93555
   A11        1.88943  -0.00037   0.00000  -0.00021  -0.00017   1.88926
   A12        1.87473  -0.00042   0.00000  -0.00377  -0.00378   1.87095
   A13        1.89759   0.00119   0.00000   0.00203   0.00198   1.89957
   A14        2.10339  -0.10403   0.00000   0.02223   0.02168   2.12507
   A15        2.16418   0.04223   0.00000  -0.05239  -0.05294   2.11124
   A16        2.01544   0.06139   0.00000   0.02914   0.02859   2.04403
   A17        1.93088  -0.00280   0.00000  -0.01139  -0.01139   1.91949
   A18        3.21569   0.03539   0.00000   0.01326   0.01960   3.23530
   A19        2.90582   0.00581   0.00000  -0.07590  -0.07001   2.83581
    D1        0.10954  -0.00731   0.00000   0.14866   0.14273   0.25227
    D2       -3.04060  -0.01016   0.00000   0.11453   0.11009  -2.93051
    D3        3.02427  -0.01668   0.00000  -0.22421  -0.20870   2.81557
    D4       -0.12587  -0.01953   0.00000  -0.25834  -0.24134  -0.36721
    D5       -2.79628  -0.01313   0.00000   0.22455   0.21274  -2.58354
    D6        0.33676  -0.01598   0.00000   0.19043   0.18010   0.51686
    D7        1.03078  -0.00153   0.00000  -0.00753  -0.00834   1.02245
    D8        3.12490  -0.00129   0.00000  -0.00484  -0.00570   3.11919
    D9       -1.04963  -0.00267   0.00000  -0.01202  -0.01284  -1.06247
   D10       -2.10210   0.00202   0.00000   0.02806   0.02891  -2.07319
   D11       -0.00799   0.00226   0.00000   0.03075   0.03154   0.02355
   D12        2.10067   0.00088   0.00000   0.02356   0.02441   2.12508
   D13        0.09061  -0.02889   0.00000  -0.02950  -0.02973   0.06088
   D14       -3.03040  -0.00410   0.00000   0.03325   0.03297  -2.99743
   D15       -3.06006  -0.03201   0.00000  -0.06600  -0.06572  -3.12579
   D16        0.10211  -0.00722   0.00000  -0.00326  -0.00302   0.09909
   D17       -2.06781  -0.01561   0.00000  -0.13676  -0.13677  -2.20457
   D18        1.09343   0.00982   0.00000  -0.07687  -0.07686   1.01657
         Item               Value     Threshold  Converged?
 Maximum Force            0.104032     0.000450     NO 
 RMS     Force            0.031603     0.000300     NO 
 Maximum Displacement     0.359288     0.001800     NO 
 RMS     Displacement     0.098251     0.001200     NO 
 Predicted change in Energy=-1.553992D-02
 GradGradGradGradGradGradGradGradGradGradGradGradGradGradGradGradGradGrad

                          Input orientation:                          
 ---------------------------------------------------------------------
 Center     Atomic      Atomic             Coordinates (Angstroms)
 Number     Number       Type             X           Y           Z
 ---------------------------------------------------------------------
      1          7           0        1.253234    1.324561    0.061022
      2          1           0        2.241036    1.434207   -0.094525
      3          6           0        0.672922   -0.002636   -0.018419
      4          1           0       -1.974002   -1.376357   -0.712022
      5          6           0        1.599858   -1.175769    0.000438
      6          6           0       -0.677085   -0.052906   -0.053357
      7          1           0        2.214032   -1.192230    0.912437
      8          1           0        1.027387   -2.102642   -0.042373
      9          1           0        2.290303   -1.144525   -0.856438
     10          8           0       -1.439180    1.082486   -0.086520
     11          1           0        0.642824    2.069728   -0.247636
     12          8           0       -1.356194   -1.275792    0.042959
     13          1           0        0.049919    1.232387    0.633370
 ---------------------------------------------------------------------
                    Distance matrix (angstroms):
                    1          2          3          4          5
     1  N    0.000000
     2  H    1.005967   0.000000
     3  C    1.450699   2.128213   0.000000
     4  H    4.278740   5.103638   3.061764   0.000000
     5  C    2.524969   2.689257   1.495261   3.649700   0.000000
     6  C    2.374159   3.275459   1.351394   1.966559   2.539327
     7  H    2.825293   2.812983   2.157926   4.495820   1.099647
     8  H    3.436193   3.739647   2.129846   3.159788   1.090252
     9  H    2.830835   2.689385   2.149908   4.273043   1.100875
    10  O    2.707299   3.696994   2.375522   2.592913   3.787219
    11  H    1.011506   1.726735   2.085220   4.351889   3.392743
    12  O    3.683922   4.505891   2.396248   0.980713   2.958049
    13  H    1.335682   2.317662   1.529132   3.565373   2.932939
                    6          7          8          9         10
     6  C    0.000000
     7  H    3.254132   0.000000
     8  H    2.665851   1.774440   0.000000
     9  H    3.262202   1.771161   1.782034   0.000000
    10  O    1.367847   4.417942   4.028765   4.411507   0.000000
    11  H    2.507086   3.801952   4.195080   3.662820   2.309837
    12  O    1.402111   3.675525   2.524366   3.758069   2.363287
    13  H    1.628529   3.261906   3.540409   3.590064   1.660762
                   11         12         13
    11  H    0.000000
    12  O    3.908072   0.000000
    13  H    1.352349   2.935422   0.000000
 Stoichiometry    C3H7NO2
 Framework group  C1[X(C3H7NO2)]
 Deg. of freedom    33
 Full point group                 C1      NOp   1
 Largest Abelian subgroup         C1      NOp   1
 Largest concise Abelian subgroup C1      NOp   1
                         Standard orientation:                         
 ---------------------------------------------------------------------
 Center     Atomic      Atomic             Coordinates (Angstroms)
 Number     Number       Type             X           Y           Z
 ---------------------------------------------------------------------
      1          7           0        1.304463   -1.242118   -0.032490
      2          1           0        2.292863   -1.273239    0.152083
      3          6           0        0.620112    0.035918    0.020544
      4          1           0       -2.145172    1.201537    0.627949
      5          6           0        1.452661    1.277960    0.019620
      6          6           0       -0.730137   -0.019563    0.016437
      7          1           0        2.089969    1.337854   -0.874514
      8          1           0        0.808485    2.157336    0.039207
      9          1           0        2.118186    1.305265    0.896122
     10          8           0       -1.401787   -1.210993    0.036105
     11          1           0        0.745441   -2.031242    0.264028
     12          8           0       -1.499667    1.145849   -0.108271
     13          1           0        0.114806   -1.247420   -0.639725
 ---------------------------------------------------------------------
 Rotational constants (GHZ):      4.7949909      3.3698559      2.0218863
 Standard basis: 6-31G (6D, 7F)
 There are    68 symmetry adapted cartesian basis functions of A   symmetry.
 There are    68 symmetry adapted basis functions of A   symmetry.
    68 basis functions,   160 primitive gaussians,    68 cartesian basis functions
    24 alpha electrons       24 beta electrons
       nuclear repulsion energy       247.2202861054 Hartrees.
 NAtoms=   13 NActive=   13 NUniq=   13 SFac= 1.00D+00 NAtFMM=   60 NAOKFM=F Big=F
 Integral buffers will be    131072 words long.
 Raffenetti 2 integral format.
 Two-electron integral symmetry is turned on.
 One-electron integrals computed using PRISM.
 NBasis=    68 RedAO= T EigKep=  2.93D-03  NBF=    68
 NBsUse=    68 1.00D-06 EigRej= -1.00D+00 NBFU=    68
 Initial guess from the checkpoint file:  "Ala-S-opt-freq-p2-6-31g.chk"
 B after Tr=     0.000000    0.000000    0.000000
         Rot=    0.999984   -0.000747    0.001035    0.005594 Ang=  -0.66 deg.
 ExpMin= 1.61D-01 ExpMax= 5.48D+03 ExpMxC= 8.25D+02 IAcc=1 IRadAn=         1 AccDes= 0.00D+00
 Harris functional with IExCor=  402 and IRadAn=       1 diagonalized for initial guess.
 HarFok:  IExCor=  402 AccDes= 0.00D+00 IRadAn=         1 IDoV= 1 UseB2=F ITyADJ=14
 ICtDFT=  3500011 ScaDFX=  1.000000  1.000000  1.000000  1.000000
 FoFCou: FMM=F IPFlag=           0 FMFlag=      100000 FMFlg1=           0
         NFxFlg=           0 DoJE=T BraDBF=F KetDBF=T FulRan=T
         wScrn=  0.000000 ICntrl=     500 IOpCl=  0 I1Cent=   200000004 NGrid=           0
         NMat0=    1 NMatS0=      1 NMatT0=    0 NMatD0=    1 NMtDS0=    0 NMtDT0=    0
 Petite list used in FoFCou.
 Keep R1 ints in memory in canonical form, NReq=3676491.
 Requested convergence on RMS density matrix=1.00D-08 within 128 cycles.
 Requested convergence on MAX density matrix=1.00D-06.
 Requested convergence on             energy=1.00D-06.
 No special actions if energy rises.
 Integral accuracy reduced to 1.0D-05 until final iterations.
 Initial convergence to 1.0D-05 achieved.  Increase integral accuracy.
 SCF Done:  E(RB3LYP) =  -323.447798272     A.U. after   16 cycles
            NFock= 16  Conv=0.77D-08     -V/T= 2.0053
 Calling FoFJK, ICntrl=      2127 FMM=F ISym2X=0 I1Cent= 0 IOpClX= 0 NMat=1 NMatS=1 NMatT=0.
 ***** Axes restored to original set *****
 -------------------------------------------------------------------
 Center     Atomic                   Forces (Hartrees/Bohr)
 Number     Number              X              Y              Z
 -------------------------------------------------------------------
      1        7          -0.034746018    0.015609801    0.006889912
      2        1           0.004196810    0.002652616    0.015238203
      3        6           0.010625438   -0.060614282   -0.027801110
      4        1          -0.002860822    0.002662337    0.003205824
      5        6           0.003133212    0.006478774    0.003074014
      6        6          -0.030568773   -0.008644612   -0.011091993
      7        1           0.001030445   -0.001852906    0.000650088
      8        1          -0.000925417    0.000696460   -0.000015792
      9        1           0.000452922   -0.001189958   -0.000644488
     10        8           0.047999825    0.001774628    0.022744287
     11        1           0.012640455    0.015305900   -0.039099835
     12        8           0.010304268   -0.001797444   -0.005444985
     13        1          -0.021282346    0.028918687    0.032295874
 -------------------------------------------------------------------
 Cartesian Forces:  Max     0.060614282 RMS     0.019454786

 GradGradGradGradGradGradGradGradGradGradGradGradGradGradGradGradGradGrad
 Berny optimization.
 FormGI is forming the generalized inverse of G from B-inverse, IUseBI=4.
 Internal  Forces:  Max     0.066888411 RMS     0.021773949
 Search for a saddle point.
 Step number   2 out of a maximum of   60
 All quantities printed in internal units (Hartrees-Bohrs-Radians)
 Swapping is turned off.
 Update second derivatives using D2CorX and points    1    2
 ITU=  0  0
     Eigenvalues ---   -0.33210  -0.07359  -0.00169  -0.00024   0.00181
     Eigenvalues ---    0.00488   0.01256   0.02151   0.03426   0.05591
     Eigenvalues ---    0.06308   0.06447   0.07947   0.12836   0.14275
     Eigenvalues ---    0.14521   0.15735   0.17327   0.20251   0.21525
     Eigenvalues ---    0.24902   0.31958   0.32883   0.33778   0.34788
     Eigenvalues ---    0.35834   0.36942   0.40751   0.46239   0.46416
     Eigenvalues ---    0.49430   0.56109   0.89227
 Eigenvectors required to have negative eigenvalues:
                          R4        A14       D6        A4        D5
   1                    0.48837  -0.41455  -0.28607   0.27845  -0.27664
                          A15       D15       A19       D13       A18
   1                    0.25127  -0.18865   0.18830  -0.17836   0.16072
 RFO step:  Lambda0=2.653835231D-02 Lambda=-1.34647877D-01.
 Linear search not attempted -- option 19 set.
 Maximum step size (   0.300) exceeded in Quadratic search.
    -- Step size scaled by   0.413
 Iteration  1 RMS(Cart)=  0.07206133 RMS(Int)=  0.00729466
 Iteration  2 RMS(Cart)=  0.00514869 RMS(Int)=  0.00198015
 Iteration  3 RMS(Cart)=  0.00002774 RMS(Int)=  0.00198001
 Iteration  4 RMS(Cart)=  0.00000017 RMS(Int)=  0.00198001
 Variable       Old X    -DE/DX   Delta X   Delta X   Delta X     New X
                                 (Linear)    (Quad)   (Total)
    R1        1.90100   0.00205   0.00000   0.00413   0.00413   1.90513
    R2        2.74142   0.04233   0.00000   0.07873   0.07873   2.82015
    R3        1.91147   0.01265   0.00000   0.01293   0.00932   1.92079
    R4        2.52407   0.02562   0.00000  -0.19140  -0.19645   2.32762
    R5        2.82563  -0.00092   0.00000  -0.00825  -0.00825   2.81738
    R6        2.55377  -0.02487   0.00000  -0.00257  -0.00257   2.55119
    R7        1.85328  -0.00094   0.00000  -0.00195  -0.00195   1.85133
    R8        2.07803   0.00114   0.00000   0.00266   0.00266   2.08069
    R9        2.06028  -0.00011   0.00000   0.00102   0.00102   2.06129
   R10        2.08035   0.00075   0.00000   0.00173   0.00173   2.08208
   R11        2.58486  -0.02582   0.00000  -0.04449  -0.04449   2.54037
   R12        2.64961  -0.00451   0.00000  -0.00299  -0.00299   2.64661
   R13        2.55557   0.00752   0.00000   0.02382   0.03104   2.58661
    A1        2.07607  -0.02671   0.00000  -0.02722  -0.02763   2.04844
    A2        2.05453  -0.00007   0.00000   0.00301   0.00632   2.06085
    A3        1.99969   0.01328   0.00000  -0.00850  -0.01171   1.98797
    A4        1.15923   0.06193   0.00000   0.08122   0.08467   1.24390
    A5        2.05907   0.02072   0.00000   0.01445   0.01441   2.07348
    A6        2.02090  -0.04953   0.00000  -0.06181  -0.06186   1.95904
    A7        2.20238   0.02873   0.00000   0.04799   0.04796   2.25034
    A8        1.94812   0.00295   0.00000   0.01085   0.01082   1.95895
    A9        1.91877  -0.00276   0.00000  -0.00974  -0.00973   1.90905
   A10        1.93555   0.00147   0.00000   0.00677   0.00674   1.94229
   A11        1.88926  -0.00054   0.00000  -0.00247  -0.00244   1.88682
   A12        1.87095  -0.00098   0.00000  -0.00319  -0.00326   1.86770
   A13        1.89957  -0.00019   0.00000  -0.00247  -0.00246   1.89711
   A14        2.12507  -0.06689   0.00000  -0.01570  -0.01574   2.10933
   A15        2.11124   0.02651   0.00000  -0.01052  -0.01057   2.10067
   A16        2.04403   0.03914   0.00000   0.02497   0.02491   2.06894
   A17        1.91949  -0.00077   0.00000  -0.00792  -0.00792   1.91157
   A18        3.23530   0.03522   0.00000   0.05400   0.05704   3.29233
   A19        2.83581  -0.01095   0.00000  -0.15897  -0.15613   2.67968
    D1        0.25227  -0.00663   0.00000  -0.07345  -0.07372   0.17855
    D2       -2.93051  -0.00780   0.00000  -0.05683  -0.05762  -2.98813
    D3        2.81557  -0.02903   0.00000  -0.12774  -0.12358   2.69199
    D4       -0.36721  -0.03020   0.00000  -0.11112  -0.10748  -0.47469
    D5       -2.58354   0.00431   0.00000   0.08552   0.08241  -2.50113
    D6        0.51686   0.00314   0.00000   0.10214   0.09851   0.61537
    D7        1.02245  -0.00095   0.00000   0.02114   0.02144   1.04389
    D8        3.11919  -0.00156   0.00000   0.01856   0.01882   3.13802
    D9       -1.06247  -0.00266   0.00000   0.01345   0.01369  -1.04878
   D10       -2.07319   0.00242   0.00000   0.00558   0.00534  -2.06785
   D11        0.02355   0.00181   0.00000   0.00300   0.00273   0.02628
   D12        2.12508   0.00071   0.00000  -0.00211  -0.00241   2.12267
   D13        0.06088  -0.02127   0.00000  -0.03060  -0.03045   0.03042
   D14       -2.99743  -0.00498   0.00000  -0.01348  -0.01347  -3.01090
   D15       -3.12579  -0.02300   0.00000  -0.01364  -0.01365  -3.13943
   D16        0.09909  -0.00671   0.00000   0.00348   0.00333   0.10243
   D17       -2.20457  -0.01454   0.00000  -0.16725  -0.16739  -2.37196
   D18        1.01657   0.00592   0.00000  -0.14911  -0.14897   0.86761
         Item               Value     Threshold  Converged?
 Maximum Force            0.066888     0.000450     NO 
 RMS     Force            0.021774     0.000300     NO 
 Maximum Displacement     0.201621     0.001800     NO 
 RMS     Displacement     0.071447     0.001200     NO 
 Predicted change in Energy=-3.243598D-02
 GradGradGradGradGradGradGradGradGradGradGradGradGradGradGradGradGradGrad

                          Input orientation:                          
 ---------------------------------------------------------------------
 Center     Atomic      Atomic             Coordinates (Angstroms)
 Number     Number       Type             X           Y           Z
 ---------------------------------------------------------------------
      1          7           0        1.201925    1.343039    0.064521
      2          1           0        2.198801    1.462453   -0.026858
      3          6           0        0.667065   -0.047666   -0.019162
      4          1           0       -2.079639   -1.308935   -0.674028
      5          6           0        1.626443   -1.188685    0.001686
      6          6           0       -0.681554   -0.074058   -0.075001
      7          1           0        2.229281   -1.209490    0.922811
      8          1           0        1.074242   -2.127123   -0.063339
      9          1           0        2.331103   -1.134239   -0.843556
     10          8           0       -1.393507    1.066163   -0.088190
     11          1           0        0.595827    2.043293   -0.354329
     12          8           0       -1.369463   -1.291655    0.000604
     13          1           0        0.144528    1.287417    0.693776
 ---------------------------------------------------------------------
                    Distance matrix (angstroms):
                    1          2          3          4          5
     1  N    0.000000
     2  H    1.008152   0.000000
     3  C    1.492361   2.150984   0.000000
     4  H    4.283350   5.138528   3.092577   0.000000
     5  C    2.567838   2.712368   1.490894   3.769097   0.000000
     6  C    2.361170   3.264908   1.350032   1.959183   2.564200
     7  H    2.882279   2.835857   2.162792   4.596366   1.101053
     8  H    3.474864   3.761784   2.119407   3.315017   1.090789
     9  H    2.869940   2.725309   2.151578   4.417455   1.101791
    10  O    2.614622   3.614621   2.343360   2.540684   3.769949
    11  H    1.016437   1.736127   2.118849   4.300902   3.410952
    12  O    3.682083   4.507590   2.386492   0.979682   2.997675
    13  H    1.231725   2.184030   1.601179   3.682235   2.967514
                    6          7          8          9         10
     6  C    0.000000
     7  H    3.279908   0.000000
     8  H    2.701486   1.774445   0.000000
     9  H    3.284930   1.770899   1.781645   0.000000
    10  O    1.344305   4.396057   4.035774   4.391477   0.000000
    11  H    2.488554   3.857442   4.207841   3.653387   2.232278
    12  O    1.400528   3.715935   2.583367   3.798892   2.359612
    13  H    1.768345   3.260858   3.618932   3.606788   1.739533
                   11         12         13
    11  H    0.000000
    12  O    3.887187   0.000000
    13  H    1.368774   3.069897   0.000000
 Stoichiometry    C3H7NO2
 Framework group  C1[X(C3H7NO2)]
 Deg. of freedom    33
 Full point group                 C1      NOp   1
 Largest Abelian subgroup         C1      NOp   1
 Largest concise Abelian subgroup C1      NOp   1
                         Standard orientation:                         
 ---------------------------------------------------------------------
 Center     Atomic      Atomic             Coordinates (Angstroms)
 Number     Number       Type             X           Y           Z
 ---------------------------------------------------------------------
      1          7           0        1.262466   -1.269285   -0.026691
      2          1           0        2.261490   -1.304280    0.104061
      3          6           0        0.611299    0.072765    0.018322
      4          1           0       -2.253933    1.107157    0.551716
      5          6           0        1.472862    1.289512    0.018946
      6          6           0       -0.736013   -0.012787    0.022526
      7          1           0        2.107325    1.351336   -0.878802
      8          1           0        0.842648    2.179260    0.050602
      9          1           0        2.146144    1.302392    0.890995
     10          8           0       -1.350958   -1.208193    0.023640
     11          1           0        0.700652   -2.013421    0.377994
     12          8           0       -1.519028    1.142425   -0.095159
     13          1           0        0.229417   -1.308245   -0.696346
 ---------------------------------------------------------------------
 Rotational constants (GHZ):      4.7417629      3.4055901      2.0249196
 Standard basis: 6-31G (6D, 7F)
 There are    68 symmetry adapted cartesian basis functions of A   symmetry.
 There are    68 symmetry adapted basis functions of A   symmetry.
    68 basis functions,   160 primitive gaussians,    68 cartesian basis functions
    24 alpha electrons       24 beta electrons
       nuclear repulsion energy       247.2032384976 Hartrees.
 NAtoms=   13 NActive=   13 NUniq=   13 SFac= 1.00D+00 NAtFMM=   60 NAOKFM=F Big=F
 Integral buffers will be    131072 words long.
 Raffenetti 2 integral format.
 Two-electron integral symmetry is turned on.
 One-electron integrals computed using PRISM.
 NBasis=    68 RedAO= T EigKep=  2.86D-03  NBF=    68
 NBsUse=    68 1.00D-06 EigRej= -1.00D+00 NBFU=    68
 Initial guess from the checkpoint file:  "Ala-S-opt-freq-p2-6-31g.chk"
 B after Tr=     0.000000    0.000000    0.000000
         Rot=    0.999999   -0.000179    0.001286   -0.001072 Ang=  -0.19 deg.
 ExpMin= 1.61D-01 ExpMax= 5.48D+03 ExpMxC= 8.25D+02 IAcc=1 IRadAn=         1 AccDes= 0.00D+00
 Harris functional with IExCor=  402 and IRadAn=       1 diagonalized for initial guess.
 HarFok:  IExCor=  402 AccDes= 0.00D+00 IRadAn=         1 IDoV= 1 UseB2=F ITyADJ=14
 ICtDFT=  3500011 ScaDFX=  1.000000  1.000000  1.000000  1.000000
 FoFCou: FMM=F IPFlag=           0 FMFlag=      100000 FMFlg1=           0
         NFxFlg=           0 DoJE=T BraDBF=F KetDBF=T FulRan=T
         wScrn=  0.000000 ICntrl=     500 IOpCl=  0 I1Cent=   200000004 NGrid=           0
         NMat0=    1 NMatS0=      1 NMatT0=    0 NMatD0=    1 NMtDS0=    0 NMtDT0=    0
 Petite list used in FoFCou.
 Keep R1 ints in memory in canonical form, NReq=3676491.
 Requested convergence on RMS density matrix=1.00D-08 within 128 cycles.
 Requested convergence on MAX density matrix=1.00D-06.
 Requested convergence on             energy=1.00D-06.
 No special actions if energy rises.
 Integral accuracy reduced to 1.0D-05 until final iterations.
 Initial convergence to 1.0D-05 achieved.  Increase integral accuracy.
 SCF Done:  E(RB3LYP) =  -323.479459173     A.U. after   15 cycles
            NFock= 15  Conv=0.38D-08     -V/T= 2.0054
 Calling FoFJK, ICntrl=      2127 FMM=F ISym2X=0 I1Cent= 0 IOpClX= 0 NMat=1 NMatS=1 NMatT=0.
 ***** Axes restored to original set *****
 -------------------------------------------------------------------
 Center     Atomic                   Forces (Hartrees/Bohr)
 Number     Number              X              Y              Z
 -------------------------------------------------------------------
      1        7          -0.065731588   -0.002018388    0.015844150
      2        1           0.002281836    0.004720654    0.020757937
      3        6           0.017212243   -0.048799510   -0.031174137
      4        1          -0.002782628    0.002459639    0.003964258
      5        6           0.004226270    0.007895699   -0.000121071
      6        6          -0.026211610   -0.002419898   -0.004468465
      7        1           0.000551238   -0.002026652    0.000681879
      8        1          -0.000869574    0.000303139   -0.000056629
      9        1           0.000608785   -0.002582722   -0.000502238
     10        8           0.031395362   -0.000393305    0.016295136
     11        1           0.014246380    0.008473487   -0.044943231
     12        8           0.008303727   -0.002320934   -0.006855055
     13        1           0.016769560    0.036708792    0.030577465
 -------------------------------------------------------------------
 Cartesian Forces:  Max     0.065731588 RMS     0.020096121

 GradGradGradGradGradGradGradGradGradGradGradGradGradGradGradGradGradGrad
 Berny optimization.
 FormGI is forming the generalized inverse of G from B-inverse, IUseBI=4.
 Internal  Forces:  Max     0.068133324 RMS     0.018666806
 Search for a saddle point.
 Step number   3 out of a maximum of   60
 All quantities printed in internal units (Hartrees-Bohrs-Radians)
 Swapping is turned off.
 Update second derivatives using D2CorX and points    2    3
 ITU=  0  0  0
     Eigenvalues ---   -0.33736  -0.05762  -0.00574  -0.00143   0.00185
     Eigenvalues ---    0.00500   0.01310   0.02112   0.03671   0.05785
     Eigenvalues ---    0.06305   0.06500   0.07851   0.12834   0.14275
     Eigenvalues ---    0.14520   0.15745   0.17314   0.20028   0.21574
     Eigenvalues ---    0.24877   0.31993   0.32884   0.33749   0.34957
     Eigenvalues ---    0.35839   0.36994   0.41010   0.45709   0.46239
     Eigenvalues ---    0.49436   0.56098   0.89825
 Eigenvectors required to have negative eigenvalues:
                          R4        A14       D6        D5        A4
   1                   -0.49859   0.41427   0.28945   0.27816  -0.26022
                          A15       A19       D15       D13       A3
   1                   -0.25008  -0.19727   0.18905   0.17632  -0.15703
 RFO step:  Lambda0=8.128494825D-03 Lambda=-1.38655708D-01.
 Linear search not attempted -- option 19 set.
 Maximum step size (   0.300) exceeded in Quadratic search.
    -- Step size scaled by   0.357
 Iteration  1 RMS(Cart)=  0.07717121 RMS(Int)=  0.00907337
 Iteration  2 RMS(Cart)=  0.00620846 RMS(Int)=  0.00275477
 Iteration  3 RMS(Cart)=  0.00005147 RMS(Int)=  0.00275445
 Iteration  4 RMS(Cart)=  0.00000052 RMS(Int)=  0.00275445
 Variable       Old X    -DE/DX   Delta X   Delta X   Delta X     New X
                                 (Linear)    (Quad)   (Total)
    R1        1.90513   0.00093   0.00000   0.00251   0.00251   1.90764
    R2        2.82015   0.03425   0.00000   0.05376   0.05376   2.87391
    R3        1.92079   0.01207   0.00000   0.01531   0.00948   1.93027
    R4        2.32762  -0.00575   0.00000  -0.17123  -0.17809   2.14953
    R5        2.81738   0.00016   0.00000  -0.00325  -0.00325   2.81413
    R6        2.55119  -0.01101   0.00000  -0.00530  -0.00530   2.54589
    R7        1.85133  -0.00076   0.00000  -0.00145  -0.00145   1.84988
    R8        2.08069   0.00091   0.00000   0.00203   0.00203   2.08272
    R9        2.06129   0.00018   0.00000   0.00166   0.00166   2.06296
   R10        2.08208   0.00065   0.00000   0.00140   0.00140   2.08348
   R11        2.54037  -0.01712   0.00000  -0.02198  -0.02198   2.51839
   R12        2.64661  -0.00298   0.00000  -0.00317  -0.00317   2.64345
   R13        2.58661   0.00761   0.00000  -0.01283  -0.00277   2.58384
    A1        2.04844  -0.02671   0.00000  -0.03082  -0.03227   2.01617
    A2        2.06085   0.00244   0.00000   0.00497   0.00650   2.06735
    A3        1.98797   0.00428   0.00000  -0.04060  -0.04378   1.94420
    A4        1.24390   0.06813   0.00000   0.14688   0.15089   1.39479
    A5        2.07348   0.01276   0.00000   0.02156   0.02152   2.09501
    A6        1.95904  -0.03331   0.00000  -0.06363  -0.06367   1.89537
    A7        2.25034   0.02052   0.00000   0.04243   0.04240   2.29274
    A8        1.95895   0.00245   0.00000   0.00679   0.00674   1.96569
    A9        1.90905  -0.00289   0.00000  -0.00907  -0.00904   1.90000
   A10        1.94229   0.00348   0.00000   0.01491   0.01487   1.95716
   A11        1.88682  -0.00078   0.00000  -0.00328  -0.00327   1.88354
   A12        1.86770  -0.00126   0.00000  -0.00328  -0.00338   1.86431
   A13        1.89711  -0.00116   0.00000  -0.00677  -0.00673   1.89038
   A14        2.10933  -0.04303   0.00000  -0.02474  -0.02474   2.08459
   A15        2.10067   0.01639   0.00000   0.00616   0.00616   2.10684
   A16        2.06894   0.02559   0.00000   0.01828   0.01827   2.08722
   A17        1.91157  -0.00059   0.00000  -0.00680  -0.00680   1.90477
   A18        3.29233   0.04142   0.00000   0.11606   0.11862   3.41095
   A19        2.67968  -0.01941   0.00000  -0.10254  -0.09876   2.58092
    D1        0.17855  -0.00643   0.00000  -0.04940  -0.05059   0.12797
    D2       -2.98813  -0.00720   0.00000  -0.03497  -0.03661  -3.02474
    D3        2.69199  -0.03472   0.00000  -0.14596  -0.13913   2.55286
    D4       -0.47469  -0.03549   0.00000  -0.13153  -0.12515  -0.59985
    D5       -2.50113   0.01298   0.00000   0.05314   0.04817  -2.45296
    D6        0.61537   0.01221   0.00000   0.06757   0.06215   0.67752
    D7        1.04389   0.00031   0.00000   0.02147   0.02174   1.06563
    D8        3.13802  -0.00105   0.00000   0.01558   0.01582  -3.12935
    D9       -1.04878  -0.00218   0.00000   0.01065   0.01082  -1.03796
   D10       -2.06785   0.00212   0.00000   0.00610   0.00591  -2.06193
   D11        0.02628   0.00077   0.00000   0.00021   0.00000   0.02627
   D12        2.12267  -0.00037   0.00000  -0.00472  -0.00500   2.11767
   D13        0.03042  -0.01560   0.00000  -0.01980  -0.01970   0.01072
   D14       -3.01090  -0.00467   0.00000  -0.01729  -0.01722  -3.02812
   D15       -3.13943  -0.01673   0.00000  -0.00418  -0.00425   3.13950
   D16        0.10243  -0.00581   0.00000  -0.00167  -0.00177   0.10066
   D17       -2.37196  -0.01197   0.00000  -0.14065  -0.14067  -2.51263
   D18        0.86761   0.00260   0.00000  -0.13577  -0.13575   0.73186
         Item               Value     Threshold  Converged?
 Maximum Force            0.068133     0.000450     NO 
 RMS     Force            0.018667     0.000300     NO 
 Maximum Displacement     0.214553     0.001800     NO 
 RMS     Displacement     0.075929     0.001200     NO 
 Predicted change in Energy=-4.322404D-02
 GradGradGradGradGradGradGradGradGradGradGradGradGradGradGradGradGradGrad

                          Input orientation:                          
 ---------------------------------------------------------------------
 Center     Atomic      Atomic             Coordinates (Angstroms)
 Number     Number       Type             X           Y           Z
 ---------------------------------------------------------------------
      1          7           0        1.141755    1.350047    0.082225
      2          1           0        2.141317    1.483394    0.035891
      3          6           0        0.668014   -0.091900   -0.013799
      4          1           0       -2.165609   -1.234787   -0.639308
      5          6           0        1.658099   -1.204193   -0.000781
      6          6           0       -0.677246   -0.098234   -0.086286
      7          1           0        2.249380   -1.234660    0.928812
      8          1           0        1.124801   -2.152465   -0.090863
      9          1           0        2.376748   -1.130474   -0.833660
     10          8           0       -1.339099    1.058442   -0.077638
     11          1           0        0.541764    1.976107   -0.457617
     12          8           0       -1.389191   -1.301716   -0.046881
     13          1           0        0.214320    1.400953    0.738841
 ---------------------------------------------------------------------
                    Distance matrix (angstroms):
                    1          2          3          4          5
     1  N    0.000000
     2  H    1.009481   0.000000
     3  C    1.520810   2.157462   0.000000
     4  H    4.259182   5.137510   3.118793   0.000000
     5  C    2.607229   2.730928   1.489172   3.876777   0.000000
     6  C    2.331240   3.234312   1.347226   1.952642   2.585400
     7  H    2.936708   2.863006   2.166826   4.685203   1.102127
     8  H    3.506827   3.777412   2.111994   3.459729   1.091669
     9  H    2.918397   2.764752   2.161153   4.547709   1.102533
    10  O    2.503044   3.508101   2.314274   2.501497   3.756144
    11  H    1.021455   1.744960   2.118860   4.203894   3.401354
    12  O    3.667997   4.497574   2.386805   0.978915   3.049199
    13  H    1.137484   2.052865   1.732315   3.809263   3.068929
                    6          7          8          9         10
     6  C    0.000000
     7  H    3.299550   0.000000
     8  H    2.732629   1.773917   0.000000
     9  H    3.309225   1.770137   1.778646   0.000000
    10  O    1.332674   4.375893   4.047332   4.378406   0.000000
    11  H    2.434494   3.891936   4.185636   3.627592   2.127003
    12  O    1.398853   3.767714   2.654404   3.851057   2.360890
    13  H    1.929582   3.335269   3.760873   3.681980   1.788033
                   11         12         13
    11  H    0.000000
    12  O    3.826411   0.000000
    13  H    1.367309   3.239294   0.000000
 Stoichiometry    C3H7NO2
 Framework group  C1[X(C3H7NO2)]
 Deg. of freedom    33
 Full point group                 C1      NOp   1
 Largest Abelian subgroup         C1      NOp   1
 Largest concise Abelian subgroup C1      NOp   1
                         Standard orientation:                         
 ---------------------------------------------------------------------
 Center     Atomic      Atomic             Coordinates (Angstroms)
 Number     Number       Type             X           Y           Z
 ---------------------------------------------------------------------
      1          7           0        1.184984   -1.309777   -0.023338
      2          1           0        2.187921   -1.372301    0.072888
      3          6           0        0.609809    0.097603    0.012989
      4          1           0       -2.322084    1.054899    0.476082
      5          6           0        1.521106    1.275379    0.017086
      6          6           0       -0.734670    0.012152    0.022645
      7          1           0        2.153034    1.325667   -0.884480
      8          1           0        0.920580    2.186133    0.057558
      9          1           0        2.202138    1.270718    0.884122
     10          8           0       -1.314807   -1.187588    0.013333
     11          1           0        0.603827   -1.963541    0.504129
     12          8           0       -1.524404    1.162081   -0.081137
     13          1           0        0.295911   -1.439894   -0.720826
 ---------------------------------------------------------------------
 Rotational constants (GHZ):      4.6917267      3.4463523      2.0301743
 Standard basis: 6-31G (6D, 7F)
 There are    68 symmetry adapted cartesian basis functions of A   symmetry.
 There are    68 symmetry adapted basis functions of A   symmetry.
    68 basis functions,   160 primitive gaussians,    68 cartesian basis functions
    24 alpha electrons       24 beta electrons
       nuclear repulsion energy       247.3879886498 Hartrees.
 NAtoms=   13 NActive=   13 NUniq=   13 SFac= 1.00D+00 NAtFMM=   60 NAOKFM=F Big=F
 Integral buffers will be    131072 words long.
 Raffenetti 2 integral format.
 Two-electron integral symmetry is turned on.
 One-electron integrals computed using PRISM.
 NBasis=    68 RedAO= T EigKep=  2.69D-03  NBF=    68
 NBsUse=    68 1.00D-06 EigRej= -1.00D+00 NBFU=    68
 Initial guess from the checkpoint file:  "Ala-S-opt-freq-p2-6-31g.chk"
 B after Tr=     0.000000    0.000000    0.000000
         Rot=    0.999969    0.001230    0.001050    0.007687 Ang=   0.90 deg.
 ExpMin= 1.61D-01 ExpMax= 5.48D+03 ExpMxC= 8.25D+02 IAcc=1 IRadAn=         1 AccDes= 0.00D+00
 Harris functional with IExCor=  402 and IRadAn=       1 diagonalized for initial guess.
 HarFok:  IExCor=  402 AccDes= 0.00D+00 IRadAn=         1 IDoV= 1 UseB2=F ITyADJ=14
 ICtDFT=  3500011 ScaDFX=  1.000000  1.000000  1.000000  1.000000
 FoFCou: FMM=F IPFlag=           0 FMFlag=      100000 FMFlg1=           0
         NFxFlg=           0 DoJE=T BraDBF=F KetDBF=T FulRan=T
         wScrn=  0.000000 ICntrl=     500 IOpCl=  0 I1Cent=   200000004 NGrid=           0
         NMat0=    1 NMatS0=      1 NMatT0=    0 NMatD0=    1 NMtDS0=    0 NMtDT0=    0
 Petite list used in FoFCou.
 Keep R1 ints in memory in canonical form, NReq=3676491.
 Requested convergence on RMS density matrix=1.00D-08 within 128 cycles.
 Requested convergence on MAX density matrix=1.00D-06.
 Requested convergence on             energy=1.00D-06.
 No special actions if energy rises.
 Integral accuracy reduced to 1.0D-05 until final iterations.
 Initial convergence to 1.0D-05 achieved.  Increase integral accuracy.
 SCF Done:  E(RB3LYP) =  -323.517649073     A.U. after   13 cycles
            NFock= 13  Conv=0.69D-08     -V/T= 2.0055
 Calling FoFJK, ICntrl=      2127 FMM=F ISym2X=0 I1Cent= 0 IOpClX= 0 NMat=1 NMatS=1 NMatT=0.
 ***** Axes restored to original set *****
 -------------------------------------------------------------------
 Center     Atomic                   Forces (Hartrees/Bohr)
 Number     Number              X              Y              Z
 -------------------------------------------------------------------
      1        7          -0.069267009   -0.019940537    0.013727608
      2        1           0.000851586    0.008107373    0.020872607
      3        6           0.025144743   -0.029853985   -0.026160911
      4        1          -0.002365082    0.002179768    0.004229312
      5        6           0.004442253    0.007978739   -0.000943991
      6        6          -0.025861274    0.004557275    0.000760023
      7        1           0.000104912   -0.002084768    0.000470089
      8        1          -0.000749010    0.000048607   -0.000016334
      9        1           0.000141161   -0.002644664   -0.000465838
     10        8           0.015920106   -0.003820595    0.009385744
     11        1           0.015185875    0.004060794   -0.043838637
     12        8           0.006934108   -0.001763135   -0.006934087
     13        1           0.029517631    0.033175126    0.028914414
 -------------------------------------------------------------------
 Cartesian Forces:  Max     0.069267009 RMS     0.019176191

 GradGradGradGradGradGradGradGradGradGradGradGradGradGradGradGradGradGrad
 Berny optimization.
 FormGI is forming the generalized inverse of G from B-inverse, IUseBI=4.
 Internal  Forces:  Max     0.059637226 RMS     0.014548592
 Search for a saddle point.
 Step number   4 out of a maximum of   60
 All quantities printed in internal units (Hartrees-Bohrs-Radians)
 Swapping is turned off.
 Update second derivatives using D2CorX and points    3    4
 ITU=  0  0  0  0
     Eigenvalues ---   -0.33842  -0.01345  -0.00332   0.00127   0.00188
     Eigenvalues ---    0.00494   0.01513   0.03322   0.03573   0.06272
     Eigenvalues ---    0.06304   0.07519   0.07932   0.12832   0.14272
     Eigenvalues ---    0.14516   0.15754   0.17335   0.20179   0.21588
     Eigenvalues ---    0.24924   0.31984   0.32885   0.33737   0.35069
     Eigenvalues ---    0.35847   0.37039   0.41828   0.44845   0.46241
     Eigenvalues ---    0.49435   0.56399   0.90246
 Eigenvectors required to have negative eigenvalues:
                          R4        A14       D6        D5        A15
   1                   -0.54082   0.40105   0.29297   0.27959  -0.24323
                          A4        A19       D15       A3        D13
   1                   -0.21798  -0.21158   0.18275  -0.17226   0.16736
 RFO step:  Lambda0=4.511291959D-04 Lambda=-8.45999742D-02.
 Linear search not attempted -- option 19 set.
 Maximum step size (   0.300) exceeded in Quadratic search.
    -- Step size scaled by   0.398
 Iteration  1 RMS(Cart)=  0.07628864 RMS(Int)=  0.00960458
 Iteration  2 RMS(Cart)=  0.00715350 RMS(Int)=  0.00169623
 Iteration  3 RMS(Cart)=  0.00005466 RMS(Int)=  0.00169516
 Iteration  4 RMS(Cart)=  0.00000012 RMS(Int)=  0.00169516
 Variable       Old X    -DE/DX   Delta X   Delta X   Delta X     New X
                                 (Linear)    (Quad)   (Total)
    R1        1.90764   0.00096   0.00000   0.00312   0.00312   1.91077
    R2        2.87391   0.01794   0.00000   0.02039   0.02039   2.89431
    R3        1.93027   0.00845   0.00000  -0.00011  -0.00417   1.92610
    R4        2.14953  -0.01564   0.00000  -0.12198  -0.12629   2.02325
    R5        2.81413   0.00015   0.00000  -0.00210  -0.00210   2.81203
    R6        2.54589   0.00496   0.00000   0.00436   0.00436   2.55025
    R7        1.84988  -0.00054   0.00000  -0.00059  -0.00059   1.84929
    R8        2.08272   0.00051   0.00000   0.00146   0.00146   2.08418
    R9        2.06296   0.00032   0.00000   0.00148   0.00148   2.06443
   R10        2.08348   0.00027   0.00000   0.00042   0.00042   2.08390
   R11        2.51839  -0.01116   0.00000  -0.01976  -0.01976   2.49863
   R12        2.64345  -0.00276   0.00000  -0.00189  -0.00189   2.64156
   R13        2.58384   0.01431   0.00000   0.07913   0.08532   2.66916
    A1        2.01617  -0.01946   0.00000  -0.02810  -0.02908   1.98708
    A2        2.06735   0.00278   0.00000   0.02133   0.02126   2.08861
    A3        1.94420  -0.00469   0.00000  -0.05326  -0.05379   1.89041
    A4        1.39479   0.05964   0.00000   0.15106   0.15298   1.54777
    A5        2.09501   0.00531   0.00000   0.01399   0.01395   2.10895
    A6        1.89537  -0.01726   0.00000  -0.03971  -0.03975   1.85562
    A7        2.29274   0.01195   0.00000   0.02554   0.02549   2.31824
    A8        1.96569   0.00225   0.00000   0.00060   0.00056   1.96625
    A9        1.90000  -0.00257   0.00000  -0.00644  -0.00644   1.89356
   A10        1.95716   0.00325   0.00000   0.01709   0.01707   1.97423
   A11        1.88354  -0.00093   0.00000  -0.00509  -0.00511   1.87843
   A12        1.86431  -0.00094   0.00000  -0.00254  -0.00260   1.86172
   A13        1.89038  -0.00127   0.00000  -0.00448  -0.00447   1.88591
   A14        2.08459  -0.01901   0.00000  -0.03170  -0.03178   2.05281
   A15        2.10684   0.00575   0.00000   0.01356   0.01347   2.12031
   A16        2.08722   0.01263   0.00000   0.01591   0.01580   2.10302
   A17        1.90477  -0.00074   0.00000   0.01803   0.01803   1.92280
   A18        3.41095   0.04018   0.00000   0.12296   0.12390   3.53485
   A19        2.58092  -0.01993   0.00000  -0.14050  -0.13838   2.44255
    D1        0.12797  -0.00614   0.00000  -0.07758  -0.07882   0.04915
    D2       -3.02474  -0.00683   0.00000  -0.09263  -0.09356  -3.11830
    D3        2.55286  -0.02950   0.00000  -0.13843  -0.13429   2.41856
    D4       -0.59985  -0.03019   0.00000  -0.15348  -0.14903  -0.74888
    D5       -2.45296   0.01378   0.00000   0.06292   0.05956  -2.39340
    D6        0.67752   0.01310   0.00000   0.04787   0.04482   0.72234
    D7        1.06563   0.00077   0.00000  -0.02212  -0.02226   1.04337
    D8       -3.12935  -0.00072   0.00000  -0.03246  -0.03259   3.12124
    D9       -1.03796  -0.00197   0.00000  -0.03163  -0.03180  -1.06976
   D10       -2.06193   0.00186   0.00000  -0.00262  -0.00246  -2.06439
   D11        0.02627   0.00038   0.00000  -0.01296  -0.01280   0.01348
   D12        2.11767  -0.00088   0.00000  -0.01212  -0.01200   2.10567
   D13        0.01072  -0.00986   0.00000  -0.04746  -0.04740  -0.03667
   D14       -3.02812  -0.00349   0.00000  -0.02322  -0.02338  -3.05150
   D15        3.13950  -0.01074   0.00000  -0.06501  -0.06485   3.07465
   D16        0.10066  -0.00438   0.00000  -0.04077  -0.04083   0.05982
   D17       -2.51263  -0.00872   0.00000   0.20055   0.20034  -2.31229
   D18        0.73186  -0.00049   0.00000   0.22761   0.22781   0.95968
         Item               Value     Threshold  Converged?
 Maximum Force            0.059637     0.000450     NO 
 RMS     Force            0.014549     0.000300     NO 
 Maximum Displacement     0.228877     0.001800     NO 
 RMS     Displacement     0.077125     0.001200     NO 
 Predicted change in Energy=-3.356666D-02
 GradGradGradGradGradGradGradGradGradGradGradGradGradGradGradGradGradGrad

                          Input orientation:                          
 ---------------------------------------------------------------------
 Center     Atomic      Atomic             Coordinates (Angstroms)
 Number     Number       Type             X           Y           Z
 ---------------------------------------------------------------------
      1          7           0        1.093071    1.354696    0.083068
      2          1           0        2.096083    1.481167    0.102218
      3          6           0        0.655242   -0.109765   -0.014203
      4          1           0       -2.115324   -1.267880   -0.744278
      5          6           0        1.659366   -1.207964   -0.009406
      6          6           0       -0.693518   -0.100152   -0.058849
      7          1           0        2.271773   -1.219707    0.907768
      8          1           0        1.129890   -2.161860   -0.065873
      9          1           0        2.361658   -1.156138   -0.858029
     10          8           0       -1.301392    1.070694    0.029876
     11          1           0        0.527888    1.901655   -0.565214
     12          8           0       -1.432972   -1.286303   -0.043048
     13          1           0        0.293287    1.522070    0.774904
 ---------------------------------------------------------------------
                    Distance matrix (angstroms):
                    1          2          3          4          5
     1  N    0.000000
     2  H    1.011135   0.000000
     3  C    1.531601   2.149567   0.000000
     4  H    4.225660   5.099976   3.090352   0.000000
     5  C    2.626113   2.726648   1.488062   3.846025   0.000000
     6  C    2.308382   3.210668   1.349534   1.963398   2.601107
     7  H    2.949071   2.823916   2.166835   4.688091   1.102900
     8  H    3.519901   3.772722   2.106907   3.433780   1.092451
     9  H    2.966355   2.819216   2.172279   4.479821   1.102752
    10  O    2.411834   3.422946   2.285573   2.594364   3.736297
    11  H    1.019248   1.755423   2.089412   4.130930   3.355428
    12  O    3.656730   4.487117   2.397022   0.978605   3.093512
    13  H    1.070657   1.924643   1.848401   3.986620   3.151888
                    6          7          8          9         10
     6  C    0.000000
     7  H    3.313715   0.000000
     8  H    2.752364   1.771871   0.000000
     9  H    3.329850   1.769226   1.776582   0.000000
    10  O    1.322219   4.334068   4.045949   4.377795   0.000000
    11  H    2.399056   3.867003   4.138104   3.577506   2.095446
    12  O    1.397853   3.825392   2.708391   3.883343   2.361793
    13  H    2.073773   3.383696   3.870161   3.757316   1.817088
                   11         12         13
    11  H    0.000000
    12  O    3.778982   0.000000
    13  H    1.412458   3.396465   0.000000
 Stoichiometry    C3H7NO2
 Framework group  C1[X(C3H7NO2)]
 Deg. of freedom    33
 Full point group                 C1      NOp   1
 Largest Abelian subgroup         C1      NOp   1
 Largest concise Abelian subgroup C1      NOp   1
                         Standard orientation:                         
 ---------------------------------------------------------------------
 Center     Atomic      Atomic             Coordinates (Angstroms)
 Number     Number       Type             X           Y           Z
 ---------------------------------------------------------------------
      1          7           0        1.144611   -1.315447    0.007142
      2          1           0        2.153944   -1.372587    0.026532
      3          6           0        0.605062    0.117907    0.020744
      4          1           0       -2.262053    1.112196    0.604969
      5          6           0        1.531745    1.281952   -0.003464
      6          6           0       -0.740658    0.016531    0.022038
      7          1           0        2.174204    1.294987   -0.899826
      8          1           0        0.936978    2.198286   -0.009406
      9          1           0        2.205275    1.317323    0.868986
     10          8           0       -1.263991   -1.196560   -0.030835
     11          1           0        0.595192   -1.870671    0.661917
     12          8           0       -1.557997    1.146467   -0.073853
     13          1           0        0.383195   -1.568993   -0.701566
 ---------------------------------------------------------------------
 Rotational constants (GHZ):      4.6592514      3.4774654      2.0392059
 Standard basis: 6-31G (6D, 7F)
 There are    68 symmetry adapted cartesian basis functions of A   symmetry.
 There are    68 symmetry adapted basis functions of A   symmetry.
    68 basis functions,   160 primitive gaussians,    68 cartesian basis functions
    24 alpha electrons       24 beta electrons
       nuclear repulsion energy       247.7403577503 Hartrees.
 NAtoms=   13 NActive=   13 NUniq=   13 SFac= 1.00D+00 NAtFMM=   60 NAOKFM=F Big=F
 Integral buffers will be    131072 words long.
 Raffenetti 2 integral format.
 Two-electron integral symmetry is turned on.
 One-electron integrals computed using PRISM.
 NBasis=    68 RedAO= T EigKep=  2.60D-03  NBF=    68
 NBsUse=    68 1.00D-06 EigRej= -1.00D+00 NBFU=    68
 Initial guess from the checkpoint file:  "Ala-S-opt-freq-p2-6-31g.chk"
 B after Tr=     0.000000    0.000000    0.000000
[...]
    A4        1.59620  -0.00002   0.00000   0.00024   0.00024   1.59644
    A5        2.14071  -0.00002   0.00000  -0.00026  -0.00026   2.14045
    A6        1.83778   0.00001   0.00000   0.00010   0.00010   1.83788
    A7        2.30469   0.00002   0.00000   0.00016   0.00016   2.30485
    A8        1.90099  -0.00001   0.00000  -0.00006  -0.00006   1.90093
    A9        1.97538   0.00001   0.00000   0.00010   0.00010   1.97548
   A10        1.97551   0.00000   0.00000  -0.00003  -0.00003   1.97548
   A11        1.87101   0.00000   0.00000  -0.00007  -0.00007   1.87094
   A12        1.87083   0.00001   0.00000   0.00011   0.00011   1.87094
   A13        1.86457  -0.00001   0.00000  -0.00005  -0.00005   1.86452
   A14        2.06669  -0.00003   0.00000   0.00003   0.00003   2.06672
   A15        2.13649   0.00002   0.00000  -0.00010  -0.00010   2.13639
   A16        2.08001   0.00002   0.00000   0.00007   0.00007   2.08008
   A17        1.89524   0.00000   0.00000  -0.00001  -0.00001   1.89523
   A18        3.60006   0.00000   0.00000   0.00035   0.00035   3.60042
   A19        2.02690   0.00003   0.00000   0.00059   0.00059   2.02749
    D1       -1.11453   0.00001   0.00000   0.00042   0.00042  -1.11410
    D2        2.02686   0.00001   0.00000   0.00063   0.00063   2.02749
    D3        1.11420   0.00000   0.00000  -0.00010  -0.00010   1.11410
    D4       -2.02760   0.00000   0.00000   0.00010   0.00010  -2.02750
    D5       -3.14143  -0.00001   0.00000  -0.00016  -0.00016   3.14159
    D6       -0.00004  -0.00001   0.00000   0.00004   0.00004   0.00000
    D7       -3.14063   0.00000   0.00000  -0.00096  -0.00096   3.14159
    D8       -1.06138   0.00000   0.00000  -0.00103  -0.00103  -1.06240
    D9        1.06344  -0.00001   0.00000  -0.00104  -0.00104   1.06240
   D10        0.00123   0.00000   0.00000  -0.00123  -0.00123   0.00000
   D11        2.08049   0.00000   0.00000  -0.00129  -0.00129   2.07920
   D12       -2.07789   0.00000   0.00000  -0.00130  -0.00130  -2.07919
   D13       -0.00007   0.00002   0.00000   0.00007   0.00007   0.00000
   D14       -3.14138   0.00000   0.00000  -0.00021  -0.00021  -3.14159
   D15        3.14129   0.00001   0.00000   0.00030   0.00030   3.14159
   D16       -0.00002   0.00000   0.00000   0.00002   0.00002   0.00000
   D17       -3.14039  -0.00001   0.00000  -0.00120  -0.00120  -3.14159
   D18        0.00148  -0.00002   0.00000  -0.00148  -0.00148   0.00000
         Item               Value     Threshold  Converged?
 Maximum Force            0.000102     0.000450     YES
 RMS     Force            0.000023     0.000300     YES
 Maximum Displacement     0.001483     0.001800     YES
 RMS     Displacement     0.000573     0.001200     YES
 Predicted change in Energy=-4.335893D-08
 Optimization completed.
    -- Stationary point found.
                           ----------------------------
                           !   Optimized Parameters   !
                           ! (Angstroms and Degrees)  !
 --------------------------                            --------------------------
 ! Name  Definition              Value          Derivative Info.                !
 --------------------------------------------------------------------------------
 ! R1    R(1,2)                  1.023          -DE/DX =    0.0                 !
 ! R2    R(1,3)                  1.4894         -DE/DX =    0.0                 !
 ! R3    R(1,11)                 1.0229         -DE/DX =    0.0                 !
 ! R4    R(1,13)                 1.2337         -DE/DX =    0.0                 !
 ! R5    R(3,5)                  1.4861         -DE/DX =    0.0                 !
 ! R6    R(3,6)                  1.3691         -DE/DX =    0.0                 !
 ! R7    R(4,12)                 0.978          -DE/DX =    0.0                 !
 ! R8    R(5,7)                  1.0945         -DE/DX =    0.0                 !
 ! R9    R(5,8)                  1.1028         -DE/DX =    0.0                 !
 ! R10   R(5,9)                  1.1028         -DE/DX =    0.0                 !
 ! R11   R(6,10)                 1.3326         -DE/DX =    0.0001              !
 ! R12   R(6,12)                 1.3749         -DE/DX =    0.0                 !
 ! R13   R(11,13)                1.8845         -DE/DX =    0.0                 !
 ! A1    A(2,1,3)              114.8129         -DE/DX =    0.0                 !
 ! A2    A(2,1,11)             109.1016         -DE/DX =    0.0                 !
 ! A3    A(3,1,11)             114.8538         -DE/DX =   -0.0001              !
 ! A4    A(3,1,13)              91.4555         -DE/DX =    0.0                 !
 ! A5    A(1,3,5)              122.6539         -DE/DX =    0.0                 !
 ! A6    A(1,3,6)              105.297          -DE/DX =    0.0                 !
 ! A7    A(5,3,6)              132.0491         -DE/DX =    0.0                 !
 ! A8    A(3,5,7)              108.9187         -DE/DX =    0.0                 !
 ! A9    A(3,5,8)              113.1811         -DE/DX =    0.0                 !
 ! A10   A(3,5,9)              113.1885         -DE/DX =    0.0                 !
 ! A11   A(7,5,8)              107.201          -DE/DX =    0.0                 !
 ! A12   A(7,5,9)              107.1909         -DE/DX =    0.0                 !
 ! A13   A(8,5,9)              106.8318         -DE/DX =    0.0                 !
 ! A14   A(3,6,10)             118.4125         -DE/DX =    0.0                 !
 ! A15   A(3,6,12)             122.4119         -DE/DX =    0.0                 !
 ! A16   A(10,6,12)            119.1756         -DE/DX =    0.0                 !
 ! A17   A(4,12,6)             108.5891         -DE/DX =    0.0                 !
 ! A18   L(2,1,13,3,-1)        206.2684         -DE/DX =    0.0                 !
 ! A19   L(2,1,13,3,-2)        116.133          -DE/DX =    0.0                 !
 ! D1    D(2,1,3,5)            -63.8577         -DE/DX =    0.0                 !
 ! D2    D(2,1,3,6)            116.1305         -DE/DX =    0.0                 !
 ! D3    D(11,1,3,5)            63.8391         -DE/DX =    0.0                 !
 ! D4    D(11,1,3,6)          -116.1727         -DE/DX =    0.0                 !
 ! D5    D(13,1,3,5)           180.0093         -DE/DX =    0.0                 !
 ! D6    D(13,1,3,6)            -0.0025         -DE/DX =    0.0                 !
 ! D7    D(1,3,5,7)            180.0551         -DE/DX =    0.0                 !
 ! D8    D(1,3,5,8)            -60.8123         -DE/DX =    0.0                 !
 ! D9    D(1,3,5,9)             60.9305         -DE/DX =    0.0                 !
 ! D10   D(6,3,5,7)              0.0704         -DE/DX =    0.0                 !
 ! D11   D(6,3,5,8)            119.203          -DE/DX =    0.0                 !
 ! D12   D(6,3,5,9)           -119.0542         -DE/DX =    0.0                 !
 ! D13   D(1,3,6,10)            -0.0038         -DE/DX =    0.0                 !
 ! D14   D(1,3,6,12)          -179.988          -DE/DX =    0.0                 !
 ! D15   D(5,3,6,10)           179.9827         -DE/DX =    0.0                 !
 ! D16   D(5,3,6,12)            -0.0014         -DE/DX =    0.0                 !
 ! D17   D(3,6,12,4)          -179.9311         -DE/DX =    0.0                 !
 ! D18   D(10,6,12,4)            0.0849         -DE/DX =    0.0                 !
 --------------------------------------------------------------------------------
 GradGradGradGradGradGradGradGradGradGradGradGradGradGradGradGradGradGrad


 Test job not archived.
 1\1\GINC-KALI\Freq\RB3LYP\6-31G\C3H7N1O2\ROOT\10-Apr-2016\0\\#N Geom=A
 llCheck Guess=TCheck SCRF=Check Test GenChk RB3LYP/6-31G Freq\\Ala-S-o
 pt-freq-p2-6-31g\\0,1\N,1.0150863744,1.3212437708,-0.2397229196\H,1.64
 15478794,1.7077442277,0.4706685719\C,0.6838792226,-0.1201426014,-0.063
 5103101\H,-2.2912433182,-1.1221032252,0.5206847466\C,1.7077728593,-1.1
 940850282,-0.1461218624\C,-0.6652089235,-0.1552088647,0.16680203\H,1.2
 215054442,-2.1611695067,0.0155434625\H,2.2092772331,-1.2411761784,-1.1
 271108256\H,2.5010674103,-1.0970851996,0.6137296925\O,-1.3356870144,0.
 9962609594,0.1837142369\H,1.3660680074,1.5714542767,-1.1674205561\O,-1
 .3461260251,-1.330479417,0.3799772615\H,-0.1628857495,1.6452596165,-0.
 068298158\\Version=ES64L-G09RevD.01\State=1-A\HF=-323.5867861\RMSD=4.7
 45e-09\RMSF=3.766e-05\ZeroPoint=0.1039702\Thermal=0.1104331\Dipole=1.2
 35416,0.6505557,-0.2633208\DipoleDeriv=-0.6902984,-0.0593469,0.1258823
 ,0.3343748,-0.3370668,-0.0258894,0.0928307,0.0404347,0.008374,0.118763
 6,-0.1419884,-0.0705679,-0.1017023,0.1530104,0.0033079,-0.0610757,-0.0
 202062,0.1476217,-0.5672209,0.139549,0.0204079,-0.0960665,0.2069975,-0
 .0325149,0.0404371,-0.0723288,-0.3776058,0.2578202,0.0736556,0.0191099
 ,0.1715405,0.3053876,-0.0200054,0.0106496,-0.0036589,0.4076411,0.27501
 41,-0.1055906,0.0122877,-0.1858551,-0.0151325,0.0569265,0.0187579,0.04
 34797,0.2880621,1.6912961,-0.0367707,-0.2389928,0.301306,1.1743306,-0.
 1274196,-0.2674207,-0.0703326,0.3069064,0.0638515,-0.0654097,0.0120626
 ,-0.0284426,-0.0628343,0.0185603,0.0090025,0.0247872,0.1001469,-0.0933
 362,0.0848504,0.1072531,0.0586882,0.0371816,0.0157917,0.1624174,-0.046
 1002,-0.1688936,-0.1879767,0.0719222,-0.1140944,0.0186769,0.0338059,-0
 .0548805,-0.162765,-0.0062674,-0.0712981,-1.1821656,0.1558642,0.108318
 6,0.3213181,-1.1262511,0.0013647,0.0946968,0.0291723,-0.4803973,0.1684
 615,-0.1151404,0.0843866,-0.0867542,0.1615523,0.0223683,0.0691586,0.05
 73482,0.0896482,-0.7291572,-0.3908018,0.0743591,-0.7694132,-0.8548814,
 0.1603513,0.1064475,0.0967413,-0.5100286,0.874948,0.389207,-0.1404126,
 0.0623294,0.3239002,-0.0179609,-0.1131366,-0.0730693,0.2598229\Polar=6
 1.9922959,1.4107569,47.7893217,-5.8932493,-1.9206875,28.8398177\PG=C01
  [X(C3H7N1O2)]\NImag=1\\0.47224704,0.15559022,0.39178023,0.02480510,-0
 .00080082,0.69331551,-0.17795479,-0.08187290,-0.15810896,0.18293730,-0
 .07500194,-0.09085419,-0.08204932,0.09240269,0.10221019,-0.13783952,-0
 .07886259,-0.23126980,0.15837360,0.08838107,0.24573890,-0.08220026,-0.
 00924977,0.00229475,-0.00400851,-0.02865749,0.00363039,0.79395840,-0.0
 2952529,-0.13583155,0.01017721,-0.00299143,-0.01822044,0.00095172,-0.0
 9591573,0.50544135,0.00398681,0.00678040,-0.07439859,0.00311760,-0.016
 47464,0.01232494,-0.10675420,-0.01665730,0.13200827,0.00093914,-0.0001
 7338,0.00034619,0.00023588,0.00010959,0.00010920,0.00348546,-0.0014468
 4,-0.00042548,0.46059416,0.00157507,-0.00170691,0.00012349,-0.00005725
 ,-0.00024091,0.00002876,0.00224361,-0.00499349,0.00006132,-0.06973045,
 0.06389703,0.00020564,0.00041684,0.00282546,0.00017242,0.00070911,0.00
 001000,-0.00072907,0.00068442,0.00034075,-0.07016742,0.00683939,0.0177
 3719,0.01040421,-0.01893482,-0.00057228,0.00164807,-0.00039461,0.00117
 310,-0.17034067,0.08507198,0.01205680,0.00005196,-0.00002622,-0.000088
 51,0.53542918,0.02432805,-0.02990010,-0.00180030,-0.00013875,0.0017360
 9,0.00002725,0.07467971,-0.15979147,-0.00392332,0.00013621,-0.00029533
 ,-0.00003920,0.03484054,0.53551315,-0.00417806,0.00547288,-0.00215031,
 0.00105471,-0.00133562,0.00005321,0.01291574,-0.00568048,-0.05819990,-
 0.00010392,-0.00001338,-0.00047920,-0.00556792,-0.00718549,0.52135035,
 -0.05491338,-0.02075842,0.01097069,0.00091554,0.00467758,0.00133803,-0
 .42826784,-0.01167302,0.06465643,-0.03711217,-0.05785519,0.01102498,-0
 .01568939,0.00955271,0.00085820,0.83483448,-0.01492410,-0.03511851,0.0
 0543632,-0.00134585,-0.00648695,0.00126647,-0.00225275,-0.08706748,0.0
 0346729,0.00622711,-0.00009439,-0.00105539,0.02191653,0.00574690,-0.00
 467018,0.04547224,0.67483417,0.01047567,0.00640921,-0.00246769,-0.0020
 8973,-0.00410839,0.00016071,0.06389838,0.00505036,-0.06141378,0.005628
 44,0.00967449,-0.00219625,-0.00018957,-0.00258372,-0.00569304,-0.11760
 406,-0.05074256,0.18345814,-0.00342399,0.00622422,0.00020399,-0.000245
 96,-0.00005565,-0.00001649,0.01106200,0.02127611,-0.00380759,0.0001511
 9,-0.00031856,0.00000788,-0.10245741,-0.10808146,0.01817382,0.00037734
 ,0.00101474,0.00001111,0.11152220,0.00492380,-0.00364323,-0.00045815,0
 .00006583,0.00048743,0.00016620,-0.01242554,-0.02259966,0.00387314,-0.
 00010075,0.00038318,-0.00001093,-0.10417003,-0.25577985,0.03472083,-0.
 00133203,-0.00154242,0.00043420,0.11459239,0.28205440,0.00030913,-0.00
 066563,0.00087023,-0.00012382,0.00033422,-0.00001083,-0.00101136,-0.00
 178117,-0.00079446,-0.00000909,0.00002667,0.00004971,0.01785025,0.0353
 7472,-0.05341959,0.00020471,0.00003507,0.00090242,-0.02010263,-0.03859
 137,0.05476565,0.00178408,-0.00098240,-0.00136875,0.00000690,0.0002306
 2,-0.00001298,-0.01958041,0.00389480,0.02008015,0.00016774,0.00017677,
 0.00015554,-0.09280299,-0.00004905,0.09373317,0.00522260,0.00260910,0.
 00245676,-0.00671097,0.00082525,0.01433181,0.10676678,-0.00172959,0.00
 340079,-0.00066322,0.00003139,-0.00035721,-0.00014594,0.01971422,-0.00
 392680,-0.02185601,-0.00011949,0.00010532,0.00021913,0.00160112,-0.048
 77928,-0.00639163,-0.00379358,-0.00216345,-0.00133664,-0.01263735,0.00
 132343,0.02809318,-0.00762872,0.05107605,-0.00098971,-0.00051792,0.001
 38134,-0.00018465,-0.00016958,-0.00059232,0.00490295,-0.00177232,0.006
 72714,-0.00012310,-0.00007669,0.00000573,0.09193671,-0.00197856,-0.242
 46851,-0.00378415,0.00012053,-0.00078369,0.00133281,-0.00096120,-0.004
 91112,-0.10610932,0.00602134,0.26655535,0.00251959,-0.00061570,0.00107
 197,-0.00019786,0.00142915,-0.00039011,-0.02527227,0.00209973,-0.01021
 855,0.00014068,0.00015849,-0.00022695,-0.16541878,-0.02175507,-0.11824
 431,0.00501864,0.00185927,-0.00487844,-0.01078669,-0.00109942,-0.01151
 176,0.00950916,0.00104243,0.01020631,0.18895903,-0.00132675,0.00359238
 ,0.00074238,-0.00073548,-0.00061844,-0.00064793,0.02576815,-0.00045177
 ,0.01598782,-0.00016938,0.00007846,-0.00018033,-0.01848805,-0.05168673
 ,-0.01684620,-0.00263644,-0.00189628,0.00259973,-0.02097749,-0.0027577
 2,-0.02240415,-0.00060723,0.00025016,0.00085966,0.01586585,0.05422718,
 0.00081731,0.00035593,0.00044199,-0.00070925,0.00051843,-0.00043312,0.
 00166969,0.00253899,0.00894729,0.00010496,0.00001013,0.00005840,-0.116
 84840,-0.02044700,-0.16688741,0.00227869,-0.00069206,-0.00083219,0.004
 25287,0.00106276,0.00322586,-0.02217827,-0.00529800,-0.02491742,0.1319
 8985,0.02149573,0.18116960,-0.06943494,0.00271732,0.01299031,-0.003190
 87,0.00249330,0.00200346,-0.03985602,0.03589596,0.00707351,0.00504623,
 0.00541398,-0.00186796,0.00010830,-0.00341582,0.00199730,-0.18783249,0
 .11767724,0.01127259,-0.00009412,0.00073998,-0.00010107,-0.00193965,0.
 00139989,0.00044994,-0.00143688,0.00084800,-0.00013481,0.26622751,-0.0
 5761457,0.00799663,0.00979704,0.00010873,0.00390898,0.00123903,0.03688
 984,-0.02355535,-0.00260862,0.00320316,0.00451138,-0.00119600,0.000143
 10,0.00761362,0.00020430,0.10061784,-0.26579685,0.00001047,-0.00092264
 ,0.00098581,0.00004500,0.00222280,-0.00216021,-0.00146276,0.00292674,-
 0.00221224,0.00092939,-0.16054950,0.34125067,0.01802285,-0.00037844,0.
 00592364,0.00410192,-0.00363623,-0.00194586,0.00698212,-0.00242361,0.0
 1887389,-0.00168756,-0.00157236,-0.00299021,0.00169575,0.00079478,0.00
 990223,0.01270415,-0.00288238,-0.06456306,0.00003716,-0.00023372,-0.00
 031433,-0.00171148,0.00148734,0.00003511,0.00178955,-0.00153329,-0.000
 42041,-0.02317341,0.00267142,0.05296446,-0.09001853,-0.03380618,0.1146
 3712,0.00760110,0.00496898,-0.02719311,-0.00369730,-0.00237551,0.00235
 154,0.00013174,-0.00008468,-0.00018181,0.00080014,-0.00037868,-0.00130
 420,0.00094199,-0.00118052,0.00193103,-0.00017323,0.00002075,0.0001883
 5,0.00009411,-0.00037079,0.00061521,-0.00000558,0.00008057,-0.00003498
 ,-0.00502509,-0.00105066,-0.00300719,0.08903908,-0.02962836,-0.0661621
 7,0.06414293,0.00522352,0.00536611,-0.01317969,-0.02071329,-0.01402834
 ,0.02931177,-0.00014165,-0.00035371,-0.00063449,-0.00019729,0.00192366
 ,0.00119094,0.00562121,-0.00595500,0.00338159,-0.00016440,0.00039524,-
 0.00036968,0.00121786,-0.00061543,-0.00096224,0.00024815,-0.00032038,0
 .00003963,0.00310950,0.00409279,0.00183892,0.04106366,0.07437003,0.093
 44464,0.06280875,-0.34402418,0.01400001,0.00572240,-0.02768062,0.00551
 183,0.00449825,0.00786449,-0.00012863,0.00006458,0.00022666,-0.0014160
 6,-0.00018880,0.00071428,-0.00257134,0.00016573,-0.00041211,0.00010678
 ,-0.00025480,0.00001104,-0.00001707,0.00083586,-0.00072755,-0.00023784
 ,0.00007915,-0.00061646,-0.00146514,-0.00193509,-0.00029564,-0.1105842
 5,-0.07375062,0.36754951,0.00034111,-0.00238839,0.00115949,-0.00092768
 ,-0.00156924,0.00031890,-0.01740020,-0.04138059,0.00773712,-0.43193382
 ,0.12300666,0.06104873,0.00199621,-0.00145598,-0.00052925,-0.17499848,
 -0.11679533,0.03161342,-0.00060901,0.00000466,0.00001288,-0.00092810,0
 .00042438,0.00066439,-0.00104726,0.00046570,-0.00039137,0.02249760,0.0
 1724961,-0.00337303,-0.00072731,-0.00220073,0.00011058,0.61253837,-0.0
 0409086,0.00694504,0.00060241,-0.00047151,-0.00043210,0.00020141,-0.01
 357532,-0.00827797,0.00365131,0.06182814,-0.06052279,-0.00573093,0.001
 76339,-0.00232210,-0.00026520,-0.05552450,-0.22454798,0.02439726,-0.00
 068899,0.00168795,-0.00006809,-0.00117208,0.00110783,0.00065961,-0.001
 32840,0.00108314,-0.00041469,-0.02228014,-0.06261982,0.00992545,-0.000
 39241,-0.00075067,-0.00003678,0.02232248,0.34742634,0.00129523,0.00032
 484,0.00580581,-0.00061429,0.00214756,-0.00059141,0.00540957,0.0083271
 9,0.00629189,0.06620978,-0.01596962,-0.01522799,-0.00080324,0.00028246
 ,-0.00176398,0.02644586,0.03466366,-0.05270101,0.00007134,-0.00018658,
 -0.00053033,0.00009153,-0.00053726,-0.00005460,0.00047037,0.00021276,0
 .00009330,-0.00006959,0.00324460,0.01080212,0.00080295,-0.00149182,-0.
 00046714,-0.10020027,-0.03079192,0.04528618,-0.01028929,0.00425021,-0.
 00842962,-0.00681912,-0.00063298,-0.00149448,-0.01788241,0.03706985,0.
 00014585,-0.00189818,-0.00450223,0.00064652,-0.00372885,-0.00826240,0.
 00119471,0.05150317,-0.06027769,-0.00252560,0.00138863,-0.00204489,-0.
 00003739,-0.00158925,0.00206608,0.00108263,-0.00198175,0.00191255,-0.0
 0081629,0.01493042,0.05677554,-0.01238084,0.00103888,-0.00343817,0.003
 24649,-0.00880143,0.01361021,0.00089076,-0.01587082,0.02742431,-0.0504
 9840,-0.00524997,-0.01021900,0.00350144,0.00057424,0.02349436,-0.02669
 704,-0.00161317,0.00037773,-0.00076784,-0.00002163,-0.00312565,-0.0039
 7857,0.00079923,-0.01236839,-0.04991176,0.00681401,0.00073908,-0.00099
 456,-0.00002878,-0.00073771,0.00073880,0.00024013,-0.00083121,0.000712
 24,-0.00009922,0.01595030,-0.01401541,-0.00405789,-0.00649452,0.002037
 86,0.00199139,0.00231676,0.00122315,-0.00022587,-0.03652606,0.13865010
 ,-0.01035511,-0.00134345,-0.05625341,-0.01898957,0.00996098,0.00423621
 ,0.00127920,-0.00391326,0.00142807,0.00024663,0.00080321,-0.00036025,0
 .00077338,0.00166718,-0.00095812,-0.00652219,0.01488752,0.00654156,-0.
 00027105,0.00043963,0.00015575,0.00054892,-0.00042815,-0.00024946,0.00
 017993,-0.00036532,0.00017059,-0.00897511,-0.01093878,-0.02797194,0.02
 177932,-0.00951725,-0.00214228,0.00182840,-0.00212984,0.00305716,0.018
 47726,0.00087753,0.07234612\\-0.00003343,-0.00002569,-0.00008675,-0.00
 002120,-0.00000309,0.00000972,0.00001621,-0.00004274,0.00004498,-0.000
 00725,0.00000258,-0.00001357,-0.00002972,0.00001487,-0.00000301,-0.000
 00322,0.00013662,-0.00003685,0.00000238,-0.00000714,0.00000703,-0.0000
 0132,0.00000647,-0.00000458,-0.00000481,-0.00000712,0.00000899,0.00003
 754,-0.00009633,0.00002390,-0.00001280,0.00004380,0.00003218,-0.000005
 97,-0.00002433,0.00002319,0.00006359,0.00000210,-0.00000524\\\@


 THE RARE EARTHS PERPLEX US IN OUR RESEARCHES,
 BAFFLE US IN OUR SPECULATIONS, AND HAUNT US IN OUR
 VERY DREAMS.  THEY STRETCH LIKE AN UNKNOWN BEFORE US,
 MOCKING, MYSTIFYING, AND MURMURING STRANGE REVELATIONS
 AND POSSIBILITIES.  -- SIR WILLIAM CROOKE, 1832-1919
 Job cpu time:       0 days  0 hours  1 minutes  0.6 seconds.
 File lengths (MBytes):  RWF=     12 Int=      0 D2E=      0 Chk=      2 Scr=      1
 Normal termination of Gaussian 09 at Sun Apr 10 10:18:31 2016.
