 Entering Link 1 = c:\G09w03\l1.exe PID=      2440.
  
 Copyright (c) 1988,1990,1992,1993,1995,1998,2003,2009,2010,
            Gaussian, Inc.  All Rights Reserved.
  
 This is part of the Gaussian(R) 09 program.  It is based on
 the Gaussian(R) 03 system (copyright 2003, Gaussian, Inc.),
 the Gaussian(R) 98 system (copyright 1998, Gaussian, Inc.),
 the Gaussian(R) 94 system (copyright 1995, Gaussian, Inc.),
 the Gaussian 92(TM) system (copyright 1992, Gaussian, Inc.),
 the Gaussian 90(TM) system (copyright 1990, Gaussian, Inc.),
 the Gaussian 88(TM) system (copyright 1988, Gaussian, Inc.),
 the Gaussian 86(TM) system (copyright 1986, Carnegie Mellon
 University), and the Gaussian 82(TM) system (copyright 1983,
 Carnegie Mellon University). Gaussian is a federally registered
 trademark of Gaussian, Inc.
  
 This software contains proprietary and confidential information,
 including trade secrets, belonging to Gaussian, Inc.
  
 This software is provided under written license and may be
 used, copied, transmitted, or stored only in accord with that
 written license.
  
 The following legend is applicable only to US Government
 contracts under FAR:
  
                    RESTRICTED RIGHTS LEGEND
  
 Use, reproduction and disclosure by the US Government is
 subject to restrictions as set forth in subparagraphs (a)
 and (c) of the Commercial Computer Software - Restricted
 Rights clause in FAR 52.227-19.
  
 Gaussian, Inc.
 340 Quinnipiac St., Bldg. 40, Wallingford CT 06492
  
  
 ---------------------------------------------------------------
 Warning -- This program may not be used in any manner that
 competes with the business of Gaussian, Inc. or will provide
 assistance to any competitor of Gaussian, Inc.  The licensee
 of this program is prohibited from giving any competitor of
 Gaussian, Inc. access to this program.  By using this program,
 the user acknowledges that Gaussian, Inc. is engaged in the
 business of creating and licensing software in the field of
 computational chemistry and represents and warrants to the
 licensee that it is not a competitor of Gaussian, Inc. and that
 it will not use this program in any manner prohibited above.
 ---------------------------------------------------------------
  

 Cite this work as:
 Gaussian 09, Revision B.01,
 M. J. Frisch, G. W. Trucks, H. B. Schlegel, G. E. Scuseria, 
 M. A. Robb, J. R. Cheeseman, G. Scalmani, V. Barone, B. Mennucci, 
 G. A. Petersson, H. Nakatsuji, M. Caricato, X. Li, H. P. Hratchian, 
 A. F. Izmaylov, J. Bloino, G. Zheng, J. L. Sonnenberg, M. Hada, 
 M. Ehara, K. Toyota, R. Fukuda, J. Hasegawa, M. Ishida, T. Nakajima, 
 Y. Honda, O. Kitao, H. Nakai, T. Vreven, J. A. Montgomery, Jr., 
 J. E. Peralta, F. Ogliaro, M. Bearpark, J. J. Heyd, E. Brothers, 
 K. N. Kudin, V. N. Staroverov, T. Keith, R. Kobayashi, J. Normand, 
 K. Raghavachari, A. Rendell, J. C. Burant, S. S. Iyengar, J. Tomasi, 
 M. Cossi, N. Rega, J. M. Millam, M. Klene, J. E. Knox, J. B. Cross, 
 V. Bakken, C. Adamo, J. Jaramillo, R. Gomperts, R. E. Stratmann, 
 O. Yazyev, A. J. Austin, R. Cammi, C. Pomelli, J. W. Ochterski, 
 R. L. Martin, K. Morokuma, V. G. Zakrzewski, G. A. Voth, 
 P. Salvador, J. J. Dannenberg, S. Dapprich, A. D. Daniels, 
 O. Farkas, J. B. Foresman, J. V. Ortiz, J. Cioslowski, 
 and D. J. Fox, Gaussian, Inc., Wallingford CT, 2010.
 
 ******************************************
 Gaussian 09:  IA32W-G09RevB.01 12-Aug-2010
                17-Apr-2016 
 ******************************************
 %chk=Val-S-opt-freq-cpcm-w-6-311++gdp.chk
 -----------------------------------------------------------------
 #p opt freq rb3lyp/6-311++g(d,p) scrf=(cpcm,solvent=water) nosymm
 -----------------------------------------------------------------
 1/14=-1,18=20,19=15,26=3,38=1/1,3;
 2/9=110,12=2,15=1,17=6,18=5,40=1/2;
 3/5=4,6=6,7=1111,11=2,16=1,25=1,30=1,70=2101,71=1,72=1,74=-5,116=1/1,2,3;
 4//1;
 5/5=2,38=5,53=1/2;
 6/7=2,8=2,9=2,10=2,28=1/1;
 7/30=1/1,2,3,16;
 1/14=-1,18=20,19=15/3(2);
 2/9=110,15=1/2;
 99//99;
 2/9=110,15=1/2;
 3/5=4,6=6,7=1111,11=2,16=1,25=1,30=1,70=2105,71=1,72=1,74=-5,116=1/1,2,3;
 4/5=5,16=3/1;
 5/5=2,38=5,53=1/2;
 7/30=1/1,2,3,16;
 1/14=-1,18=20,19=15/3(-5);
 2/9=110,15=1/2;
 6/7=2,8=2,9=2,10=2,19=2,28=1/1;
 99/9=1/99;
 Leave Link    1 at Sun Apr 17 21:52:17 2016, MaxMem=          0 cpu:       1.0
 (Enter c:\G09w03\l101.exe)
 --------------------------------
 Val-S-opt-freq-cpcm-w-6-311++gdp
 --------------------------------
 Symbolic Z-matrix:
 Charge =  0 Multiplicity = 1
 N                     0.11047   1.9639   -0.13428 
 H                    -0.17734   2.16267   0.82017 
 C                     0.01654   0.52581  -0.39034 
 H                     0.12898   0.35981  -1.46531 
 C                     1.15589  -0.22734   0.3478 
 C                    -1.34479  -0.02608   0.03391 
 C                     1.02223  -1.75247   0.23535 
 O                    -1.88702   0.21271   1.08581 
 H                     1.03713  -2.07444  -0.81096 
 H                     1.85743  -2.24014   0.74457 
 H                     0.10049  -2.12593   0.68886 
 H                    -0.50751   2.48428  -0.7483 
 O                    -1.90909  -0.81781  -0.91036 
 H                    -2.75746  -1.12867  -0.55678 
 H                     1.06931   0.04603   1.4074 
 C                     2.52283   0.23992  -0.16727 
 H                     2.61415   1.32489  -0.11558 
 H                     3.32575  -0.20804   0.42493 
 H                     2.66861  -0.06593  -1.20933 
 
 NAtoms=     19 NQM=     19 NQMF=      0 NMic=      0 NMicF=      0 NTot=     19.
                    Isotopes and Nuclear Properties:
 (Nuclear quadrupole moments (NQMom) in fm**2, nuclear magnetic moments (NMagM)
  in nuclear magnetons)

  Atom         1           2           3           4           5           6           7           8           9          10
 IAtWgt=          14           1          12           1          12          12          12          16           1           1
 AtmWgt=  14.0030740   1.0078250  12.0000000   1.0078250  12.0000000  12.0000000  12.0000000  15.9949146   1.0078250   1.0078250
 NucSpn=           2           1           0           1           0           0           0           0           1           1
 AtZEff=   0.0000000   0.0000000   0.0000000   0.0000000   0.0000000   0.0000000   0.0000000   0.0000000   0.0000000   0.0000000
 NQMom=    2.0440000   0.0000000   0.0000000   0.0000000   0.0000000   0.0000000   0.0000000   0.0000000   0.0000000   0.0000000
 NMagM=    0.4037610   2.7928460   0.0000000   2.7928460   0.0000000   0.0000000   0.0000000   0.0000000   2.7928460   2.7928460

  Atom        11          12          13          14          15          16          17          18          19
 IAtWgt=           1           1          16           1           1          12           1           1           1
 AtmWgt=   1.0078250   1.0078250  15.9949146   1.0078250   1.0078250  12.0000000   1.0078250   1.0078250   1.0078250
 NucSpn=           1           1           0           1           1           0           1           1           1
 AtZEff=   0.0000000   0.0000000   0.0000000   0.0000000   0.0000000   0.0000000   0.0000000   0.0000000   0.0000000
 NQMom=    0.0000000   0.0000000   0.0000000   0.0000000   0.0000000   0.0000000   0.0000000   0.0000000   0.0000000
 NMagM=    2.7928460   2.7928460   0.0000000   2.7928460   2.7928460   0.0000000   2.7928460   2.7928460   2.7928460
 Leave Link  101 at Sun Apr 17 21:52:17 2016, MaxMem=   33554432 cpu:       0.0
 (Enter c:\G09w03\l103.exe)

 GradGradGradGradGradGradGradGradGradGradGradGradGradGradGradGradGradGrad
 Berny optimization.
 Initialization pass.
                           ----------------------------
                           !    Initial Parameters    !
                           ! (Angstroms and Degrees)  !
 --------------------------                            --------------------------
 ! Name  Definition              Value          Derivative Info.                !
 --------------------------------------------------------------------------------
 ! R1    R(1,2)                  1.0165         estimate D2E/DX2                !
 ! R2    R(1,3)                  1.4637         estimate D2E/DX2                !
 ! R3    R(1,12)                 1.0147         estimate D2E/DX2                !
 ! R4    R(3,4)                  1.0935         estimate D2E/DX2                !
 ! R5    R(3,5)                  1.5525         estimate D2E/DX2                !
 ! R6    R(3,6)                  1.529          estimate D2E/DX2                !
 ! R7    R(5,7)                  1.5351         estimate D2E/DX2                !
 ! R8    R(5,15)                 1.0977         estimate D2E/DX2                !
 ! R9    R(5,16)                 1.5337         estimate D2E/DX2                !
 ! R10   R(6,8)                  1.2073         estimate D2E/DX2                !
 ! R11   R(6,13)                 1.3553         estimate D2E/DX2                !
 ! R12   R(7,9)                  1.0948         estimate D2E/DX2                !
 ! R13   R(7,10)                 1.093          estimate D2E/DX2                !
 ! R14   R(7,11)                 1.093          estimate D2E/DX2                !
 ! R15   R(13,14)                0.9702         estimate D2E/DX2                !
 ! R16   R(16,17)                1.09           estimate D2E/DX2                !
 ! R17   R(16,18)                1.0936         estimate D2E/DX2                !
 ! R18   R(16,19)                1.0958         estimate D2E/DX2                !
 ! A1    A(2,1,3)              109.7677         estimate D2E/DX2                !
 ! A2    A(2,1,12)             107.1845         estimate D2E/DX2                !
 ! A3    A(3,1,12)             111.0324         estimate D2E/DX2                !
 ! A4    A(1,3,4)              108.3324         estimate D2E/DX2                !
 ! A5    A(1,3,5)              110.2647         estimate D2E/DX2                !
 ! A6    A(1,3,6)              111.2982         estimate D2E/DX2                !
 ! A7    A(4,3,5)              108.5595         estimate D2E/DX2                !
 ! A8    A(4,3,6)              108.0305         estimate D2E/DX2                !
 ! A9    A(5,3,6)              110.2662         estimate D2E/DX2                !
 ! A10   A(3,5,7)              112.5351         estimate D2E/DX2                !
 ! A11   A(3,5,15)             106.2754         estimate D2E/DX2                !
 ! A12   A(3,5,16)             110.2809         estimate D2E/DX2                !
 ! A13   A(7,5,15)             108.1355         estimate D2E/DX2                !
 ! A14   A(7,5,16)             110.8358         estimate D2E/DX2                !
 ! A15   A(15,5,16)            108.578          estimate D2E/DX2                !
 ! A16   A(3,6,8)              124.7679         estimate D2E/DX2                !
 ! A17   A(3,6,13)             112.845          estimate D2E/DX2                !
 ! A18   A(8,6,13)             122.3834         estimate D2E/DX2                !
 ! A19   A(5,7,9)              111.1612         estimate D2E/DX2                !
 ! A20   A(5,7,10)             110.036          estimate D2E/DX2                !
 ! A21   A(5,7,11)             112.4869         estimate D2E/DX2                !
 ! A22   A(9,7,10)             107.6759         estimate D2E/DX2                !
 ! A23   A(9,7,11)             107.91           estimate D2E/DX2                !
 ! A24   A(10,7,11)            107.3752         estimate D2E/DX2                !
 ! A25   A(6,13,14)            107.2968         estimate D2E/DX2                !
 ! A26   A(5,16,17)            111.2229         estimate D2E/DX2                !
 ! A27   A(5,16,18)            110.3469         estimate D2E/DX2                !
 ! A28   A(5,16,19)            110.6655         estimate D2E/DX2                !
 ! A29   A(17,16,18)           108.6944         estimate D2E/DX2                !
 ! A30   A(17,16,19)           108.1665         estimate D2E/DX2                !
 ! A31   A(18,16,19)           107.6356         estimate D2E/DX2                !
 ! D1    D(2,1,3,4)            168.5204         estimate D2E/DX2                !
 ! D2    D(2,1,3,5)            -72.8094         estimate D2E/DX2                !
 ! D3    D(2,1,3,6)             49.8905         estimate D2E/DX2                !
 ! D4    D(12,1,3,4)            50.1905         estimate D2E/DX2                !
 ! D5    D(12,1,3,5)           168.8607         estimate D2E/DX2                !
 ! D6    D(12,1,3,6)           -68.4394         estimate D2E/DX2                !
 ! D7    D(1,3,5,7)            174.0244         estimate D2E/DX2                !
 ! D8    D(1,3,5,15)            55.8468         estimate D2E/DX2                !
 ! D9    D(1,3,5,16)           -61.6513         estimate D2E/DX2                !
 ! D10   D(4,3,5,7)            -67.4443         estimate D2E/DX2                !
 ! D11   D(4,3,5,15)           174.3781         estimate D2E/DX2                !
 ! D12   D(4,3,5,16)            56.88           estimate D2E/DX2                !
 ! D13   D(6,3,5,7)             50.7214         estimate D2E/DX2                !
 ! D14   D(6,3,5,15)           -67.4563         estimate D2E/DX2                !
 ! D15   D(6,3,5,16)           175.0457         estimate D2E/DX2                !
 ! D16   D(1,3,6,8)            -46.6833         estimate D2E/DX2                !
 ! D17   D(1,3,6,13)           132.6306         estimate D2E/DX2                !
 ! D18   D(4,3,6,8)           -165.4941         estimate D2E/DX2                !
 ! D19   D(4,3,6,13)            13.8198         estimate D2E/DX2                !
 ! D20   D(5,3,6,8)             76.0158         estimate D2E/DX2                !
 ! D21   D(5,3,6,13)          -104.6703         estimate D2E/DX2                !
 ! D22   D(3,5,7,9)             59.2751         estimate D2E/DX2                !
 ! D23   D(3,5,7,10)           178.4666         estimate D2E/DX2                !
 ! D24   D(3,5,7,11)           -61.8649         estimate D2E/DX2                !
 ! D25   D(15,5,7,9)           176.3522         estimate D2E/DX2                !
 ! D26   D(15,5,7,10)          -64.4564         estimate D2E/DX2                !
 ! D27   D(15,5,7,11)           55.2122         estimate D2E/DX2                !
 ! D28   D(16,5,7,9)           -64.7427         estimate D2E/DX2                !
 ! D29   D(16,5,7,10)           54.4488         estimate D2E/DX2                !
 ! D30   D(16,5,7,11)          174.1173         estimate D2E/DX2                !
 ! D31   D(3,5,16,17)           53.1556         estimate D2E/DX2                !
 ! D32   D(3,5,16,18)          173.8681         estimate D2E/DX2                !
 ! D33   D(3,5,16,19)          -67.1051         estimate D2E/DX2                !
 ! D34   D(7,5,16,17)          178.4518         estimate D2E/DX2                !
 ! D35   D(7,5,16,18)          -60.8356         estimate D2E/DX2                !
 ! D36   D(7,5,16,19)           58.1912         estimate D2E/DX2                !
 ! D37   D(15,5,16,17)         -62.9104         estimate D2E/DX2                !
 ! D38   D(15,5,16,18)          57.8022         estimate D2E/DX2                !
 ! D39   D(15,5,16,19)         176.8289         estimate D2E/DX2                !
 ! D40   D(3,6,13,14)          179.4195         estimate D2E/DX2                !
 ! D41   D(8,6,13,14)           -1.2479         estimate D2E/DX2                !
 --------------------------------------------------------------------------------
 Trust Radius=3.00D-01 FncErr=1.00D-07 GrdErr=1.00D-06
 Number of steps in this run=    100 maximum allowed number of steps=    114.
 GradGradGradGradGradGradGradGradGradGradGradGradGradGradGradGradGradGrad

 Leave Link  103 at Sun Apr 17 21:52:17 2016, MaxMem=   33554432 cpu:       0.0
 (Enter c:\G09w03\l202.exe)
                          Input orientation:                          
 ---------------------------------------------------------------------
 Center     Atomic      Atomic             Coordinates (Angstroms)
 Number     Number       Type             X           Y           Z
 ---------------------------------------------------------------------
      1          7           0        0.110465    1.963899   -0.134275
      2          1           0       -0.177342    2.162670    0.820173
      3          6           0        0.016537    0.525809   -0.390344
      4          1           0        0.128976    0.359805   -1.465307
      5          6           0        1.155887   -0.227343    0.347798
      6          6           0       -1.344794   -0.026082    0.033909
      7          6           0        1.022230   -1.752471    0.235345
      8          8           0       -1.887024    0.212709    1.085808
      9          1           0        1.037130   -2.074436   -0.810956
     10          1           0        1.857433   -2.240141    0.744570
     11          1           0        0.100487   -2.125925    0.688861
     12          1           0       -0.507508    2.484275   -0.748295
     13          8           0       -1.909093   -0.817812   -0.910356
     14          1           0       -2.757461   -1.128674   -0.556776
     15          1           0        1.069314    0.046031    1.407399
     16          6           0        2.522832    0.239922   -0.167271
     17          1           0        2.614149    1.324886   -0.115582
     18          1           0        3.325746   -0.208037    0.424931
     19          1           0        2.668605   -0.065931   -1.209332
 ---------------------------------------------------------------------
                    Distance matrix (angstroms):
                    1          2          3          4          5
     1  N    0.000000
     2  H    1.016520   0.000000
     3  C    1.463727   2.045056   0.000000
     4  H    2.084492   2.927041   1.093501   0.000000
     5  C    2.475246   2.777193   1.552485   2.164865   0.000000
     6  C    2.471050   2.602266   1.528985   2.137418   2.528327
     7  C    3.844391   4.136342   2.567774   2.855141   1.535098
     8  O    2.923223   2.606899   2.429115   3.254855   3.161900
     9  H    4.198185   4.699850   2.824854   2.679263   2.183705
    10  H    4.636617   4.850852   3.511041   3.825028   2.168168
    11  H    4.171848   4.299591   2.864162   3.289393   2.198819
    12  H    1.014743   1.634788   2.058723   2.330792   3.364695
    13  O    3.524036   3.857067   2.404949   2.418363   3.365369
    14  H    4.238810   4.402948   3.234204   3.372316   4.116424
    15  H    2.640903   2.525697   2.137851   3.038936   1.097717
    16  C    2.965249   3.458749   2.532392   2.725769   1.533679
    17  H    2.584013   3.061036   2.731594   2.988181   2.179602
    18  H    3.920210   4.248305   3.486268   3.756965   2.171315
    19  H    3.438028   4.145476   2.838021   2.587758   2.176930
                    6          7          8          9         10
     6  C    0.000000
     7  C    2.936630   0.000000
     8  O    1.207280   3.612337   0.000000
     9  H    3.253170   1.094819   4.168863   0.000000
    10  H    3.957443   1.093022   4.489307   1.766357   0.000000
    11  H    2.631946   1.093048   3.094669   1.769012   1.761536
    12  H    2.759490   4.610603   3.229088   4.813697   5.490146
    13  O    1.355325   3.283119   2.246582   3.204561   4.352990
    14  H    1.886861   3.911859   2.292390   3.918928   4.922002
    15  H    2.778415   2.147216   2.978445   3.068960   2.507400
    16  C    3.881979   2.526566   4.584515   2.824517   2.724871
    17  H    4.185773   3.482453   4.789659   3.811289   3.744582
    18  H    4.690410   2.779821   5.271315   3.201347   2.527362
    19  H    4.201739   2.764428   5.108724   2.618111   3.033632
                   11         12         13         14         15
    11  H    0.000000
    12  H    4.867137   0.000000
    13  O    2.882198   3.590889   0.000000
    14  H    3.273223   4.260560   0.970249   0.000000
    15  H    2.484415   3.616410   3.871579   4.458937   0.000000
    16  C    3.492556   3.815451   4.616594   5.468662   2.151719
    17  H    4.344390   3.389580   5.067794   5.921892   2.518225
    18  H    3.761682   4.828958   5.436760   6.230307   2.474122
    19  H    3.800256   4.099244   4.648659   5.567535   3.068802
                   16         17         18         19
    16  C    0.000000
    17  H    1.090026   0.000000
    18  H    1.093637   1.774367   0.000000
    19  H    1.095759   1.770205   1.767157   0.000000
 Symmetry turned off by external request.
 Stoichiometry    C5H11NO2
 Framework group  C1[X(C5H11NO2)]
 Deg. of freedom    51
 Full point group                 C1      NOp   1
 Rotational constants (GHZ):      2.7966867      1.5502307      1.2168929
 Leave Link  202 at Sun Apr 17 21:52:17 2016, MaxMem=   33554432 cpu:       0.0
 (Enter c:\G09w03\l301.exe)
 Standard basis: 6-311++G(d,p) (5D, 7F)
 Ernie: Thresh=  0.10000D-02 Tol=  0.10000D-05 Strict=F.
 Integral buffers will be    262144 words long.
 Raffenetti 2 integral format.
 Two-electron integral symmetry is turned off.
   253 basis functions,   387 primitive gaussians,   261 cartesian basis functions
    32 alpha electrons       32 beta electrons
       nuclear repulsion energy       405.3471445641 Hartrees.
 IExCor=  402 DFT=T Ex+Corr=B3LYP ExCW=0 ScaHFX=  0.200000
 ScaDFX=  0.800000  0.720000  1.000000  0.810000 ScalE2=  1.000000  1.000000
 IRadAn=      0 IRanWt=     -1 IRanGd=            0 ICorTp=0
 NAtoms=   19 NActive=   19 NUniq=   19 SFac= 1.00D+00 NAtFMM=   50 NAOKFM=F Big=F
 ------------------------------------------------------------------------------
 Polarizable Continuum Model (PCM)
 =================================
 Model                : C-PCM.
 Atomic radii         : UFF (Universal Force Field).
 Polarization charges : Total charges.
 Charge compensation  : None.
 Solution method      : Matrix inversion.
 Cavity type          : Scaled VdW (van der Waals Surface) (Alpha=1.100).
 Cavity algorithm     : GePol (No added spheres)
                        Default sphere list used, NSphG=   19.
                        Lebedev-Laikov grids with approx.  5.0 points / Ang**2.
                        Smoothing algorithm: Karplus/York (Gamma=1.0000).
                        Polarization charges: spherical gaussians, with
                                              point-specific exponents (IZeta= 3).
                        Self-potential: point-specific (ISelfS= 7).
                        Self-field    : sphere-specific E.n sum rule (ISelfD= 2).
 1st derivatives      : Analytical E(r).r(x)/FMM algorithm (CHGder, D1EAlg=3).
                        Cavity 1st derivative terms included.
 Solvent              : Water, Eps=  78.355300 Eps(inf)=   1.777849
 ------------------------------------------------------------------------------
 Spheres list:
 ISph  on   Nord    Re0     Alpha      Xe            Ye            Ze
    1   N      1    1.830   1.100      0.110465      1.963899     -0.134275
    2   H      2    1.443   1.100     -0.177342      2.162670      0.820173
    3   C      3    1.926   1.100      0.016537      0.525809     -0.390344
    4   H      4    1.443   1.100      0.128976      0.359805     -1.465307
    5   C      5    1.926   1.100      1.155887     -0.227343      0.347798
    6   C      6    1.926   1.100     -1.344794     -0.026082      0.033909
    7   C      7    1.926   1.100      1.022230     -1.752471      0.235345
    8   O      8    1.750   1.100     -1.887024      0.212709      1.085808
    9   H      9    1.443   1.100      1.037130     -2.074436     -0.810956
   10   H     10    1.443   1.100      1.857433     -2.240141      0.744570
   11   H     11    1.443   1.100      0.100487     -2.125925      0.688861
   12   H     12    1.443   1.100     -0.507508      2.484275     -0.748295
   13   O     13    1.750   1.100     -1.909093     -0.817812     -0.910356
   14   H     14    1.443   1.100     -2.757461     -1.128674     -0.556776
   15   H     15    1.443   1.100      1.069314      0.046031      1.407399
   16   C     16    1.926   1.100      2.522832      0.239922     -0.167271
   17   H     17    1.443   1.100      2.614149      1.324886     -0.115582
   18   H     18    1.443   1.100      3.325746     -0.208037      0.424931
   19   H     19    1.443   1.100      2.668605     -0.065931     -1.209332
 ------------------------------------------------------------------------------
 GePol: Number of generator spheres                  =      19
 GePol: Total number of spheres                      =      19
 GePol: Number of exposed spheres                    =      19 (100.00%)
 GePol: Number of points                             =    1435
 GePol: Average weight of points                     =       0.13
 GePol: Minimum weight of points                     =   0.55D-10
 GePol: Maximum weight of points                     =    0.20565
 GePol: Number of points with low weight             =      93
 GePol: Fraction of low-weight points (<1% of avg)   =       6.48%
 GePol: Cavity surface area                          =    192.358 Ang**2
 GePol: Cavity volume                                =    188.216 Ang**3
 Leave Link  301 at Sun Apr 17 21:52:17 2016, MaxMem=   33554432 cpu:       0.0
 (Enter c:\G09w03\l302.exe)
 NPDir=0 NMtPBC=     1 NCelOv=     1 NCel=       1 NClECP=     1 NCelD=      1
         NCelK=      1 NCelE2=     1 NClLst=     1 CellRange=     0.0.
 One-electron integrals computed using PRISM.
 NBasis=   253 RedAO= T  NBF=   253
 NBsUse=   253 1.00D-06 NBFU=   253
 Precomputing XC quadrature grid using
 IXCGrd= 2 IRadAn=           0 IRanWt=          -1 IRanGd=           0 AccXCQ= 0.00D+00.
 NRdTot=    1232 NPtTot=      157136 NUsed=      162883 NTot=      162899
 NSgBfM=   261   261   261   261   261 NAtAll=    19    19.
 Leave Link  302 at Sun Apr 17 21:52:18 2016, MaxMem=   33554432 cpu:       1.0
 (Enter c:\G09w03\l303.exe)
 DipDrv:  MaxL=1.
 Leave Link  303 at Sun Apr 17 21:52:18 2016, MaxMem=   33554432 cpu:       0.0
 (Enter c:\G09w03\l401.exe)
 Harris functional with IExCor=  402 diagonalized for initial guess.
 ExpMin= 3.60D-02 ExpMax= 8.59D+03 ExpMxC= 1.30D+03 IAcc=3 IRadAn=         0 AccDes= 0.00D+00
 HarFok:  IExCor=  402 AccDes= 0.00D+00 IRadAn=         0 IDoV= 1
 ScaDFX=  1.000000  1.000000  1.000000  1.000000
 FoFCou: FMM=F IPFlag=           0 FMFlag=      100000 FMFlg1=           0
         NFxFlg=           0 DoJE=T BraDBF=F KetDBF=T FulRan=T
         Omega=  0.000000  0.000000  1.000000  0.000000  0.000000 ICntrl=     500 IOpCl=  0
         NMat0=    1 NMatS0=    1 NMatT0=    0 NMatD0=    1 NMtDS0=    0 NMtDT0=    0
         I1Cent=           4 NGrid=           0.
 Symmetry not used in FoFCou.
 Harris En= -402.546636176811    
 Leave Link  401 at Sun Apr 17 21:52:28 2016, MaxMem=   33554432 cpu:      10.0
 (Enter c:\G09w03\l502.exe)
 Closed shell SCF:
 Requested convergence on RMS density matrix=1.00D-08 within 128 cycles.
 Requested convergence on MAX density matrix=1.00D-06.
 Requested convergence on             energy=1.00D-06.
 No special actions if energy rises.
 Using DIIS extrapolation, IDIIS=  1040.
 Two-electron integral symmetry not used.
       162718 words used for storage of precomputed grid.
 IEnd=      388237 IEndB=      388237 NGot=    33554432 MDV=    33251218
 LenX=    33251218 LenY=    33182656
 Fock matrices will be formed incrementally for  20 cycles.

 Cycle   1  Pass 1  IDiag  1:
 FoFCou: FMM=F IPFlag=           0 FMFlag=      100000 FMFlg1=           0
         NFxFlg=           0 DoJE=F BraDBF=F KetDBF=F FulRan=T
         Omega=  0.000000  0.000000  1.000000  0.000000  0.000000 ICntrl=       0 IOpCl=  0
         NMat0=    1 NMatS0=    1 NMatT0=    0 NMatD0=    1 NMtDS0=    0 NMtDT0=    0
         I1Cent=           0 NGrid=           0.
 Symmetry not used in FoFCou.
 E= -402.220460357788    
 DIIS: error= 2.58D-02 at cycle   1 NSaved=   1.
 NSaved= 1 IEnMin= 1 EnMin= -402.220460357788     IErMin= 1 ErrMin= 2.58D-02
 ErrMax= 2.58D-02 EMaxC= 1.00D-01 BMatC= 3.59D-01 BMatP= 3.59D-01
 IDIUse=3 WtCom= 7.42D-01 WtEn= 2.58D-01
 Coeff-Com:  0.100D+01
 Coeff-En:   0.100D+01
 Coeff:      0.100D+01
 Gap=     0.160 Goal=   None    Shift=    0.000
 GapD=    0.160 DampG=1.000 DampE=0.500 DampFc=0.5000 IDamp=-1.
 Damping current iteration by 5.00D-01
 RMSDP=9.15D-03 MaxDP=6.62D-01              OVMax= 2.04D-01

 Cycle   2  Pass 1  IDiag  1:
 RMSU=  3.13D-03    CP:  9.40D-01
 E= -402.317510872756     Delta-E=       -0.097050514968 Rises=F Damp=T
 DIIS: error= 7.95D-03 at cycle   2 NSaved=   2.
 NSaved= 2 IEnMin= 2 EnMin= -402.317510872756     IErMin= 2 ErrMin= 7.95D-03
 ErrMax= 7.95D-03 EMaxC= 1.00D-01 BMatC= 3.22D-02 BMatP= 3.59D-01
 IDIUse=3 WtCom= 9.20D-01 WtEn= 7.95D-02
 Coeff-Com:  0.171D+00 0.829D+00
 Coeff-En:   0.296D+00 0.704D+00
 Coeff:      0.181D+00 0.819D+00
 Gap=     0.247 Goal=   None    Shift=    0.000
 RMSDP=3.63D-03 MaxDP=3.44D-01 DE=-9.71D-02 OVMax= 1.44D-01

 Cycle   3  Pass 1  IDiag  1:
 RMSU=  1.82D-03    CP:  8.45D-01  6.03D-01
 E= -402.496497931985     Delta-E=       -0.178987059229 Rises=F Damp=F
 DIIS: error= 8.34D-03 at cycle   3 NSaved=   3.
 NSaved= 3 IEnMin= 3 EnMin= -402.496497931985     IErMin= 2 ErrMin= 7.95D-03
 ErrMax= 8.34D-03 EMaxC= 1.00D-01 BMatC= 2.06D-02 BMatP= 3.22D-02
 IDIUse=3 WtCom= 9.17D-01 WtEn= 8.34D-02
 Coeff-Com:  0.515D-01 0.453D+00 0.496D+00
 Coeff-En:   0.000D+00 0.000D+00 0.100D+01
 Coeff:      0.472D-01 0.415D+00 0.538D+00
 Gap=     0.245 Goal=   None    Shift=    0.000
 RMSDP=8.78D-04 MaxDP=5.10D-02 DE=-1.79D-01 OVMax= 4.38D-02

 Cycle   4  Pass 1  IDiag  1:
 RMSU=  5.93D-04    CP:  8.53D-01  5.60D-01  9.74D-01
 E= -402.507510990764     Delta-E=       -0.011013058779 Rises=F Damp=F
 DIIS: error= 4.35D-03 at cycle   4 NSaved=   4.
 NSaved= 4 IEnMin= 4 EnMin= -402.507510990764     IErMin= 4 ErrMin= 4.35D-03
 ErrMax= 4.35D-03 EMaxC= 1.00D-01 BMatC= 6.05D-03 BMatP= 2.06D-02
 IDIUse=3 WtCom= 9.56D-01 WtEn= 4.35D-02
 Coeff-Com: -0.409D-02 0.101D+00 0.360D+00 0.543D+00
 Coeff-En:   0.000D+00 0.000D+00 0.260D+00 0.740D+00
 Coeff:     -0.391D-02 0.966D-01 0.356D+00 0.552D+00
 Gap=     0.239 Goal=   None    Shift=    0.000
 RMSDP=5.61D-04 MaxDP=6.89D-02 DE=-1.10D-02 OVMax= 2.17D-02

 Cycle   5  Pass 1  IDiag  1:
 RMSU=  1.68D-04    CP:  8.36D-01  6.02D-01  1.03D+00  6.34D-01
 E= -402.511742925461     Delta-E=       -0.004231934696 Rises=F Damp=F
 DIIS: error= 8.06D-04 at cycle   5 NSaved=   5.
 NSaved= 5 IEnMin= 5 EnMin= -402.511742925461     IErMin= 5 ErrMin= 8.06D-04
 ErrMax= 8.06D-04 EMaxC= 1.00D-01 BMatC= 3.15D-04 BMatP= 6.05D-03
 IDIUse=3 WtCom= 9.92D-01 WtEn= 8.06D-03
 Coeff-Com: -0.500D-02 0.261D-01 0.165D+00 0.311D+00 0.502D+00
 Coeff-En:   0.000D+00 0.000D+00 0.000D+00 0.000D+00 0.100D+01
 Coeff:     -0.496D-02 0.259D-01 0.164D+00 0.309D+00 0.506D+00
 Gap=     0.242 Goal=   None    Shift=    0.000
 RMSDP=1.49D-04 MaxDP=1.75D-02 DE=-4.23D-03 OVMax= 3.88D-03

 Cycle   6  Pass 1  IDiag  1:
 RMSU=  6.66D-05    CP:  8.31D-01  5.94D-01  1.05D+00  6.39D-01  9.76D-01
 E= -402.511977133388     Delta-E=       -0.000234207927 Rises=F Damp=F
 DIIS: error= 1.60D-04 at cycle   6 NSaved=   6.
 NSaved= 6 IEnMin= 6 EnMin= -402.511977133388     IErMin= 6 ErrMin= 1.60D-04
 ErrMax= 1.60D-04 EMaxC= 1.00D-01 BMatC= 1.43D-05 BMatP= 3.15D-04
 IDIUse=3 WtCom= 9.98D-01 WtEn= 1.60D-03
 Coeff-Com: -0.172D-02 0.211D-02 0.392D-01 0.850D-01 0.234D+00 0.642D+00
 Coeff-En:   0.000D+00 0.000D+00 0.000D+00 0.000D+00 0.000D+00 0.100D+01
 Coeff:     -0.172D-02 0.210D-02 0.392D-01 0.849D-01 0.233D+00 0.642D+00
 Gap=     0.242 Goal=   None    Shift=    0.000
 RMSDP=6.01D-05 MaxDP=6.36D-03 DE=-2.34D-04 OVMax= 6.54D-04

 Cycle   7  Pass 1  IDiag  1:
 RMSU=  1.64D-05    CP:  8.33D-01  5.91D-01  1.04D+00  6.52D-01  8.83D-01
                    CP:  7.25D-01
 E= -402.511987789571     Delta-E=       -0.000010656184 Rises=F Damp=F
 DIIS: error= 5.63D-05 at cycle   7 NSaved=   7.
 NSaved= 7 IEnMin= 7 EnMin= -402.511987789571     IErMin= 7 ErrMin= 5.63D-05
 ErrMax= 5.63D-05 EMaxC= 1.00D-01 BMatC= 1.07D-06 BMatP= 1.43D-05
 IDIUse=1 WtCom= 1.00D+00 WtEn= 0.00D+00
 Coeff-Com: -0.579D-03-0.764D-04 0.137D-01 0.314D-01 0.103D+00 0.332D+00
 Coeff-Com:  0.520D+00
 Coeff:     -0.579D-03-0.764D-04 0.137D-01 0.314D-01 0.103D+00 0.332D+00
 Coeff:      0.520D+00
 Gap=     0.242 Goal=   None    Shift=    0.000
 RMSDP=9.73D-06 MaxDP=9.79D-04 DE=-1.07D-05 OVMax= 1.89D-04

 Cycle   8  Pass 1  IDiag  1:
 RMSU=  3.01D-06    CP:  8.33D-01  5.91D-01  1.05D+00  6.51D-01  9.01D-01
                    CP:  7.41D-01  8.56D-01
 E= -402.511988625121     Delta-E=       -0.000000835550 Rises=F Damp=F
 DIIS: error= 1.22D-05 at cycle   8 NSaved=   8.
 NSaved= 8 IEnMin= 8 EnMin= -402.511988625121     IErMin= 8 ErrMin= 1.22D-05
 ErrMax= 1.22D-05 EMaxC= 1.00D-01 BMatC= 4.82D-08 BMatP= 1.07D-06
 IDIUse=1 WtCom= 1.00D+00 WtEn= 0.00D+00
 Coeff-Com:  0.511D-04-0.334D-03 0.192D-03 0.673D-03 0.922D-02 0.398D-01
 Coeff-Com:  0.189D+00 0.761D+00
 Coeff:      0.511D-04-0.334D-03 0.192D-03 0.673D-03 0.922D-02 0.398D-01
 Coeff:      0.189D+00 0.761D+00
 Gap=     0.242 Goal=   None    Shift=    0.000
 RMSDP=3.00D-06 MaxDP=1.39D-04 DE=-8.36D-07 OVMax= 5.85D-05

 Cycle   9  Pass 1  IDiag  1:
 RMSU=  1.46D-06    CP:  8.33D-01  5.91D-01  1.05D+00  6.52D-01  9.01D-01
                    CP:  7.34D-01  9.10D-01  9.95D-01
 E= -402.511988661892     Delta-E=       -0.000000036770 Rises=F Damp=F
 DIIS: error= 4.31D-06 at cycle   9 NSaved=   9.
 NSaved= 9 IEnMin= 9 EnMin= -402.511988661892     IErMin= 9 ErrMin= 4.31D-06
 ErrMax= 4.31D-06 EMaxC= 1.00D-01 BMatC= 6.51D-09 BMatP= 4.82D-08
 IDIUse=1 WtCom= 1.00D+00 WtEn= 0.00D+00
 Coeff-Com:  0.433D-04-0.178D-03-0.352D-03-0.731D-03 0.117D-02 0.776D-02
 Coeff-Com:  0.740D-01 0.392D+00 0.526D+00
 Coeff:      0.433D-04-0.178D-03-0.352D-03-0.731D-03 0.117D-02 0.776D-02
 Coeff:      0.740D-01 0.392D+00 0.526D+00
 Gap=     0.242 Goal=   None    Shift=    0.000
 RMSDP=6.41D-07 MaxDP=2.82D-05 DE=-3.68D-08 OVMax= 1.90D-05

 Cycle  10  Pass 1  IDiag  1:
 RMSU=  2.37D-07    CP:  8.33D-01  5.91D-01  1.05D+00  6.52D-01  9.00D-01
                    CP:  7.36D-01  9.14D-01  1.01D+00  7.83D-01
 E= -402.511988667176     Delta-E=       -0.000000005284 Rises=F Damp=F
 DIIS: error= 7.13D-07 at cycle  10 NSaved=  10.
 NSaved=10 IEnMin=10 EnMin= -402.511988667176     IErMin=10 ErrMin= 7.13D-07
 ErrMax= 7.13D-07 EMaxC= 1.00D-01 BMatC= 3.39D-10 BMatP= 6.51D-09
 IDIUse=1 WtCom= 1.00D+00 WtEn= 0.00D+00
 Coeff-Com:  0.128D-04-0.414D-04-0.178D-03-0.419D-03-0.416D-03-0.753D-03
 Coeff-Com:  0.133D-01 0.959D-01 0.221D+00 0.671D+00
 Coeff:      0.128D-04-0.414D-04-0.178D-03-0.419D-03-0.416D-03-0.753D-03
 Coeff:      0.133D-01 0.959D-01 0.221D+00 0.671D+00
 Gap=     0.242 Goal=   None    Shift=    0.000
 RMSDP=2.08D-07 MaxDP=1.62D-05 DE=-5.28D-09 OVMax= 5.79D-06

 Cycle  11  Pass 1  IDiag  1:
 RMSU=  7.86D-08    CP:  8.33D-01  5.91D-01  1.05D+00  6.52D-01  9.00D-01
                    CP:  7.36D-01  9.16D-01  1.02D+00  8.00D-01  8.19D-01
 E= -402.511988667433     Delta-E=       -0.000000000257 Rises=F Damp=F
 DIIS: error= 3.09D-07 at cycle  11 NSaved=  11.
 NSaved=11 IEnMin=11 EnMin= -402.511988667433     IErMin=11 ErrMin= 3.09D-07
 ErrMax= 3.09D-07 EMaxC= 1.00D-01 BMatC= 3.69D-11 BMatP= 3.39D-10
 IDIUse=1 WtCom= 1.00D+00 WtEn= 0.00D+00
 Coeff-Com:  0.210D-05-0.507D-05-0.606D-04-0.153D-03-0.300D-03-0.978D-03
 Coeff-Com:  0.762D-03 0.154D-01 0.603D-01 0.315D+00 0.610D+00
 Coeff:      0.210D-05-0.507D-05-0.606D-04-0.153D-03-0.300D-03-0.978D-03
 Coeff:      0.762D-03 0.154D-01 0.603D-01 0.315D+00 0.610D+00
 Gap=     0.242 Goal=   None    Shift=    0.000
 RMSDP=7.62D-08 MaxDP=6.93D-06 DE=-2.57D-10 OVMax= 1.39D-06

 Cycle  12  Pass 1  IDiag  1:
 RMSU=  2.10D-08    CP:  8.33D-01  5.91D-01  1.05D+00  6.52D-01  9.00D-01
                    CP:  7.36D-01  9.17D-01  1.03D+00  8.06D-01  8.69D-01
                    CP:  9.11D-01
 E= -402.511988667477     Delta-E=       -0.000000000044 Rises=F Damp=F
 DIIS: error= 7.35D-08 at cycle  12 NSaved=  12.
 NSaved=12 IEnMin=12 EnMin= -402.511988667477     IErMin=12 ErrMin= 7.35D-08
 ErrMax= 7.35D-08 EMaxC= 1.00D-01 BMatC= 2.12D-12 BMatP= 3.69D-11
 IDIUse=1 WtCom= 1.00D+00 WtEn= 0.00D+00
 Coeff-Com: -0.796D-06 0.175D-05-0.485D-05-0.154D-04-0.604D-04-0.239D-03
 Coeff-Com: -0.813D-03-0.298D-02 0.148D-02 0.614D-01 0.245D+00 0.697D+00
 Coeff:     -0.796D-06 0.175D-05-0.485D-05-0.154D-04-0.604D-04-0.239D-03
 Coeff:     -0.813D-03-0.298D-02 0.148D-02 0.614D-01 0.245D+00 0.697D+00
 Gap=     0.242 Goal=   None    Shift=    0.000
 RMSDP=1.88D-08 MaxDP=2.12D-06 DE=-4.40D-11 OVMax= 2.66D-07

 Cycle  13  Pass 1  IDiag  1:
 RMSU=  5.04D-09    CP:  8.33D-01  5.91D-01  1.05D+00  6.52D-01  9.00D-01
                    CP:  7.36D-01  9.17D-01  1.03D+00  8.09D-01  8.78D-01
                    CP:  9.17D-01  9.27D-01
 E= -402.511988667479     Delta-E=       -0.000000000002 Rises=F Damp=F
 DIIS: error= 8.83D-09 at cycle  13 NSaved=  13.
 NSaved=13 IEnMin=13 EnMin= -402.511988667479     IErMin=13 ErrMin= 8.83D-09
 ErrMax= 8.83D-09 EMaxC= 1.00D-01 BMatC= 3.05D-14 BMatP= 2.12D-12
 IDIUse=1 WtCom= 1.00D+00 WtEn= 0.00D+00
 Coeff-Com: -0.205D-06 0.557D-06 0.347D-06 0.421D-06-0.738D-05-0.315D-04
 Coeff-Com: -0.196D-03-0.115D-02-0.178D-02 0.898D-03 0.279D-01 0.143D+00
 Coeff-Com:  0.831D+00
 Coeff:     -0.205D-06 0.557D-06 0.347D-06 0.421D-06-0.738D-05-0.315D-04
 Coeff:     -0.196D-03-0.115D-02-0.178D-02 0.898D-03 0.279D-01 0.143D+00
 Coeff:      0.831D+00
 Gap=     0.242 Goal=   None    Shift=    0.000
 RMSDP=3.86D-09 MaxDP=4.48D-07 DE=-1.59D-12 OVMax= 5.71D-08

 Error on total polarization charges =  0.01336
 SCF Done:  E(RB3LYP) =  -402.511988667     A.U. after   13 cycles
             Convg  =    0.3864D-08             -V/T =  2.0041
 KE= 4.008502819677D+02 PE=-1.751222138933D+03 EE= 5.425127237335D+02
 Leave Link  502 at Sun Apr 17 22:00:16 2016, MaxMem=   33554432 cpu:     468.0
 (Enter c:\G09w03\l601.exe)
 Copying SCF densities to generalized density rwf, IOpCl= 0 IROHF=0.

 **********************************************************************

            Population analysis using the SCF density.

 **********************************************************************

 Alpha  occ. eigenvalues --  -19.18342 -19.13157 -14.30611 -10.31662 -10.22048
 Alpha  occ. eigenvalues --  -10.18555 -10.16186 -10.15640  -1.12515  -1.03790
 Alpha  occ. eigenvalues --   -0.90476  -0.80078  -0.71547  -0.68660  -0.62626
 Alpha  occ. eigenvalues --   -0.57043  -0.52776  -0.50436  -0.49043  -0.47973
 Alpha  occ. eigenvalues --   -0.46044  -0.42879  -0.42610  -0.39963  -0.39356
 Alpha  occ. eigenvalues --   -0.38480  -0.35263  -0.34346  -0.33904  -0.33361
 Alpha  occ. eigenvalues --   -0.30491  -0.26022
 Alpha virt. eigenvalues --   -0.01841  -0.00897   0.00674   0.00748   0.01395
 Alpha virt. eigenvalues --    0.02925   0.03961   0.04183   0.04818   0.05133
 Alpha virt. eigenvalues --    0.07107   0.07535   0.07783   0.08476   0.08939
 Alpha virt. eigenvalues --    0.09740   0.10153   0.10645   0.11055   0.12415
 Alpha virt. eigenvalues --    0.12934   0.13268   0.13443   0.14070   0.14700
 Alpha virt. eigenvalues --    0.14798   0.15538   0.16379   0.16623   0.17287
 Alpha virt. eigenvalues --    0.17581   0.17989   0.18789   0.19014   0.20423
 Alpha virt. eigenvalues --    0.21094   0.21334   0.21674   0.22539   0.23056
 Alpha virt. eigenvalues --    0.23813   0.24441   0.24952   0.25987   0.26303
 Alpha virt. eigenvalues --    0.27374   0.28004   0.28461   0.30221   0.30989
 Alpha virt. eigenvalues --    0.31378   0.31987   0.32407   0.33900   0.34324
 Alpha virt. eigenvalues --    0.35909   0.36412   0.36953   0.37614   0.40073
 Alpha virt. eigenvalues --    0.42108   0.43897   0.45546   0.47673   0.49614
 Alpha virt. eigenvalues --    0.52086   0.53467   0.54466   0.56301   0.58988
 Alpha virt. eigenvalues --    0.59058   0.59685   0.61885   0.63445   0.65074
 Alpha virt. eigenvalues --    0.66053   0.66426   0.68581   0.69371   0.69673
 Alpha virt. eigenvalues --    0.70569   0.71804   0.73515   0.74973   0.75629
 Alpha virt. eigenvalues --    0.77705   0.78551   0.79318   0.83631   0.86264
 Alpha virt. eigenvalues --    0.88255   0.89780   0.94368   0.98027   1.00588
 Alpha virt. eigenvalues --    1.05531   1.06579   1.08063   1.10560   1.12978
 Alpha virt. eigenvalues --    1.15124   1.15535   1.17529   1.20599   1.23022
 Alpha virt. eigenvalues --    1.24417   1.24974   1.28229   1.31611   1.41938
 Alpha virt. eigenvalues --    1.42186   1.42829   1.44896   1.46451   1.47157
 Alpha virt. eigenvalues --    1.49864   1.53898   1.55515   1.56515   1.58370
 Alpha virt. eigenvalues --    1.58974   1.60194   1.62014   1.62859   1.63967
 Alpha virt. eigenvalues --    1.66061   1.67698   1.68458   1.70838   1.73745
 Alpha virt. eigenvalues --    1.74714   1.77726   1.78576   1.80225   1.82325
 Alpha virt. eigenvalues --    1.84297   1.87763   1.91787   1.93723   1.95380
 Alpha virt. eigenvalues --    1.98344   2.00446   2.03448   2.06040   2.08117
 Alpha virt. eigenvalues --    2.11978   2.14288   2.16000   2.20048   2.24786
 Alpha virt. eigenvalues --    2.29028   2.32643   2.35732   2.39799   2.45241
 Alpha virt. eigenvalues --    2.48454   2.49491   2.51380   2.53457   2.53724
 Alpha virt. eigenvalues --    2.55636   2.57977   2.60770   2.61901   2.62256
 Alpha virt. eigenvalues --    2.65272   2.67613   2.70482   2.71398   2.73529
 Alpha virt. eigenvalues --    2.76118   2.76738   2.79576   2.84111   2.86695
 Alpha virt. eigenvalues --    2.88176   2.89917   2.93976   2.96505   2.99371
 Alpha virt. eigenvalues --    2.99674   3.03411   3.04738   3.09858   3.11522
 Alpha virt. eigenvalues --    3.16972   3.18381   3.20911   3.28212   3.36627
 Alpha virt. eigenvalues --    3.43333   3.58516   3.63418   3.65566   3.78343
 Alpha virt. eigenvalues --    3.79321   3.80196   3.83786   3.84455   3.99111
 Alpha virt. eigenvalues --    4.05354   4.10801   4.15759   4.28732   4.32467
 Alpha virt. eigenvalues --    4.73114   4.84452   4.99780   5.07439   5.17128
 Alpha virt. eigenvalues --    5.39360   5.58400   5.84327  23.79041  23.81042
 Alpha virt. eigenvalues --   23.83842  23.98062  23.98287  35.60978  49.86711
 Alpha virt. eigenvalues --   50.01519
          Condensed to atoms (all electrons):
              1          2          3          4          5          6
     1  N    6.741053   0.381958  -0.093174  -0.052167   0.061875  -0.018818
     2  H    0.381958   0.433403   0.002389   0.013798  -0.025715  -0.040257
     3  C   -0.093174   0.002389   8.052633   0.396302  -1.347011  -0.737304
     4  H   -0.052167   0.013798   0.396302   0.529749   0.062326  -0.133474
     5  C    0.061875  -0.025715  -1.347011   0.062326   7.116918   0.086478
     6  C   -0.018818  -0.040257  -0.737304  -0.133474   0.086478   6.274195
     7  C    0.043809  -0.000500   0.084465  -0.087310  -0.507321   0.183668
     8  O   -0.038747   0.009221   0.075674   0.005414  -0.095112   0.450689
     9  H   -0.000470  -0.000489  -0.050138   0.009329   0.083541  -0.000279
    10  H   -0.000126  -0.000030   0.035293  -0.001836  -0.092538  -0.002685
    11  H   -0.008704   0.001793   0.014792  -0.001186  -0.087524  -0.022607
    12  H    0.391156  -0.042298  -0.045800  -0.016199   0.007982   0.016112
    13  O    0.003483   0.000018   0.033678  -0.000194  -0.110711   0.144044
    14  H   -0.003011  -0.000458  -0.052434   0.002451   0.006241   0.060247
    15  H   -0.017564   0.002946  -0.057034   0.024848   0.561231  -0.023361
    16  C   -0.070252   0.008282   0.269052  -0.017018  -0.117233  -0.128914
    17  H    0.010760  -0.000382  -0.060325  -0.001115  -0.026781   0.008100
    18  H    0.002844   0.000066   0.040957  -0.001520  -0.108930  -0.004667
    19  H   -0.006341   0.000153  -0.010066   0.007892   0.031094  -0.006706
              7          8          9         10         11         12
     1  N    0.043809  -0.038747  -0.000470  -0.000126  -0.008704   0.391156
     2  H   -0.000500   0.009221  -0.000489  -0.000030   0.001793  -0.042298
     3  C    0.084465   0.075674  -0.050138   0.035293   0.014792  -0.045800
     4  H   -0.087310   0.005414   0.009329  -0.001836  -0.001186  -0.016199
     5  C   -0.507321  -0.095112   0.083541  -0.092538  -0.087524   0.007982
     6  C    0.183668   0.450689  -0.000279  -0.002685  -0.022607   0.016112
     7  C    6.013862   0.000336   0.339774   0.419277   0.452624   0.000679
     8  O    0.000336   8.067338  -0.000514  -0.001165  -0.004000  -0.001485
     9  H    0.339774  -0.000514   0.543624  -0.030660  -0.046218  -0.000226
    10  H    0.419277  -0.001165  -0.030660   0.543160  -0.024304   0.000076
    11  H    0.452624  -0.004000  -0.046218  -0.024304   0.571993  -0.000648
    12  H    0.000679  -0.001485  -0.000226   0.000076  -0.000648   0.426048
    13  O    0.001433  -0.144141   0.000426  -0.001126  -0.007015   0.000942
    14  H   -0.000535  -0.002534  -0.000050   0.000024  -0.000539  -0.000208
    15  H   -0.132696  -0.002253   0.014816  -0.012338  -0.016120  -0.001969
    16  C   -0.111160   0.005497  -0.025742   0.002976   0.008263  -0.001351
    17  H    0.017723   0.000152  -0.002783   0.001941  -0.001977   0.001961
    18  H    0.004702  -0.000146   0.000535   0.000894   0.002199   0.000134
    19  H   -0.018644   0.000129   0.010571   0.001022  -0.001727  -0.000797
             13         14         15         16         17         18
     1  N    0.003483  -0.003011  -0.017564  -0.070252   0.010760   0.002844
     2  H    0.000018  -0.000458   0.002946   0.008282  -0.000382   0.000066
     3  C    0.033678  -0.052434  -0.057034   0.269052  -0.060325   0.040957
     4  H   -0.000194   0.002451   0.024848  -0.017018  -0.001115  -0.001520
     5  C   -0.110711   0.006241   0.561231  -0.117233  -0.026781  -0.108930
     6  C    0.144044   0.060247  -0.023361  -0.128914   0.008100  -0.004667
     7  C    0.001433  -0.000535  -0.132696  -0.111160   0.017723   0.004702
     8  O   -0.144141  -0.002534  -0.002253   0.005497   0.000152  -0.000146
     9  H    0.000426  -0.000050   0.014816  -0.025742  -0.002783   0.000535
    10  H   -0.001126   0.000024  -0.012338   0.002976   0.001941   0.000894
    11  H   -0.007015  -0.000539  -0.016120   0.008263  -0.001977   0.002199
    12  H    0.000942  -0.000208  -0.001969  -0.001351   0.001961   0.000134
    13  O    7.956184   0.260551   0.004335   0.002477   0.000208   0.000208
    14  H    0.260551   0.425486   0.000730  -0.001757  -0.000037  -0.000149
    15  H    0.004335   0.000730   0.563191  -0.081030  -0.005959  -0.013768
    16  C    0.002477  -0.001757  -0.081030   5.615897   0.408007   0.429982
    17  H    0.000208  -0.000037  -0.005959   0.408007   0.547489  -0.022981
    18  H    0.000208  -0.000149  -0.013768   0.429982  -0.022981   0.556727
    19  H   -0.000037   0.000057   0.009301   0.361451  -0.042445  -0.033441
             19
     1  N   -0.006341
     2  H    0.000153
     3  C   -0.010066
     4  H    0.007892
     5  C    0.031094
     6  C   -0.006706
     7  C   -0.018644
     8  O    0.000129
     9  H    0.010571
    10  H    0.001022
    11  H   -0.001727
    12  H   -0.000797
    13  O   -0.000037
    14  H    0.000057
    15  H    0.009301
    16  C    0.361451
    17  H   -0.042445
    18  H   -0.033441
    19  H    0.558332
 Mulliken atomic charges:
              1
     1  N   -0.327565
     2  H    0.256102
     3  C   -0.551950
     4  H    0.259909
     5  C    0.501192
     6  C   -0.104462
     7  C   -0.704187
     8  O   -0.324353
     9  H    0.154952
    10  H    0.162147
    11  H    0.170903
    12  H    0.265889
    13  O   -0.144763
    14  H    0.305924
    15  H    0.182694
    16  C   -0.557430
    17  H    0.168444
    18  H    0.146351
    19  H    0.140203
 Sum of Mulliken atomic charges =   0.00000
 Mulliken charges with hydrogens summed into heavy atoms:
              1
     1  N    0.194426
     3  C   -0.292041
     5  C    0.683886
     6  C   -0.104462
     7  C   -0.216185
     8  O   -0.324353
    13  O    0.161161
    16  C   -0.102432
 Sum of Mulliken charges with hydrogens summed into heavy atoms =   0.00000
 Electronic spatial extent (au):  <R**2>=           1070.6159
 Charge=              0.0000 electrons
 Dipole moment (field-independent basis, Debye):
    X=             -0.4627    Y=             -0.8877    Z=             -1.3912  Tot=              1.7139
 Quadrupole moment (field-independent basis, Debye-Ang):
   XX=            -49.0041   YY=            -49.0335   ZZ=            -52.9732
   XY=             -0.8226   XZ=              4.9091   YZ=             -1.1596
 Traceless Quadrupole moment (field-independent basis, Debye-Ang):
   XX=              1.3329   YY=              1.3034   ZZ=             -2.6363
   XY=             -0.8226   XZ=              4.9091   YZ=             -1.1596
 Octapole moment (field-independent basis, Debye-Ang**2):
  XXX=            -31.1309  YYY=              2.5984  ZZZ=             -3.5490  XYY=            -19.0993
  XXY=            -15.3378  XXZ=             -9.3299  XZZ=              4.2525  YZZ=              3.6853
  YYZ=              1.2199  XYZ=              2.8007
 Hexadecapole moment (field-independent basis, Debye-Ang**3):
 XXXX=           -740.7078 YYYY=           -430.3241 ZZZZ=           -176.6569 XXXY=             38.0924
 XXXZ=             39.2828 YYYX=            -13.5480 YYYZ=              2.6736 ZZZX=              5.1203
 ZZZY=              1.4564 XXYY=           -193.1623 XXZZ=           -177.0342 YYZZ=            -94.9385
 XXYZ=             -0.3944 YYXZ=              7.3032 ZZXY=             -2.2102
 N-N= 4.053471445641D+02 E-N=-1.751222139741D+03  KE= 4.008502819677D+02
 No NMR shielding tensors so no spin-rotation constants.
 Leave Link  601 at Sun Apr 17 22:00:17 2016, MaxMem=   33554432 cpu:       1.0
 (Enter c:\G09w03\l701.exe)
 Compute integral first derivatives.
 ... and contract with generalized density number  0.
 D1PCM: C-PCM CHGder 1st derivatives, ID1Alg=3 FixD1E=F DoIter=F DoCFld=F I1PDM=0.
 GePol: Maximum number of non-zero 1st derivatives   =     209
 Leave Link  701 at Sun Apr 17 22:00:26 2016, MaxMem=   33554432 cpu:       9.0
 (Enter c:\G09w03\l702.exe)
 L702 exits ... SP integral derivatives will be done elsewhere.
 Leave Link  702 at Sun Apr 17 22:00:26 2016, MaxMem=   33554432 cpu:       0.0
 (Enter c:\G09w03\l703.exe)
 Compute integral first derivatives, UseDBF=F ICtDFT=           0.
 Integral derivatives from FoFDir, PRISM(SPDF).
 Calling FoFJK, ICntrl=      2127 FMM=F ISym2X=0 I1Cent= 0 IOpClX= 0 NMat=1 NMatS=1 NMatT=0.
 FoFCou: FMM=F IPFlag=           0 FMFlag=      100000 FMFlg1=         800
         NFxFlg=           0 DoJE=F BraDBF=F KetDBF=F FulRan=T
         Omega=  0.000000  0.000000  1.000000  0.000000  0.000000 ICntrl=    2127 IOpCl=  0
         NMat0=    1 NMatS0=    1 NMatT0=    0 NMatD0=    1 NMtDS0=    0 NMtDT0=    0
         I1Cent=           0 NGrid=           0.
 Symmetry not used in FoFCou.
 Leave Link  703 at Sun Apr 17 22:02:18 2016, MaxMem=   33554432 cpu:     112.0
 (Enter c:\G09w03\l716.exe)
 Dipole        =-1.82048368D-01-3.49267665D-01-5.47328245D-01
 -------------------------------------------------------------------
 Center     Atomic                   Forces (Hartrees/Bohr)
 Number     Number              X              Y              Z
 -------------------------------------------------------------------
      1        7           0.000191775    0.000797402    0.000093976
      2        1           0.000026138    0.000493485    0.000001680
      3        6           0.000688059   -0.000075849   -0.000397453
      4        1          -0.000342616    0.000077609    0.000393638
      5        6          -0.000312287   -0.000344669    0.000286679
      6        6           0.001781772   -0.002738554   -0.008951909
      7        6           0.000289701   -0.000229621   -0.000097100
      8        8          -0.002436954    0.001015308    0.005190802
      9        1           0.000124878    0.000154960   -0.000080842
     10        1          -0.000035464    0.000097903    0.000032785
     11        1          -0.000101569   -0.000023298    0.000085268
     12        1          -0.000965968   -0.000253757    0.000005856
     13        8           0.002089249    0.003116464    0.004017067
     14        1          -0.001546785   -0.001409027   -0.000852209
     15        1           0.000332957   -0.000007104    0.000093665
     16        6           0.000185591   -0.000645974   -0.000271560
     17        1           0.000409009   -0.000166536    0.000277597
     18        1          -0.000151259    0.000125600    0.000132150
     19        1          -0.000226225    0.000015657    0.000039910
 -------------------------------------------------------------------
 Cartesian Forces:  Max     0.008951909 RMS     0.001698447
 Leave Link  716 at Sun Apr 17 22:02:18 2016, MaxMem=   33554432 cpu:       0.0
 (Enter c:\G09w03\l103.exe)

 GradGradGradGradGradGradGradGradGradGradGradGradGradGradGradGradGradGrad
 Berny optimization.
 Internal  Forces:  Max     0.005822665 RMS     0.000891409
 Search for a local minimum.
 Step number   1 out of a maximum of  100
 All quantities printed in internal units (Hartrees-Bohrs-Radians)
 RMS Force = .89141D-03 SwitMx=.10000D-02 MixMth= 2
 Mixed Optimization -- En-DIIS/RFO-DIIS
 Second derivative matrix not updated -- first step.
 ITU=  0
     Eigenvalues ---    0.00230   0.00302   0.00320   0.00383   0.00839
     Eigenvalues ---    0.00849   0.02283   0.03399   0.04250   0.04471
     Eigenvalues ---    0.04675   0.04879   0.05194   0.05308   0.05478
     Eigenvalues ---    0.05563   0.05599   0.06312   0.16000   0.16000
     Eigenvalues ---    0.16000   0.16000   0.16000   0.16000   0.16000
     Eigenvalues ---    0.16000   0.16000   0.16698   0.17082   0.17247
     Eigenvalues ---    0.18533   0.24999   0.25000   0.27441   0.28958
     Eigenvalues ---    0.29086   0.29517   0.33936   0.34156   0.34262
     Eigenvalues ---    0.34396   0.34411   0.34463   0.34466   0.34810
     Eigenvalues ---    0.36502   0.44898   0.45188   0.53326   0.53904
     Eigenvalues ---    1.01248
 RFO step:  Lambda=-3.02035471D-04 EMin= 2.30000000D-03
 Linear search not attempted -- first point.
 Iteration  1 RMS(Cart)=  0.03092480 RMS(Int)=  0.00030204
 Iteration  2 RMS(Cart)=  0.00043677 RMS(Int)=  0.00002166
 Iteration  3 RMS(Cart)=  0.00000007 RMS(Int)=  0.00002166
 Variable       Old X    -DE/DX   Delta X   Delta X   Delta X     New X
                                 (Linear)    (Quad)   (Total)
    R1        1.92095   0.00008   0.00000   0.00019   0.00019   1.92113
    R2        2.76604   0.00098   0.00000   0.00269   0.00269   2.76874
    R3        1.91759   0.00046   0.00000   0.00102   0.00102   1.91860
    R4        2.06642  -0.00043   0.00000  -0.00126  -0.00126   2.06516
    R5        2.93377   0.00110   0.00000   0.00402   0.00402   2.93779
    R6        2.88936  -0.00005   0.00000  -0.00016  -0.00016   2.88920
    R7        2.90091  -0.00003   0.00000  -0.00009  -0.00009   2.90082
    R8        2.07438   0.00006   0.00000   0.00018   0.00018   2.07456
    R9        2.89823  -0.00006   0.00000  -0.00021  -0.00021   2.89802
   R10        2.28143   0.00582   0.00000   0.00575   0.00575   2.28718
   R11        2.56119  -0.00344   0.00000  -0.00638  -0.00638   2.55482
   R12        2.06891   0.00003   0.00000   0.00008   0.00008   2.06899
   R13        2.06551  -0.00005   0.00000  -0.00015  -0.00015   2.06536
   R14        2.06556   0.00013   0.00000   0.00037   0.00037   2.06594
   R15        1.83350   0.00150   0.00000   0.00281   0.00281   1.83632
   R16        2.05985  -0.00012   0.00000  -0.00034  -0.00034   2.05951
   R17        2.06667  -0.00010   0.00000  -0.00028  -0.00028   2.06640
   R18        2.07068  -0.00007   0.00000  -0.00019  -0.00019   2.07049
    A1        1.91581   0.00085   0.00000   0.00360   0.00360   1.91941
    A2        1.87072  -0.00018   0.00000  -0.00441  -0.00442   1.86630
    A3        1.93788  -0.00108   0.00000  -0.00835  -0.00835   1.92953
    A4        1.89076  -0.00035   0.00000  -0.00121  -0.00125   1.88951
    A5        1.92448   0.00154   0.00000   0.01135   0.01134   1.93583
    A6        1.94252  -0.00047   0.00000  -0.00202  -0.00202   1.94050
    A7        1.89472  -0.00003   0.00000   0.00138   0.00135   1.89607
    A8        1.88549   0.00005   0.00000  -0.00654  -0.00655   1.87894
    A9        1.92451  -0.00076   0.00000  -0.00322  -0.00323   1.92128
   A10        1.96411  -0.00023   0.00000  -0.00172  -0.00171   1.96240
   A11        1.85486  -0.00007   0.00000   0.00358   0.00357   1.85843
   A12        1.92476   0.00095   0.00000   0.00576   0.00575   1.93051
   A13        1.88732   0.00026   0.00000  -0.00057  -0.00058   1.88674
   A14        1.93445  -0.00080   0.00000  -0.00625  -0.00625   1.92820
   A15        1.89504  -0.00009   0.00000  -0.00046  -0.00049   1.89455
   A16        2.17761  -0.00016   0.00000  -0.00055  -0.00067   2.17694
   A17        1.96952   0.00010   0.00000   0.00051   0.00040   1.96992
   A18        2.13599   0.00006   0.00000   0.00034   0.00023   2.13622
   A19        1.94013  -0.00023   0.00000  -0.00139  -0.00139   1.93874
   A20        1.92049  -0.00010   0.00000  -0.00086  -0.00086   1.91963
   A21        1.96327   0.00004   0.00000   0.00045   0.00045   1.96372
   A22        1.87930   0.00012   0.00000   0.00034   0.00034   1.87964
   A23        1.88338   0.00015   0.00000   0.00135   0.00135   1.88473
   A24        1.87405   0.00003   0.00000   0.00019   0.00019   1.87424
   A25        1.87268   0.00309   0.00000   0.01926   0.01926   1.89194
   A26        1.94120   0.00047   0.00000   0.00301   0.00301   1.94421
   A27        1.92592  -0.00024   0.00000  -0.00217  -0.00217   1.92374
   A28        1.93148  -0.00027   0.00000  -0.00104  -0.00104   1.93044
   A29        1.89707  -0.00026   0.00000  -0.00284  -0.00284   1.89424
   A30        1.88786   0.00004   0.00000   0.00157   0.00156   1.88943
   A31        1.87860   0.00025   0.00000   0.00146   0.00146   1.88005
    D1        2.94124  -0.00033   0.00000   0.01361   0.01361   2.95485
    D2       -1.27076   0.00032   0.00000   0.02112   0.02112  -1.24964
    D3        0.87075   0.00010   0.00000   0.02357   0.02357   0.89433
    D4        0.87599   0.00002   0.00000   0.02193   0.02193   0.89791
    D5        2.94717   0.00067   0.00000   0.02944   0.02944   2.97661
    D6       -1.19449   0.00046   0.00000   0.03189   0.03189  -1.16260
    D7        3.03730  -0.00005   0.00000  -0.03400  -0.03401   3.00329
    D8        0.97471  -0.00019   0.00000  -0.03460  -0.03460   0.94011
    D9       -1.07602  -0.00055   0.00000  -0.03908  -0.03910  -1.11512
   D10       -1.17713   0.00041   0.00000  -0.02803  -0.02802  -1.20515
   D11        3.04347   0.00026   0.00000  -0.02863  -0.02861   3.01486
   D12        0.99274  -0.00009   0.00000  -0.03311  -0.03311   0.95963
   D13        0.88525   0.00001   0.00000  -0.03701  -0.03701   0.84824
   D14       -1.17733  -0.00013   0.00000  -0.03761  -0.03760  -1.21494
   D15        3.05512  -0.00048   0.00000  -0.04209  -0.04210   3.01302
   D16       -0.81478  -0.00073   0.00000  -0.02367  -0.02366  -0.83843
   D17        2.31484  -0.00049   0.00000   0.00375   0.00375   2.31859
   D18       -2.88842  -0.00005   0.00000  -0.01692  -0.01691  -2.90533
   D19        0.24120   0.00018   0.00000   0.01049   0.01049   0.25169
   D20        1.32673   0.00038   0.00000  -0.01283  -0.01284   1.31388
   D21       -1.82684   0.00062   0.00000   0.01458   0.01456  -1.81228
   D22        1.03455   0.00024   0.00000   0.00761   0.00762   1.04216
   D23        3.11483   0.00018   0.00000   0.00660   0.00660   3.12143
   D24       -1.07975   0.00018   0.00000   0.00655   0.00656  -1.07319
   D25        3.07793   0.00018   0.00000   0.01064   0.01064   3.08857
   D26       -1.12498   0.00013   0.00000   0.00963   0.00963  -1.11535
   D27        0.96363   0.00012   0.00000   0.00958   0.00958   0.97322
   D28       -1.12997  -0.00023   0.00000   0.00607   0.00607  -1.12390
   D29        0.95031  -0.00029   0.00000   0.00506   0.00506   0.95537
   D30        3.03892  -0.00029   0.00000   0.00501   0.00501   3.04393
   D31        0.92774   0.00038   0.00000   0.02497   0.02497   0.95271
   D32        3.03457   0.00021   0.00000   0.02192   0.02192   3.05649
   D33       -1.17120   0.00020   0.00000   0.02169   0.02169  -1.14951
   D34        3.11457   0.00019   0.00000   0.02242   0.02241   3.13699
   D35       -1.06178   0.00003   0.00000   0.01937   0.01936  -1.04242
   D36        1.01563   0.00001   0.00000   0.01914   0.01914   1.03476
   D37       -1.09799  -0.00002   0.00000   0.01774   0.01775  -1.08025
   D38        1.00884  -0.00018   0.00000   0.01469   0.01470   1.02353
   D39        3.08625  -0.00020   0.00000   0.01447   0.01447   3.10072
   D40        3.13146  -0.00019   0.00000  -0.01664  -0.01665   3.11481
   D41       -0.02178   0.00004   0.00000   0.01001   0.01002  -0.01176
         Item               Value     Threshold  Converged?
 Maximum Force            0.005823     0.000450     NO 
 RMS     Force            0.000891     0.000300     NO 
 Maximum Displacement     0.085191     0.001800     NO 
 RMS     Displacement     0.030989     0.001200     NO 
 Predicted change in Energy=-1.542693D-04
 GradGradGradGradGradGradGradGradGradGradGradGradGradGradGradGradGradGrad

 Leave Link  103 at Sun Apr 17 22:02:18 2016, MaxMem=   33554432 cpu:       0.0
 (Enter c:\G09w03\l202.exe)
                          Input orientation:                          
 ---------------------------------------------------------------------
 Center     Atomic      Atomic             Coordinates (Angstroms)
 Number     Number       Type             X           Y           Z
 ---------------------------------------------------------------------
      1          7           0        0.091308    1.982656   -0.119608
      2          1           0       -0.187066    2.171763    0.839695
      3          6           0        0.020412    0.543844   -0.386940
      4          1           0        0.135863    0.389316   -1.462618
      5          6           0        1.160776   -0.214220    0.349083
      6          6           0       -1.337957   -0.027484    0.020435
      7          6           0        1.007812   -1.738635    0.253494
      8          8           0       -1.883403    0.180173    1.080741
      9          1           0        1.016161   -2.070620   -0.789790
     10          1           0        1.839018   -2.230308    0.765230
     11          1           0        0.083114   -2.096250    0.714180
     12          1           0       -0.552589    2.488840   -0.719580
     13          8           0       -1.880121   -0.821872   -0.929710
     14          1           0       -2.724772   -1.167094   -0.595555
     15          1           0        1.091255    0.069895    1.407212
     16          6           0        2.530869    0.221991   -0.184199
     17          1           0        2.653641    1.303416   -0.127514
     18          1           0        3.329532   -0.249302    0.395232
     19          1           0        2.652716   -0.082954   -1.229487
 ---------------------------------------------------------------------
                    Distance matrix (angstroms):
                    1          2          3          4          5
     1  N    0.000000
     2  H    1.016620   0.000000
     3  C    1.465153   2.048854   0.000000
     4  H    2.084321   2.929513   1.092836   0.000000
     5  C    2.487910   2.783936   1.554613   2.167248   0.000000
     6  C    2.470440   2.613891   1.528901   2.131974   2.527162
     7  C    3.850609   4.130687   2.568038   2.869409   1.535049
     8  O    2.930745   2.627184   2.431226   3.254205   3.155614
     9  H    4.211122   4.701149   2.826522   2.697945   2.182697
    10  H    4.646126   4.846523   3.511515   3.837508   2.167440
    11  H    4.163261   4.278398   2.861205   3.304432   2.199247
    12  H    1.015280   1.632631   2.054748   2.331110   3.374048
    13  O    3.522524   3.867698   2.402459   2.411464   3.354342
    14  H    4.251794   4.432591   3.241429   3.370080   4.110692
    15  H    2.643809   2.524684   2.142501   3.041501   1.097812
    16  C    3.009247   3.498163   2.539112   2.720002   1.533566
    17  H    2.650845   3.123962   2.752843   2.992873   2.181516
    18  H    3.966458   4.292501   3.491582   3.749528   2.169530
    19  H    3.472662   4.174881   2.834040   2.571369   2.176005
                    6          7          8          9         10
     6  C    0.000000
     7  C    2.912900   0.000000
     8  O    1.210323   3.567252   0.000000
     9  H    3.220675   1.094863   4.119761   0.000000
    10  H    3.937045   1.092941   4.445940   1.766545   0.000000
    11  H    2.603943   1.093246   3.030455   1.770074   1.761754
    12  H    2.737939   4.610127   3.215924   4.822301   5.494980
    13  O    1.351951   3.252781   2.246334   3.157119   4.323021
    14  H    1.897738   3.870365   2.309328   3.853397   4.879584
    15  H    2.798875   2.146813   2.994551   3.068267   2.502444
    16  C    3.882258   2.520978   4.592127   2.813743   2.719162
    17  H    4.210230   3.479654   4.827663   3.808421   3.734676
    18  H    4.687763   2.761989   5.275326   3.173824   2.506573
    19  H    4.182206   2.765179   5.097329   2.611984   3.041731
                   11         12         13         14         15
    11  H    0.000000
    12  H    4.845910   0.000000
    13  O    2.860193   3.573138   0.000000
    14  H    3.234650   4.254364   0.971737   0.000000
    15  H    2.487735   3.616181   3.884009   4.483668   0.000000
    16  C    3.488959   3.864318   4.593721   5.451654   2.151328
    17  H    4.344398   3.469248   5.071032   5.937155   2.513564
    18  H    3.748623   4.879661   5.405903   6.203111   2.477069
    19  H    3.799218   4.141028   4.602442   5.522191   3.068176
                   16         17         18         19
    16  C    0.000000
    17  H    1.089847   0.000000
    18  H    1.093490   1.772294   0.000000
    19  H    1.095657   1.770980   1.767899   0.000000
 Symmetry turned off by external request.
 Stoichiometry    C5H11NO2
 Framework group  C1[X(C5H11NO2)]
 Deg. of freedom    51
 Full point group                 C1      NOp   1
 Rotational constants (GHZ):      2.7820694      1.5567597      1.2215934
 Leave Link  202 at Sun Apr 17 22:02:18 2016, MaxMem=   33554432 cpu:       0.0
 (Enter c:\G09w03\l301.exe)
 Standard basis: 6-311++G(d,p) (5D, 7F)
 Ernie: Thresh=  0.10000D-02 Tol=  0.10000D-05 Strict=F.
 Integral buffers will be    262144 words long.
 Raffenetti 2 integral format.
 Two-electron integral symmetry is turned off.
   253 basis functions,   387 primitive gaussians,   261 cartesian basis functions
    32 alpha electrons       32 beta electrons
       nuclear repulsion energy       405.4016172299 Hartrees.
 IExCor=  402 DFT=T Ex+Corr=B3LYP ExCW=0 ScaHFX=  0.200000
 ScaDFX=  0.800000  0.720000  1.000000  0.810000 ScalE2=  1.000000  1.000000
 IRadAn=      0 IRanWt=     -1 IRanGd=            0 ICorTp=0
 NAtoms=   19 NActive=   19 NUniq=   19 SFac= 1.00D+00 NAtFMM=   50 NAOKFM=F Big=F
 ------------------------------------------------------------------------------
 Polarizable Continuum Model (PCM)
 =================================
 Model                : C-PCM.
 Atomic radii         : UFF (Universal Force Field).
 Polarization charges : Total charges.
 Charge compensation  : None.
 Solution method      : Matrix inversion.
 Cavity type          : Scaled VdW (van der Waals Surface) (Alpha=1.100).
 Cavity algorithm     : GePol (No added spheres)
                        Default sphere list used, NSphG=   19.
                        Lebedev-Laikov grids with approx.  5.0 points / Ang**2.
                        Smoothing algorithm: Karplus/York (Gamma=1.0000).
                        Polarization charges: spherical gaussians, with
                                              point-specific exponents (IZeta= 3).
                        Self-potential: point-specific (ISelfS= 7).
                        Self-field    : sphere-specific E.n sum rule (ISelfD= 2).
 1st derivatives      : Analytical E(r).r(x)/FMM algorithm (CHGder, D1EAlg=3).
                        Cavity 1st derivative terms included.
 Solvent              : Water, Eps=  78.355300 Eps(inf)=   1.777849
 ------------------------------------------------------------------------------
 Spheres list:
 ISph  on   Nord    Re0     Alpha      Xe            Ye            Ze
    1   N      1    1.830   1.100      0.091308      1.982656     -0.119608
    2   H      2    1.443   1.100     -0.187066      2.171763      0.839695
    3   C      3    1.926   1.100      0.020412      0.543844     -0.386940
    4   H      4    1.443   1.100      0.135863      0.389316     -1.462618
    5   C      5    1.926   1.100      1.160776     -0.214220      0.349083
    6   C      6    1.926   1.100     -1.337957     -0.027484      0.020435
    7   C      7    1.926   1.100      1.007812     -1.738635      0.253494
    8   O      8    1.750   1.100     -1.883403      0.180173      1.080741
    9   H      9    1.443   1.100      1.016161     -2.070620     -0.789790
   10   H     10    1.443   1.100      1.839018     -2.230308      0.765230
   11   H     11    1.443   1.100      0.083114     -2.096250      0.714180
   12   H     12    1.443   1.100     -0.552589      2.488840     -0.719580
   13   O     13    1.750   1.100     -1.880121     -0.821872     -0.929710
   14   H     14    1.443   1.100     -2.724772     -1.167094     -0.595555
   15   H     15    1.443   1.100      1.091255      0.069895      1.407212
   16   C     16    1.926   1.100      2.530869      0.221991     -0.184199
   17   H     17    1.443   1.100      2.653641      1.303416     -0.127514
   18   H     18    1.443   1.100      3.329532     -0.249302      0.395232
   19   H     19    1.443   1.100      2.652716     -0.082954     -1.229487
 ------------------------------------------------------------------------------
 GePol: Number of generator spheres                  =      19
 GePol: Total number of spheres                      =      19
 GePol: Number of exposed spheres                    =      19 (100.00%)
 GePol: Number of points                             =    1435
 GePol: Average weight of points                     =       0.13
 GePol: Minimum weight of points                     =   0.27D-09
 GePol: Maximum weight of points                     =    0.20577
 GePol: Number of points with low weight             =      97
 GePol: Fraction of low-weight points (<1% of avg)   =       6.76%
 GePol: Cavity surface area                          =    191.986 Ang**2
 GePol: Cavity volume                                =    188.076 Ang**3
 Leave Link  301 at Sun Apr 17 22:02:18 2016, MaxMem=   33554432 cpu:       0.0
 (Enter c:\G09w03\l302.exe)
 NPDir=0 NMtPBC=     1 NCelOv=     1 NCel=       1 NClECP=     1 NCelD=      1
         NCelK=      1 NCelE2=     1 NClLst=     1 CellRange=     0.0.
 One-electron integrals computed using PRISM.
 NBasis=   253 RedAO= T  NBF=   253
 NBsUse=   253 1.00D-06 NBFU=   253
 Precomputing XC quadrature grid using
 IXCGrd= 2 IRadAn=           0 IRanWt=          -1 IRanGd=           0 AccXCQ= 0.00D+00.
 NRdTot=    1232 NPtTot=      157136 NUsed=      162883 NTot=      162899
 NSgBfM=   261   261   261   261   261 NAtAll=    19    19.
 Leave Link  302 at Sun Apr 17 22:02:19 2016, MaxMem=   33554432 cpu:       1.0
 (Enter c:\G09w03\l303.exe)
 DipDrv:  MaxL=1.
 Leave Link  303 at Sun Apr 17 22:02:19 2016, MaxMem=   33554432 cpu:       0.0
 (Enter c:\G09w03\l401.exe)
 Initial guess read from the read-write file.
 B after Tr=     0.000000    0.000000    0.000000
         Rot=    1.000000    0.000000    0.000000    0.000000 Ang=   0.00 deg.
 Guess basis will be translated and rotated to current coordinates.
 Generating alternative initial guess.
 Harris functional with IExCor=  402 diagonalized for initial guess.
 ExpMin= 3.60D-02 ExpMax= 8.59D+03 ExpMxC= 1.30D+03 IAcc=3 IRadAn=         0 AccDes= 0.00D+00
 HarFok:  IExCor=  402 AccDes= 0.00D+00 IRadAn=         0 IDoV= 1
 ScaDFX=  1.000000  1.000000  1.000000  1.000000
 FoFCou: FMM=F IPFlag=           0 FMFlag=      100000 FMFlg1=           0
         NFxFlg=           0 DoJE=T BraDBF=F KetDBF=T FulRan=T
         Omega=  0.000000  0.000000  1.000000  0.000000  0.000000 ICntrl=     500 IOpCl=  0
         NMat0=    1 NMatS0=    1 NMatT0=    0 NMatD0=    1 NMtDS0=    0 NMtDT0=    0
         I1Cent=           4 NGrid=           0.
 Symmetry not used in FoFCou.
 Harris En= -402.546390298215    
 Leave Link  401 at Sun Apr 17 22:02:30 2016, MaxMem=   33554432 cpu:      11.0
 (Enter c:\G09w03\l502.exe)
 Closed shell SCF:
 Requested convergence on RMS density matrix=1.00D-08 within 128 cycles.
 Requested convergence on MAX density matrix=1.00D-06.
 Requested convergence on             energy=1.00D-06.
 No special actions if energy rises.
 Using DIIS extrapolation, IDIIS=  1040.
 Two-electron integral symmetry not used.
       162718 words used for storage of precomputed grid.
 IEnd=      388237 IEndB=      388237 NGot=    33554432 MDV=    33251218
 LenX=    33251218 LenY=    33182656
 Fock matrices will be formed incrementally for  20 cycles.

 Cycle   1  Pass 1  IDiag  1:
 FoFCou: FMM=F IPFlag=           0 FMFlag=      100000 FMFlg1=           0
         NFxFlg=           0 DoJE=F BraDBF=F KetDBF=F FulRan=T
         Omega=  0.000000  0.000000  1.000000  0.000000  0.000000 ICntrl=       0 IOpCl=  0
         NMat0=    1 NMatS0=    1 NMatT0=    0 NMatD0=    1 NMtDS0=    0 NMtDT0=    0
         I1Cent=           0 NGrid=           0.
 Symmetry not used in FoFCou.
 E= -402.510470646771    
 DIIS: error= 1.31D-03 at cycle   1 NSaved=   1.
 NSaved= 1 IEnMin= 1 EnMin= -402.510470646771     IErMin= 1 ErrMin= 1.31D-03
 ErrMax= 1.31D-03 EMaxC= 1.00D-01 BMatC= 1.11D-03 BMatP= 1.11D-03
 IDIUse=3 WtCom= 9.87D-01 WtEn= 1.31D-02
 Coeff-Com:  0.100D+01
 Coeff-En:   0.100D+01
 Coeff:      0.100D+01
 Gap=     0.246 Goal=   None    Shift=    0.000
 GapD=    0.246 DampG=1.000 DampE=1.000 DampFc=1.0000 IDamp=-1.
 RMSDP=7.46D-04 MaxDP=4.85D-02              OVMax= 9.72D-03

 Cycle   2  Pass 1  IDiag  1:
 RMSU=  5.27D-04    CP:  1.00D+00
 E= -402.512042340703     Delta-E=       -0.001571693932 Rises=F Damp=F
 DIIS: error= 2.54D-04 at cycle   2 NSaved=   2.
 NSaved= 2 IEnMin= 2 EnMin= -402.512042340703     IErMin= 2 ErrMin= 2.54D-04
 ErrMax= 2.54D-04 EMaxC= 1.00D-01 BMatC= 3.32D-05 BMatP= 1.11D-03
 IDIUse=3 WtCom= 9.97D-01 WtEn= 2.54D-03
 Coeff-Com: -0.215D-01 0.102D+01
 Coeff-En:   0.000D+00 0.100D+01
 Coeff:     -0.214D-01 0.102D+01
 Gap=     0.241 Goal=   None    Shift=    0.000
 RMSDP=7.39D-05 MaxDP=1.94D-03 DE=-1.57D-03 OVMax= 2.55D-03

 Cycle   3  Pass 1  IDiag  1:
 RMSU=  5.21D-05    CP:  1.00D+00  1.01D+00
 E= -402.512022666208     Delta-E=        0.000019674495 Rises=F Damp=F
 DIIS: error= 4.66D-04 at cycle   3 NSaved=   3.
 NSaved= 3 IEnMin= 2 EnMin= -402.512042340703     IErMin= 2 ErrMin= 2.54D-04
 ErrMax= 4.66D-04 EMaxC= 1.00D-01 BMatC= 7.04D-05 BMatP= 3.32D-05
 IDIUse=3 WtCom= 3.17D-01 WtEn= 6.83D-01
 Coeff-Com: -0.382D-01 0.632D+00 0.406D+00
 Coeff-En:   0.000D+00 0.629D+00 0.371D+00
 Coeff:     -0.121D-01 0.630D+00 0.382D+00
 Gap=     0.242 Goal=   None    Shift=    0.000
 RMSDP=3.65D-05 MaxDP=1.51D-03 DE= 1.97D-05 OVMax= 1.91D-03

 Cycle   4  Pass 1  IDiag  1:
 RMSU=  1.96D-05    CP:  1.00D+00  9.98D-01  6.98D-01
 E= -402.512072265454     Delta-E=       -0.000049599246 Rises=F Damp=F
 DIIS: error= 9.60D-05 at cycle   4 NSaved=   4.
 NSaved= 4 IEnMin= 4 EnMin= -402.512072265454     IErMin= 4 ErrMin= 9.60D-05
 ErrMax= 9.60D-05 EMaxC= 1.00D-01 BMatC= 2.31D-06 BMatP= 3.32D-05
 IDIUse=1 WtCom= 1.00D+00 WtEn= 0.00D+00
 Coeff-Com: -0.155D-01 0.215D+00 0.199D+00 0.600D+00
 Coeff:     -0.155D-01 0.215D+00 0.199D+00 0.600D+00
 Gap=     0.242 Goal=   None    Shift=    0.000
 RMSDP=9.38D-06 MaxDP=3.47D-04 DE=-4.96D-05 OVMax= 4.82D-04

 Cycle   5  Pass 1  IDiag  1:
 RMSU=  5.68D-06    CP:  1.00D+00  1.00D+00  6.83D-01  8.75D-01
 E= -402.512073553251     Delta-E=       -0.000001287796 Rises=F Damp=F
 DIIS: error= 3.28D-05 at cycle   5 NSaved=   5.
 NSaved= 5 IEnMin= 5 EnMin= -402.512073553251     IErMin= 5 ErrMin= 3.28D-05
 ErrMax= 3.28D-05 EMaxC= 1.00D-01 BMatC= 5.92D-07 BMatP= 2.31D-06
 IDIUse=1 WtCom= 1.00D+00 WtEn= 0.00D+00
 Coeff-Com: -0.493D-02 0.554D-01 0.760D-01 0.378D+00 0.495D+00
 Coeff:     -0.493D-02 0.554D-01 0.760D-01 0.378D+00 0.495D+00
 Gap=     0.242 Goal=   None    Shift=    0.000
 RMSDP=4.54D-06 MaxDP=3.33D-04 DE=-1.29D-06 OVMax= 1.54D-04

 Cycle   6  Pass 1  IDiag  1:
 RMSU=  2.62D-06    CP:  1.00D+00  1.00D+00  6.87D-01  8.62D-01  7.79D-01
 E= -402.512073996161     Delta-E=       -0.000000442910 Rises=F Damp=F
 DIIS: error= 4.20D-06 at cycle   6 NSaved=   6.
 NSaved= 6 IEnMin= 6 EnMin= -402.512073996161     IErMin= 6 ErrMin= 4.20D-06
 ErrMax= 4.20D-06 EMaxC= 1.00D-01 BMatC= 1.07D-08 BMatP= 5.92D-07
 IDIUse=1 WtCom= 1.00D+00 WtEn= 0.00D+00
 Coeff-Com:  0.979D-04-0.780D-02 0.260D-02 0.591D-01 0.153D+00 0.793D+00
 Coeff:      0.979D-04-0.780D-02 0.260D-02 0.591D-01 0.153D+00 0.793D+00
 Gap=     0.242 Goal=   None    Shift=    0.000
 RMSDP=1.77D-06 MaxDP=9.67D-05 DE=-4.43D-07 OVMax= 4.49D-05

 Cycle   7  Pass 1  IDiag  1:
 RMSU=  5.56D-07    CP:  1.00D+00  1.00D+00  6.95D-01  8.91D-01  8.07D-01
                    CP:  8.83D-01
 E= -402.512074004112     Delta-E=       -0.000000007951 Rises=F Damp=F
 DIIS: error= 1.88D-06 at cycle   7 NSaved=   7.
 NSaved= 7 IEnMin= 7 EnMin= -402.512074004112     IErMin= 7 ErrMin= 1.88D-06
 ErrMax= 1.88D-06 EMaxC= 1.00D-01 BMatC= 2.17D-09 BMatP= 1.07D-08
 IDIUse=1 WtCom= 1.00D+00 WtEn= 0.00D+00
 Coeff-Com:  0.307D-03-0.728D-02-0.286D-02 0.111D-01 0.514D-01 0.424D+00
 Coeff-Com:  0.524D+00
 Coeff:      0.307D-03-0.728D-02-0.286D-02 0.111D-01 0.514D-01 0.424D+00
 Coeff:      0.524D+00
 Gap=     0.242 Goal=   None    Shift=    0.000
 RMSDP=3.85D-07 MaxDP=2.07D-05 DE=-7.95D-09 OVMax= 9.51D-06

 Cycle   8  Pass 1  IDiag  1:
 RMSU=  1.77D-07    CP:  1.00D+00  1.00D+00  6.96D-01  8.91D-01  8.17D-01
                    CP:  8.93D-01  6.99D-01
 E= -402.512074006143     Delta-E=       -0.000000002032 Rises=F Damp=F
 DIIS: error= 3.74D-07 at cycle   8 NSaved=   8.
 NSaved= 8 IEnMin= 8 EnMin= -402.512074006143     IErMin= 8 ErrMin= 3.74D-07
 ErrMax= 3.74D-07 EMaxC= 1.00D-01 BMatC= 6.78D-11 BMatP= 2.17D-09
 IDIUse=1 WtCom= 1.00D+00 WtEn= 0.00D+00
 Coeff-Com:  0.959D-04-0.170D-02-0.132D-02-0.192D-02 0.500D-03 0.641D-01
 Coeff-Com:  0.166D+00 0.775D+00
 Coeff:      0.959D-04-0.170D-02-0.132D-02-0.192D-02 0.500D-03 0.641D-01
 Coeff:      0.166D+00 0.775D+00
 Gap=     0.242 Goal=   None    Shift=    0.000
 RMSDP=1.11D-07 MaxDP=8.74D-06 DE=-2.03D-09 OVMax= 2.92D-06

 Cycle   9  Pass 1  IDiag  1:
 RMSU=  4.92D-08    CP:  1.00D+00  1.00D+00  6.96D-01  8.92D-01  8.19D-01
                    CP:  9.10D-01  7.15D-01  9.58D-01
 E= -402.512074006207     Delta-E=       -0.000000000064 Rises=F Damp=F
 DIIS: error= 2.52D-07 at cycle   9 NSaved=   9.
 NSaved= 9 IEnMin= 9 EnMin= -402.512074006207     IErMin= 9 ErrMin= 2.52D-07
 ErrMax= 2.52D-07 EMaxC= 1.00D-01 BMatC= 1.83D-11 BMatP= 6.78D-11
 IDIUse=1 WtCom= 1.00D+00 WtEn= 0.00D+00
 Coeff-Com:  0.201D-04-0.175D-03-0.385D-03-0.197D-02-0.445D-02-0.615D-02
 Coeff-Com:  0.389D-01 0.406D+00 0.568D+00
 Coeff:      0.201D-04-0.175D-03-0.385D-03-0.197D-02-0.445D-02-0.615D-02
 Coeff:      0.389D-01 0.406D+00 0.568D+00
 Gap=     0.242 Goal=   None    Shift=    0.000
 RMSDP=3.65D-08 MaxDP=3.72D-06 DE=-6.40D-11 OVMax= 1.04D-06

 Cycle  10  Pass 1  IDiag  1:
 RMSU=  1.36D-08    CP:  1.00D+00  1.00D+00  6.96D-01  8.92D-01  8.19D-01
                    CP:  9.10D-01  7.32D-01  9.96D-01  7.82D-01
[...]
 86,0.00153884,0.02498885,0.05920220,0.00241765,-0.01345010,-0.03817239
 ,0.00012282,-0.00670492,-0.00104739,0.00232486,-0.05397884,-0.03329634
 ,-0.00214233,0.06824535,-0.00026181,-0.00359363,-0.00321441,0.00013158
 ,-0.00026630,0.00172685,0.03107555,-0.03817317,-0.29801191,-0.02887602
 ,0.04374625,0.32300016,0.00277350,0.00371073,0.00082498,0.00032747,-0.
 00058585,0.00014418,-0.11006583,0.02646517,-0.02951196,0.00046588,-0.0
 0094319,-0.00071488,0.45136708,0.02600450,-0.02841205,0.02157237,0.000
 49236,0.00139706,0.00007499,0.00910315,-0.08189228,0.01144110,-0.00235
 262,0.00203576,-0.00090509,0.00781309,0.46791694,0.00325733,-0.0029373
 6,0.00283252,0.00164316,-0.00126081,0.00136411,-0.02425652,0.01920266,
 -0.09947569,-0.02467808,0.01569805,-0.01714022,-0.02057117,0.03637308,
 0.56455052,0.00375280,-0.00599234,-0.00186599,-0.00070994,-0.00049131,
 0.00039516,-0.14384721,-0.02419777,0.02581466,-0.00173511,0.00138685,-
 0.00158398,-0.03554431,0.00282478,-0.00092843,0.58275315,-0.03005979,-
 0.03584345,0.00430050,-0.00098828,-0.00051704,0.00082665,-0.01426338,-
 0.08460503,0.01798279,0.00408270,0.00210297,-0.00270846,0.01071522,0.0
 1364357,-0.01186057,0.08096068,0.35329633,-0.00202155,-0.00112153,0.00
 159941,-0.00330406,-0.00401243,-0.00040549,0.00843970,0.01259315,-0.08
 921831,0.03083023,0.01079993,-0.01133739,-0.01169983,-0.01070899,0.009
 59566,-0.21864472,0.14575467,0.76217892,-0.00400266,0.00398549,-0.0040
 0118,-0.00001809,-0.00019566,-0.00006594,0.00348688,0.02296174,0.00442
 651,0.00057322,-0.00042190,0.00021589,-0.07854441,-0.00688151,-0.00133
 044,-0.00010848,0.00293314,-0.00077253,0.57137086,0.00157630,-0.000078
 23,0.00141708,0.00012307,-0.00005475,0.00011135,0.00226675,-0.01939106
 ,0.00030563,-0.00099593,0.00109835,-0.00049912,-0.00908090,-0.17538775
 ,-0.01023161,0.00185032,0.00190860,-0.00071215,-0.00492074,0.45762804,
 -0.00256162,0.00248822,-0.00182097,-0.00035250,0.00036852,0.00007905,0
 .00306193,0.01526470,0.00110087,0.00026185,0.00063622,0.00039744,-0.00
 113252,-0.01149978,-0.08032220,0.00099946,-0.00101633,0.00009745,-0.00
 090949,-0.01146143,0.56089802,-0.00269680,-0.00230321,0.00027329,0.001
 11212,0.00106555,-0.00007872,-0.00749282,0.00661530,0.04014795,-0.0080
 6038,-0.00377614,0.00277131,0.00332904,-0.00241912,0.00291308,-0.23303
 305,0.02797806,0.23373179,-0.00041478,-0.00038599,-0.00028441,0.211253
 99,-0.00160664,0.00324617,0.00205663,0.00102100,0.00159853,0.00096574,
 -0.00707339,0.01225416,0.00213622,-0.00185017,0.00043681,0.00103430,-0
 .00267803,-0.00157120,0.00216123,0.03821252,-0.10262343,-0.09745078,-0
 .00037751,-0.00069039,0.00009500,-0.03558216,0.08586033,-0.00042919,-0
 .00130776,0.00136884,-0.00006758,0.00136603,0.00053216,0.02085477,-0.0
 0822854,-0.01636386,0.00312926,0.00135680,0.00008350,-0.00160115,0.003
 92058,-0.00505875,0.24938692,-0.08832555,-0.52878479,0.00036404,0.0004
 7691,0.00034274,-0.27445031,0.14791725,0.63425124,-0.00005097,0.000012
 80,-0.00006344,-0.00002495,-0.00000500,-0.00002759,0.00017954,0.000166
 06,0.00070717,0.00018000,0.00006564,-0.00003231,-0.00112474,-0.0001910
 0,-0.00229622,0.00003724,-0.00008022,0.00078308,-0.04753664,0.00196940
 ,0.00774067,-0.00004752,0.00021472,-0.00022611,0.04602807,-0.00016104,
 0.00004341,0.00033262,-0.00014488,0.00024566,0.00007536,-0.00019463,0.
 00150522,-0.00131197,0.00019055,-0.00014327,0.00067080,0.00110919,-0.0
 1059668,-0.03305260,-0.00005297,-0.00042061,-0.00015672,0.00194624,-0.
 06697758,-0.06805115,-0.00000353,0.00010152,0.00012695,-0.00210116,0.0
 7470875,0.00006164,-0.00015095,0.00031641,-0.00005506,0.00012626,-0.00
 007573,-0.00022782,0.00041218,0.00057216,0.00041272,-0.00038525,0.0002
 3999,0.00030169,-0.00109378,-0.00248977,-0.00045902,-0.00037565,-0.000
 40507,0.00807541,-0.06872433,-0.28298860,0.00015957,0.00000160,0.00015
 161,-0.00844738,0.07713120,0.30735386,0.00013045,-0.00010780,-0.000214
 86,-0.00000635,-0.00004648,-0.00001149,0.00044702,-0.00066833,0.000673
 21,-0.00005805,0.00000369,-0.00010429,0.00131082,-0.00198467,0.0020473
 6,0.00070081,-0.00074747,-0.00023726,-0.19842305,0.08731277,-0.0968412
 2,-0.00018503,0.00011690,0.00010100,0.00141441,-0.00155180,0.00091598,
 0.21385394,0.00150363,-0.00163445,0.00142382,0.00001658,0.00002342,0.0
 0002081,-0.00264155,-0.00465018,-0.00229031,-0.00017429,0.00009691,0.0
 0008883,0.02535243,-0.01590792,0.01717177,-0.00152840,-0.00095226,0.00
 010778,0.08530718,-0.09352108,0.05432015,0.00051387,0.00019024,-0.0003
 1398,-0.00783260,0.00369786,-0.00377045,-0.09383482,0.10514993,-0.0000
 3108,-0.00008421,0.00033694,-0.00002680,0.00007892,-0.00000032,0.00012
 513,-0.00060975,0.00071543,0.00024248,-0.00025859,0.00030700,0.0029905
 8,-0.00196187,0.00065758,-0.00003565,0.00011038,-0.00047345,-0.0965294
 9,0.05539731,-0.10786333,-0.00006141,-0.00007309,0.00022448,-0.0237577
 5,0.01357027,-0.01406407,0.10633809,-0.05984155,0.11272740,0.00021607,
 -0.00022272,0.00010754,-0.00005049,0.00000571,0.00000534,0.00022057,0.
 00016445,-0.00035626,-0.00002170,0.00004958,-0.00000056,-0.00127004,0.
 00048490,-0.00044293,-0.00039977,0.00005935,0.00013824,-0.23536059,-0.
 07306620,0.09052190,-0.00013656,0.00045599,-0.00025900,-0.00027104,0.0
 0073409,-0.00001975,-0.02030799,-0.00774645,0.01030970,0.25679610,0.00
 021772,0.00017906,-0.00034216,-0.00006594,-0.00007291,-0.00001299,-0.0
 0097682,0.00116240,0.00018395,0.00006335,-0.00002477,-0.00003144,-0.02
 860384,-0.00850914,0.01398211,0.00105257,-0.00200999,0.00106366,-0.071
 67983,-0.07578545,0.03430591,-0.00000442,0.00035970,-0.00033036,0.0084
 9783,0.00241238,-0.00287979,0.01164922,0.00454601,-0.00684331,0.079763
 13,0.08296554,-0.00019141,0.00000309,-0.00000706,0.00002051,0.00000431
 ,-0.00000732,0.00049354,0.00017414,-0.00002772,0.00002524,0.00001556,0
 .00003061,-0.00390203,-0.00124904,-0.00018522,-0.00012993,0.00144500,0
 .00067376,0.09013919,0.03498363,-0.08967634,0.00008291,-0.00021995,-0.
 00022043,0.02650312,0.01027755,-0.01144190,-0.01342530,-0.00613541,0.0
 0675302,-0.09894964,-0.03815189,0.09236256,-0.20100186,0.15077101,-0.1
 7285599,0.00284860,-0.00613865,0.00934014,-0.00221951,-0.00998944,0.00
 371555,0.00004708,0.00019664,0.00011135,0.00006379,0.00096411,0.000667
 08,0.00089477,-0.00210612,0.00069548,-0.00026068,-0.00013393,-0.000371
 16,-0.00001999,0.00035851,-0.00020549,-0.00000041,0.00003441,0.0000503
 5,0.00010000,0.00020048,-0.00000572,0.00007877,0.00008373,0.00000565,0
 .19851409,0.11695396,-0.12797144,0.08523713,-0.00625441,0.00423388,-0.
 00470988,0.02490756,-0.02038631,0.02179318,0.00014361,0.00138736,-0.00
 048126,-0.00245749,-0.00630669,-0.00239838,0.00028999,-0.00072440,0.00
 047985,0.00180821,-0.00022175,0.00102165,-0.00004594,0.00055365,0.0001
 5440,0.00000763,0.00001552,-0.00008170,0.00000624,-0.00067123,-0.00004
 699,-0.00006327,0.00005509,0.00003554,-0.13526830,0.14931204,-0.138334
 51,0.08899445,-0.17118094,-0.02814311,0.01931941,-0.02099378,0.0066877
 4,-0.00446279,0.00536836,0.00047137,0.00005556,0.00038429,-0.00028729,
 -0.00173967,0.00001224,0.00069550,0.00017878,0.00000839,0.00041747,-0.
 00035791,0.00065472,-0.00001337,-0.00022365,0.00017229,-0.00000828,0.0
 0008866,-0.00005163,0.00002564,-0.00029395,0.00001079,-0.00002660,-0.0
 0000752,-0.00001285,0.15899821,-0.10103078,0.18544868,-0.00727683,-0.0
 0647022,0.00093971,0.00090901,0.00045340,0.00020169,-0.01314965,-0.021
 97782,-0.02310432,-0.00025058,-0.00113457,-0.00140538,-0.00017126,-0.0
 0236494,0.00201359,-0.14944482,-0.06776252,-0.03291931,-0.00090005,0.0
 0030920,-0.00108820,0.03578928,0.00302730,-0.00453450,0.00010712,0.000
 05934,-0.00006864,-0.00035873,0.00015675,-0.00011235,-0.00066106,0.000
 06886,0.00016529,0.00037927,0.00049075,-0.00052878,0.50371134,-0.00269
 825,-0.00243693,0.00073948,0.00056689,0.00054484,0.00005106,-0.0153477
 0,-0.00148825,-0.01668293,0.00026374,-0.00030307,-0.00025818,-0.000600
 51,-0.00442486,0.00291883,-0.06054959,-0.12709091,-0.06556466,0.000293
 38,-0.00141818,0.00116639,0.00142941,-0.00073270,-0.06040711,-0.000180
 68,0.00012002,0.00030843,0.00040560,0.00060984,-0.00004969,0.00090388,
 0.00033332,-0.00072027,0.00039155,0.00017996,-0.00019953,0.21438015,0.
 20489387,-0.00116102,0.00029760,0.00115774,0.00101610,0.00116132,0.000
 06687,0.00238293,-0.00199471,0.00461004,-0.00064530,0.00009175,0.00164
 514,0.00126838,-0.00014672,0.00017860,-0.02046275,-0.05707005,-0.15361
 396,0.00016395,0.00019294,-0.00045795,-0.00738190,-0.06151276,-0.08948
 607,-0.00006282,0.00005390,0.00020815,-0.00003657,0.00003770,0.0001081
 2,-0.00049991,-0.00006885,-0.00009793,-0.00001259,0.00010459,-0.000206
 86,-0.10736964,0.08583782,0.34188113,-0.00118927,-0.00112867,-0.000324
 54,-0.00015272,-0.00013572,0.00007052,0.00410317,-0.00243380,-0.002160
 21,0.00054189,0.00037232,0.00017904,-0.00011362,0.00006168,-0.00003628
 ,-0.02620140,-0.01605663,0.00085224,-0.00008652,0.00001288,0.00018669,
 0.00162069,0.00641738,0.00547297,0.00001474,0.00001759,-0.00004609,0.0
 0010870,0.00002655,-0.00003486,-0.00005460,0.00022174,-0.00017303,0.00
 005220,0.00012527,-0.00007209,-0.36716362,-0.13770655,0.13295303,0.388
 40549,0.00055868,-0.00000073,0.00010546,-0.00008629,-0.00008711,-0.000
 02146,-0.00290508,0.00340556,-0.00472813,0.00037312,-0.00003598,-0.000
 07784,-0.00098893,-0.00109449,0.00050626,-0.03268876,-0.01248829,0.006
 71106,0.00010016,-0.00015830,0.00001027,0.00574485,0.00038655,0.004837
 08,-0.00002706,0.00005999,0.00007883,0.00005577,0.00004386,0.00004168,
 0.00009050,0.00005073,-0.00001313,0.00007310,-0.00011014,0.00004175,-0
 .12019686,-0.07009881,0.03288489,0.15019559,0.07992300,-0.00109227,-0.
 00109044,0.00037945,0.00004335,0.00006362,0.00007856,0.00088654,-0.003
 48375,-0.00216795,-0.00019611,0.00001873,0.00038548,0.00007570,0.00033
 076,0.00009095,-0.03498501,-0.01387015,0.01491256,-0.00007311,-0.00003
 512,-0.00003349,0.00332297,0.00391627,-0.00093876,0.00001194,0.0000045
 0,0.00001706,0.00002882,0.00001874,0.00000373,-0.00004080,0.00007842,-
 0.00007470,-0.00002152,0.00004191,-0.00008800,0.16886085,0.05405377,-0
 .10633616,-0.13690204,-0.04003785,0.09365851,0.00122769,-0.00147525,0.
 00106447,-0.00013983,0.00055439,0.00036457,-0.00238676,-0.00415299,-0.
 02598279,-0.00306789,0.00235502,-0.00201215,-0.04894813,0.00566478,0.0
 1858436,0.00204724,-0.00029328,-0.00211105,-0.00010183,-0.00142963,-0.
 00280109,0.00012320,0.00026407,0.00090134,0.00069303,-0.00064661,-0.00
 005338,0.00007356,0.00009522,0.00039401,0.00023297,0.00025758,-0.00043
 109,0.00003002,-0.00031905,0.00018440,-0.00028635,-0.00018125,0.000033
 66,0.00001580,-0.00002840,0.00005015,0.05826152,-0.00070041,0.00150730
 ,0.00034124,0.00040241,-0.00028483,-0.00026525,0.00112259,0.00183553,0
 .01623312,0.00227436,-0.00110766,0.00159870,0.00489436,-0.06209351,-0.
 05866172,-0.00077652,-0.00004165,-0.00003062,0.00167015,-0.01206454,-0
 .03275292,0.00010835,-0.00020479,-0.00013904,-0.00045068,-0.00648780,-
 0.00064138,0.00041258,0.00134908,0.00043277,-0.00035934,0.00142726,0.0
 0040771,-0.00018238,0.00017071,-0.00007907,0.00001771,0.00016322,-0.00
 000818,-0.00001186,0.00002447,-0.00003025,-0.00585998,0.07281289,0.000
 64454,-0.00049696,0.00175628,-0.00040585,0.00116013,-0.00001813,-0.002
 07976,-0.00325391,-0.01989401,-0.00251787,0.00152439,-0.00034562,0.018
 20634,-0.05872966,-0.27700076,0.00202803,0.00045081,-0.00178048,0.0000
 3316,-0.00120001,-0.00160875,-0.00031572,0.00006297,0.00158033,-0.0000
 5660,-0.00012968,0.00141160,0.00023213,-0.00038531,0.00049982,-0.00032
 220,-0.00037482,0.00045555,-0.00001336,-0.00006718,0.00045157,-0.00042
 245,-0.00014942,0.00022080,0.00002273,-0.00008633,0.00005671,-0.019297
 12,0.06277274,0.30309826,-0.00187988,-0.00038713,0.00034506,-0.0003969
 9,0.00007278,0.00001129,-0.03355662,-0.00271282,0.00474235,0.00141697,
 -0.00089403,0.00109871,-0.15428630,-0.02801285,0.03352502,-0.00019611,
 0.00369891,-0.00250091,-0.00628418,-0.00768318,0.00193460,-0.00043506,
 -0.00065580,0.00112109,0.00027674,0.00117435,0.00006959,0.00065745,0.0
 0147269,-0.00014503,0.00083106,0.00120406,-0.00028212,0.00013557,-0.00
 062865,-0.00004599,-0.00067466,-0.00073719,-0.00012253,0.00003890,-0.0
 0013461,-0.00001253,-0.00505313,-0.00157794,0.00209293,0.47636462,-0.0
 0027220,-0.00036276,0.00014925,0.00008007,0.00004821,-0.00008935,0.014
 41314,0.00593951,-0.00570173,-0.00053766,0.00040158,-0.00020774,-0.024
 37542,-0.08457712,0.00952587,-0.00014928,-0.00424930,0.00282198,-0.033
 53667,-0.01689790,0.01297326,0.00114096,0.00083950,-0.00130779,-0.0000
 4508,0.00159478,0.00036871,-0.00099517,0.00147192,0.00000235,-0.001540
 19,-0.00669396,-0.00046657,0.00020133,0.00013704,-0.00016303,0.0010884
 5,0.00137996,0.00011963,-0.00002185,0.00025248,0.00000301,0.00670992,0
 .00208127,-0.00201909,-0.02736656,0.57036671,-0.00001033,0.00019870,0.
 00123131,-0.00021232,0.00006456,-0.00011527,-0.01777909,-0.00501746,0.
 00410819,-0.00094413,-0.00043223,0.00109139,0.03430777,0.01010338,-0.0
 9052674,0.00044480,0.00495267,-0.00422001,-0.00166079,0.00069484,0.000
 61718,-0.00095204,-0.00095459,0.00245736,-0.00089035,-0.00069172,0.000
 77415,0.00041992,0.00034909,0.00003002,-0.00057260,-0.00112111,0.00066
 206,-0.00021587,-0.00008651,0.00011890,-0.00103102,-0.00143605,0.00003
 810,0.00005676,-0.00032932,0.00007664,0.02989544,0.01028332,-0.0106192
 8,0.03519046,0.00810453,0.54547672,-0.00001088,0.00078726,0.00048320,-
 0.00026968,0.00004001,0.00008116,0.00061331,-0.00090637,-0.00038398,-0
 .00007185,0.00011416,-0.00007705,-0.00214357,-0.02946141,-0.00404979,-
 0.00002480,-0.00029552,0.00016350,-0.00561441,-0.00055562,0.00231333,0
 .00016328,0.00010710,-0.00014747,-0.00000246,0.00021975,-0.00010660,0.
 00022436,0.00006652,0.00017927,-0.00026334,-0.00197179,0.00001727,0.00
 046141,0.00024348,-0.00011379,0.00017729,0.00013524,0.00005916,0.00002
 227,-0.00000445,0.00002679,0.00118435,0.00057028,-0.00001188,-0.048266
 98,-0.02431934,-0.00193244,0.05163412,0.00298058,-0.00072593,0.0002100
 8,0.00005412,-0.00002113,-0.00002090,0.00024293,-0.00115667,0.00030733
 ,-0.00002444,-0.00000307,0.00000446,-0.00088330,-0.00826061,-0.0011241
 7,0.00005188,0.00007259,-0.00026517,-0.00247920,0.00044284,0.00161144,
 -0.00004323,0.00003097,0.00006945,0.00010843,0.00018003,-0.00006732,0.
 00012550,0.00029795,-0.00008045,-0.00006175,-0.00070797,-0.00018155,0.
 00023051,0.00019884,-0.00003974,-0.00009705,-0.00006755,0.00002516,0.0
 0001983,-0.00002857,0.00000644,-0.00012906,0.00053044,0.00028789,-0.02
 826556,-0.30950410,-0.02295549,0.02952205,0.33703479,0.00028293,0.0000
 9075,-0.00019181,0.00009204,-0.00002067,-0.00002859,-0.00030076,-0.000
 44021,0.00024333,0.00003425,-0.00004248,0.00000544,0.00010730,0.011762
 84,-0.00015286,-0.00010028,0.00004910,0.00002684,0.00211489,0.00045777
 ,-0.00024119,0.00001264,-0.00000795,-0.00002959,0.00011948,0.00037659,
 0.00024282,0.00015672,-0.00039293,-0.00000065,0.00034256,0.00066162,0.
 00048857,-0.00001853,-0.00002028,-0.00002808,0.00003111,0.00000024,0.0
 0001109,-0.00000412,-0.00000166,-0.00000510,-0.00071830,0.00008569,0.0
 0036349,-0.00242271,-0.02302805,-0.04980326,0.00039341,0.02413161,0.04
 927750,0.00040343,0.00003144,-0.00004979,-0.00001217,0.00000742,-0.000
 05059,-0.00508505,-0.00300510,0.00293336,0.00029064,-0.00022760,0.0001
 2619,-0.02203390,0.01259685,-0.01602202,0.00089540,0.00247275,-0.00167
 849,0.00097919,0.00141185,-0.00070709,-0.00080736,-0.00045295,0.000943
 83,0.00000760,-0.00005992,0.00002904,0.00032450,-0.00082807,0.00024766
 ,0.00037616,0.00001424,0.00035586,-0.00005686,0.00000989,0.00007998,-0
 .00072428,-0.00075890,-0.00006080,0.00003071,-0.00013828,0.00002041,0.
 00115149,0.00041748,0.00023032,-0.17960413,0.08253779,-0.09957226,0.00
 274321,-0.00106248,0.00292017,0.19825257,0.00144699,0.00013911,0.00013
 900,0.00003118,0.00004199,-0.00000112,-0.00242398,-0.00121361,0.000374
 45,0.00007011,-0.00012135,0.00019440,-0.00797838,0.00268799,-0.0057490
 7,-0.00029313,0.00058156,-0.00041342,-0.00076360,0.00065801,-0.0005656
 0,-0.00003566,-0.00003909,0.00021787,-0.00001383,-0.00002279,0.0000162
 3,-0.00019766,-0.00010894,0.00018791,0.00017797,0.00020674,-0.00007312
 ,0.00016397,0.00007879,-0.00003759,-0.00005752,-0.00015918,0.00001227,
 0.00002071,-0.00005569,0.00001141,0.00053855,0.00019586,-0.00013875,0.
 08422912,-0.09793472,0.06195696,0.02266973,-0.01208607,0.01755445,-0.0
 9042453,0.10353821,-0.00015924,0.00010081,0.00000354,-0.00002735,-0.00
 001030,-0.00000601,0.00254910,0.00073226,-0.00004371,0.00022565,-0.000
 02960,0.00030334,0.00933898,-0.00495545,0.00514618,-0.00017665,-0.0005
 8667,0.00078386,-0.00007027,-0.00034449,0.00023676,0.00007324,0.000052
 73,-0.00025643,-0.00001927,0.00008258,-0.00001236,-0.00005746,-0.00014
 172,0.00007767,0.00003452,-0.00024368,0.00000022,0.00002225,0.00003727
 ,0.00000016,0.00018415,0.00022894,0.00002530,-0.00002672,0.00005508,-0
 .00001103,-0.00056381,-0.00046607,0.00078869,-0.10110358,0.06171781,-0
 .12069851,0.00334809,-0.00130641,0.00136727,0.10843343,-0.06924551,0.1
 2797191,-0.00004393,0.00013555,-0.00035978,0.00009165,-0.00014534,-0.0
 0000304,0.00187503,0.00001191,0.00168161,-0.00021131,0.00013054,-0.000
 64120,-0.00539150,0.00765791,0.02996090,0.00016359,-0.00024761,0.00025
 545,0.00124622,0.00141957,0.00002887,-0.00006227,0.00008116,-0.0003544
 2,0.00012025,-0.00056898,-0.00059223,-0.00000683,-0.00012573,-0.000086
 76,0.00004547,0.00020861,-0.00032402,-0.00004626,0.00005052,0.00001349
 ,-0.00001142,-0.00000923,-0.00006137,0.00000718,0.00000695,-0.00000414
 ,-0.00505695,-0.00197117,0.00195261,-0.04908729,0.00698776,0.02545810,
 -0.00055563,-0.00028977,-0.00304279,0.00286884,-0.00716004,-0.02200506
 ,0.05405514,0.00029444,-0.00024650,0.00045937,-0.00013229,-0.00002958,
 0.00002371,0.00035058,0.00017256,-0.00034111,0.00015878,0.00006794,-0.
 00013554,-0.00088435,0.00135298,0.00973643,0.00009047,-0.00003925,0.00
 010440,0.00025095,0.00091110,0.00108548,0.00000305,0.00000348,-0.00008
 321,-0.00011521,-0.00003642,-0.00027283,0.00004591,-0.00003099,0.00002
 793,0.00017035,0.00010595,-0.00013559,0.00014950,0.00006906,-0.0000433
 7,0.00000956,-0.00000458,-0.00001830,0.00000352,0.00001147,-0.00000002
 ,-0.00192403,0.00018675,0.00077220,0.00720439,-0.06429310,-0.06368356,
 0.00303890,-0.00622677,-0.03121643,-0.00254189,0.00361316,0.01432242,-
 0.00617261,0.06441275,0.00031546,-0.00022279,0.00003689,-0.00009670,0.
 00008302,-0.00000054,-0.00078297,0.00024766,0.00064719,0.00055340,-0.0
 0027896,0.00044892,0.00185496,-0.00258904,-0.01207615,-0.00039212,-0.0
 0023792,0.00036209,-0.00053726,-0.00047129,0.00058859,0.00004913,0.000
 04283,-0.00002587,0.00002265,0.00060286,0.00024132,-0.00001041,0.00002
 693,-0.00005018,0.00003043,0.00013226,0.00032513,0.00011417,0.00001744
 ,-0.00006825,0.00018821,0.00016287,0.00004785,-0.00001401,0.00002336,-
 0.00000445,0.00249837,0.00091922,0.00058393,0.02650429,-0.06280304,-0.
 28069895,-0.00024218,-0.00061267,-0.00154523,0.00182079,-0.00444075,-0
 .01567687,-0.03187622,0.06939802,0.30686459||0.00000432,0.00000074,-0.
 00002734,0.00000109,-0.00000434,-0.00000529,-0.00001166,0.00000976,0.0
 0002870,0.00000223,-0.00000626,-0.00000817,0.00000599,0.00000790,-0.00
 001021,-0.00004612,-0.00005198,-0.00003882,0.00000561,0.00000394,0.000
 01492,0.00002329,0.00002013,0.00001127,-0.00000699,-0.00000554,0.00000
 811,0.00000196,0.00000150,0.00000417,0.00000232,0.00000334,0.00001233,
 -0.00000124,-0.00000012,-0.00000420,0.00001023,0.00001638,0.00004135,0
 .00000449,0.00000723,0.00002732,0.00000554,0.00000588,-0.00000343,0.00
 000642,0.00000505,0.00000099,-0.00000544,-0.00000334,-0.00002217,0.000
 00111,-0.00000361,-0.00001670,-0.00000315,-0.00000665,-0.00001282|||@


 ... FOR AFTERWARDS A MAN FINDS PLEASURE IN HIS PAINS,
 WHEN HE HAS SUFFERED LONG AND WANDERED FAR.

                                    -- HOMER
 Job cpu time:  0 days  0 hours 43 minutes 40.0 seconds.
 File lengths (MBytes):  RWF=    139 Int=      0 D2E=      0 Chk=      9 Scr=      1
 Normal termination of Gaussian 09 at Sun Apr 17 23:33:05 2016.
