 Entering Gaussian System, Link 0=g09
 Input=Ala-S-opt-freq-tsb1-6-31g.com
 Output=Ala-S-opt-freq-tsb1-6-31g.log
 Initial command:
 /usr/local/gau/g09/l1.exe "/tmp/Gau-5642.inp" -scrdir="/tmp/"
 Entering Link 1 = /usr/local/gau/g09/l1.exe PID=      5644.
  
 Copyright (c) 1988,1990,1992,1993,1995,1998,2003,2009,2013,
            Gaussian, Inc.  All Rights Reserved.
  
 This is part of the Gaussian(R) 09 program.  It is based on
 the Gaussian(R) 03 system (copyright 2003, Gaussian, Inc.),
 the Gaussian(R) 98 system (copyright 1998, Gaussian, Inc.),
 the Gaussian(R) 94 system (copyright 1995, Gaussian, Inc.),
 the Gaussian 92(TM) system (copyright 1992, Gaussian, Inc.),
 the Gaussian 90(TM) system (copyright 1990, Gaussian, Inc.),
 the Gaussian 88(TM) system (copyright 1988, Gaussian, Inc.),
 the Gaussian 86(TM) system (copyright 1986, Carnegie Mellon
 University), and the Gaussian 82(TM) system (copyright 1983,
 Carnegie Mellon University). Gaussian is a federally registered
 trademark of Gaussian, Inc.
  
 This software contains proprietary and confidential information,
 including trade secrets, belonging to Gaussian, Inc.
  
 This software is provided under written license and may be
 used, copied, transmitted, or stored only in accord with that
 written license.
  
 The following legend is applicable only to US Government
 contracts under FAR:
  
                    RESTRICTED RIGHTS LEGEND
  
 Use, reproduction and disclosure by the US Government is
 subject to restrictions as set forth in subparagraphs (a)
 and (c) of the Commercial Computer Software - Restricted
 Rights clause in FAR 52.227-19.
  
 Gaussian, Inc.
 340 Quinnipiac St., Bldg. 40, Wallingford CT 06492
  
  
 ---------------------------------------------------------------
 Warning -- This program may not be used in any manner that
 competes with the business of Gaussian, Inc. or will provide
 assistance to any competitor of Gaussian, Inc.  The licensee
 of this program is prohibited from giving any competitor of
 Gaussian, Inc. access to this program.  By using this program,
 the user acknowledges that Gaussian, Inc. is engaged in the
 business of creating and licensing software in the field of
 computational chemistry and represents and warrants to the
 licensee that it is not a competitor of Gaussian, Inc. and that
 it will not use this program in any manner prohibited above.
 ---------------------------------------------------------------
  

 Cite this work as:
 Gaussian 09, Revision D.01,
 M. J. Frisch, G. W. Trucks, H. B. Schlegel, G. E. Scuseria, 
 M. A. Robb, J. R. Cheeseman, G. Scalmani, V. Barone, B. Mennucci, 
 G. A. Petersson, H. Nakatsuji, M. Caricato, X. Li, H. P. Hratchian, 
 A. F. Izmaylov, J. Bloino, G. Zheng, J. L. Sonnenberg, M. Hada, 
 M. Ehara, K. Toyota, R. Fukuda, J. Hasegawa, M. Ishida, T. Nakajima, 
 Y. Honda, O. Kitao, H. Nakai, T. Vreven, J. A. Montgomery, Jr., 
 J. E. Peralta, F. Ogliaro, M. Bearpark, J. J. Heyd, E. Brothers, 
 K. N. Kudin, V. N. Staroverov, T. Keith, R. Kobayashi, J. Normand, 
 K. Raghavachari, A. Rendell, J. C. Burant, S. S. Iyengar, J. Tomasi, 
 M. Cossi, N. Rega, J. M. Millam, M. Klene, J. E. Knox, J. B. Cross, 
 V. Bakken, C. Adamo, J. Jaramillo, R. Gomperts, R. E. Stratmann, 
 O. Yazyev, A. J. Austin, R. Cammi, C. Pomelli, J. W. Ochterski, 
 R. L. Martin, K. Morokuma, V. G. Zakrzewski, G. A. Voth, 
 P. Salvador, J. J. Dannenberg, S. Dapprich, A. D. Daniels, 
 O. Farkas, J. B. Foresman, J. V. Ortiz, J. Cioslowski, 
 and D. J. Fox, Gaussian, Inc., Wallingford CT, 2013.
 
 ******************************************
 Gaussian 09:  ES64L-G09RevD.01 24-Apr-2013
                10-Apr-2016 
 ******************************************
 %chk=Ala-S-opt-freq-tsb1-6-31g.chk
 -----------------------------------------------
 # opt=(calcfc,ts) freq rb3lyp/6-31g iop(1/11=1)
 -----------------------------------------------
 1/5=1,10=4,11=1,14=-1,18=20,26=3,38=1/1,3;
 2/9=110,12=2,17=6,18=5,40=1/2;
 3/5=1,6=6,11=2,16=1,25=1,30=1,71=2,74=-5,116=1,140=1/1,2,3;
 4//1;
 5/5=2,38=5/2;
 8/6=4,10=90,11=11/1;
 11/6=1,8=1,9=11,15=111,16=1/1,2,10;
 10/6=1,13=1/2;
 6/7=2,8=2,9=2,10=2,28=1/1;
 7/10=1,18=20,25=1/1,2,3,16;
 1/5=1,10=4,11=1,14=-1,18=20,26=3/3(2);
 2/9=110/2;
 99//99;
 2/9=110/2;
 3/5=1,6=6,11=2,16=1,25=1,30=1,71=1,74=-5,116=1/1,2,3;
 4/5=5,16=3,69=1/1;
 5/5=2,38=5/2;
 7//1,2,3,16;
 1/5=1,11=1,14=-1,18=20,26=3/3(-5);
 2/9=110/2;
 6/7=2,8=2,9=2,10=2,19=2,28=1/1;
 99/9=1/99;
 -------------------------
 Ala-S-opt-freq-tsb1-6-31g
 -------------------------
 Symbolic Z-matrix:
 Charge =  0 Multiplicity = 1
 N                    -1.41515  -1.08616  -0.44237 
 H                    -1.19241  -1.6585    0.3664 
 C                    -0.65403   0.15792  -0.40998 
 H                     0.82089  -0.61321  -1.5092 
 C                    -1.19795   1.24002   0.55106 
 C                     0.77509  -0.16871  -0.01055 
 H                    -1.20783   0.87043   1.58011 
 H                    -0.59729   2.15221   0.50792 
 H                    -2.22253   1.49551   0.26808 
 O                     1.10761  -1.09841   0.68073 
 H                    -2.41213  -0.90308  -0.44562 
 O                     1.65384   0.74679  -0.48074 
 H                     2.52999   0.5041   -0.1444 
 
 Add virtual bond connecting atoms C6         and H4         Dist= 2.96D+00.

 GradGradGradGradGradGradGradGradGradGradGradGradGradGradGradGradGradGrad
 Berny optimization.
 Initialization pass.
                           ----------------------------
                           !    Initial Parameters    !
                           ! (Angstroms and Degrees)  !
 --------------------------                            --------------------------
 ! Name  Definition              Value          Derivative Info.                !
 --------------------------------------------------------------------------------
 ! R1    R(1,2)                  1.0155         calculate D2E/DX2 analytically  !
 ! R2    R(1,3)                  1.4588         calculate D2E/DX2 analytically  !
 ! R3    R(1,11)                 1.0137         calculate D2E/DX2 analytically  !
 ! R4    R(3,5)                  1.5461         calculate D2E/DX2 analytically  !
 ! R5    R(3,6)                  1.5194         calculate D2E/DX2 analytically  !
 ! R6    R(4,6)                  1.5638         calculate D2E/DX2 analytically  !
 ! R7    R(5,7)                  1.0935         calculate D2E/DX2 analytically  !
 ! R8    R(5,8)                  1.093          calculate D2E/DX2 analytically  !
 ! R9    R(5,9)                  1.0932         calculate D2E/DX2 analytically  !
 ! R10   R(6,10)                 1.2053         calculate D2E/DX2 analytically  !
 ! R11   R(6,12)                 1.3533         calculate D2E/DX2 analytically  !
 ! R12   R(12,13)                0.9694         calculate D2E/DX2 analytically  !
 ! A1    A(2,1,3)              110.397          calculate D2E/DX2 analytically  !
 ! A2    A(2,1,11)             108.6676         calculate D2E/DX2 analytically  !
 ! A3    A(3,1,11)             111.0515         calculate D2E/DX2 analytically  !
 ! A4    A(1,3,5)              115.2856         calculate D2E/DX2 analytically  !
 ! A5    A(1,3,6)              108.2548         calculate D2E/DX2 analytically  !
 ! A6    A(5,3,6)              108.5388         calculate D2E/DX2 analytically  !
 ! A7    A(3,5,7)              110.5846         calculate D2E/DX2 analytically  !
 ! A8    A(3,5,8)              111.4838         calculate D2E/DX2 analytically  !
 ! A9    A(3,5,9)              109.4138         calculate D2E/DX2 analytically  !
 ! A10   A(7,5,8)              108.9163         calculate D2E/DX2 analytically  !
 ! A11   A(7,5,9)              108.308          calculate D2E/DX2 analytically  !
 ! A12   A(8,5,9)              108.0458         calculate D2E/DX2 analytically  !
 ! A13   A(3,6,4)               80.6031         calculate D2E/DX2 analytically  !
 ! A14   A(3,6,10)             125.1745         calculate D2E/DX2 analytically  !
 ! A15   A(3,6,12)             111.962          calculate D2E/DX2 analytically  !
 ! A16   A(4,6,10)             108.8019         calculate D2E/DX2 analytically  !
 ! A17   A(4,6,12)              80.8113         calculate D2E/DX2 analytically  !
 ! A18   A(10,6,12)            122.815          calculate D2E/DX2 analytically  !
 ! A19   A(6,12,13)            107.2766         calculate D2E/DX2 analytically  !
 ! D1    D(2,1,3,5)            -78.2711         calculate D2E/DX2 analytically  !
 ! D2    D(2,1,3,6)             43.4703         calculate D2E/DX2 analytically  !
 ! D3    D(11,1,3,5)            42.328          calculate D2E/DX2 analytically  !
 ! D4    D(11,1,3,6)           164.0694         calculate D2E/DX2 analytically  !
 ! D5    D(1,3,5,7)             60.0762         calculate D2E/DX2 analytically  !
 ! D6    D(1,3,5,8)           -178.5935         calculate D2E/DX2 analytically  !
 ! D7    D(1,3,5,9)            -59.1421         calculate D2E/DX2 analytically  !
 ! D8    D(6,3,5,7)            -61.5121         calculate D2E/DX2 analytically  !
 ! D9    D(6,3,5,8)             59.8182         calculate D2E/DX2 analytically  !
 ! D10   D(6,3,5,9)            179.2696         calculate D2E/DX2 analytically  !
 ! D11   D(1,3,6,4)             77.8468         calculate D2E/DX2 analytically  !
 ! D12   D(1,3,6,10)           -28.5941         calculate D2E/DX2 analytically  !
 ! D13   D(1,3,6,12)           153.8859         calculate D2E/DX2 analytically  !
 ! D14   D(5,3,6,4)           -156.3506         calculate D2E/DX2 analytically  !
 ! D15   D(5,3,6,10)            97.2085         calculate D2E/DX2 analytically  !
 ! D16   D(5,3,6,12)           -80.3115         calculate D2E/DX2 analytically  !
 ! D17   D(3,6,12,13)          176.6707         calculate D2E/DX2 analytically  !
 ! D18   D(4,6,12,13)         -107.4266         calculate D2E/DX2 analytically  !
 ! D19   D(10,6,12,13)          -0.9173         calculate D2E/DX2 analytically  !
 --------------------------------------------------------------------------------
 Trust Radius=3.00D-01 FncErr=1.00D-07 GrdErr=1.00D-06
 Number of steps in this run=     60 maximum allowed number of steps=    100.
 Search for a saddle point of order  1.
 GradGradGradGradGradGradGradGradGradGradGradGradGradGradGradGradGradGrad

                          Input orientation:                          
 ---------------------------------------------------------------------
 Center     Atomic      Atomic             Coordinates (Angstroms)
 Number     Number       Type             X           Y           Z
 ---------------------------------------------------------------------
      1          7           0       -1.415151   -1.086156   -0.442365
      2          1           0       -1.192406   -1.658501    0.366399
      3          6           0       -0.654033    0.157924   -0.409981
      4          1           0        0.820888   -0.613207   -1.509200
      5          6           0       -1.197946    1.240022    0.551056
      6          6           0        0.775088   -0.168707   -0.010554
      7          1           0       -1.207825    0.870425    1.580108
      8          1           0       -0.597288    2.152211    0.507920
      9          1           0       -2.222529    1.495513    0.268083
     10          8           0        1.107609   -1.098412    0.680733
     11          1           0       -2.412134   -0.903080   -0.445618
     12          8           0        1.653842    0.746790   -0.480741
     13          1           0        2.529992    0.504102   -0.144397
 ---------------------------------------------------------------------
                    Distance matrix (angstroms):
                    1          2          3          4          5
     1  N    0.000000
     2  H    1.015526   0.000000
     3  C    1.458796   2.047440   0.000000
     4  H    2.522239   2.943445   1.994572   0.000000
     5  C    2.538733   2.904404   1.546082   3.428528   0.000000
     6  C    2.413570   2.496520   1.519413   1.563847   2.488531
     7  H    2.821629   2.805137   2.185131   3.982545   1.093457
     8  H    3.472602   3.859497   2.196120   3.705069   1.093041
     9  H    2.796714   3.319431   2.170045   4.107045   1.093215
    10  O    2.761488   2.388006   2.423101   2.261292   3.286438
    11  H    1.013658   1.648566   2.053757   3.415796   2.657160
    12  O    3.574896   3.821544   2.382867   1.897665   3.072552
    13  H    4.264019   4.335206   3.213781   2.456034   3.862998
                    6          7          8          9         10
     6  C    0.000000
     7  H    2.746260   0.000000
     8  H    2.745704   1.779134   0.000000
     9  H    3.439909   1.772504   1.769232   0.000000
    10  O    1.205321   3.169610   3.674655   4.241291   0.000000
    11  H    3.299541   2.949448   3.679362   2.509695   3.700731
    12  O    1.353299   3.528671   2.832004   4.018405   2.247702
    13  H    1.884217   4.132721   3.594671   4.872319   2.296098
                   11         12         13
    11  H    0.000000
    12  O    4.388105   0.000000
    13  H    5.147378   0.969362   0.000000
 Stoichiometry    C3H7NO2
 Framework group  C1[X(C3H7NO2)]
 Deg. of freedom    33
 Full point group                 C1      NOp   1
 Largest Abelian subgroup         C1      NOp   1
 Largest concise Abelian subgroup C1      NOp   1
                         Standard orientation:                         
 ---------------------------------------------------------------------
 Center     Atomic      Atomic             Coordinates (Angstroms)
 Number     Number       Type             X           Y           Z
 ---------------------------------------------------------------------
      1          7           0       -1.425798   -1.094971   -0.420901
      2          1           0       -1.226606   -1.615958    0.427739
      3          6           0       -0.671455    0.153504   -0.439915
      4          1           0        0.841201   -0.673499   -1.443039
      5          6           0       -1.250499    1.288337    0.436002
      6          6           0        0.745534   -0.139470    0.023686
      7          1           0       -1.291734    0.981597    1.484744
      8          1           0       -0.652690    2.199968    0.356687
      9          1           0       -2.266584    1.519863    0.105720
     10          8           0        1.059739   -1.023577    0.780276
     11          1           0       -2.422942   -0.918636   -0.466852
     12          8           0        1.634953    0.751367   -0.473065
     13          1           0        2.500919    0.534923   -0.095019
 ---------------------------------------------------------------------
 Rotational constants (GHZ):      5.0266683      3.0324222      2.3268754
 Standard basis: 6-31G (6D, 7F)
 There are    68 symmetry adapted cartesian basis functions of A   symmetry.
 There are    68 symmetry adapted basis functions of A   symmetry.
    68 basis functions,   160 primitive gaussians,    68 cartesian basis functions
    24 alpha electrons       24 beta electrons
       nuclear repulsion energy       248.4341978442 Hartrees.
 NAtoms=   13 NActive=   13 NUniq=   13 SFac= 1.00D+00 NAtFMM=   60 NAOKFM=F Big=F
 Integral buffers will be    131072 words long.
 Raffenetti 2 integral format.
 Two-electron integral symmetry is turned on.
 One-electron integrals computed using PRISM.
 NBasis=    68 RedAO= T EigKep=  5.14D-03  NBF=    68
 NBsUse=    68 1.00D-06 EigRej= -1.00D+00 NBFU=    68
 ExpMin= 1.61D-01 ExpMax= 5.48D+03 ExpMxC= 8.25D+02 IAcc=1 IRadAn=         1 AccDes= 0.00D+00
 Harris functional with IExCor=  402 and IRadAn=       1 diagonalized for initial guess.
 HarFok:  IExCor=  402 AccDes= 0.00D+00 IRadAn=         1 IDoV= 1 UseB2=F ITyADJ=14
 ICtDFT=  3500011 ScaDFX=  1.000000  1.000000  1.000000  1.000000
 FoFCou: FMM=F IPFlag=           0 FMFlag=      100000 FMFlg1=           0
         NFxFlg=           0 DoJE=T BraDBF=F KetDBF=T FulRan=T
         wScrn=  0.000000 ICntrl=     500 IOpCl=  0 I1Cent=   200000004 NGrid=           0
         NMat0=    1 NMatS0=      1 NMatT0=    0 NMatD0=    1 NMtDS0=    0 NMtDT0=    0
 Petite list used in FoFCou.
 Keep R1 ints in memory in canonical form, NReq=3676491.
 Requested convergence on RMS density matrix=1.00D-08 within 128 cycles.
 Requested convergence on MAX density matrix=1.00D-06.
 Requested convergence on             energy=1.00D-06.
 No special actions if energy rises.
 Integral accuracy reduced to 1.0D-05 until final iterations.
 Initial convergence to 1.0D-05 achieved.  Increase integral accuracy.
 SCF Done:  E(RB3LYP) =  -323.425278628     A.U. after   19 cycles
            NFock= 19  Conv=0.46D-08     -V/T= 2.0048
 DoSCS=F DFT=T ScalE2(SS,OS)=  1.000000  1.000000
 Range of M.O.s used for correlation:     1    68
 NBasis=    68 NAE=    24 NBE=    24 NFC=     0 NFV=     0
 NROrb=     68 NOA=    24 NOB=    24 NVA=    44 NVB=    44

 **** Warning!!: The smallest alpha delta epsilon is  0.87573215D-01

 Symmetrizing basis deriv contribution to polar:
 IMax=3 JMax=2 DiffMx= 0.00D+00
 G2DrvN: will do    14 centers at a time, making    1 passes.
 Calling FoFCou, ICntrl=  3107 FMM=F I1Cent=   0 AccDes= 0.00D+00.
 End of G2Drv F.D. properties file   721 does not exist.
 End of G2Drv F.D. properties file   722 does not exist.
 End of G2Drv F.D. properties file   788 does not exist.
          IDoAtm=1111111111111
          Differentiating once with respect to nuclear coordinates.
 Keep R1 ints in memory in canonical form, NReq=3645290.
          There are    42 degrees of freedom in the 1st order CPHF.  IDoFFX=6 NUNeed=     0.
     36 vectors produced by pass  0 Test12= 2.51D-15 2.38D-09 XBig12= 2.16D-01 1.85D-01.
 AX will form    36 AO Fock derivatives at one time.
     36 vectors produced by pass  1 Test12= 2.51D-15 2.38D-09 XBig12= 2.61D-02 6.85D-02.
     36 vectors produced by pass  2 Test12= 2.51D-15 2.38D-09 XBig12= 1.26D-04 2.17D-03.
     36 vectors produced by pass  3 Test12= 2.51D-15 2.38D-09 XBig12= 2.97D-07 1.05D-04.
     36 vectors produced by pass  4 Test12= 2.51D-15 2.38D-09 XBig12= 3.38D-10 3.44D-06.
     20 vectors produced by pass  5 Test12= 2.51D-15 2.38D-09 XBig12= 1.87D-13 6.16D-08.
 InvSVY:  IOpt=1 It=  1 EMax= 1.11D-15
 Solved reduced A of dimension   200 with    36 vectors.
 End of Minotr F.D. properties file   721 does not exist.
 End of Minotr F.D. properties file   722 does not exist.
 End of Minotr F.D. properties file   788 does not exist.

 **********************************************************************

            Population analysis using the SCF density.

 **********************************************************************

 Orbital symmetries:
       Occupied  (A) (A) (A) (A) (A) (A) (A) (A) (A) (A) (A) (A)
                 (A) (A) (A) (A) (A) (A) (A) (A) (A) (A) (A) (A)
       Virtual   (A) (A) (A) (A) (A) (A) (A) (A) (A) (A) (A) (A)
                 (A) (A) (A) (A) (A) (A) (A) (A) (A) (A) (A) (A)
                 (A) (A) (A) (A) (A) (A) (A) (A) (A) (A) (A) (A)
                 (A) (A) (A) (A) (A) (A) (A) (A)
 The electronic state is 1-A.
 Alpha  occ. eigenvalues --  -19.17629 -19.12214 -14.34331 -10.31896 -10.27452
 Alpha  occ. eigenvalues --  -10.21489  -1.12406  -1.02903  -0.91943  -0.77068
 Alpha  occ. eigenvalues --   -0.69071  -0.59055  -0.52660  -0.49721  -0.46675
 Alpha  occ. eigenvalues --   -0.45863  -0.44050  -0.42671  -0.41628  -0.37442
 Alpha  occ. eigenvalues --   -0.31254  -0.29738  -0.26389  -0.20310
 Alpha virt. eigenvalues --   -0.11553   0.03383   0.07426   0.08435   0.12751
 Alpha virt. eigenvalues --    0.13642   0.15195   0.17034   0.20688   0.22877
 Alpha virt. eigenvalues --    0.25388   0.32890   0.36519   0.52590   0.54485
 Alpha virt. eigenvalues --    0.55172   0.58488   0.63378   0.64271   0.66273
 Alpha virt. eigenvalues --    0.70180   0.72339   0.73614   0.79862   0.82541
 Alpha virt. eigenvalues --    0.83974   0.86880   0.90350   0.91252   0.91681
 Alpha virt. eigenvalues --    0.94792   0.95802   0.98262   0.98506   1.03066
 Alpha virt. eigenvalues --    1.05501   1.15279   1.15821   1.26929   1.39639
 Alpha virt. eigenvalues --    1.48309   1.57046   1.86338   1.96321
          Condensed to atoms (all electrons):
               1          2          3          4          5          6
     1  N    6.929204   0.293479   0.279639  -0.049940  -0.077820  -0.066274
     2  H    0.293479   0.455998  -0.062643   0.010552   0.010952  -0.004187
     3  C    0.279639  -0.062643   5.427823   0.061704   0.322144   0.184911
     4  H   -0.049940   0.010552   0.061704   0.870925   0.003891   0.112614
     5  C   -0.077820   0.010952   0.322144   0.003891   5.170296  -0.060183
     6  C   -0.066274  -0.004187   0.184911   0.112614  -0.060183   5.048817
     7  H   -0.002114   0.003793  -0.061221   0.001381   0.378080  -0.002088
     8  H    0.005784  -0.000036  -0.029080   0.000675   0.341984  -0.001825
     9  H   -0.002557  -0.001086  -0.033971  -0.000547   0.364099   0.004417
    10  O    0.000227   0.019283  -0.124250  -0.033342   0.001320   0.503435
    11  H    0.317656  -0.036331  -0.042977   0.000001  -0.001140   0.007659
    12  O    0.003505   0.000319  -0.121517  -0.085939   0.000128   0.031421
    13  H   -0.000292  -0.000001   0.010363   0.005589  -0.000328  -0.009811
               7          8          9         10         11         12
     1  N   -0.002114   0.005784  -0.002557   0.000227   0.317656   0.003505
     2  H    0.003793  -0.000036  -0.001086   0.019283  -0.036331   0.000319
     3  C   -0.061221  -0.029080  -0.033971  -0.124250  -0.042977  -0.121517
     4  H    0.001381   0.000675  -0.000547  -0.033342   0.000001  -0.085939
     5  C    0.378080   0.341984   0.364099   0.001320  -0.001140   0.000128
     6  C   -0.002088  -0.001825   0.004417   0.503435   0.007659   0.031421
     7  H    0.566290  -0.024103  -0.039489   0.003601  -0.000636   0.000083
     8  H   -0.024103   0.545505  -0.026127   0.000143   0.000048   0.004905
     9  H   -0.039489  -0.026127   0.574944  -0.000131   0.004098  -0.000069
    10  O    0.003601   0.000143  -0.000131   8.153335   0.000111  -0.114391
    11  H   -0.000636   0.000048   0.004098   0.000111   0.462062  -0.000101
    12  O    0.000083   0.004905  -0.000069  -0.114391  -0.000101   8.590036
    13  H    0.000029  -0.000127   0.000012   0.006054   0.000007   0.222002
              13
     1  N   -0.000292
     2  H   -0.000001
     3  C    0.010363
     4  H    0.005589
     5  C   -0.000328
     6  C   -0.009811
     7  H    0.000029
     8  H   -0.000127
     9  H    0.000012
    10  O    0.006054
    11  H    0.000007
    12  O    0.222002
    13  H    0.393910
 Mulliken charges:
               1
     1  N   -0.630499
     2  H    0.309907
     3  C    0.189075
     4  H    0.102437
     5  C   -0.453423
     6  C    0.251093
     7  H    0.176395
     8  H    0.182254
     9  H    0.156407
    10  O   -0.415397
    11  H    0.289543
    12  O   -0.530383
    13  H    0.372591
 Sum of Mulliken charges =   0.00000
 Mulliken charges with hydrogens summed into heavy atoms:
               1
     1  N   -0.031048
     3  C    0.189075
     5  C    0.061632
     6  C    0.353529
    10  O   -0.415397
    12  O   -0.157792
 APT charges:
               1
     1  N   -1.011614
     2  H    0.420852
     3  C    0.202747
     4  H    0.164519
     5  C   -1.285334
     6  C   -0.199111
     7  H    0.389916
     8  H    0.387176
     9  H    0.483950
    10  O   -0.180108
    11  H    0.624379
    12  O   -0.666935
    13  H    0.669565
 Sum of APT charges =   0.00000
 APT charges with hydrogens summed into heavy atoms:
               1
     1  N    0.033616
     3  C    0.202747
     5  C   -0.024293
     6  C   -0.034592
    10  O   -0.180108
    12  O    0.002630
 Electronic spatial extent (au):  <R**2>=            581.5803
 Charge=              0.0000 electrons
 Dipole moment (field-independent basis, Debye):
    X=             -1.9530    Y=              1.7931    Z=              1.1821  Tot=              2.9029
 Quadrupole moment (field-independent basis, Debye-Ang):
   XX=            -27.5474   YY=            -39.7710   ZZ=            -40.3233
   XY=              1.5847   XZ=             -2.4103   YZ=              1.7186
 Traceless Quadrupole moment (field-independent basis, Debye-Ang):
   XX=              8.3332   YY=             -3.8904   ZZ=             -4.4428
   XY=              1.5847   XZ=             -2.4103   YZ=              1.7186
 Octapole moment (field-independent basis, Debye-Ang**2):
  XXX=             10.2326  YYY=              2.3073  ZZZ=              6.3466  XYY=             -3.8778
  XXY=              0.6980  XXZ=              1.2507  XZZ=              0.0809  YZZ=              2.0231
  YYZ=              4.3260  XYZ=              6.9337
 Hexadecapole moment (field-independent basis, Debye-Ang**3):
 XXXX=           -285.3667 YYYY=           -230.9169 ZZZZ=           -109.7120 XXXY=             25.5982
 XXXZ=              4.7686 YYYX=              6.5497 YYYZ=             -7.0952 ZZZX=             -3.5231
 ZZZY=             -3.0737 XXYY=           -103.4575 XXZZ=            -86.0497 YYZZ=            -61.0834
 XXYZ=              1.9727 YYXZ=             -6.5928 ZZXY=              0.2851
 N-N= 2.484341978442D+02 E-N=-1.254135531176D+03  KE= 3.218771501569D+02
  Exact polarizability:   0.000   0.000   0.000   0.000   0.000   0.000
 Approx polarizability: 167.036 -21.290  77.476 -26.523   1.251  75.594
 Calling FoFJK, ICntrl=    100147 FMM=F ISym2X=0 I1Cent= 0 IOpClX= 0 NMat=1 NMatS=1 NMatT=0.
 ***** Axes restored to original set *****
 -------------------------------------------------------------------
 Center     Atomic                   Forces (Hartrees/Bohr)
 Number     Number              X              Y              Z
 -------------------------------------------------------------------
      1        7          -0.005311677    0.046545241    0.014554819
      2        1           0.011412095   -0.014594530   -0.001649396
      3        6           0.030522614   -0.070400976    0.040945079
      4        1          -0.032735939    0.016658905   -0.008737628
      5        6          -0.009604307    0.022251536   -0.044738234
      6        6          -0.062373702    0.010773511   -0.066762565
      7        1           0.005310252   -0.009527169   -0.000053192
      8        1          -0.000046020    0.000249868    0.000905567
      9        1          -0.002650113    0.004391659    0.003316821
     10        8           0.020959664   -0.062150377    0.059521007
     11        1          -0.004280741   -0.000704638   -0.006948537
     12        8           0.034490728    0.052254367    0.005142035
     13        1           0.014307146    0.004252604    0.004504225
 -------------------------------------------------------------------
 Cartesian Forces:  Max     0.070400976 RMS     0.029980211
 FormGI is forming the generalized inverse of G from B-inverse, IUseBI=4.

 GradGradGradGradGradGradGradGradGradGradGradGradGradGradGradGradGradGrad
 Berny optimization.
 Internal  Forces:  Max     0.087854705 RMS     0.021700779
 Search for a saddle point.
 Step number   1 out of a maximum of   60
 All quantities printed in internal units (Hartrees-Bohrs-Radians)
 Swapping is turned off.
 Second derivative matrix not updated -- analytic derivatives used.
 ITU=  0
     Eigenvalues ---   -0.10491  -0.00418   0.00110   0.00314   0.00745
     Eigenvalues ---    0.02250   0.03248   0.04264   0.05952   0.06168
     Eigenvalues ---    0.06347   0.08518   0.10184   0.11769   0.13568
     Eigenvalues ---    0.15315   0.15360   0.16522   0.16986   0.18789
     Eigenvalues ---    0.20332   0.24728   0.28861   0.33171   0.34272
     Eigenvalues ---    0.34709   0.35194   0.37375   0.45402   0.46340
     Eigenvalues ---    0.49156   0.52721   0.94143
 Eigenvectors required to have negative eigenvalues:
                          A13       D18       D17       A16       D12
   1                    0.62062   0.35580  -0.33292  -0.28969  -0.27233
                          D15       D11       R6        D14       R2
   1                   -0.22849  -0.20174  -0.16228  -0.15790  -0.12142
 RFO step:  Lambda0=1.746304690D-02 Lambda=-7.96033014D-02.
 Linear search not attempted -- option 19 set.
 Maximum step size (   0.300) exceeded in Quadratic search.
    -- Step size scaled by   0.343
 Iteration  1 RMS(Cart)=  0.05391942 RMS(Int)=  0.00782106
 Iteration  2 RMS(Cart)=  0.00760318 RMS(Int)=  0.00078270
 Iteration  3 RMS(Cart)=  0.00000885 RMS(Int)=  0.00078268
 Iteration  4 RMS(Cart)=  0.00000000 RMS(Int)=  0.00078268
 Variable       Old X    -DE/DX   Delta X   Delta X   Delta X     New X
                                 (Linear)    (Quad)   (Total)
    R1        1.91907   0.00942   0.00000   0.00372   0.00372   1.92279
    R2        2.75672  -0.02772   0.00000  -0.05516  -0.05516   2.70156
    R3        1.91554   0.00410   0.00000  -0.00056  -0.00056   1.91498
    R4        2.92167  -0.01060   0.00000  -0.01800  -0.01800   2.90367
    R5        2.87127  -0.03020   0.00000  -0.03801  -0.03801   2.83326
    R6        2.95524   0.00268   0.00000  -0.25267  -0.25267   2.70257
    R7        2.06633   0.00313   0.00000   0.00359   0.00359   2.06992
    R8        2.06555   0.00014   0.00000  -0.00148  -0.00148   2.06407
    R9        2.06588   0.00265   0.00000   0.00145   0.00145   2.06732
   R10        2.27773   0.08785   0.00000   0.04678   0.04678   2.32451
   R11        2.55737   0.06657   0.00000   0.05632   0.05632   2.61369
   R12        1.83183   0.01343   0.00000   0.00486   0.00486   1.83669
    A1        1.92679   0.00930   0.00000   0.02864   0.02790   1.95469
    A2        1.89661   0.00500   0.00000   0.02091   0.01965   1.91625
    A3        1.93821   0.00574   0.00000   0.02623   0.02550   1.96372
    A4        2.01211  -0.00193   0.00000   0.02363   0.02272   2.03483
    A5        1.88940   0.00047   0.00000   0.01149   0.01030   1.89970
    A6        1.89436   0.01693   0.00000   0.03241   0.03162   1.92597
    A7        1.93007  -0.01765   0.00000  -0.03761  -0.03763   1.89244
    A8        1.94576   0.00237   0.00000   0.00194   0.00175   1.94751
    A9        1.90963   0.01137   0.00000   0.02314   0.02315   1.93278
   A10        1.90095   0.00415   0.00000   0.00452   0.00431   1.90526
   A11        1.89033   0.00291   0.00000   0.00646   0.00665   1.89699
   A12        1.88575  -0.00280   0.00000   0.00256   0.00240   1.88816
   A13        1.40679  -0.04922   0.00000   0.03400   0.03445   1.44124
   A14        2.18471  -0.00439   0.00000   0.00464   0.00194   2.18665
   A15        1.95411   0.00493   0.00000  -0.00087  -0.00362   1.95048
   A16        1.89895   0.02689   0.00000  -0.00458  -0.00477   1.89418
   A17        1.41042   0.03260   0.00000   0.09091   0.09137   1.50180
   A18        2.14353  -0.00099   0.00000  -0.00903  -0.01167   2.13185
   A19        1.87233   0.01270   0.00000  -0.00005  -0.00005   1.87228
    D1       -1.36609  -0.02262   0.00000  -0.02250  -0.02296  -1.38905
    D2        0.75870  -0.00159   0.00000   0.04438   0.04390   0.80260
    D3        0.73876  -0.00633   0.00000   0.04022   0.04071   0.77947
    D4        2.86355   0.01469   0.00000   0.10710   0.10756   2.97111
    D5        1.04853   0.00809   0.00000   0.03285   0.03293   1.08146
    D6       -3.11704   0.00280   0.00000   0.01398   0.01425  -3.10280
    D7       -1.03222   0.00820   0.00000   0.03345   0.03384  -0.99838
    D8       -1.07359  -0.00408   0.00000  -0.02292  -0.02333  -1.09692
    D9        1.04402  -0.00937   0.00000  -0.04179  -0.04201   1.00201
   D10        3.12885  -0.00397   0.00000  -0.02231  -0.02242   3.10643
   D11        1.35868   0.00455   0.00000  -0.02206  -0.02194   1.33674
   D12       -0.49906   0.00555   0.00000  -0.03994  -0.04010  -0.53916
   D13        2.68582   0.01698   0.00000   0.09477   0.09453   2.78035
   D14       -2.72883   0.01344   0.00000   0.03570   0.03600  -2.69283
   D15        1.69661   0.01445   0.00000   0.01783   0.01785   1.71446
   D16       -1.40170   0.02587   0.00000   0.15253   0.15248  -1.24922
   D17        3.08349   0.00773   0.00000  -0.09669  -0.09585   2.98763
   D18       -1.87495  -0.03340   0.00000  -0.01719  -0.01760  -1.89255
   D19       -0.01601   0.01895   0.00000   0.03394   0.03351   0.01750
         Item               Value     Threshold  Converged?
 Maximum Force            0.087855     0.000450     NO 
 RMS     Force            0.021701     0.000300     NO 
 Maximum Displacement     0.155832     0.001800     NO 
 RMS     Displacement     0.055524     0.001200     NO 
 Predicted change in Energy=-2.193382D-02
 GradGradGradGradGradGradGradGradGradGradGradGradGradGradGradGradGradGrad

                          Input orientation:                          
 ---------------------------------------------------------------------
 Center     Atomic      Atomic             Coordinates (Angstroms)
 Number     Number       Type             X           Y           Z
 ---------------------------------------------------------------------
      1          7           0       -1.423565   -1.080646   -0.422625
      2          1           0       -1.223001   -1.678124    0.376183
      3          6           0       -0.661601    0.128575   -0.391515
      4          1           0        0.784315   -0.621744   -1.433397
      5          6           0       -1.175287    1.241458    0.535107
      6          6           0        0.763262   -0.205112   -0.065452
      7          1           0       -1.156883    0.870155    1.565446
      8          1           0       -0.556685    2.139029    0.466338
      9          1           0       -2.203206    1.514864    0.279324
     10          8           0        1.129928   -1.146935    0.635703
     11          1           0       -2.420651   -0.909562   -0.481412
     12          8           0        1.627988    0.800403   -0.458082
     13          1           0        2.503492    0.586565   -0.094177
 ---------------------------------------------------------------------
                    Distance matrix (angstroms):
                    1          2          3          4          5
     1  N    0.000000
     2  H    1.017497   0.000000
     3  C    1.429605   2.041737   0.000000
     4  H    2.471232   2.901696   1.933693   0.000000
     5  C    2.524095   2.924294   1.536558   3.344633   0.000000
     6  C    2.382507   2.511981   1.499299   1.430139   2.492229
     7  H    2.798066   2.812908   2.150568   3.871314   1.095356
     8  H    3.450803   3.875921   2.188343   3.609590   1.092260
     9  H    2.799508   3.341460   2.179075   4.052627   1.093981
    10  O    2.764919   2.426065   2.427278   2.162510   3.320927
    11  H    1.013364   1.661482   2.044522   3.355731   2.685355
    12  O    3.584910   3.868752   2.387049   1.919772   3.006544
    13  H    4.278931   4.385979   3.211850   2.491804   3.789235
                    6          7          8          9         10
     6  C    0.000000
     7  H    2.739158   0.000000
     8  H    2.742272   1.782784   0.000000
     9  H    3.446320   1.778919   1.770760   0.000000
    10  O    1.230078   3.187881   3.697419   4.280416   0.000000
    11  H    3.287335   2.992346   3.696824   2.550263   3.729733
    12  O    1.383103   3.443115   2.723833   3.966393   2.288352
    13  H    1.912062   4.029034   3.476925   4.811887   2.329039
                   11         12         13
    11  H    0.000000
    12  O    4.394998   0.000000
    13  H    5.160963   0.971937   0.000000
 Stoichiometry    C3H7NO2
 Framework group  C1[X(C3H7NO2)]
 Deg. of freedom    33
 Full point group                 C1      NOp   1
 Largest Abelian subgroup         C1      NOp   1
 Largest concise Abelian subgroup C1      NOp   1
                         Standard orientation:                         
 ---------------------------------------------------------------------
 Center     Atomic      Atomic             Coordinates (Angstroms)
 Number     Number       Type             X           Y           Z
 ---------------------------------------------------------------------
      1          7           0       -1.449803   -1.059465   -0.400580
      2          1           0       -1.276731   -1.616491    0.433128
      3          6           0       -0.678141    0.143954   -0.410208
      4          1           0        0.789156   -0.669966   -1.371323
      5          6           0       -1.207161    1.306957    0.443356
      6          6           0        0.734126   -0.183257   -0.027677
      7          1           0       -1.220524    0.989108    1.491496
      8          1           0       -0.578849    2.195088    0.345990
      9          1           0       -2.225133    1.574588    0.145195
     10          8           0        1.072828   -1.090448    0.730860
     11          1           0       -2.443309   -0.884101   -0.495969
     12          8           0        1.618363    0.794123   -0.446994
     13          1           0        2.481537    0.592702   -0.048220
 ---------------------------------------------------------------------
 Rotational constants (GHZ):      4.9793056      3.0959379      2.3072136
 Standard basis: 6-31G (6D, 7F)
 There are    68 symmetry adapted cartesian basis functions of A   symmetry.
 There are    68 symmetry adapted basis functions of A   symmetry.
    68 basis functions,   160 primitive gaussians,    68 cartesian basis functions
    24 alpha electrons       24 beta electrons
       nuclear repulsion energy       248.4372785207 Hartrees.
 NAtoms=   13 NActive=   13 NUniq=   13 SFac= 1.00D+00 NAtFMM=   60 NAOKFM=F Big=F
 Integral buffers will be    131072 words long.
 Raffenetti 2 integral format.
 Two-electron integral symmetry is turned on.
 One-electron integrals computed using PRISM.
 NBasis=    68 RedAO= T EigKep=  5.20D-03  NBF=    68
 NBsUse=    68 1.00D-06 EigRej= -1.00D+00 NBFU=    68
 Initial guess from the checkpoint file:  "Ala-S-opt-freq-tsb1-6-31g.chk"
 B after Tr=     0.000000    0.000000    0.000000
         Rot=    0.999916   -0.010150   -0.005657    0.005807 Ang=  -1.49 deg.
 ExpMin= 1.61D-01 ExpMax= 5.48D+03 ExpMxC= 8.25D+02 IAcc=1 IRadAn=         1 AccDes= 0.00D+00
 Harris functional with IExCor=  402 and IRadAn=       1 diagonalized for initial guess.
 HarFok:  IExCor=  402 AccDes= 0.00D+00 IRadAn=         1 IDoV= 1 UseB2=F ITyADJ=14
 ICtDFT=  3500011 ScaDFX=  1.000000  1.000000  1.000000  1.000000
 FoFCou: FMM=F IPFlag=           0 FMFlag=      100000 FMFlg1=           0
         NFxFlg=           0 DoJE=T BraDBF=F KetDBF=T FulRan=T
         wScrn=  0.000000 ICntrl=     500 IOpCl=  0 I1Cent=   200000004 NGrid=           0
         NMat0=    1 NMatS0=      1 NMatT0=    0 NMatD0=    1 NMtDS0=    0 NMtDT0=    0
 Petite list used in FoFCou.
 Keep R1 ints in memory in canonical form, NReq=3676491.
 Requested convergence on RMS density matrix=1.00D-08 within 128 cycles.
 Requested convergence on MAX density matrix=1.00D-06.
 Requested convergence on             energy=1.00D-06.
 No special actions if energy rises.
 Integral accuracy reduced to 1.0D-05 until final iterations.
 Initial convergence to 1.0D-05 achieved.  Increase integral accuracy.
 SCF Done:  E(RB3LYP) =  -323.447286382     A.U. after   16 cycles
            NFock= 16  Conv=0.67D-08     -V/T= 2.0050
 Calling FoFJK, ICntrl=      2127 FMM=F ISym2X=0 I1Cent= 0 IOpClX= 0 NMat=1 NMatS=1 NMatT=0.
 ***** Axes restored to original set *****
 -------------------------------------------------------------------
 Center     Atomic                   Forces (Hartrees/Bohr)
 Number     Number              X              Y              Z
 -------------------------------------------------------------------
      1        7          -0.011218892    0.039964155    0.014595323
      2        1           0.011932685   -0.013319515   -0.004642530
      3        6           0.024414651   -0.060632655    0.042735935
      4        1          -0.026460166    0.015884453    0.000164941
      5        6          -0.009620910    0.021976614   -0.042044775
      6        6          -0.037080680    0.003342747   -0.069267203
      7        1           0.004382499   -0.007414788   -0.000316952
      8        1           0.000281265   -0.000101314    0.001159922
      9        1          -0.001914104    0.003169714    0.002964455
     10        8           0.015959577   -0.046432126    0.045077692
     11        1          -0.002746077   -0.001146688   -0.006109633
     12        8           0.022617995    0.041094820    0.011373230
     13        1           0.009452157    0.003614585    0.004309596
 -------------------------------------------------------------------
 Cartesian Forces:  Max     0.069267203 RMS     0.025264622

 GradGradGradGradGradGradGradGradGradGradGradGradGradGradGradGradGradGrad
 Berny optimization.
 FormGI is forming the generalized inverse of G from B-inverse, IUseBI=4.
 Internal  Forces:  Max     0.066001119 RMS     0.016729916
 Search for a saddle point.
 Step number   2 out of a maximum of   60
 All quantities printed in internal units (Hartrees-Bohrs-Radians)
 Swapping is turned off.
 Update second derivatives using D2CorX and points    1    2
 ITU=  0  0
     Eigenvalues ---   -0.10951  -0.00358   0.00309   0.00379   0.00748
     Eigenvalues ---    0.02269   0.03247   0.04258   0.05946   0.06170
     Eigenvalues ---    0.06345   0.08634   0.10175   0.11769   0.13569
     Eigenvalues ---    0.15309   0.15368   0.16513   0.16966   0.18760
     Eigenvalues ---    0.20290   0.24710   0.28857   0.33074   0.34272
     Eigenvalues ---    0.34708   0.35194   0.37418   0.45400   0.46340
     Eigenvalues ---    0.49120   0.52694   0.93897
 Eigenvectors required to have negative eigenvalues:
                          A13       D18       D17       A16       D12
   1                   -0.62138  -0.34508   0.33567   0.28784   0.27274
                          D15       R6        D11       D14       D16
   1                    0.22246   0.19684   0.19327   0.14298  -0.12856
 RFO step:  Lambda0=6.530624062D-03 Lambda=-6.78279943D-02.
 Linear search not attempted -- option 19 set.
 Maximum step size (   0.300) exceeded in Quadratic search.
    -- Step size scaled by   0.713
 Iteration  1 RMS(Cart)=  0.08841888 RMS(Int)=  0.04062525
 Iteration  2 RMS(Cart)=  0.04882807 RMS(Int)=  0.00561726
 Iteration  3 RMS(Cart)=  0.00363033 RMS(Int)=  0.00390484
 Iteration  4 RMS(Cart)=  0.00000748 RMS(Int)=  0.00390483
 Iteration  5 RMS(Cart)=  0.00000012 RMS(Int)=  0.00390483
 Variable       Old X    -DE/DX   Delta X   Delta X   Delta X     New X
                                 (Linear)    (Quad)   (Total)
    R1        1.92279   0.00652   0.00000  -0.00210  -0.00210   1.92069
    R2        2.70156  -0.02057   0.00000  -0.14190  -0.14190   2.55966
    R3        1.91498   0.00286   0.00000  -0.00909  -0.00909   1.90589
    R4        2.90367  -0.00799   0.00000  -0.03323  -0.03323   2.87045
    R5        2.83326  -0.02045   0.00000  -0.04213  -0.04213   2.79113
    R6        2.70257  -0.00517   0.00000  -0.01071  -0.01071   2.69186
    R7        2.06992   0.00229   0.00000   0.00264   0.00264   2.07256
    R8        2.06407   0.00000   0.00000  -0.00345  -0.00345   2.06062
    R9        2.06732   0.00190   0.00000   0.00327   0.00327   2.07059
   R10        2.32451   0.06600   0.00000   0.06424   0.06424   2.38875
   R11        2.61369   0.04811   0.00000   0.04184   0.04184   2.65552
   R12        1.83669   0.00933   0.00000   0.00451   0.00451   1.84120
    A1        1.95469   0.00806   0.00000   0.08205   0.07013   2.02482
    A2        1.91625   0.00470   0.00000   0.08908   0.07359   1.98984
    A3        1.96372   0.00578   0.00000   0.08976   0.07791   2.04162
    A4        2.03483  -0.00105   0.00000   0.01631   0.01121   2.04604
    A5        1.89970   0.00079   0.00000   0.04521   0.04160   1.94130
    A6        1.92597   0.01403   0.00000   0.06731   0.06433   1.99030
    A7        1.89244  -0.01416   0.00000  -0.05697  -0.05700   1.83544
    A8        1.94751   0.00166   0.00000  -0.00163  -0.00211   1.94541
    A9        1.93278   0.00913   0.00000   0.03988   0.03990   1.97268
   A10        1.90526   0.00292   0.00000   0.00685   0.00625   1.91152
   A11        1.89699   0.00242   0.00000   0.00730   0.00781   1.90480
   A12        1.88816  -0.00186   0.00000   0.00493   0.00456   1.89271
   A13        1.44124  -0.03517   0.00000   0.02459   0.02538   1.46662
   A14        2.18665  -0.00396   0.00000  -0.03240  -0.03745   2.14920
   A15        1.95048   0.00292   0.00000   0.00117  -0.00412   1.94636
   A16        1.89418   0.02066   0.00000   0.01103   0.01058   1.90477
   A17        1.50180   0.02576   0.00000   0.13706   0.13655   1.63834
   A18        2.13185  -0.00108   0.00000   0.00088  -0.00522   2.12664
   A19        1.87228   0.00874   0.00000   0.00424   0.00424   1.87652
    D1       -1.38905  -0.02293   0.00000  -0.47393  -0.47799  -1.86704
    D2        0.80260  -0.00396   0.00000  -0.33072  -0.33554   0.46705
    D3        0.77947  -0.00598   0.00000  -0.22266  -0.21784   0.56163
    D4        2.97111   0.01299   0.00000  -0.07945  -0.07539   2.89572
    D5        1.08146   0.00788   0.00000   0.08565   0.08534   1.16679
    D6       -3.10280   0.00329   0.00000   0.05597   0.05623  -3.04657
    D7       -0.99838   0.00829   0.00000   0.08838   0.08889  -0.90949
    D8       -1.09692  -0.00453   0.00000  -0.04794  -0.04855  -1.14547
    D9        1.00201  -0.00913   0.00000  -0.07762  -0.07766   0.92435
   D10        3.10643  -0.00413   0.00000  -0.04521  -0.04500   3.06143
   D11        1.33674   0.00347   0.00000   0.01476   0.01326   1.35000
   D12       -0.53916   0.00310   0.00000  -0.01322  -0.01301  -0.55217
   D13        2.78035   0.01633   0.00000   0.17452   0.17218   2.95253
   D14       -2.69283   0.01311   0.00000   0.12003   0.12095  -2.57188
   D15        1.71446   0.01274   0.00000   0.09205   0.09467   1.80913
   D16       -1.24922   0.02598   0.00000   0.27979   0.27987  -0.96935
   D17        2.98763   0.00295   0.00000  -0.04108  -0.04111   2.94652
   D18       -1.89255  -0.02490   0.00000   0.04253   0.04122  -1.85133
   D19        0.01750   0.01606   0.00000   0.14378   0.14512   0.16262
         Item               Value     Threshold  Converged?
 Maximum Force            0.066001     0.000450     NO 
 RMS     Force            0.016730     0.000300     NO 
 Maximum Displacement     0.373584     0.001800     NO 
 RMS     Displacement     0.121558     0.001200     NO 
 Predicted change in Energy=-4.293027D-02
 GradGradGradGradGradGradGradGradGradGradGradGradGradGradGradGradGradGrad

                          Input orientation:                          
 ---------------------------------------------------------------------
 Center     Atomic      Atomic             Coordinates (Angstroms)
 Number     Number       Type             X           Y           Z
 ---------------------------------------------------------------------
      1          7           0       -1.443015   -1.022043   -0.354040
      2          1           0       -1.095627   -1.814996    0.178491
      3          6           0       -0.670255    0.090258   -0.335741
      4          1           0        0.727703   -0.628436   -1.476921
      5          6           0       -1.167090    1.268303    0.484410
      6          6           0        0.748722   -0.248110   -0.104323
      7          1           0       -1.124067    0.930523    1.526963
      8          1           0       -0.526263    2.141388    0.357509
      9          1           0       -2.196332    1.555561    0.242076
     10          8           0        1.118907   -1.234986    0.593473
     11          1           0       -2.440256   -0.887462   -0.286347
     12          8           0        1.585328    0.859084   -0.325488
     13          1           0        2.470352    0.629839    0.011383
 ---------------------------------------------------------------------
                    Distance matrix (angstroms):
                    1          2          3          4          5
     1  N    0.000000
     2  H    1.016387   0.000000
     3  C    1.354514   2.018755   0.000000
     4  H    2.475440   2.733650   1.942447   0.000000
     5  C    2.454551   3.099262   1.518974   3.321849   0.000000
     6  C    2.337743   2.436542   1.477005   1.424470   2.513255
     7  H    2.729911   3.058931   2.093241   3.857813   1.096752
     8  H    3.369575   4.001150   2.169899   3.550985   1.090432
     9  H    2.750796   3.546300   2.193147   4.034200   1.095710
    10  O    2.739812   2.326538   2.412636   2.192596   3.391775
    11  H    1.008555   1.698358   2.022691   3.394190   2.619607
    12  O    3.565153   3.819976   2.383034   2.067374   2.898137
    13  H    4.263414   4.326818   3.205473   2.614409   3.723222
                    6          7          8          9         10
     6  C    0.000000
     7  H    2.749110   0.000000
     8  H    2.747467   1.786390   0.000000
     9  H    3.470816   1.786438   1.773598   0.000000
    10  O    1.264073   3.254499   3.763265   4.347578   0.000000
    11  H    3.257527   2.885397   3.640310   2.511392   3.682729
    12  O    1.405241   3.282910   2.563123   3.886921   2.333917
    13  H    1.936025   3.912447   3.374060   4.763204   2.375460
                   11         12         13
    11  H    0.000000
    12  O    4.388312   0.000000
    13  H    5.148293   0.974322   0.000000
 Stoichiometry    C3H7NO2
 Framework group  C1[X(C3H7NO2)]
 Deg. of freedom    33
 Full point group                 C1      NOp   1
 Largest Abelian subgroup         C1      NOp   1
 Largest concise Abelian subgroup C1      NOp   1
                         Standard orientation:                         
 ---------------------------------------------------------------------
 Center     Atomic      Atomic             Coordinates (Angstroms)
 Number     Number       Type             X           Y           Z
 ---------------------------------------------------------------------
      1          7           0       -1.438915   -1.028679   -0.338087
      2          1           0       -1.084235   -1.792744    0.230640
      3          6           0       -0.685292    0.096650   -0.357922
      4          1           0        0.737403   -0.644381   -1.453327
      5          6           0       -1.211174    1.298882    0.407173
      6          6           0        0.736487   -0.207195   -0.097605
      7          1           0       -1.174241    1.005390    1.463280
      8          1           0       -0.583779    2.176933    0.250833
      9          1           0       -2.242312    1.557970    0.142205
     10          8           0        1.115364   -1.157743    0.644548
     11          1           0       -2.438986   -0.908712   -0.286620
     12          8           0        1.556735    0.904216   -0.355794
     13          1           0        2.441638    0.704500   -0.000318
 ---------------------------------------------------------------------
 Rotational constants (GHZ):      4.9676378      3.2393032      2.2834193
 Standard basis: 6-31G (6D, 7F)
 There are    68 symmetry adapted cartesian basis functions of A   symmetry.
 There are    68 symmetry adapted basis functions of A   symmetry.
    68 basis functions,   160 primitive gaussians,    68 cartesian basis functions
    24 alpha electrons       24 beta electrons
       nuclear repulsion energy       249.4128715965 Hartrees.
 NAtoms=   13 NActive=   13 NUniq=   13 SFac= 1.00D+00 NAtFMM=   60 NAOKFM=F Big=F
 Integral buffers will be    131072 words long.
 Raffenetti 2 integral format.
 Two-electron integral symmetry is turned on.
 One-electron integrals computed using PRISM.
 NBasis=    68 RedAO= T EigKep=  5.16D-03  NBF=    68
 NBsUse=    68 1.00D-06 EigRej= -1.00D+00 NBFU=    68
 Initial guess from the checkpoint file:  "Ala-S-opt-freq-tsb1-6-31g.chk"
 B after Tr=     0.000000    0.000000    0.000000
         Rot=    0.999844   -0.013130   -0.006597   -0.009754 Ang=  -2.02 deg.
 ExpMin= 1.61D-01 ExpMax= 5.48D+03 ExpMxC= 8.25D+02 IAcc=1 IRadAn=         1 AccDes= 0.00D+00
 Harris functional with IExCor=  402 and IRadAn=       1 diagonalized for initial guess.
 HarFok:  IExCor=  402 AccDes= 0.00D+00 IRadAn=         1 IDoV= 1 UseB2=F ITyADJ=14
 ICtDFT=  3500011 ScaDFX=  1.000000  1.000000  1.000000  1.000000
 FoFCou: FMM=F IPFlag=           0 FMFlag=      100000 FMFlg1=           0
         NFxFlg=           0 DoJE=T BraDBF=F KetDBF=T FulRan=T
         wScrn=  0.000000 ICntrl=     500 IOpCl=  0 I1Cent=   200000004 NGrid=           0
         NMat0=    1 NMatS0=      1 NMatT0=    0 NMatD0=    1 NMtDS0=    0 NMtDT0=    0
 Petite list used in FoFCou.
 Keep R1 ints in memory in canonical form, NReq=3676491.
 Requested convergence on RMS density matrix=1.00D-08 within 128 cycles.
 Requested convergence on MAX density matrix=1.00D-06.
 Requested convergence on             energy=1.00D-06.
 No special actions if energy rises.
 Integral accuracy reduced to 1.0D-05 until final iterations.
 Initial convergence to 1.0D-05 achieved.  Increase integral accuracy.
 SCF Done:  E(RB3LYP) =  -323.487970611     A.U. after   17 cycles
            NFock= 17  Conv=0.38D-08     -V/T= 2.0051
 Calling FoFJK, ICntrl=      2127 FMM=F ISym2X=0 I1Cent= 0 IOpClX= 0 NMat=1 NMatS=1 NMatT=0.
 ***** Axes restored to original set *****
 -------------------------------------------------------------------
 Center     Atomic                   Forces (Hartrees/Bohr)
 Number     Number              X              Y              Z
 -------------------------------------------------------------------
      1        7          -0.021995239    0.012501978    0.016479751
      2        1           0.010643455   -0.009110962   -0.011094533
      3        6           0.019407123   -0.029435048    0.044063346
      4        1          -0.011992187    0.015817288    0.011460865
      5        6          -0.007459474    0.019604375   -0.036273352
      6        6          -0.005347755   -0.006662565   -0.062923522
      7        1           0.002789378   -0.003010974   -0.000045027
      8        1           0.000685531   -0.000366967    0.001635165
      9        1          -0.001003007    0.000705234    0.001970403
     10        8           0.005548435   -0.022907680    0.023298699
     11        1          -0.003777583   -0.001128935   -0.004983769
     12        8           0.008579376    0.023272253    0.013869663
     13        1           0.003921946    0.000722002    0.002542310
 -------------------------------------------------------------------
 Cartesian Forces:  Max     0.062923522 RMS     0.018062100

 GradGradGradGradGradGradGradGradGradGradGradGradGradGradGradGradGradGrad
 Berny optimization.
 FormGI is forming the generalized inverse of G from B-inverse, IUseBI=4.
 Internal  Forces:  Max     0.032370396 RMS     0.009954121
 Search for a saddle point.
 Step number   3 out of a maximum of   60
 All quantities printed in internal units (Hartrees-Bohrs-Radians)
 Swapping is turned off.
 Update second derivatives using D2CorX and points    2    3
 ITU=  0  0  0
     Eigenvalues ---   -0.10866  -0.00120   0.00313   0.00559   0.00818
     Eigenvalues ---    0.02370   0.03182   0.04026   0.05898   0.06165
     Eigenvalues ---    0.06333   0.08766   0.10132   0.11757   0.13585
     Eigenvalues ---    0.15272   0.15392   0.16459   0.16819   0.18614
     Eigenvalues ---    0.20143   0.24397   0.28842   0.32637   0.34270
     Eigenvalues ---    0.34707   0.35196   0.37678   0.45423   0.46347
     Eigenvalues ---    0.49070   0.52656   0.93925
 Eigenvectors required to have negative eigenvalues:
                          A13       D18       D17       A16       D12
   1                   -0.63160  -0.34561   0.33517   0.27565   0.27046
                          D15       R6        D11       D14       D16
   1                    0.22141   0.20007   0.19336   0.14432  -0.11632
 RFO step:  Lambda0=1.155631106D-03 Lambda=-4.98649541D-02.
 Linear search not attempted -- option 19 set.
 Maximum step size (   0.300) exceeded in Quadratic search.
    -- Step size scaled by   0.293
 Iteration  1 RMS(Cart)=  0.05322802 RMS(Int)=  0.01275864
 Iteration  2 RMS(Cart)=  0.01188424 RMS(Int)=  0.00034397
 Iteration  3 RMS(Cart)=  0.00004763 RMS(Int)=  0.00034162
 Iteration  4 RMS(Cart)=  0.00000001 RMS(Int)=  0.00034162
 Variable       Old X    -DE/DX   Delta X   Delta X   Delta X     New X
                                 (Linear)    (Quad)   (Total)
    R1        1.92069   0.00494   0.00000   0.00111   0.00111   1.92180
    R2        2.55966   0.00677   0.00000   0.00290   0.00290   2.56256
    R3        1.90589   0.00325   0.00000  -0.00017  -0.00017   1.90573
    R4        2.87045  -0.00290   0.00000  -0.01171  -0.01171   2.85874
    R5        2.79113  -0.00351   0.00000  -0.01530  -0.01530   2.77583
    R6        2.69186  -0.01509   0.00000  -0.28153  -0.28153   2.41033
    R7        2.07256   0.00099   0.00000   0.00125   0.00125   2.07381
    R8        2.06062  -0.00008   0.00000  -0.00099  -0.00099   2.05963
    R9        2.07059   0.00069   0.00000  -0.00023  -0.00023   2.07036
   R10        2.38875   0.03237   0.00000   0.02803   0.02803   2.41678
   R11        2.65552   0.02377   0.00000   0.03527   0.03527   2.69079
   R12        1.84120   0.00427   0.00000   0.00096   0.00096   1.84216
    A1        2.02482   0.00154   0.00000   0.00125   0.00090   2.02573
    A2        1.98984   0.00368   0.00000   0.01554   0.01511   2.00495
    A3        2.04162   0.00641   0.00000   0.01592   0.01558   2.05720
    A4        2.04604   0.00049   0.00000   0.02204   0.02147   2.06751
    A5        1.94130  -0.00023   0.00000  -0.00791  -0.00906   1.93224
    A6        1.99030   0.01034   0.00000   0.03421   0.03370   2.02401
    A7        1.83544  -0.00677   0.00000  -0.01562  -0.01564   1.81980
    A8        1.94541   0.00096   0.00000  -0.00046  -0.00051   1.94490
    A9        1.97268   0.00421   0.00000   0.00914   0.00912   1.98180
   A10        1.91152   0.00035   0.00000  -0.00233  -0.00239   1.90912
   A11        1.90480   0.00121   0.00000   0.00290   0.00293   1.90773
   A12        1.89271  -0.00014   0.00000   0.00562   0.00558   1.89829
   A13        1.46662  -0.01622   0.00000  -0.02287  -0.02268   1.44394
   A14        2.14920  -0.00390   0.00000   0.00132   0.00049   2.14970
   A15        1.94636   0.00035   0.00000  -0.01167  -0.01240   1.93396
   A16        1.90477   0.01297   0.00000   0.02334   0.02320   1.92797
   A17        1.63834   0.01265   0.00000   0.06109   0.06096   1.69930
   A18        2.12664  -0.00056   0.00000  -0.01348  -0.01429   2.11235
   A19        1.87652   0.00236   0.00000  -0.00632  -0.00632   1.87020
    D1       -1.86704  -0.02176   0.00000  -0.01850  -0.01841  -1.88545
    D2        0.46705  -0.00574   0.00000   0.04778   0.04746   0.51451
    D3        0.56163  -0.00472   0.00000   0.03152   0.03185   0.59348
    D4        2.89572   0.01131   0.00000   0.09781   0.09772   2.99344
    D5        1.16679   0.00703   0.00000   0.02166   0.02201   1.18880
    D6       -3.04657   0.00393   0.00000   0.00933   0.00972  -3.03684
    D7       -0.90949   0.00757   0.00000   0.02309   0.02350  -0.88599
    D8       -1.14547  -0.00458   0.00000  -0.02757  -0.02800  -1.17347
    D9        0.92435  -0.00768   0.00000  -0.03990  -0.04028   0.88407
   D10        3.06143  -0.00404   0.00000  -0.02614  -0.02650   3.03493
   D11        1.35000   0.00401   0.00000   0.01976   0.01978   1.36978
   D12       -0.55217  -0.00049   0.00000   0.00657   0.00668  -0.54550
   D13        2.95253   0.01128   0.00000   0.07779   0.07790   3.03043
   D14       -2.57188   0.01487   0.00000   0.07866   0.07852  -2.49336
   D15        1.80913   0.01037   0.00000   0.06547   0.06542   1.87455
   D16       -0.96935   0.02214   0.00000   0.13669   0.13665  -0.83271
   D17        2.94652  -0.00089   0.00000  -0.04920  -0.04870   2.89783
   D18       -1.85133  -0.01338   0.00000  -0.05038  -0.05071  -1.90203
   D19        0.16262   0.01151   0.00000   0.01740   0.01723   0.17985
         Item               Value     Threshold  Converged?
 Maximum Force            0.032370     0.000450     NO 
 RMS     Force            0.009954     0.000300     NO 
 Maximum Displacement     0.163089     0.001800     NO 
 RMS     Displacement     0.056927     0.001200     NO 
 Predicted change in Energy=-1.656187D-02
 GradGradGradGradGradGradGradGradGradGradGradGradGradGradGradGradGradGrad

                          Input orientation:                          
 ---------------------------------------------------------------------
 Center     Atomic      Atomic             Coordinates (Angstroms)
 Number     Number       Type             X           Y           Z
 ---------------------------------------------------------------------
      1          7           0       -1.440940   -1.038741   -0.330800
      2          1           0       -1.092178   -1.829031    0.205895
      3          6           0       -0.670181    0.076892   -0.317938
      4          1           0        0.657529   -0.553229   -1.390618
      5          6           0       -1.153635    1.278136    0.464230
      6          6           0        0.746605   -0.272490   -0.149597
      7          1           0       -1.096013    0.959223    1.512703
      8          1           0       -0.504246    2.140138    0.312097
      9          1           0       -2.184005    1.567382    0.229737
     10          8           0        1.141750   -1.292873    0.512428
     11          1           0       -2.442194   -0.920244   -0.309482
     12          8           0        1.571177    0.880777   -0.282124
     13          1           0        2.454438    0.642984    0.054913
 ---------------------------------------------------------------------
                    Distance matrix (angstroms):
                    1          2          3          4          5
     1  N    0.000000
     2  H    1.016974   0.000000
     3  C    1.356050   2.021145   0.000000
     4  H    2.400522   2.690353   1.819480   0.000000
     5  C    2.466279   3.118494   1.512779   3.174062   0.000000
     6  C    2.324936   2.435225   1.468908   1.275493   2.528267
     7  H    2.740317   3.079306   2.076316   3.713716   1.097416
     8  H    3.375794   4.013882   2.163669   3.391635   1.089908
     9  H    2.767349   3.567671   2.193894   3.898315   1.095588
    10  O    2.728718   2.317728   2.418441   2.098363   3.446912
    11  H    1.008467   1.707059   2.033318   3.303307   2.663061
    12  O    3.572082   3.830756   2.381429   2.029750   2.852988
    13  H    4.260393   4.325754   3.197300   2.597955   3.686346
                    6          7          8          9         10
     6  C    0.000000
     7  H    2.770487   0.000000
     8  H    2.756549   1.784994   0.000000
     9  H    3.481020   1.788738   1.776633   0.000000
    10  O    1.278905   3.328674   3.812480   4.395636   0.000000
    11  H    3.257851   2.943630   3.675316   2.558457   3.695814
    12  O    1.423906   3.215814   2.499294   3.851600   2.353822
    13  H    1.948490   3.851086   3.325872   4.732888   2.383278
                   11         12         13
    11  H    0.000000
    12  O    4.399043   0.000000
    13  H    5.153007   0.974828   0.000000
 Stoichiometry    C3H7NO2
 Framework group  C1[X(C3H7NO2)]
 Deg. of freedom    33
 Full point group                 C1      NOp   1
 Largest Abelian subgroup         C1      NOp   1
 Largest concise Abelian subgroup C1      NOp   1
                         Standard orientation:                         
 ---------------------------------------------------------------------
 Center     Atomic      Atomic             Coordinates (Angstroms)
 Number     Number       Type             X           Y           Z
 ---------------------------------------------------------------------
      1          7           0       -1.431471   -1.047784   -0.298571
      2          1           0       -1.068887   -1.801914    0.279405
      3          6           0       -0.689146    0.086527   -0.332650
      4          1           0        0.665643   -0.560695   -1.360346
      5          6           0       -1.211146    1.311535    0.385246
      6          6           0        0.734033   -0.217883   -0.133690
      7          1           0       -1.157036    1.045449    1.448538
      8          1           0       -0.581970    2.181485    0.197568
      9          1           0       -2.245820    1.562584    0.126909
     10          8           0        1.147384   -1.194490    0.581137
     11          1           0       -2.435558   -0.954069   -0.292802
     12          8           0        1.530800    0.948330   -0.314290
     13          1           0        2.416004    0.749864    0.042523
 ---------------------------------------------------------------------
 Rotational constants (GHZ):      4.9085823      3.3101951      2.2518374
 Standard basis: 6-31G (6D, 7F)
 There are    68 symmetry adapted cartesian basis functions of A   symmetry.
 There are    68 symmetry adapted basis functions of A   symmetry.
    68 basis functions,   160 primitive gaussians,    68 cartesian basis functions
    24 alpha electrons       24 beta electrons
       nuclear repulsion energy       249.4842473739 Hartrees.
 NAtoms=   13 NActive=   13 NUniq=   13 SFac= 1.00D+00 NAtFMM=   60 NAOKFM=F Big=F
 Integral buffers will be    131072 words long.
 Raffenetti 2 integral format.
 Two-electron integral symmetry is turned on.
 One-electron integrals computed using PRISM.
 NBasis=    68 RedAO= T EigKep=  5.07D-03  NBF=    68
 NBsUse=    68 1.00D-06 EigRej= -1.00D+00 NBFU=    68
 Initial guess from the checkpoint file:  "Ala-S-opt-freq-tsb1-6-31g.chk"
 B after Tr=     0.000000    0.000000    0.000000
         Rot=    0.999975   -0.004066   -0.003889   -0.004189 Ang=  -0.80 deg.
 ExpMin= 1.61D-01 ExpMax= 5.48D+03 ExpMxC= 8.25D+02 IAcc=1 IRadAn=         1 AccDes= 0.00D+00
 Harris functional with IExCor=  402 and IRadAn=       1 diagonalized for initial guess.
 HarFok:  IExCor=  402 AccDes= 0.00D+00 IRadAn=         1 IDoV= 1 UseB2=F ITyADJ=14
 ICtDFT=  3500011 ScaDFX=  1.000000  1.000000  1.000000  1.000000
 FoFCou: FMM=F IPFlag=           0 FMFlag=      100000 FMFlg1=           0
         NFxFlg=           0 DoJE=T BraDBF=F KetDBF=T FulRan=T
         wScrn=  0.000000 ICntrl=     500 IOpCl=  0 I1Cent=   200000004 NGrid=           0
         NMat0=    1 NMatS0=      1 NMatT0=    0 NMatD0=    1 NMtDS0=    0 NMtDT0=    0
 Petite list used in FoFCou.
 Keep R1 ints in memory in canonical form, NReq=3676491.
 Requested convergence on RMS density matrix=1.00D-08 within 128 cycles.
 Requested convergence on MAX density matrix=1.00D-06.
 Requested convergence on             energy=1.00D-06.
 No special actions if energy rises.
 Integral accuracy reduced to 1.0D-05 until final iterations.
 Initial convergence to 1.0D-05 achieved.  Increase integral accuracy.
 SCF Done:  E(RB3LYP) =  -323.502895537     A.U. after   14 cycles
            NFock= 14  Conv=0.82D-08     -V/T= 2.0050
 Calling FoFJK, ICntrl=      2127 FMM=F ISym2X=0 I1Cent= 0 IOpClX= 0 NMat=1 NMatS=1 NMatT=0.
 ***** Axes restored to original set *****
 -------------------------------------------------------------------
 Center     Atomic                   Forces (Hartrees/Bohr)
 Number     Number              X              Y              Z
 -------------------------------------------------------------------
      1        7          -0.019274996    0.014660917    0.014454655
      2        1           0.010389246   -0.008003725   -0.010445639
      3        6           0.008293815   -0.028871777    0.048034012
      4        1          -0.002921863    0.011210028    0.003176129
      5        6          -0.007064967    0.017519863   -0.034215159
      6        6          -0.003144424    0.001300309   -0.053116499
      7        1           0.002153795   -0.001929961    0.000220034
      8        1           0.000722374   -0.000331440    0.001662918
      9        1          -0.000895236    0.000328093    0.001728881
     10        8           0.005306758   -0.022203664    0.018210951
     11        1          -0.002937504   -0.000893645   -0.004501809
     12        8           0.006457376    0.017022153    0.012542824
     13        1           0.002915625    0.000192847    0.002248701
 -------------------------------------------------------------------
 Cartesian Forces:  Max     0.053116499 RMS     0.016165399

 GradGradGradGradGradGradGradGradGradGradGradGradGradGradGradGradGradGrad
 Berny optimization.
 FormGI is forming the generalized inverse of G from B-inverse, IUseBI=4.
 Internal  Forces:  Max     0.028782410 RMS     0.008052275
 Search for a saddle point.
 Step number   4 out of a maximum of   60
 All quantities printed in internal units (Hartrees-Bohrs-Radians)
 Swapping is turned off.
 Update second derivatives using D2CorX and points    3    4
 ITU=  0  0  0  0
     Eigenvalues ---   -0.10962   0.00144   0.00342   0.00703   0.01235
     Eigenvalues ---    0.03052   0.03671   0.05321   0.05954   0.06297
     Eigenvalues ---    0.06351   0.09321   0.10150   0.11743   0.13520
     Eigenvalues ---    0.15271   0.15387   0.16432   0.16763   0.18602
     Eigenvalues ---    0.20074   0.24440   0.28798   0.32488   0.34270
     Eigenvalues ---    0.34707   0.35195   0.37656   0.45419   0.46347
     Eigenvalues ---    0.49050   0.52645   0.94088
 Eigenvectors required to have negative eigenvalues:
                          A13       D17       R6        D18       A16
   1                   -0.60749   0.34351   0.32461  -0.31737   0.25848
                          D12       D15       D11       D16       D14
   1                    0.25534   0.18533   0.17644  -0.16613   0.10642
 RFO step:  Lambda0=3.324868919D-04 Lambda=-3.72341932D-02.
 Linear search not attempted -- option 19 set.
 Iteration  1 RMS(Cart)=  0.10490125 RMS(Int)=  0.03560851
 Iteration  2 RMS(Cart)=  0.04931251 RMS(Int)=  0.00405937
 Iteration  3 RMS(Cart)=  0.00200136 RMS(Int)=  0.00371916
 Iteration  4 RMS(Cart)=  0.00000259 RMS(Int)=  0.00371916
 Iteration  5 RMS(Cart)=  0.00000003 RMS(Int)=  0.00371916
 Variable       Old X    -DE/DX   Delta X   Delta X   Delta X     New X
                                 (Linear)    (Quad)   (Total)
    R1        1.92180   0.00428   0.00000   0.00128   0.00128   1.92309
    R2        2.56256   0.00199   0.00000  -0.02664  -0.02664   2.53592
    R3        1.90573   0.00272   0.00000  -0.00330  -0.00330   1.90242
    R4        2.85874  -0.00183   0.00000  -0.04038  -0.04038   2.81835
    R5        2.77583   0.00458   0.00000   0.00921   0.00921   2.78504
    R6        2.41033  -0.00535   0.00000  -0.02496  -0.02496   2.38537
    R7        2.07381   0.00088   0.00000   0.00183   0.00183   2.07564
    R8        2.05963  -0.00006   0.00000  -0.00209  -0.00209   2.05754
    R9        2.07036   0.00056   0.00000   0.00106   0.00106   2.07142
   R10        2.41678   0.02878   0.00000   0.04545   0.04545   2.46223
   R11        2.69079   0.01800   0.00000   0.03410   0.03410   2.72490
   R12        1.84216   0.00337   0.00000   0.00438   0.00438   1.84654
    A1        2.02573   0.00059   0.00000   0.00722  -0.00338   2.02235
    A2        2.00495   0.00368   0.00000   0.08087   0.06945   2.07440
    A3        2.05720   0.00547   0.00000   0.07185   0.06135   2.11855
    A4        2.06751   0.00007   0.00000   0.03798   0.02913   2.09664
    A5        1.93224  -0.00013   0.00000  -0.00284  -0.01325   1.91898
    A6        2.02401   0.00899   0.00000   0.11742   0.11154   2.13555
    A7        1.81980  -0.00471   0.00000  -0.01341  -0.01343   1.80638
    A8        1.94490   0.00081   0.00000   0.00146   0.00130   1.94620
    A9        1.98180   0.00310   0.00000   0.01386   0.01376   1.99557
   A10        1.90912  -0.00022   0.00000  -0.01580  -0.01588   1.89324
   A11        1.90773   0.00069   0.00000  -0.00501  -0.00496   1.90276
   A12        1.89829   0.00010   0.00000   0.01612   0.01593   1.91422
   A13        1.44394  -0.00287   0.00000  -0.07744  -0.07763   1.36632
   A14        2.14970  -0.00516   0.00000  -0.03297  -0.03428   2.11541
   A15        1.93396   0.00083   0.00000  -0.00283  -0.00412   1.92984
   A16        1.92797   0.00717   0.00000   0.09894   0.09695   2.02492
   A17        1.69930   0.00620   0.00000   0.05216   0.05095   1.75025
   A18        2.11235  -0.00069   0.00000  -0.00376  -0.00610   2.10625
   A19        1.87020   0.00124   0.00000  -0.01461  -0.01461   1.85559
    D1       -1.88545  -0.02019   0.00000  -0.38602  -0.38474  -2.27019
    D2        0.51451  -0.00571   0.00000  -0.15569  -0.16079   0.35372
    D3        0.59348  -0.00443   0.00000  -0.11930  -0.11419   0.47929
    D4        2.99344   0.01006   0.00000   0.11103   0.10976   3.10319
    D5        1.18880   0.00663   0.00000   0.10560   0.10820   1.29700
    D6       -3.03684   0.00404   0.00000   0.07987   0.08249  -2.95435
    D7       -0.88599   0.00715   0.00000   0.11287   0.11561  -0.77038
    D8       -1.17347  -0.00462   0.00000  -0.08524  -0.08795  -1.26141
    D9        0.88407  -0.00720   0.00000  -0.11096  -0.11365   0.77043
   D10        3.03493  -0.00410   0.00000  -0.07797  -0.08053   2.95440
   D11        1.36978   0.00468   0.00000   0.14124   0.14074   1.51051
   D12       -0.54550  -0.00155   0.00000   0.07613   0.07570  -0.46980
   D13        3.03043   0.01019   0.00000   0.16887   0.16802  -3.08473
   D14       -2.49336   0.01477   0.00000   0.33025   0.33094  -2.16242
   D15        1.87455   0.00854   0.00000   0.26514   0.26590   2.14045
   D16       -0.83271   0.02028   0.00000   0.35787   0.35822  -0.47449
   D17        2.89783  -0.00479   0.00000  -0.01065  -0.01054   2.88728
   D18       -1.90203  -0.00550   0.00000  -0.07479  -0.07601  -1.97805
   D19        0.17985   0.00796   0.00000   0.08819   0.08931   0.26917
         Item               Value     Threshold  Converged?
 Maximum Force            0.028782     0.000450     NO 
 RMS     Force            0.008052     0.000300     NO 
 Maximum Displacement     0.419446     0.001800     NO 
 RMS     Displacement     0.147246     0.001200     NO 
 Predicted change in Energy=-3.120102D-02
 GradGradGradGradGradGradGradGradGradGradGradGradGradGradGradGradGradGrad

                          Input orientation:                          
 ---------------------------------------------------------------------
 Center     Atomic      Atomic             Coordinates (Angstroms)
 Number     Number       Type             X           Y           Z
 ---------------------------------------------------------------------
      1          7           0       -1.426351   -1.043841   -0.212214
      2          1           0       -0.977312   -1.894108    0.120996
      3          6           0       -0.664129    0.060625   -0.209482
      4          1           0        0.516160   -0.331268   -1.419115
      5          6           0       -1.172392    1.319435    0.408066
      6          6           0        0.761410   -0.312280   -0.181031
      7          1           0       -1.103416    1.122038    1.486362
      8          1           0       -0.531911    2.167379    0.170871
      9          1           0       -2.211467    1.559452    0.154580
     10          8           0        1.153989   -1.439586    0.341235
     11          1           0       -2.431370   -0.987291   -0.197297
     12          8           0        1.591370    0.864155   -0.101072
     13          1           0        2.483526    0.554213    0.149542
 ---------------------------------------------------------------------
                    Distance matrix (angstroms):
                    1          2          3          4          5
     1  N    0.000000
     2  H    1.017653   0.000000
     3  C    1.341952   2.007057   0.000000
     4  H    2.395354   2.654217   1.734899   0.000000
     5  C    2.456484   3.232231   1.491409   2.985736   0.000000
     6  C    2.307044   2.369927   1.473780   1.262284   2.597906
     7  H    2.771367   3.313195   2.048281   3.630003   1.098383
     8  H    3.355401   4.086141   2.144893   3.141615   1.088802
     9  H    2.743735   3.667607   2.184784   3.673049   1.096148
    10  O    2.668533   2.190328   2.420635   2.175782   3.609530
    11  H    1.006720   1.742961   2.054609   3.257475   2.696752
    12  O    3.572037   3.775640   2.396809   2.079027   2.846908
    13  H    4.239313   4.239397   3.206284   2.667450   3.744080
                    6          7          8          9         10
     6  C    0.000000
     7  H    2.883581   0.000000
     8  H    2.818727   1.774789   0.000000
     9  H    3.529024   1.786827   1.786267   0.000000
    10  O    1.302958   3.601264   3.985157   4.511692   0.000000
    11  H    3.263395   3.007896   3.700735   2.580325   3.653681
    12  O    1.441953   3.138204   2.506126   3.874322   2.386244
    13  H    1.955958   3.869840   3.419885   4.801405   2.404090
                   11         12         13
    11  H    0.000000
    12  O    4.429397   0.000000
    13  H    5.162628   0.977145   0.000000
 Stoichiometry    C3H7NO2
 Framework group  C1[X(C3H7NO2)]
 Deg. of freedom    33
 Full point group                 C1      NOp   1
 Largest Abelian subgroup         C1      NOp   1
 Largest concise Abelian subgroup C1      NOp   1
                         Standard orientation:                         
 ---------------------------------------------------------------------
 Center     Atomic      Atomic             Coordinates (Angstroms)
 Number     Number       Type             X           Y           Z
 ---------------------------------------------------------------------
      1          7           0       -1.315094   -1.163193   -0.181457
      2          1           0       -0.769866   -1.926182    0.213754
      3          6           0       -0.696891    0.026128   -0.246069
      4          1           0        0.545926   -0.293586   -1.413572
      5          6           0       -1.369988    1.249185    0.278689
      6          6           0        0.763243   -0.161721   -0.177148
      7          1           0       -1.297478    1.134076    1.368614
      8          1           0       -0.835957    2.153344   -0.009053
      9          1           0       -2.425875    1.339184   -0.001569
     10          8           0        1.283441   -1.193482    0.424984
     11          1           0       -2.319412   -1.232688   -0.181069
     12          8           0        1.438187    1.112489   -0.168913
     13          1           0        2.357113    0.934599    0.111699
 ---------------------------------------------------------------------
 Rotational constants (GHZ):      4.8435437      3.3966230      2.1634113
 Standard basis: 6-31G (6D, 7F)
 There are    68 symmetry adapted cartesian basis functions of A   symmetry.
 There are    68 symmetry adapted basis functions of A   symmetry.
    68 basis functions,   160 primitive gaussians,    68 cartesian basis functions
    24 alpha electrons       24 beta electrons
       nuclear repulsion energy       248.6944303197 Hartrees.
 NAtoms=   13 NActive=   13 NUniq=   13 SFac= 1.00D+00 NAtFMM=   60 NAOKFM=F Big=F
 Integral buffers will be    131072 words long.
 Raffenetti 2 integral format.
 Two-electron integral symmetry is turned on.
 One-electron integrals computed using PRISM.
 NBasis=    68 RedAO= T EigKep=  5.23D-03  NBF=    68
 NBsUse=    68 1.00D-06 EigRej= -1.00D+00 NBFU=    68
 Initial guess from the checkpoint file:  "Ala-S-opt-freq-tsb1-6-31g.chk"
 B after Tr=     0.000000    0.000000    0.000000
         Rot=    0.998973   -0.006699   -0.001998   -0.044770 Ang=  -5.19 deg.
[...]
    A5        1.98280   0.00002   0.00000   0.00006   0.00006   1.98286
    A6        2.16264  -0.00002   0.00000  -0.00007  -0.00007   2.16257
    A7        1.96331  -0.00001   0.00000  -0.00004  -0.00004   1.96326
    A8        1.89458   0.00000   0.00000   0.00004   0.00004   1.89462
    A9        1.92645   0.00001   0.00000   0.00008   0.00008   1.92652
   A10        1.88528   0.00001   0.00000   0.00002   0.00002   1.88530
   A11        1.91125   0.00000   0.00000  -0.00003  -0.00003   1.91121
   A12        1.88063   0.00000   0.00000  -0.00006  -0.00006   1.88057
   A13        1.24463   0.00000   0.00000  -0.00002  -0.00002   1.24461
   A14        2.12482  -0.00002   0.00000  -0.00007  -0.00007   2.12476
   A15        1.95673   0.00001   0.00000   0.00007   0.00007   1.95680
   A16        2.00795  -0.00001   0.00000  -0.00009  -0.00009   2.00787
   A17        1.80576   0.00000   0.00000  -0.00002  -0.00002   1.80574
   A18        2.10759   0.00001   0.00000   0.00006   0.00006   2.10765
   A19        1.85441   0.00000   0.00000  -0.00002  -0.00002   1.85439
    D1       -2.95533   0.00000   0.00000   0.00020   0.00020  -2.95513
    D2        0.15216   0.00001   0.00000   0.00024   0.00024   0.15240
    D3        0.35532  -0.00001   0.00000  -0.00037  -0.00037   0.35495
    D4       -2.82037  -0.00001   0.00000  -0.00033  -0.00033  -2.82070
    D5       -0.71752   0.00000   0.00000  -0.00001  -0.00001  -0.71753
    D6        1.36774   0.00000   0.00000   0.00001   0.00001   1.36776
    D7       -2.85791   0.00000   0.00000   0.00000   0.00000  -2.85791
    D8        2.46172   0.00000   0.00000  -0.00006  -0.00006   2.46167
    D9       -1.73620   0.00000   0.00000  -0.00003  -0.00003  -1.73624
   D10        0.32133   0.00000   0.00000  -0.00004  -0.00004   0.32128
   D11        1.76365  -0.00001   0.00000  -0.00021  -0.00021   1.76343
   D12       -0.12896   0.00000   0.00000  -0.00011  -0.00011  -0.12907
   D13       -2.82055  -0.00001   0.00000  -0.00027  -0.00027  -2.82081
   D14       -1.41261  -0.00001   0.00000  -0.00017  -0.00017  -1.41279
   D15        2.97797   0.00000   0.00000  -0.00007  -0.00007   2.97790
   D16        0.28638  -0.00001   0.00000  -0.00023  -0.00023   0.28615
   D17        3.04035   0.00000   0.00000  -0.00017  -0.00017   3.04018
   D18       -1.93337   0.00000   0.00000  -0.00019  -0.00019  -1.93356
   D19        0.34374  -0.00001   0.00000  -0.00029  -0.00029   0.34345
         Item               Value     Threshold  Converged?
 Maximum Force            0.000065     0.000450     YES
 RMS     Force            0.000014     0.000300     YES
 Maximum Displacement     0.000351     0.001800     YES
 RMS     Displacement     0.000130     0.001200     YES
 Predicted change in Energy=-2.268227D-08
 Optimization completed.
    -- Stationary point found.
                           ----------------------------
                           !   Optimized Parameters   !
                           ! (Angstroms and Degrees)  !
 --------------------------                            --------------------------
 ! Name  Definition              Value          Derivative Info.                !
 --------------------------------------------------------------------------------
 ! R1    R(1,2)                  1.0182         -DE/DX =    0.0                 !
 ! R2    R(1,3)                  1.3389         -DE/DX =    0.0                 !
 ! R3    R(1,11)                 1.0074         -DE/DX =    0.0                 !
 ! R4    R(3,5)                  1.494          -DE/DX =   -0.0001              !
 ! R5    R(3,6)                  1.4698         -DE/DX =    0.0                 !
 ! R6    R(4,6)                  1.3209         -DE/DX =    0.0                 !
 ! R7    R(5,7)                  1.0963         -DE/DX =    0.0                 !
 ! R8    R(5,8)                  1.0983         -DE/DX =    0.0                 !
 ! R9    R(5,9)                  1.0897         -DE/DX =    0.0                 !
 ! R10   R(6,10)                 1.2841         -DE/DX =    0.0                 !
 ! R11   R(6,12)                 1.4309         -DE/DX =    0.0                 !
 ! R12   R(12,13)                0.9786         -DE/DX =    0.0                 !
 ! A1    A(2,1,3)              115.3339         -DE/DX =    0.0                 !
 ! A2    A(2,1,11)             120.5694         -DE/DX =    0.0                 !
 ! A3    A(3,1,11)             123.378          -DE/DX =    0.0                 !
 ! A4    A(1,3,5)              122.4529         -DE/DX =    0.0                 !
 ! A5    A(1,3,6)              113.6061         -DE/DX =    0.0                 !
 ! A6    A(5,3,6)              123.91           -DE/DX =    0.0                 !
 ! A7    A(3,5,7)              112.4893         -DE/DX =    0.0                 !
 ! A8    A(3,5,8)              108.5516         -DE/DX =    0.0                 !
 ! A9    A(3,5,9)              110.3772         -DE/DX =    0.0                 !
 ! A10   A(7,5,8)              108.0184         -DE/DX =    0.0                 !
 ! A11   A(7,5,9)              109.5063         -DE/DX =    0.0                 !
 ! A12   A(8,5,9)              107.7523         -DE/DX =    0.0                 !
 ! A13   A(3,6,4)               71.3119         -DE/DX =    0.0                 !
 ! A14   A(3,6,10)             121.7434         -DE/DX =    0.0                 !
 ! A15   A(3,6,12)             112.1126         -DE/DX =    0.0                 !
 ! A16   A(4,6,10)             115.0473         -DE/DX =    0.0                 !
 ! A17   A(4,6,12)             103.4627         -DE/DX =    0.0                 !
 ! A18   A(10,6,12)            120.7558         -DE/DX =    0.0                 !
 ! A19   A(6,12,13)            106.2499         -DE/DX =    0.0                 !
 ! D1    D(2,1,3,5)           -169.3282         -DE/DX =    0.0                 !
 ! D2    D(2,1,3,6)              8.7184         -DE/DX =    0.0                 !
 ! D3    D(11,1,3,5)            20.3581         -DE/DX =    0.0                 !
 ! D4    D(11,1,3,6)          -161.5954         -DE/DX =    0.0                 !
 ! D5    D(1,3,5,7)            -41.1106         -DE/DX =    0.0                 !
 ! D6    D(1,3,5,8)             78.366          -DE/DX =    0.0                 !
 ! D7    D(1,3,5,9)           -163.7463         -DE/DX =    0.0                 !
 ! D8    D(6,3,5,7)            141.0464         -DE/DX =    0.0                 !
 ! D9    D(6,3,5,8)            -99.4771         -DE/DX =    0.0                 !
 ! D10   D(6,3,5,9)             18.4106         -DE/DX =    0.0                 !
 ! D11   D(1,3,6,4)            101.0495         -DE/DX =    0.0                 !
 ! D12   D(1,3,6,10)            -7.3888         -DE/DX =    0.0                 !
 ! D13   D(1,3,6,12)          -161.6054         -DE/DX =    0.0                 !
 ! D14   D(5,3,6,4)            -80.9368         -DE/DX =    0.0                 !
 ! D15   D(5,3,6,10)           170.6249         -DE/DX =    0.0                 !
 ! D16   D(5,3,6,12)            16.4084         -DE/DX =    0.0                 !
 ! D17   D(3,6,12,13)          174.1991         -DE/DX =    0.0                 !
 ! D18   D(4,6,12,13)         -110.7738         -DE/DX =    0.0                 !
 ! D19   D(10,6,12,13)          19.6949         -DE/DX =    0.0                 !
 --------------------------------------------------------------------------------
 GradGradGradGradGradGradGradGradGradGradGradGradGradGradGradGradGradGrad


 Test job not archived.
 1\1\GINC-KALI\Freq\RB3LYP\6-31G\C3H7N1O2\ROOT\10-Apr-2016\0\\#N Geom=A
 llCheck Guess=TCheck SCRF=Check Test GenChk RB3LYP/6-31G Freq\\Ala-S-o
 pt-freq-tsb1-6-31g\\0,1\N,-1.3198117854,-1.140348037,0.4188911392\H,-0
 .7936618144,-2.0114252927,0.3855528593\C,-0.613599135,-0.0339684916,0.
 1543835668\H,-0.0205746009,-0.0025996049,-1.3649554622\C,-1.1577898689
 ,1.3384363995,0.3836076323\C,0.7461109573,-0.306091791,-0.3329904518\H
 ,-2.207622061,1.4291928131,0.0811238609\H,-1.0924127517,1.565626622,1.
 456178212\H,-0.5603328218,2.0774394015,-0.1495571039\O,1.2331394949,-1
 .4941560906,-0.348342847\H,-2.3240338283,-1.151073916,0.4984455872\O,1
 .6016705271,0.8338735824,-0.2069599555\H,2.4970246681,0.5340186252,-0.
 4639344973\\Version=ES64L-G09RevD.01\State=1-A\HF=-323.5570892\RMSD=2.
 744e-09\RMSF=2.405e-05\ZeroPoint=0.1026952\Thermal=0.1091885\Dipole=-1
 .6968451,0.5358087,0.3313065\DipoleDeriv=-0.5625184,-0.2566443,0.23524
 46,-0.5450546,-0.6579642,0.328891,0.2020759,0.0061962,-0.7826317,0.230
 3126,0.0539479,0.0375603,0.005329,0.2418218,-0.0211969,0.0436396,-0.03
 38209,0.3231028,0.3215298,0.2856563,-0.4756589,0.5995672,0.5956203,-0.
 3162028,-0.9417626,-0.0375032,0.6947867,-0.6170566,0.0599879,0.0256647
 ,0.0834274,-0.1061588,0.086811,0.0879889,0.1059934,-0.4240785,0.137784
 6,0.0112583,0.0454936,-0.0425327,-0.1004261,0.0087961,0.157124,-0.0729
 037,0.0011543,1.758355,-0.1673712,0.1602865,-0.1113048,1.2945817,-0.03
 27621,0.8892988,0.0034384,0.1052506,-0.1460533,0.0590894,-0.0294226,-0
 .0053559,0.0309555,-0.0357444,-0.0642013,0.0059741,0.0834658,0.0690353
 ,0.0410047,-0.0017325,0.0551917,0.0482212,-0.0367158,0.0154,-0.0448764
 ,-0.0716669,0.0775299,-0.0495196,0.0382035,-0.0263089,0.0591082,0.0087
 69,0.0322521,0.072672,0.0670231,-0.8809643,0.2113335,0.0053823,0.39507
 84,-1.1168947,0.0060599,-0.160148,0.0077733,-0.3750817,0.1710293,0.035
 4924,0.0118317,0.0202521,0.2167281,0.0408296,-0.0638147,0.01775,0.4315
 609,-0.8136396,-0.3426587,-0.0907122,-0.5811453,-0.7589462,0.0355645,-
 0.2642597,0.0200052,-0.4134243,0.2546558,0.0584234,0.0378588,0.1528564
 ,0.2533533,-0.0730992,0.0664071,-0.0506984,0.3605389\Polar=60.1670106,
 -1.1240968,50.4164577,-10.0135938,-0.9590379,36.540138\PG=C01 [X(C3H7N
 1O2)]\NImag=1\\0.87916184,-0.00015345,0.77194434,-0.11813318,-0.062235
 75,0.10486350,-0.16619601,0.14859980,0.01309447,0.15137269,0.15283204,
 -0.32778770,-0.00474780,-0.15672385,0.36129279,0.01385812,-0.01185166,
 -0.02454025,-0.00911949,0.00340177,0.02219786,-0.21814693,-0.12118653,
 0.03295993,0.02267173,0.00986451,0.00199832,0.61704156,-0.12906504,-0.
 33533873,0.04420553,-0.01251934,-0.03842300,0.00818833,0.04816848,0.74
 006858,0.04143343,0.01824647,-0.05940625,-0.00986044,0.00292174,0.0077
 0493,-0.08264247,0.00524280,0.12696761,-0.00997044,-0.02512742,0.02149
 731,-0.00658867,0.00232786,0.00127794,0.01388778,0.01054645,-0.0678417
 8,0.01269631,-0.00109878,-0.00170481,0.00788037,0.00078950,-0.00035658
 ,0.00102511,-0.00528868,-0.00399480,0.01348814,0.00879403,0.04701610,0
 .00919156,0.01354893,0.00384850,0.00067956,-0.00086751,-0.00544564,-0.
 01317277,-0.00678383,-0.04018768,0.01670407,-0.00332102,0.08660257,0.0
 1053909,-0.02400474,-0.00429694,-0.00302415,-0.00293145,0.00099374,-0.
 11469448,0.05293981,0.02429099,0.00294141,-0.00137414,-0.00019069,0.57
 943067,0.01326886,-0.03300679,-0.00462698,-0.00314514,-0.00008114,-0.0
 0050127,0.03931525,-0.20386270,-0.00991691,0.00573000,-0.00308521,-0.0
 0150422,0.03484672,0.52127780,-0.00459122,0.00958436,0.00699234,0.0021
 7894,0.00295099,0.00477319,0.00325989,-0.01399488,-0.06558343,0.013438
 27,-0.01116946,-0.00118378,-0.00855158,-0.03201304,0.54599534,-0.02673
 791,0.01148561,0.00673891,0.00775530,-0.00158782,-0.00536302,-0.247285
 03,0.00710524,0.10141537,0.01961241,-0.00941549,-0.00254321,-0.0040842
 9,0.00489540,0.00184607,0.58240544,-0.04185304,-0.01170822,0.01313819,
 -0.01839227,-0.00263096,0.00773755,0.04585035,-0.08396119,-0.03266454,
 -0.02007203,-0.01165226,-0.00690536,0.02681357,0.00016934,-0.00487387,
 -0.07289565,0.64040115,0.03059947,0.04581451,-0.02523472,0.01144802,-0
 .00363394,-0.00237126,0.01271382,-0.03367682,0.06097272,0.06340296,-0.
 01673366,-0.06469987,-0.00390717,-0.00855502,-0.01895299,-0.13216775,0
 .05107290,0.15086590,0.00228386,-0.00052466,0.00038618,-0.00035033,0.0
 0024478,0.00034286,-0.01381293,0.00149788,0.00114859,0.00153283,-0.000
 75732,0.00047098,-0.28528848,0.01548096,-0.06978632,0.00144736,0.00051
 295,-0.00422346,0.31361333,-0.00027863,0.00328158,-0.00065003,0.000274
 30,0.00012638,-0.00051069,0.03901579,-0.00631163,0.00510315,-0.0015061
 2,0.00060807,-0.00040004,0.01488828,-0.05211625,0.00691570,-0.00328649
 ,-0.00476867,0.00414030,-0.02153649,0.05635003,0.00000191,0.00099773,-
 0.00042038,0.00011349,0.00001219,-0.00010382,0.00900682,-0.00320967,0.
 00012857,-0.00064547,0.00067086,0.00078229,-0.07142803,0.00741981,-0.0
 6895460,0.00160092,-0.00187222,0.00185334,0.07745832,-0.00435726,0.071
 27066,0.00013830,-0.00063821,0.00013655,-0.00015944,-0.00004042,-0.000
 06761,0.00087663,0.00327824,0.01288307,-0.00157352,0.00164550,-0.00036
 739,-0.04724115,-0.00273320,-0.01576912,0.00117163,0.00122495,0.003328
 94,-0.00255389,-0.00645984,-0.03301544,0.04866854,0.00041685,0.0005334
 3,0.00234429,0.00026800,0.00019064,0.00081489,-0.00123433,-0.01167582,
 -0.03208495,0.00148786,-0.00119376,-0.00003439,-0.00349542,-0.05632123
 ,-0.05061909,-0.00055175,-0.00120594,-0.00378645,-0.00030164,0.0006781
 7,0.00212931,0.00046354,0.06347623,0.00010180,0.00135694,0.00068984,0.
 00021878,-0.00022105,-0.00009866,0.00237343,-0.00329254,-0.00503489,0.
 00014452,-0.00070011,0.00094054,-0.01707963,-0.04850910,-0.29309561,-0
 .00129096,-0.00081110,-0.00133580,0.00048564,-0.00118758,-0.00924433,0
 .01707493,0.05756984,0.32254154,-0.00124703,0.00292421,0.00124577,0.00
 054851,0.00056332,0.00024783,0.00830178,0.00905500,-0.00956404,-0.0009
 0065,0.00054345,0.00013257,-0.13562530,-0.10610772,0.07744483,0.002314
 58,0.00120615,0.00190708,-0.01570839,-0.02139018,0.01650940,0.00146605
 ,0.00215690,-0.00271269,0.14325391,0.00485234,-0.00431125,-0.00119767,
 -0.00129609,-0.00085814,-0.00043867,-0.02039097,-0.02441506,0.01819280
 ,0.00007160,0.00032343,-0.00175127,-0.09996781,-0.17587909,0.09154669,
 -0.00134610,-0.00171858,0.00029772,0.00279498,0.00286605,-0.00209667,0
 .00407970,0.00529191,-0.00439604,0.11168252,0.19557918,0.00164071,-0.0
 0109977,0.00112235,-0.00001192,-0.00054591,0.00036773,-0.00509895,-0.0
 0804342,0.00161340,-0.00032930,-0.00003645,-0.00033381,0.07504618,0.09
 617178,-0.11540374,0.00136485,0.00040826,0.00061631,-0.00667767,-0.008
 24748,0.00498047,0.01827410,0.02280543,-0.01580227,-0.08450393,-0.1007
 0884,0.12384464,-0.00414712,0.00316843,0.00225479,0.00245234,0.0023702
 7,-0.00293395,-0.02217217,0.04263553,-0.00289880,-0.01365860,0.0187881
 0,-0.00433811,-0.00383877,-0.00217054,0.00128458,-0.15357092,0.1299525
 8,0.01091373,-0.00055396,0.00196429,0.00017399,-0.00081484,0.00071578,
 0.00046737,-0.00029515,-0.00017270,-0.00047696,0.16773098,-0.00251665,
 0.01412022,-0.00334480,0.01250313,-0.00109406,-0.00519003,0.01038655,-
 0.03405445,0.01956079,0.03841980,-0.02353285,0.01521437,0.00061704,0.0
 0186522,0.00021787,0.11721076,-0.39102909,-0.04320427,0.00099301,-0.00
 109999,0.00029712,0.00029909,0.00004072,-0.00036388,-0.00022355,0.0010
 8892,0.00013879,-0.17840249,0.49366697,-0.00332875,-0.01143662,0.00438
 704,-0.00653530,-0.00030500,-0.00217842,0.01845482,-0.00604364,-0.0105
 3695,-0.01929898,0.01814728,0.01191017,0.00408743,0.00097008,0.0065997
 4,0.01031818,-0.00424442,-0.06766237,0.00058189,-0.00137540,-0.0006099
 1,-0.00111971,0.00149621,0.00024507,-0.00050537,0.00003034,-0.00008587
 ,-0.00375483,0.01295597,0.04786677,-0.45833493,0.00428036,0.04057558,-
 0.00762381,-0.00773840,-0.00045674,-0.01732157,0.00164143,0.00521800,0
 .00314329,0.00029578,-0.00003582,0.00199317,0.00065416,-0.00035841,-0.
 00040450,-0.00026350,-0.00627574,-0.00009778,-0.00092396,-0.00023653,-
 0.00004698,-0.00022595,-0.00017607,-0.00006899,0.00037775,0.00000922,0
 .00067859,-0.00174935,0.00102656,0.47794798,0.00517400,-0.07579784,0.0
 0725187,0.02678541,0.00940461,-0.00168713,-0.03925675,0.00384238,0.004
 15198,0.00033076,0.00023631,0.00070218,-0.00058232,0.00241518,-0.00121
 278,0.00248619,-0.00806947,-0.00145178,0.00112310,-0.00072828,0.000550
 36,-0.00012468,-0.00040954,0.00000362,0.00029891,0.00034238,0.00019138
 ,0.00200536,0.00286132,-0.00148279,0.00360950,0.06586146,0.02987135,0.
 00571365,-0.01772783,-0.00070381,0.00029118,-0.00110198,0.00307550,0.0
 0241391,-0.00384081,-0.00178237,-0.00028211,0.00456307,0.00033910,0.00
 014044,-0.00313144,0.00904963,-0.00120995,0.00681122,-0.00057945,0.000
 46181,0.00044297,-0.00030438,-0.00115876,-0.00028930,-0.00016334,0.000
 37309,-0.00023757,0.00070609,0.00276268,-0.00163416,-0.04031990,-0.007
 91021,0.01728396,-0.00769432,-0.00085673,0.00448099,-0.00064776,0.0009
 7549,-0.00064043,-0.02793118,-0.03088619,-0.01527129,-0.02334583,-0.01
 270200,-0.00704620,-0.00133095,0.00027044,0.00007842,-0.14337037,-0.06
 277459,0.00414692,-0.00060591,-0.00066255,0.00040487,-0.00000788,0.000
 40132,0.00053263,-0.00219129,-0.00068457,0.00068182,0.02223872,-0.0000
 9038,0.00088246,0.00005234,-0.00157358,0.00020729,0.57533647,-0.000238
 25,-0.00081501,0.00167451,0.00356308,0.00012264,-0.00104015,-0.0033217
 3,0.00553643,-0.01219130,-0.02195482,-0.00192355,-0.00810445,0.0017258
 7,-0.00090705,0.00262040,-0.00372311,-0.13282865,0.00233012,0.00020223
 ,0.00095390,-0.00039183,-0.00095105,0.00062731,0.00058421,-0.00044346,
 0.00102073,-0.00070489,-0.02782347,-0.06345740,-0.00891570,0.00026854,
 0.00048214,-0.00188838,-0.04164660,0.27110909,-0.00082188,-0.00830811,
 0.00430108,-0.00152849,0.00067196,0.00101472,0.01552068,0.01405421,-0.
 01144820,-0.02440964,-0.00805679,0.00273310,0.00124315,0.00084002,0.00
 198138,0.01097859,-0.01701857,-0.04284506,0.00046957,0.00014427,-0.000
 18226,-0.00103206,0.00040547,0.00053656,-0.00017194,0.00016866,-0.0006
 0221,0.00017897,0.00061766,0.01480706,0.00080466,0.00068534,-0.0016938
 1,-0.10188370,0.06478117,0.06938830,0.00035162,0.00203333,-0.00094035,
 -0.00021039,-0.00015632,-0.00013756,-0.00141518,-0.00439748,0.00168937
 ,0.00222367,-0.00021996,0.00051546,0.00022323,-0.00030518,-0.00047434,
 -0.03925368,0.01069056,0.00811317,0.00009428,-0.00009840,0.00005576,0.
 00007655,-0.00010114,-0.00013975,0.00015197,-0.00000065,0.00008184,0.0
 0595091,0.00255304,-0.00080840,0.00008319,-0.00027590,0.00060429,-0.39
 050203,0.09434278,0.10065209,0.42222584,-0.00134024,0.00059077,0.00030
 827,-0.00070653,0.00009451,0.00005194,-0.00192194,-0.00741001,-0.00005
 016,0.00095203,-0.00074008,0.00020659,0.00052460,-0.00046809,0.0000471
 2,-0.05037677,0.00900254,0.00738639,0.00027023,0.00016065,-0.00014975,
 -0.00004362,-0.00003213,-0.00003318,-0.00026554,0.00066951,-0.00032889
 ,0.00696887,0.00062448,0.00020368,-0.00022636,-0.00044065,0.00029266,0
 .15022995,-0.07992057,-0.04898528,-0.10406467,0.07786906,0.00017669,-0
 .00033067,0.00112480,0.00002617,0.00007138,-0.00021839,0.00155098,0.00
 094000,-0.00134901,-0.00215753,-0.00091216,0.00047053,-0.00054654,0.00
 008442,-0.00003641,-0.00194757,-0.00275686,0.00198260,-0.00007712,-0.0
 0003676,0.00005700,-0.00002187,0.00011820,-0.00005267,0.00013383,-0.00
 002012,-0.00007941,-0.00157688,0.00033771,-0.00310818,0.00022519,0.000
 20794,0.00055567,0.11342622,-0.03875371,-0.03799067,-0.10921157,0.0410
 5062,0.03864414\\-0.00002284,-0.00002276,0.00002479,0.00000063,0.00000
 299,-0.00000966,0.00009350,-0.00001799,-0.00003464,0.00000229,0.000010
 81,0.00000557,-0.00002581,0.00006292,0.00000025,-0.00006009,-0.0000286
 1,-0.00000911,-0.00000283,0.00000677,0.00000445,-0.00000612,-0.0000042
 4,-0.00000051,-0.00000596,-0.00001330,0.00000486,0.00001239,0.00000909
 ,0.00000759,0.00001123,-0.00000845,-0.00001089,-0.00000150,0.00000064,
 0.00001536,0.00000511,0.00000211,0.00000193\\\@


    UPON JULIA'S CLOTHES

 WHENAS IN SILKS MY JULIA GOES,
 THEN, THEN, METHINKS, HOW SWEETLY FLOWS
 THAT LIQUEFACTION OF HER CLOTHES.

 NEXT, WHEN I CAST MINE EYES, AND SEE
 THAT BRAVE VIBRATION, EACH WAY FREE,
 O, HOW THAT GLITTERING TAKETH ME!
     -- ROBERT HERRICK, 1648
 Job cpu time:       0 days  0 hours  1 minutes  0.4 seconds.
 File lengths (MBytes):  RWF=     13 Int=      0 D2E=      0 Chk=      2 Scr=      1
 Normal termination of Gaussian 09 at Sun Apr 10 15:39:15 2016.
