 Entering Link 1 = c:\G09w01\l1.exe PID=      5004.
  
 Copyright (c) 1988,1990,1992,1993,1995,1998,2003,2009,2010,
            Gaussian, Inc.  All Rights Reserved.
  
 This is part of the Gaussian(R) 09 program.  It is based on
 the Gaussian(R) 03 system (copyright 2003, Gaussian, Inc.),
 the Gaussian(R) 98 system (copyright 1998, Gaussian, Inc.),
 the Gaussian(R) 94 system (copyright 1995, Gaussian, Inc.),
 the Gaussian 92(TM) system (copyright 1992, Gaussian, Inc.),
 the Gaussian 90(TM) system (copyright 1990, Gaussian, Inc.),
 the Gaussian 88(TM) system (copyright 1988, Gaussian, Inc.),
 the Gaussian 86(TM) system (copyright 1986, Carnegie Mellon
 University), and the Gaussian 82(TM) system (copyright 1983,
 Carnegie Mellon University). Gaussian is a federally registered
 trademark of Gaussian, Inc.
  
 This software contains proprietary and confidential information,
 including trade secrets, belonging to Gaussian, Inc.
  
 This software is provided under written license and may be
 used, copied, transmitted, or stored only in accord with that
 written license.
  
 The following legend is applicable only to US Government
 contracts under FAR:
  
                    RESTRICTED RIGHTS LEGEND
  
 Use, reproduction and disclosure by the US Government is
 subject to restrictions as set forth in subparagraphs (a)
 and (c) of the Commercial Computer Software - Restricted
 Rights clause in FAR 52.227-19.
  
 Gaussian, Inc.
 340 Quinnipiac St., Bldg. 40, Wallingford CT 06492
  
  
 ---------------------------------------------------------------
 Warning -- This program may not be used in any manner that
 competes with the business of Gaussian, Inc. or will provide
 assistance to any competitor of Gaussian, Inc.  The licensee
 of this program is prohibited from giving any competitor of
 Gaussian, Inc. access to this program.  By using this program,
 the user acknowledges that Gaussian, Inc. is engaged in the
 business of creating and licensing software in the field of
 computational chemistry and represents and warrants to the
 licensee that it is not a competitor of Gaussian, Inc. and that
 it will not use this program in any manner prohibited above.
 ---------------------------------------------------------------
  

 Cite this work as:
 Gaussian 09, Revision B.01,
 M. J. Frisch, G. W. Trucks, H. B. Schlegel, G. E. Scuseria, 
 M. A. Robb, J. R. Cheeseman, G. Scalmani, V. Barone, B. Mennucci, 
 G. A. Petersson, H. Nakatsuji, M. Caricato, X. Li, H. P. Hratchian, 
 A. F. Izmaylov, J. Bloino, G. Zheng, J. L. Sonnenberg, M. Hada, 
 M. Ehara, K. Toyota, R. Fukuda, J. Hasegawa, M. Ishida, T. Nakajima, 
 Y. Honda, O. Kitao, H. Nakai, T. Vreven, J. A. Montgomery, Jr., 
 J. E. Peralta, F. Ogliaro, M. Bearpark, J. J. Heyd, E. Brothers, 
 K. N. Kudin, V. N. Staroverov, T. Keith, R. Kobayashi, J. Normand, 
 K. Raghavachari, A. Rendell, J. C. Burant, S. S. Iyengar, J. Tomasi, 
 M. Cossi, N. Rega, J. M. Millam, M. Klene, J. E. Knox, J. B. Cross, 
 V. Bakken, C. Adamo, J. Jaramillo, R. Gomperts, R. E. Stratmann, 
 O. Yazyev, A. J. Austin, R. Cammi, C. Pomelli, J. W. Ochterski, 
 R. L. Martin, K. Morokuma, V. G. Zakrzewski, G. A. Voth, 
 P. Salvador, J. J. Dannenberg, S. Dapprich, A. D. Daniels, 
 O. Farkas, J. B. Foresman, J. V. Ortiz, J. Cioslowski, 
 and D. J. Fox, Gaussian, Inc., Wallingford CT, 2010.
 
 ******************************************
 Gaussian 09:  IA32W-G09RevB.01 12-Aug-2010
                19-Apr-2016 
 ******************************************
 %chk=Phe-S-opt-freq-cpcm-w-pa3-6-311++gdp.chk
 -----------------------------------------------------------------
 #p opt freq rb3lyp/6-311++g(d,p) scrf=(cpcm,solvent=water) nosymm
 -----------------------------------------------------------------
 1/14=-1,18=20,19=15,26=3,38=1/1,3;
 2/9=110,12=2,15=1,17=6,18=5,40=1/2;
 3/5=4,6=6,7=1111,11=2,16=1,25=1,30=1,70=2101,71=1,72=1,74=-5,116=1/1,2,3;
 4//1;
 5/5=2,38=5,53=1/2;
 6/7=2,8=2,9=2,10=2,28=1/1;
 7/30=1/1,2,3,16;
 1/14=-1,18=20,19=15/3(2);
 2/9=110,15=1/2;
 99//99;
 2/9=110,15=1/2;
 3/5=4,6=6,7=1111,11=2,16=1,25=1,30=1,70=2105,71=1,72=1,74=-5,116=1/1,2,3;
 4/5=5,16=3/1;
 5/5=2,38=5,53=1/2;
 7/30=1/1,2,3,16;
 1/14=-1,18=20,19=15/3(-5);
 2/9=110,15=1/2;
 6/7=2,8=2,9=2,10=2,19=2,28=1/1;
 99/9=1/99;
 Leave Link    1 at Tue Apr 19 17:55:50 2016, MaxMem=          0 cpu:       1.0
 (Enter c:\G09w01\l101.exe)
 ------------------------------------
 Phe-S-opt-freq-cpcm-w-pa3-6-311++gdp
 ------------------------------------
 Symbolic Z-matrix:
 Charge =  0 Multiplicity = 1
 N                    -3.066    -0.71186  -1.33116 
 H                    -2.92795  -0.68219  -2.33775 
 C                    -1.8884   -0.31295  -0.62388 
 H                    -0.19542   0.52025   1.09044 
 C                    -0.67871  -1.16684  -0.94847 
 C                    -1.95438   0.65317   0.30403 
 H                    -0.78426  -2.14177  -0.45753 
 H                    -0.71585  -1.37601  -2.02509 
 C                     0.68593  -0.58795  -0.63097 
 O                    -3.09417   1.39759   0.45789 
 C                     1.20367   0.47356  -1.38817 
 C                     1.46718  -1.10834   0.40864 
 H                     0.61368   0.8848   -2.20065 
 C                     2.4611    1.00211  -1.10936 
 C                     2.72923  -0.57809   0.69209 
 H                     1.08871  -1.93798   0.99726 
 H                     2.84579   1.821    -1.70694 
 C                     3.22844   0.47827  -0.06565 
 H                     3.31849  -0.99579   1.5006 
 H                     4.20762   0.89011   0.15048 
 H                    -3.85678  -0.11986  -1.10348 
 O                    -0.99939   1.04893   1.2026 
 H                    -2.15394   0.45832  -1.16704 
 
 NAtoms=     23 NQM=     23 NQMF=      0 NMic=      0 NMicF=      0 NTot=     23.
                    Isotopes and Nuclear Properties:
 (Nuclear quadrupole moments (NQMom) in fm**2, nuclear magnetic moments (NMagM)
  in nuclear magnetons)

  Atom         1           2           3           4           5           6           7           8           9          10
 IAtWgt=          14           1          12           1          12          12           1           1          12          16
 AtmWgt=  14.0030740   1.0078250  12.0000000   1.0078250  12.0000000  12.0000000   1.0078250   1.0078250  12.0000000  15.9949146
 NucSpn=           2           1           0           1           0           0           1           1           0           0
 AtZEff=   0.0000000   0.0000000   0.0000000   0.0000000   0.0000000   0.0000000   0.0000000   0.0000000   0.0000000   0.0000000
 NQMom=    2.0440000   0.0000000   0.0000000   0.0000000   0.0000000   0.0000000   0.0000000   0.0000000   0.0000000   0.0000000
 NMagM=    0.4037610   2.7928460   0.0000000   2.7928460   0.0000000   0.0000000   2.7928460   2.7928460   0.0000000   0.0000000

  Atom        11          12          13          14          15          16          17          18          19          20
 IAtWgt=          12          12           1          12          12           1           1          12           1           1
 AtmWgt=  12.0000000  12.0000000   1.0078250  12.0000000  12.0000000   1.0078250   1.0078250  12.0000000   1.0078250   1.0078250
 NucSpn=           0           0           1           0           0           1           1           0           1           1
 AtZEff=   0.0000000   0.0000000   0.0000000   0.0000000   0.0000000   0.0000000   0.0000000   0.0000000   0.0000000   0.0000000
 NQMom=    0.0000000   0.0000000   0.0000000   0.0000000   0.0000000   0.0000000   0.0000000   0.0000000   0.0000000   0.0000000
 NMagM=    0.0000000   0.0000000   2.7928460   0.0000000   0.0000000   2.7928460   2.7928460   0.0000000   2.7928460   2.7928460

  Atom        21          22          23
 IAtWgt=           1          16           1
 AtmWgt=   1.0078250  15.9949146   1.0078250
 NucSpn=           1           0           1
 AtZEff=   0.0000000   0.0000000   0.0000000
 NQMom=    0.0000000   0.0000000   0.0000000
 NMagM=    2.7928460   0.0000000   2.7928460
 Leave Link  101 at Tue Apr 19 17:55:50 2016, MaxMem=   33554432 cpu:       0.0
 (Enter c:\G09w01\l103.exe)

 GradGradGradGradGradGradGradGradGradGradGradGradGradGradGradGradGradGrad
 Berny optimization.
 Initialization pass.
                           ----------------------------
                           !    Initial Parameters    !
                           ! (Angstroms and Degrees)  !
 --------------------------                            --------------------------
 ! Name  Definition              Value          Derivative Info.                !
 --------------------------------------------------------------------------------
 ! R1    R(1,2)                  1.0164         estimate D2E/DX2                !
 ! R2    R(1,3)                  1.4304         estimate D2E/DX2                !
 ! R3    R(1,21)                 1.0137         estimate D2E/DX2                !
 ! R4    R(1,23)                 1.4927         estimate D2E/DX2                !
 ! R5    R(3,5)                  1.5159         estimate D2E/DX2                !
 ! R6    R(3,6)                  1.3412         estimate D2E/DX2                !
 ! R7    R(3,23)                 0.98           estimate D2E/DX2                !
 ! R8    R(4,22)                 0.9687         estimate D2E/DX2                !
 ! R9    R(5,7)                  1.0967         estimate D2E/DX2                !
 ! R10   R(5,8)                  1.0974         estimate D2E/DX2                !
 ! R11   R(5,9)                  1.516          estimate D2E/DX2                !
 ! R12   R(6,10)                 1.37           estimate D2E/DX2                !
 ! R13   R(6,22)                 1.3697         estimate D2E/DX2                !
 ! R14   R(9,11)                 1.4029         estimate D2E/DX2                !
 ! R15   R(9,12)                 1.4007         estimate D2E/DX2                !
 ! R16   R(11,13)                1.085          estimate D2E/DX2                !
 ! R17   R(11,14)                1.3922         estimate D2E/DX2                !
 ! R18   R(12,15)                1.398          estimate D2E/DX2                !
 ! R19   R(12,16)                1.0854         estimate D2E/DX2                !
 ! R20   R(14,17)                1.0843         estimate D2E/DX2                !
 ! R21   R(14,18)                1.3973         estimate D2E/DX2                !
 ! R22   R(15,18)                1.3926         estimate D2E/DX2                !
 ! R23   R(15,19)                1.0842         estimate D2E/DX2                !
 ! R24   R(18,20)                1.084          estimate D2E/DX2                !
 ! A1    A(2,1,3)              111.698          estimate D2E/DX2                !
 ! A2    A(2,1,21)             108.1387         estimate D2E/DX2                !
 ! A3    A(3,1,21)             111.6099         estimate D2E/DX2                !
 ! A4    A(1,3,5)              113.2038         estimate D2E/DX2                !
 ! A5    A(1,3,6)              120.1645         estimate D2E/DX2                !
 ! A6    A(1,3,23)              73.8806         estimate D2E/DX2                !
 ! A7    A(5,3,6)              126.3833         estimate D2E/DX2                !
 ! A8    A(5,3,23)             122.743          estimate D2E/DX2                !
 ! A9    A(6,3,23)              78.6503         estimate D2E/DX2                !
 ! A10   A(3,5,7)              109.154          estimate D2E/DX2                !
 ! A11   A(3,5,8)              106.8845         estimate D2E/DX2                !
 ! A12   A(3,5,9)              117.2845         estimate D2E/DX2                !
 ! A13   A(7,5,8)              105.456          estimate D2E/DX2                !
 ! A14   A(7,5,9)              109.412          estimate D2E/DX2                !
 ! A15   A(8,5,9)              107.9822         estimate D2E/DX2                !
 ! A16   A(3,6,10)             120.6668         estimate D2E/DX2                !
 ! A17   A(3,6,22)             128.8824         estimate D2E/DX2                !
 ! A18   A(10,6,22)            110.4496         estimate D2E/DX2                !
 ! A19   A(5,9,11)             120.5374         estimate D2E/DX2                !
 ! A20   A(5,9,12)             121.0412         estimate D2E/DX2                !
 ! A21   A(11,9,12)            118.4154         estimate D2E/DX2                !
 ! A22   A(9,11,13)            119.3568         estimate D2E/DX2                !
 ! A23   A(9,11,14)            120.8299         estimate D2E/DX2                !
 ! A24   A(13,11,14)           119.8134         estimate D2E/DX2                !
 ! A25   A(9,12,15)            120.871          estimate D2E/DX2                !
 ! A26   A(9,12,16)            119.4735         estimate D2E/DX2                !
 ! A27   A(15,12,16)           119.6545         estimate D2E/DX2                !
 ! A28   A(11,14,17)           119.7887         estimate D2E/DX2                !
 ! A29   A(11,14,18)           120.2147         estimate D2E/DX2                !
 ! A30   A(17,14,18)           119.9963         estimate D2E/DX2                !
 ! A31   A(12,15,18)           120.0681         estimate D2E/DX2                !
 ! A32   A(12,15,19)           119.7196         estimate D2E/DX2                !
 ! A33   A(18,15,19)           120.2116         estimate D2E/DX2                !
 ! A34   A(14,18,15)           119.5997         estimate D2E/DX2                !
 ! A35   A(14,18,20)           120.1672         estimate D2E/DX2                !
 ! A36   A(15,18,20)           120.2328         estimate D2E/DX2                !
 ! A37   A(4,22,6)             110.182          estimate D2E/DX2                !
 ! D1    D(2,1,3,5)            -58.2274         estimate D2E/DX2                !
 ! D2    D(2,1,3,6)            127.1409         estimate D2E/DX2                !
 ! D3    D(2,1,3,23)            61.0257         estimate D2E/DX2                !
 ! D4    D(21,1,3,5)          -179.4263         estimate D2E/DX2                !
 ! D5    D(21,1,3,6)             5.942          estimate D2E/DX2                !
 ! D6    D(21,1,3,23)          -60.1733         estimate D2E/DX2                !
 ! D7    D(1,3,5,7)            -74.2909         estimate D2E/DX2                !
 ! D8    D(1,3,5,8)             39.303          estimate D2E/DX2                !
 ! D9    D(1,3,5,9)            160.6068         estimate D2E/DX2                !
 ! D10   D(6,3,5,7)             99.9426         estimate D2E/DX2                !
 ! D11   D(6,3,5,8)           -146.4635         estimate D2E/DX2                !
 ! D12   D(6,3,5,9)            -25.1597         estimate D2E/DX2                !
 ! D13   D(23,3,5,7)          -159.5023         estimate D2E/DX2                !
 ! D14   D(23,3,5,8)           -45.9084         estimate D2E/DX2                !
 ! D15   D(23,3,5,9)            75.3954         estimate D2E/DX2                !
 ! D16   D(1,3,6,10)            -9.188          estimate D2E/DX2                !
 ! D17   D(1,3,6,22)           170.3659         estimate D2E/DX2                !
 ! D18   D(5,3,6,10)           176.9435         estimate D2E/DX2                !
 ! D19   D(5,3,6,22)            -3.5025         estimate D2E/DX2                !
 ! D20   D(23,3,6,10)           54.4407         estimate D2E/DX2                !
 ! D21   D(23,3,6,22)         -126.0053         estimate D2E/DX2                !
 ! D22   D(3,5,9,11)           -71.0121         estimate D2E/DX2                !
 ! D23   D(3,5,9,12)           109.8904         estimate D2E/DX2                !
 ! D24   D(7,5,9,11)           164.0143         estimate D2E/DX2                !
 ! D25   D(7,5,9,12)           -15.0831         estimate D2E/DX2                !
 ! D26   D(8,5,9,11)            49.7184         estimate D2E/DX2                !
 ! D27   D(8,5,9,12)          -129.3791         estimate D2E/DX2                !
 ! D28   D(3,6,22,4)             0.4096         estimate D2E/DX2                !
 ! D29   D(10,6,22,4)         -179.9999         estimate D2E/DX2                !
 ! D30   D(5,9,11,13)            0.5474         estimate D2E/DX2                !
 ! D31   D(5,9,11,14)         -179.4346         estimate D2E/DX2                !
 ! D32   D(12,9,11,13)         179.6682         estimate D2E/DX2                !
 ! D33   D(12,9,11,14)          -0.3138         estimate D2E/DX2                !
 ! D34   D(5,9,12,15)          179.5321         estimate D2E/DX2                !
 ! D35   D(5,9,12,16)           -0.1099         estimate D2E/DX2                !
 ! D36   D(11,9,12,15)           0.4159         estimate D2E/DX2                !
 ! D37   D(11,9,12,16)        -179.226          estimate D2E/DX2                !
 ! D38   D(9,11,14,17)         179.8535         estimate D2E/DX2                !
 ! D39   D(9,11,14,18)           0.0306         estimate D2E/DX2                !
 ! D40   D(13,11,14,17)         -0.1285         estimate D2E/DX2                !
 ! D41   D(13,11,14,18)       -179.9514         estimate D2E/DX2                !
 ! D42   D(9,12,15,18)          -0.2352         estimate D2E/DX2                !
 ! D43   D(9,12,15,19)        -179.9504         estimate D2E/DX2                !
 ! D44   D(16,12,15,18)        179.4061         estimate D2E/DX2                !
 ! D45   D(16,12,15,19)         -0.3091         estimate D2E/DX2                !
 ! D46   D(11,14,18,15)          0.1577         estimate D2E/DX2                !
 ! D47   D(11,14,18,20)        179.972          estimate D2E/DX2                !
 ! D48   D(17,14,18,15)       -179.6649         estimate D2E/DX2                !
 ! D49   D(17,14,18,20)          0.1494         estimate D2E/DX2                !
 ! D50   D(12,15,18,14)         -0.0565         estimate D2E/DX2                !
 ! D51   D(12,15,18,20)       -179.8706         estimate D2E/DX2                !
 ! D52   D(19,15,18,14)        179.6573         estimate D2E/DX2                !
 ! D53   D(19,15,18,20)         -0.1568         estimate D2E/DX2                !
 --------------------------------------------------------------------------------
 Trust Radius=3.00D-01 FncErr=1.00D-07 GrdErr=1.00D-06
 Number of steps in this run=    124 maximum allowed number of steps=    138.
 GradGradGradGradGradGradGradGradGradGradGradGradGradGradGradGradGradGrad

 Leave Link  103 at Tue Apr 19 17:55:50 2016, MaxMem=   33554432 cpu:       0.0
 (Enter c:\G09w01\l202.exe)
                          Input orientation:                          
 ---------------------------------------------------------------------
 Center     Atomic      Atomic             Coordinates (Angstroms)
 Number     Number       Type             X           Y           Z
 ---------------------------------------------------------------------
      1          7           0       -3.066000   -0.711860   -1.331157
      2          1           0       -2.927952   -0.682194   -2.337745
      3          6           0       -1.888405   -0.312953   -0.623875
      4          1           0       -0.195422    0.520250    1.090443
      5          6           0       -0.678714   -1.166843   -0.948469
      6          6           0       -1.954382    0.653170    0.304026
      7          1           0       -0.784265   -2.141771   -0.457526
      8          1           0       -0.715852   -1.376011   -2.025091
      9          6           0        0.685929   -0.587950   -0.630974
     10          8           0       -3.094175    1.397590    0.457893
     11          6           0        1.203671    0.473563   -1.388169
     12          6           0        1.467175   -1.108336    0.408636
     13          1           0        0.613683    0.884797   -2.200645
     14          6           0        2.461096    1.002114   -1.109362
     15          6           0        2.729229   -0.578086    0.692087
     16          1           0        1.088710   -1.937977    0.997264
     17          1           0        2.845794    1.821005   -1.706942
     18          6           0        3.228443    0.478270   -0.065651
     19          1           0        3.318494   -0.995786    1.500600
     20          1           0        4.207617    0.890110    0.150477
     21          1           0       -3.856779   -0.119858   -1.103481
     22          8           0       -0.999390    1.048928    1.202598
     23          1           0       -2.153941    0.458320   -1.167041
 ---------------------------------------------------------------------
                    Distance matrix (angstroms):
                    1          2          3          4          5
     1  N    0.000000
     2  H    1.016443   0.000000
     3  C    1.430421   2.038222   0.000000
     4  H    3.952526   4.545884   2.549373   0.000000
     5  C    2.460202   2.687758   1.515863   2.690170   0.000000
     6  C    2.402670   3.116086   1.341174   1.931336   2.551180
     7  H    2.830935   3.203277   2.142749   3.135171   1.096654
     8  H    2.538865   2.339342   2.113854   3.684183   1.097381
     9  C    3.818715   3.997760   2.588990   2.228938   1.515972
    10  O    2.766093   3.488370   2.355857   3.093964   3.793234
    11  C    4.431542   4.394062   3.280806   2.846605   2.535279
    12  C    4.871730   5.200130   3.599810   2.425156   2.539684
    13  H    4.104314   3.875234   3.190808   3.408637   2.729004
    14  C    5.791001   5.778205   4.569820   3.482589   3.819511
    15  C    6.139714   6.418288   4.808804   3.149383   3.827811
    16  H    4.917980   5.369623   3.759256   2.774988   2.739400
    17  H    6.442509   6.324560   5.304663   4.332011   4.682379
    18  C    6.529772   6.664104   5.207666   3.614024   4.330316
    19  H    6.990080   7.338210   5.664932   3.848922   4.690935
    20  H    7.593883   7.718791   6.261666   4.517420   5.414330
    21  H    1.013723   1.643882   2.035142   4.316083   3.349672
    22  O    3.713646   4.387501   2.445623   0.968733   3.104765
    23  H    1.492685   1.808429   0.980000   2.989291   2.205725
                    6          7          8          9         10
     6  C    0.000000
     7  H    3.124233   0.000000
     8  H    3.328110   1.745946   0.000000
     9  C    3.063633   2.146139   2.128284   0.000000
    10  O    1.370023   4.324437   4.417521   4.406494   0.000000
    11  C    3.587350   3.414375   2.740650   1.402929   4.767940
    12  C    3.849792   2.624349   3.280287   1.400691   5.204614
    13  H    3.594716   3.762026   2.628638   2.153618   4.591186
    14  C    4.649287   4.565224   4.072719   2.430715   5.785648
    15  C    4.858271   4.013896   4.459633   2.434268   6.153875
    16  H    4.056480   2.380332   3.564671   2.153129   5.377123
    17  H    5.333809   5.517424   4.796608   3.409661   6.336326
    18  C    5.198935   4.808327   4.778622   2.814390   6.410518
    19  H    5.652793   4.688301   5.371314   3.411794   6.923714
    20  H    6.168464   5.872040   5.840287   3.898412   7.325859
    21  H    2.489531   3.734399   3.506096   4.591140   2.306968
    22  O    1.369695   3.603172   4.047061   2.980211   2.250394
    23  H    1.497273   3.023226   2.483772   3.073583   2.099208
                   11         12         13         14         15
    11  C    0.000000
    12  C    2.408391   0.000000
    13  H    1.085042   3.392547   0.000000
    14  C    1.392199   2.783199   2.148859   0.000000
    15  C    2.785814   1.397959   3.870847   2.411254   0.000000
    16  H    3.393970   1.085368   4.291891   3.868521   2.152612
    17  H    2.147972   3.867467   2.470333   1.084286   3.394785
    18  C    2.418425   2.417505   3.400064   1.397343   1.392577
    19  H    3.869942   2.152309   4.954978   3.396857   1.084159
    20  H    3.400681   3.401537   4.294667   2.156403   2.152806
    21  H    5.103073   5.622106   4.711489   6.416728   6.841750
    22  O    3.449144   3.371662   3.769749   4.162008   4.100048
    23  H    3.364920   4.248488   2.984956   4.647322   5.326898
                   16         17         18         19         20
    16  H    0.000000
    17  H    4.952779   0.000000
    18  C    3.398013   2.154807   0.000000
    19  H    2.472450   4.294890   2.152694   0.000000
    20  H    4.294497   2.484176   1.084023   2.483944   0.000000
    21  H    5.672438   7.003970   7.185765   7.683296   8.223559
    22  O    3.650195   4.883336   4.450694   4.786834   5.314612
    23  H    4.576160   5.210159   5.493952   6.259255   6.510892
                   21         22         23
    21  H    0.000000
    22  O    3.853405   0.000000
    23  H    1.799441   2.701294   0.000000
 Symmetry turned off by external request.
 Stoichiometry    C9H11NO2
 Framework group  C1[X(C9H11NO2)]
 Deg. of freedom    63
 Full point group                 C1      NOp   1
 Rotational constants (GHZ):      1.8927505      0.5634613      0.5226962
 Leave Link  202 at Tue Apr 19 17:55:50 2016, MaxMem=   33554432 cpu:       0.0
 (Enter c:\G09w01\l301.exe)
 Standard basis: 6-311++G(d,p) (5D, 7F)
 Ernie: Thresh=  0.10000D-02 Tol=  0.10000D-05 Strict=F.
 Integral buffers will be    262144 words long.
 Raffenetti 2 integral format.
 Two-electron integral symmetry is turned off.
   341 basis functions,   531 primitive gaussians,   353 cartesian basis functions
    44 alpha electrons       44 beta electrons
       nuclear repulsion energy       685.4532596727 Hartrees.
 IExCor=  402 DFT=T Ex+Corr=B3LYP ExCW=0 ScaHFX=  0.200000
 ScaDFX=  0.800000  0.720000  1.000000  0.810000 ScalE2=  1.000000  1.000000
 IRadAn=      0 IRanWt=     -1 IRanGd=            0 ICorTp=0
 NAtoms=   23 NActive=   23 NUniq=   23 SFac= 1.00D+00 NAtFMM=   50 NAOKFM=F Big=F
 ------------------------------------------------------------------------------
 Polarizable Continuum Model (PCM)
 =================================
 Model                : C-PCM.
 Atomic radii         : UFF (Universal Force Field).
 Polarization charges : Total charges.
 Charge compensation  : None.
 Solution method      : Matrix inversion.
 Cavity type          : Scaled VdW (van der Waals Surface) (Alpha=1.100).
 Cavity algorithm     : GePol (No added spheres)
                        Default sphere list used, NSphG=   23.
                        Lebedev-Laikov grids with approx.  5.0 points / Ang**2.
                        Smoothing algorithm: Karplus/York (Gamma=1.0000).
                        Polarization charges: spherical gaussians, with
                                              point-specific exponents (IZeta= 3).
                        Self-potential: point-specific (ISelfS= 7).
                        Self-field    : sphere-specific E.n sum rule (ISelfD= 2).
 1st derivatives      : Analytical E(r).r(x)/FMM algorithm (CHGder, D1EAlg=3).
                        Cavity 1st derivative terms included.
 Solvent              : Water, Eps=  78.355300 Eps(inf)=   1.777849
 ------------------------------------------------------------------------------
 GePol: Number of generator spheres                  =      23
 GePol: Total number of spheres                      =      23
 GePol: Number of exposed spheres                    =      23 (100.00%)
 GePol: Number of points                             =    1776
 GePol: Average weight of points                     =       0.13
 GePol: Minimum weight of points                     =   0.11D-08
 GePol: Maximum weight of points                     =    0.20577
 GePol: Number of points with low weight             =     140
 GePol: Fraction of low-weight points (<1% of avg)   =       7.88%
 GePol: Cavity surface area                          =    231.498 Ang**2
 GePol: Cavity volume                                =    238.521 Ang**3
 Leave Link  301 at Tue Apr 19 17:55:50 2016, MaxMem=   33554432 cpu:       0.0
 (Enter c:\G09w01\l302.exe)
 NPDir=0 NMtPBC=     1 NCelOv=     1 NCel=       1 NClECP=     1 NCelD=      1
         NCelK=      1 NCelE2=     1 NClLst=     1 CellRange=     0.0.
 One-electron integrals computed using PRISM.
 NBasis=   341 RedAO= T  NBF=   341
 NBsUse=   340 1.00D-06 NBFU=   340
 Precomputing XC quadrature grid using
 IXCGrd= 2 IRadAn=           0 IRanWt=          -1 IRanGd=           0 AccXCQ= 0.00D+00.
 NRdTot=    1493 NPtTot=      190342 NUsed=      197304 NTot=      197320
 NSgBfM=   353   353   353   353   353 NAtAll=    23    23.
 Leave Link  302 at Tue Apr 19 17:55:52 2016, MaxMem=   33554432 cpu:       2.0
 (Enter c:\G09w01\l303.exe)
 DipDrv:  MaxL=1.
 Leave Link  303 at Tue Apr 19 17:55:52 2016, MaxMem=   33554432 cpu:       0.0
 (Enter c:\G09w01\l401.exe)
 Harris functional with IExCor=  402 diagonalized for initial guess.
 ExpMin= 3.60D-02 ExpMax= 8.59D+03 ExpMxC= 1.30D+03 IAcc=3 IRadAn=         0 AccDes= 0.00D+00
 HarFok:  IExCor=  402 AccDes= 0.00D+00 IRadAn=         0 IDoV= 1
 ScaDFX=  1.000000  1.000000  1.000000  1.000000
 FoFCou: FMM=F IPFlag=           0 FMFlag=      100000 FMFlg1=           0
         NFxFlg=           0 DoJE=T BraDBF=F KetDBF=T FulRan=T
         Omega=  0.000000  0.000000  1.000000  0.000000  0.000000 ICntrl=     500 IOpCl=  0
         NMat0=    1 NMatS0=    1 NMatT0=    0 NMatD0=    1 NMtDS0=    0 NMtDT0=    0
         I1Cent=           4 NGrid=           0.
 Symmetry not used in FoFCou.
 Harris En= -554.840582295829    
 Leave Link  401 at Tue Apr 19 17:56:13 2016, MaxMem=   33554432 cpu:      21.0
 (Enter c:\G09w01\l502.exe)
 Closed shell SCF:
 Requested convergence on RMS density matrix=1.00D-08 within 128 cycles.
 Requested convergence on MAX density matrix=1.00D-06.
 Requested convergence on             energy=1.00D-06.
 No special actions if energy rises.
 Using DIIS extrapolation, IDIIS=  1040.
 Two-electron integral symmetry not used.
       197107 words used for storage of precomputed grid.
 IEnd=      593152 IEndB=      593152 NGot=    33554432 MDV=    33102883
 LenX=    33102883 LenY=    32977833
 Fock matrices will be formed incrementally for  20 cycles.

 Cycle   1  Pass 1  IDiag  1:
 FoFCou: FMM=F IPFlag=           0 FMFlag=      100000 FMFlg1=           0
         NFxFlg=           0 DoJE=F BraDBF=F KetDBF=F FulRan=T
         Omega=  0.000000  0.000000  1.000000  0.000000  0.000000 ICntrl=       0 IOpCl=  0
         NMat0=    1 NMatS0=    1 NMatT0=    0 NMatD0=    1 NMtDS0=    0 NMtDT0=    0
         I1Cent=           0 NGrid=           0.
 Symmetry not used in FoFCou.
 E= -554.508447221892    
 DIIS: error= 2.86D-02 at cycle   1 NSaved=   1.
 NSaved= 1 IEnMin= 1 EnMin= -554.508447221892     IErMin= 1 ErrMin= 2.86D-02
 ErrMax= 2.86D-02 EMaxC= 1.00D-01 BMatC= 3.86D-01 BMatP= 3.86D-01
 IDIUse=3 WtCom= 7.14D-01 WtEn= 2.86D-01
 Coeff-Com:  0.100D+01
 Coeff-En:   0.100D+01
 Coeff:      0.100D+01
 Gap=     0.206 Goal=   None    Shift=    0.000
 GapD=    0.206 DampG=1.000 DampE=0.500 DampFc=0.5000 IDamp=-1.
 Damping current iteration by 5.00D-01
 RMSDP=6.67D-02 MaxDP=6.50D+00              OVMax= 2.71D-01

 Cycle   2  Pass 1  IDiag  1:
 RMSU=  1.97D-02    CP:  1.40D+00
 E= -554.590134245729     Delta-E=       -0.081687023837 Rises=F Damp=T
 DIIS: error= 1.39D-02 at cycle   2 NSaved=   2.
 NSaved= 2 IEnMin= 2 EnMin= -554.590134245729     IErMin= 2 ErrMin= 1.39D-02
 ErrMax= 1.39D-02 EMaxC= 1.00D-01 BMatC= 6.28D-02 BMatP= 3.86D-01
 IDIUse=3 WtCom= 8.61D-01 WtEn= 1.39D-01
 Coeff-Com:  0.210D+00 0.790D+00
 Coeff-En:   0.351D+00 0.649D+00
 Coeff:      0.230D+00 0.770D+00
 Gap=     0.265 Goal=   None    Shift=    0.000
 RMSDP=2.92D-02 MaxDP=3.30D+00 DE=-8.17D-02 OVMax= 2.66D-01

 Cycle   3  Pass 1  IDiag  1:
 RMSU=  5.48D-03    CP:  9.26D-01  3.61D-01
 E= -554.771348510431     Delta-E=       -0.181214264702 Rises=F Damp=F
 DIIS: error= 1.75D-02 at cycle   3 NSaved=   3.
 NSaved= 3 IEnMin= 3 EnMin= -554.771348510431     IErMin= 2 ErrMin= 1.39D-02
 ErrMax= 1.75D-02 EMaxC= 1.00D-01 BMatC= 6.81D-02 BMatP= 6.28D-02
 IDIUse=3 WtCom= 8.25D-01 WtEn= 1.75D-01
 Coeff-Com:  0.496D-01 0.504D+00 0.446D+00
 Coeff-En:   0.000D+00 0.000D+00 0.100D+01
 Coeff:      0.409D-01 0.416D+00 0.543D+00
 Gap=     0.222 Goal=   None    Shift=    0.000
 RMSDP=1.30D-02 MaxDP=1.35D+00 DE=-1.81D-01 OVMax= 9.73D-02

 Cycle   4  Pass 1  IDiag  1:
 RMSU=  3.39D-03    CP:  1.13D+00  6.35D-01  9.32D-01
 E= -554.810663745128     Delta-E=       -0.039315234697 Rises=F Damp=F
 DIIS: error= 9.24D-03 at cycle   4 NSaved=   4.
 NSaved= 4 IEnMin= 4 EnMin= -554.810663745128     IErMin= 4 ErrMin= 9.24D-03
 ErrMax= 9.24D-03 EMaxC= 1.00D-01 BMatC= 1.87D-02 BMatP= 6.28D-02
 IDIUse=3 WtCom= 9.08D-01 WtEn= 9.24D-02
 Coeff-Com:  0.315D-02 0.115D+00 0.354D+00 0.528D+00
 Coeff-En:   0.000D+00 0.000D+00 0.257D+00 0.743D+00
 Coeff:      0.286D-02 0.105D+00 0.345D+00 0.548D+00
 Gap=     0.212 Goal=   None    Shift=    0.000
 RMSDP=4.77D-03 MaxDP=6.45D-01 DE=-3.93D-02 OVMax= 4.08D-02

 Cycle   5  Pass 1  IDiag  1:
 RMSU=  5.77D-04    CP:  1.05D+00  5.63D-01  1.04D+00  6.67D-01
 E= -554.824320215729     Delta-E=       -0.013656470600 Rises=F Damp=F
 DIIS: error= 1.42D-03 at cycle   5 NSaved=   5.
 NSaved= 5 IEnMin= 5 EnMin= -554.824320215729     IErMin= 5 ErrMin= 1.42D-03
 ErrMax= 1.42D-03 EMaxC= 1.00D-01 BMatC= 8.52D-04 BMatP= 1.87D-02
 IDIUse=3 WtCom= 9.86D-01 WtEn= 1.42D-02
 Coeff-Com: -0.252D-02 0.210D-01 0.149D+00 0.316D+00 0.517D+00
 Coeff-En:   0.000D+00 0.000D+00 0.000D+00 0.000D+00 0.100D+01
 Coeff:     -0.248D-02 0.207D-01 0.147D+00 0.312D+00 0.524D+00
 Gap=     0.208 Goal=   None    Shift=    0.000
 RMSDP=5.80D-04 MaxDP=5.55D-02 DE=-1.37D-02 OVMax= 9.67D-03

 Cycle   6  Pass 1  IDiag  1:
 RMSU=  2.46D-04    CP:  1.04D+00  5.57D-01  1.04D+00  6.83D-01  7.03D-01
 E= -554.824973854270     Delta-E=       -0.000653638542 Rises=F Damp=F
 DIIS: error= 3.44D-04 at cycle   6 NSaved=   6.
 NSaved= 6 IEnMin= 6 EnMin= -554.824973854270     IErMin= 6 ErrMin= 3.44D-04
 ErrMax= 3.44D-04 EMaxC= 1.00D-01 BMatC= 4.47D-05 BMatP= 8.52D-04
 IDIUse=3 WtCom= 9.97D-01 WtEn= 3.44D-03
 Coeff-Com: -0.153D-02-0.731D-03 0.267D-01 0.804D-01 0.255D+00 0.641D+00
 Coeff-En:   0.000D+00 0.000D+00 0.000D+00 0.000D+00 0.000D+00 0.100D+01
 Coeff:     -0.153D-02-0.729D-03 0.266D-01 0.801D-01 0.254D+00 0.642D+00
 Gap=     0.207 Goal=   None    Shift=    0.000
 RMSDP=3.76D-04 MaxDP=3.77D-02 DE=-6.54D-04 OVMax= 1.37D-03

 Cycle   7  Pass 1  IDiag  1:
 RMSU=  4.82D-05    CP:  1.05D+00  5.63D-01  1.05D+00  7.02D-01  7.51D-01
                    CP:  6.01D-01
 E= -554.825011166694     Delta-E=       -0.000037312423 Rises=F Damp=F
 DIIS: error= 5.05D-05 at cycle   7 NSaved=   7.
 NSaved= 7 IEnMin= 7 EnMin= -554.825011166694     IErMin= 7 ErrMin= 5.05D-05
 ErrMax= 5.05D-05 EMaxC= 1.00D-01 BMatC= 1.31D-06 BMatP= 4.47D-05
 IDIUse=1 WtCom= 1.00D+00 WtEn= 0.00D+00
 Coeff-Com: -0.322D-03-0.112D-02 0.536D-02 0.195D-01 0.834D-01 0.238D+00
 Coeff-Com:  0.655D+00
 Coeff:     -0.322D-03-0.112D-02 0.536D-02 0.195D-01 0.834D-01 0.238D+00
 Coeff:      0.655D+00
 Gap=     0.208 Goal=   None    Shift=    0.000
 RMSDP=3.88D-05 MaxDP=4.44D-03 DE=-3.73D-05 OVMax= 7.13D-04

 Cycle   8  Pass 1  IDiag  1:
 RMSU=  1.61D-05    CP:  1.05D+00  5.63D-01  1.05D+00  7.03D-01  7.59D-01
                    CP:  6.27D-01  9.21D-01
 E= -554.825011927450     Delta-E=       -0.000000760756 Rises=F Damp=F
 DIIS: error= 3.91D-05 at cycle   8 NSaved=   8.
 NSaved= 8 IEnMin= 8 EnMin= -554.825011927450     IErMin= 8 ErrMin= 3.91D-05
 ErrMax= 3.91D-05 EMaxC= 1.00D-01 BMatC= 5.42D-07 BMatP= 1.31D-06
 IDIUse=1 WtCom= 1.00D+00 WtEn= 0.00D+00
 Coeff-Com:  0.621D-04-0.532D-03-0.420D-03 0.397D-03 0.160D-01 0.528D-01
 Coeff-Com:  0.411D+00 0.520D+00
 Coeff:      0.621D-04-0.532D-03-0.420D-03 0.397D-03 0.160D-01 0.528D-01
 Coeff:      0.411D+00 0.520D+00
 Gap=     0.208 Goal=   None    Shift=    0.000
 RMSDP=1.14D-05 MaxDP=7.33D-04 DE=-7.61D-07 OVMax= 3.52D-04

 Cycle   9  Pass 1  IDiag  1:
 RMSU=  4.03D-06    CP:  1.05D+00  5.63D-01  1.05D+00  7.03D-01  7.65D-01
                    CP:  6.24D-01  9.24D-01  6.43D-01
 E= -554.825012483309     Delta-E=       -0.000000555859 Rises=F Damp=F
 DIIS: error= 8.57D-06 at cycle   9 NSaved=   9.
 NSaved= 9 IEnMin= 9 EnMin= -554.825012483309     IErMin= 9 ErrMin= 8.57D-06
 ErrMax= 8.57D-06 EMaxC= 1.00D-01 BMatC= 1.84D-08 BMatP= 5.42D-07
 IDIUse=1 WtCom= 1.00D+00 WtEn= 0.00D+00
 Coeff-Com:  0.414D-04-0.169D-03-0.496D-03-0.925D-03 0.234D-02 0.887D-02
 Coeff-Com:  0.140D+00 0.242D+00 0.609D+00
 Coeff:      0.414D-04-0.169D-03-0.496D-03-0.925D-03 0.234D-02 0.887D-02
 Coeff:      0.140D+00 0.242D+00 0.609D+00
 Gap=     0.207 Goal=   None    Shift=    0.000
 RMSDP=2.81D-06 MaxDP=2.14D-04 DE=-5.56D-07 OVMax= 4.95D-05

 Cycle  10  Pass 1  IDiag  1:
 RMSU=  8.09D-07    CP:  1.05D+00  5.63D-01  1.05D+00  7.03D-01  7.64D-01
                    CP:  6.22D-01  9.44D-01  6.72D-01  8.78D-01
 E= -554.825012500765     Delta-E=       -0.000000017457 Rises=F Damp=F
 DIIS: error= 1.74D-06 at cycle  10 NSaved=  10.
 NSaved=10 IEnMin=10 EnMin= -554.825012500765     IErMin=10 ErrMin= 1.74D-06
 ErrMax= 1.74D-06 EMaxC= 1.00D-01 BMatC= 1.77D-09 BMatP= 1.84D-08
 IDIUse=1 WtCom= 1.00D+00 WtEn= 0.00D+00
 Coeff-Com:  0.895D-05-0.158D-04-0.232D-03-0.527D-03-0.639D-03-0.143D-02
 Coeff-Com:  0.247D-01 0.649D-01 0.283D+00 0.630D+00
 Coeff:      0.895D-05-0.158D-04-0.232D-03-0.527D-03-0.639D-03-0.143D-02
 Coeff:      0.247D-01 0.649D-01 0.283D+00 0.630D+00
 Gap=     0.207 Goal=   None    Shift=    0.000
 RMSDP=6.33D-07 MaxDP=7.82D-05 DE=-1.75D-08 OVMax= 9.55D-06

 Cycle  11  Pass 1  IDiag  1:
 RMSU=  3.24D-07    CP:  1.05D+00  5.63D-01  1.05D+00  7.03D-01  7.65D-01
                    CP:  6.22D-01  9.45D-01  6.73D-01  8.95D-01  9.12D-01
 E= -554.825012502296     Delta-E=       -0.000000001530 Rises=F Damp=F
 DIIS: error= 6.65D-07 at cycle  11 NSaved=  11.
 NSaved=11 IEnMin=11 EnMin= -554.825012502296     IErMin=11 ErrMin= 6.65D-07
 ErrMax= 6.65D-07 EMaxC= 1.00D-01 BMatC= 1.43D-10 BMatP= 1.77D-09
 IDIUse=1 WtCom= 1.00D+00 WtEn= 0.00D+00
 Coeff-Com: -0.321D-05 0.111D-04-0.607D-04-0.117D-03-0.443D-03-0.112D-02
 Coeff-Com: -0.163D-02 0.552D-02 0.515D-01 0.218D+00 0.729D+00
 Coeff:     -0.321D-05 0.111D-04-0.607D-04-0.117D-03-0.443D-03-0.112D-02
 Coeff:     -0.163D-02 0.552D-02 0.515D-01 0.218D+00 0.729D+00
 Gap=     0.207 Goal=   None    Shift=    0.000
 RMSDP=2.44D-07 MaxDP=1.65D-05 DE=-1.53D-09 OVMax= 3.03D-06

 Cycle  12  Pass 1  IDiag  1:
 RMSU=  6.71D-08    CP:  1.05D+00  5.63D-01  1.05D+00  7.03D-01  7.65D-01
                    CP:  6.22D-01  9.45D-01  6.75D-01  9.10D-01  9.50D-01
                    CP:  9.29D-01
 E= -554.825012502404     Delta-E=       -0.000000000108 Rises=F Damp=F
 DIIS: error= 2.20D-07 at cycle  12 NSaved=  12.
 NSaved=12 IEnMin=12 EnMin= -554.825012502404     IErMin=12 ErrMin= 2.20D-07
 ErrMax= 2.20D-07 EMaxC= 1.00D-01 BMatC= 2.30D-11 BMatP= 1.43D-10
 IDIUse=1 WtCom= 1.00D+00 WtEn= 0.00D+00
 Coeff-Com: -0.313D-05 0.840D-05-0.176D-04-0.212D-04-0.207D-03-0.509D-03
 Coeff-Com: -0.303D-02-0.241D-02 0.360D-02 0.663D-01 0.396D+00 0.540D+00
 Coeff:     -0.313D-05 0.840D-05-0.176D-04-0.212D-04-0.207D-03-0.509D-03
 Coeff:     -0.303D-02-0.241D-02 0.360D-02 0.663D-01 0.396D+00 0.540D+00
 Gap=     0.207 Goal=   None    Shift=    0.000
 RMSDP=8.30D-08 MaxDP=8.00D-06 DE=-1.08D-10 OVMax= 1.23D-06

 Cycle  13  Pass 1  IDiag  1:
 RMSU=  2.58D-08    CP:  1.05D+00  5.63D-01  1.05D+00  7.03D-01  7.65D-01
                    CP:  6.22D-01  9.45D-01  6.76D-01  9.11D-01  9.63D-01
                    CP:  9.51D-01  9.40D-01
 E= -554.825012502418     Delta-E=       -0.000000000014 Rises=F Damp=F
 DIIS: error= 6.00D-08 at cycle  13 NSaved=  13.
 NSaved=13 IEnMin=13 EnMin= -554.825012502418     IErMin=13 ErrMin= 6.00D-08
 ErrMax= 6.00D-08 EMaxC= 1.00D-01 BMatC= 1.39D-12 BMatP= 2.30D-11
 IDIUse=1 WtCom= 1.00D+00 WtEn= 0.00D+00
 Coeff-Com: -0.986D-06 0.260D-05-0.307D-05 0.399D-06-0.472D-04-0.102D-03
 Coeff-Com: -0.898D-03-0.123D-02-0.344D-02 0.394D-02 0.727D-01 0.204D+00
 Coeff-Com:  0.725D+00
 Coeff:     -0.986D-06 0.260D-05-0.307D-05 0.399D-06-0.472D-04-0.102D-03
 Coeff:     -0.898D-03-0.123D-02-0.344D-02 0.394D-02 0.727D-01 0.204D+00
 Coeff:      0.725D+00
 Gap=     0.207 Goal=   None    Shift=    0.000
 RMSDP=3.20D-08 MaxDP=4.17D-06 DE=-1.39D-11 OVMax= 4.29D-07

 Cycle  14  Pass 1  IDiag  1:
 RMSU=  8.81D-09    CP:  1.05D+00  5.63D-01  1.05D+00  7.03D-01  7.65D-01
                    CP:  6.22D-01  9.45D-01  6.76D-01  9.12D-01  9.67D-01
                    CP:  9.71D-01  9.88D-01  7.94D-01
 E= -554.825012502420     Delta-E=       -0.000000000002 Rises=F Damp=F
 DIIS: error= 1.75D-08 at cycle  14 NSaved=  14.
 NSaved=14 IEnMin=14 EnMin= -554.825012502420     IErMin=14 ErrMin= 1.75D-08
 ErrMax= 1.75D-08 EMaxC= 1.00D-01 BMatC= 1.45D-13 BMatP= 1.39D-12
 IDIUse=1 WtCom= 1.00D+00 WtEn= 0.00D+00
 Coeff-Com: -0.276D-06 0.760D-06-0.431D-06 0.146D-05-0.106D-04-0.180D-04
 Coeff-Com: -0.233D-03-0.440D-03-0.199D-02-0.290D-02 0.656D-02 0.616D-01
 Coeff-Com:  0.377D+00 0.560D+00
 Coeff:     -0.276D-06 0.760D-06-0.431D-06 0.146D-05-0.106D-04-0.180D-04
 Coeff:     -0.233D-03-0.440D-03-0.199D-02-0.290D-02 0.656D-02 0.616D-01
 Coeff:      0.377D+00 0.560D+00
 Gap=     0.207 Goal=   None    Shift=    0.000
 RMSDP=8.32D-09 MaxDP=9.75D-07 DE=-2.27D-12 OVMax= 1.66D-07

 Error on total polarization charges =  0.01709
 SCF Done:  E(RB3LYP) =  -554.825012502     A.U. after   14 cycles
             Convg  =    0.8320D-08             -V/T =  2.0036
 KE= 5.528514165282D+02 PE=-2.664451094625D+03 EE= 8.713214059218D+02
 Leave Link  502 at Tue Apr 19 18:21:27 2016, MaxMem=   33554432 cpu:    1514.0
 (Enter c:\G09w01\l601.exe)
 Copying SCF densities to generalized density rwf, IOpCl= 0 IROHF=0.

 **********************************************************************

            Population analysis using the SCF density.

 **********************************************************************

 Alpha  occ. eigenvalues --  -19.18504 -19.09060 -14.34152 -10.32650 -10.23156
 Alpha  occ. eigenvalues --  -10.20453 -10.20395 -10.19072 -10.18926 -10.18906
 Alpha  occ. eigenvalues --  -10.18867 -10.18747  -1.10280  -1.00283  -0.94139
 Alpha  occ. eigenvalues --   -0.87798  -0.81215  -0.77527  -0.76257  -0.71240
 Alpha  occ. eigenvalues --   -0.62639  -0.62326  -0.61131  -0.56307  -0.53727
 Alpha  occ. eigenvalues --   -0.52493  -0.50911  -0.47960  -0.46724  -0.45865
 Alpha  occ. eigenvalues --   -0.43579  -0.43045  -0.42513  -0.41698  -0.40418
 Alpha  occ. eigenvalues --   -0.38926  -0.36978  -0.35919  -0.35595  -0.30438
 Alpha  occ. eigenvalues --   -0.27488  -0.27295  -0.26848  -0.24240
 Alpha virt. eigenvalues --   -0.03490  -0.03125  -0.02230  -0.00720   0.00295
 Alpha virt. eigenvalues --    0.01053   0.01566   0.02083   0.03107   0.03499
 Alpha virt. eigenvalues --    0.04327   0.04895   0.05933   0.06022   0.06253
 Alpha virt. eigenvalues --    0.07093   0.07668   0.08907   0.09157   0.10165
 Alpha virt. eigenvalues --    0.10301   0.10509   0.10866   0.11097   0.11494
 Alpha virt. eigenvalues --    0.11969   0.12186   0.12269   0.12740   0.13030
 Alpha virt. eigenvalues --    0.13211   0.13800   0.13994   0.14605   0.15082
 Alpha virt. eigenvalues --    0.15970   0.16125   0.16409   0.16821   0.17242
 Alpha virt. eigenvalues --    0.17497   0.18114   0.18652   0.19183   0.19480
 Alpha virt. eigenvalues --    0.20572   0.20932   0.21345   0.21704   0.22231
 Alpha virt. eigenvalues --    0.22992   0.23408   0.24241   0.24533   0.24736
 Alpha virt. eigenvalues --    0.25097   0.26221   0.26828   0.27105   0.27285
 Alpha virt. eigenvalues --    0.27933   0.28264   0.28628   0.29551   0.29843
 Alpha virt. eigenvalues --    0.30264   0.30626   0.31158   0.31798   0.32814
 Alpha virt. eigenvalues --    0.33164   0.33735   0.34835   0.35837   0.35994
 Alpha virt. eigenvalues --    0.36370   0.36908   0.37821   0.38631   0.40091
 Alpha virt. eigenvalues --    0.41831   0.42231   0.45897   0.48405   0.51544
 Alpha virt. eigenvalues --    0.51783   0.52529   0.53921   0.54439   0.54586
 Alpha virt. eigenvalues --    0.55851   0.56088   0.57206   0.58155   0.58518
 Alpha virt. eigenvalues --    0.60215   0.60614   0.61324   0.62956   0.63673
 Alpha virt. eigenvalues --    0.64966   0.66183   0.67498   0.68375   0.69620
 Alpha virt. eigenvalues --    0.70194   0.70955   0.71510   0.72177   0.72959
 Alpha virt. eigenvalues --    0.74551   0.75194   0.75561   0.76901   0.78850
 Alpha virt. eigenvalues --    0.81656   0.82288   0.83385   0.83532   0.85226
 Alpha virt. eigenvalues --    0.86353   0.87200   0.88211   0.88698   0.89352
 Alpha virt. eigenvalues --    0.89698   0.90591   0.91703   0.92892   0.97480
 Alpha virt. eigenvalues --    0.97716   1.00573   1.01129   1.02041   1.04519
 Alpha virt. eigenvalues --    1.04942   1.07467   1.08260   1.09544   1.12096
 Alpha virt. eigenvalues --    1.12986   1.15875   1.16716   1.17649   1.20686
 Alpha virt. eigenvalues --    1.22418   1.24320   1.29526   1.31360   1.31735
 Alpha virt. eigenvalues --    1.34170   1.39224   1.42256   1.44352   1.45682
 Alpha virt. eigenvalues --    1.48474   1.48960   1.50587   1.51229   1.51632
 Alpha virt. eigenvalues --    1.54022   1.56240   1.56726   1.59007   1.59394
 Alpha virt. eigenvalues --    1.61190   1.62042   1.63048   1.64415   1.65466
 Alpha virt. eigenvalues --    1.66109   1.68836   1.69192   1.71499   1.72199
 Alpha virt. eigenvalues --    1.73536   1.76189   1.77546   1.78300   1.81293
 Alpha virt. eigenvalues --    1.83179   1.84539   1.85806   1.87185   1.89551
 Alpha virt. eigenvalues --    1.90541   1.91676   1.91812   1.93962   1.95305
 Alpha virt. eigenvalues --    1.95799   1.97766   1.98601   2.01068   2.04618
 Alpha virt. eigenvalues --    2.06196   2.07140   2.09588   2.12746   2.15726
 Alpha virt. eigenvalues --    2.19923   2.21319   2.23605   2.25076   2.30490
 Alpha virt. eigenvalues --    2.32662   2.33656   2.39097   2.41637   2.44171
 Alpha virt. eigenvalues --    2.45207   2.45937   2.46703   2.55900   2.56947
 Alpha virt. eigenvalues --    2.60068   2.61713   2.62569   2.65503   2.67251
 Alpha virt. eigenvalues --    2.68647   2.69348   2.71207   2.72760   2.73170
 Alpha virt. eigenvalues --    2.74086   2.74502   2.75630   2.78187   2.79662
 Alpha virt. eigenvalues --    2.81443   2.83445   2.84118   2.85713   2.85972
 Alpha virt. eigenvalues --    2.89453   2.90369   2.91499   2.92455   2.93959
 Alpha virt. eigenvalues --    2.94491   2.96180   2.99382   3.04360   3.06484
 Alpha virt. eigenvalues --    3.07296   3.10162   3.12090   3.13779   3.18793
 Alpha virt. eigenvalues --    3.20062   3.21596   3.25912   3.31697   3.34505
 Alpha virt. eigenvalues --    3.37466   3.38769   3.46917   3.48973   3.50488
 Alpha virt. eigenvalues --    3.54704   3.59823   3.62002   3.72638   3.83090
 Alpha virt. eigenvalues --    3.88079   3.98644   3.99508   4.03469   4.09903
 Alpha virt. eigenvalues --    4.11994   4.14378   4.14815   4.30684   4.50200
 Alpha virt. eigenvalues --    4.72586   4.83176   4.95435   4.99583   5.07491
 Alpha virt. eigenvalues --    5.18311   5.40295   5.58173   5.82104  23.61366
 Alpha virt. eigenvalues --   23.67863  23.88548  23.96023  23.97144  24.06917
 Alpha virt. eigenvalues --   24.08425  24.17714  24.28954  35.60989  49.87488
 Alpha virt. eigenvalues --   49.97238
          Condensed to atoms (all electrons):
              1          2          3          4          5          6
     1  N    6.976610   0.383239  -0.556133   0.002343  -0.179723   0.447871
     2  H    0.383239   0.412761  -0.017652   0.000203  -0.086773   0.065261
     3  C   -0.556133  -0.017652  16.390833  -0.013891  -8.162316  -3.797903
     4  H    0.002343   0.000203  -0.013891   0.395895  -0.131631   0.085870
     5  C   -0.179723  -0.086773  -8.162316  -0.131631  19.856429   0.788476
     6  C    0.447871   0.065261  -3.797903   0.085870   0.788476   9.119745
     7  H    0.010389   0.000401   0.069292   0.002760   0.360504  -0.011309
     8  H   -0.022215   0.002500  -0.480818  -0.000399   0.928265   0.078433
     9  C   -0.158177   0.008844   2.349269   0.007043  -4.321696  -1.004644
    10  O   -0.047825   0.001064  -0.277482   0.016868   0.006268   0.500695
    11  C    0.154916  -0.006432  -2.369746   0.100270   1.169042   0.792273
    12  C   -0.101983   0.013832   3.181406  -0.092588  -3.855062  -0.888672
    13  H   -0.007394   0.000927   0.255461   0.000059  -0.208795  -0.043942
    14  C    0.021701  -0.005665  -1.051974   0.004109   0.991288   0.238164
    15  C   -0.010121   0.001908   0.837244   0.013199  -1.309063  -0.123675
    16  H   -0.002393   0.000075   0.028407  -0.003727  -0.023319  -0.028837
    17  H   -0.000237  -0.000210  -0.019167   0.000517   0.020717   0.000889
    18  C    0.004443   0.001090   0.139868  -0.001160  -0.138587   0.010472
    19  H    0.000043  -0.000061  -0.002096   0.001250   0.002345   0.003149
    20  H    0.000089   0.000031   0.003673  -0.000597  -0.010313  -0.000139
    21  H    0.340168  -0.036648  -0.000211  -0.000257   0.074571  -0.082623
    22  O   -0.026164  -0.001240  -0.243298   0.236300   0.399487   0.025667
    23  H    0.088660  -0.025615  -0.487303   0.013672   0.489120   0.223815
              7          8          9         10         11         12
     1  N    0.010389  -0.022215  -0.158177  -0.047825   0.154916  -0.101983
     2  H    0.000401   0.002500   0.008844   0.001064  -0.006432   0.013832
     3  C    0.069292  -0.480818   2.349269  -0.277482  -2.369746   3.181406
     4  H    0.002760  -0.000399   0.007043   0.016868   0.100270  -0.092588
     5  C    0.360504   0.928265  -4.321696   0.006268   1.169042  -3.855062
     6  C   -0.011309   0.078433  -1.004644   0.500695   0.792273  -0.888672
     7  H    0.499732  -0.040564  -0.177280  -0.000659  -0.066382   0.113220
     8  H   -0.040564   0.585436  -0.146786   0.001740   0.199416  -0.257981
     9  C   -0.177280  -0.146786  14.047678  -0.071724  -1.344507  -0.293527
    10  O   -0.000659   0.001740  -0.071724   8.407138   0.060067  -0.006147
    11  C   -0.066382   0.199416  -1.344507   0.060067  11.777720  -5.306704
    12  C    0.113220  -0.257981  -0.293527  -0.006147  -5.306704  13.138119
    13  H    0.004699  -0.024827   0.159819  -0.004008   0.247193   0.132462
    14  C   -0.034082   0.060887  -1.733642   0.013779   0.721079  -0.027868
    15  C    0.029702  -0.067008  -1.643525   0.001277   0.279853   0.972019
    16  H   -0.002171  -0.000049  -0.003133   0.000429  -0.034343   0.444243
    17  H    0.000062   0.002189  -0.035588   0.000187  -0.059738   0.009194
    18  C   -0.007235  -0.009612   0.083997   0.001986  -0.444757  -0.497396
    19  H    0.000673   0.000302  -0.016277  -0.000022   0.024306  -0.059628
    20  H   -0.000291  -0.000360   0.045974   0.000012  -0.021261  -0.009257
    21  H    0.000493   0.001080   0.007322   0.029831  -0.014280   0.009975
    22  O    0.003123   0.003851   0.018096  -0.117886  -0.091237  -0.005598
    23  H    0.004426   0.015080  -0.365143   0.027490   0.373594  -0.309485
             13         14         15         16         17         18
     1  N   -0.007394   0.021701  -0.010121  -0.002393  -0.000237   0.004443
     2  H    0.000927  -0.005665   0.001908   0.000075  -0.000210   0.001090
     3  C    0.255461  -1.051974   0.837244   0.028407  -0.019167   0.139868
     4  H    0.000059   0.004109   0.013199  -0.003727   0.000517  -0.001160
     5  C   -0.208795   0.991288  -1.309063  -0.023319   0.020717  -0.138587
     6  C   -0.043942   0.238164  -0.123675  -0.028837   0.000889   0.010472
     7  H    0.004699  -0.034082   0.029702  -0.002171   0.000062  -0.007235
     8  H   -0.024827   0.060887  -0.067008  -0.000049   0.002189  -0.009612
     9  C    0.159819  -1.733642  -1.643525  -0.003133  -0.035588   0.083997
    10  O   -0.004008   0.013779   0.001277   0.000429   0.000187   0.001986
    11  C    0.247193   0.721079   0.279853  -0.034343  -0.059738  -0.444757
    12  C    0.132462  -0.027868   0.972019   0.444243   0.009194  -0.497396
    13  H    0.518041  -0.226049   0.033609  -0.000719  -0.019416   0.014121
    14  C   -0.226049   6.784651  -0.093997   0.004682   0.468852   0.047393
    15  C    0.033609  -0.093997   6.911651  -0.080980   0.025089   0.255079
    16  H   -0.000719   0.004682  -0.080980   0.492111  -0.000183   0.028071
    17  H   -0.019416   0.468852   0.025089  -0.000183   0.498366  -0.093817
    18  C    0.014121   0.047393   0.255079   0.028071  -0.093817   6.518285
    19  H   -0.000567   0.025995   0.446459  -0.015990   0.002119  -0.107500
    20  H    0.001575  -0.094372  -0.096289   0.001401  -0.016033   0.519793
    21  H    0.000667  -0.001741   0.001380  -0.000100   0.000044  -0.000712
    22  O   -0.000819   0.009393  -0.033816   0.000329  -0.000309  -0.009819
    23  H   -0.030032   0.112611  -0.029912  -0.004679   0.003386  -0.012033
             19         20         21         22         23
     1  N    0.000043   0.000089   0.340168  -0.026164   0.088660
     2  H   -0.000061   0.000031  -0.036648  -0.001240  -0.025615
     3  C   -0.002096   0.003673  -0.000211  -0.243298  -0.487303
     4  H    0.001250  -0.000597  -0.000257   0.236300   0.013672
     5  C    0.002345  -0.010313   0.074571   0.399487   0.489120
     6  C    0.003149  -0.000139  -0.082623   0.025667   0.223815
     7  H    0.000673  -0.000291   0.000493   0.003123   0.004426
     8  H    0.000302  -0.000360   0.001080   0.003851   0.015080
     9  C   -0.016277   0.045974   0.007322   0.018096  -0.365143
    10  O   -0.000022   0.000012   0.029831  -0.117886   0.027490
    11  C    0.024306  -0.021261  -0.014280  -0.091237   0.373594
    12  C   -0.059628  -0.009257   0.009975  -0.005598  -0.309485
    13  H   -0.000567   0.001575   0.000667  -0.000819  -0.030032
    14  C    0.025995  -0.094372  -0.001741   0.009393   0.112611
    15  C    0.446459  -0.096289   0.001380  -0.033816  -0.029912
    16  H   -0.015990   0.001401  -0.000100   0.000329  -0.004679
    17  H    0.002119  -0.016033   0.000044  -0.000309   0.003386
    18  C   -0.107500   0.519793  -0.000712  -0.009819  -0.012033
    19  H    0.498523  -0.016008   0.000045   0.000055   0.001018
    20  H   -0.016008   0.508599  -0.000005  -0.000232  -0.000576
    21  H    0.000045  -0.000005   0.401695   0.006499  -0.010220
    22  O    0.000055  -0.000232   0.006499   8.058380  -0.005485
    23  H    0.001018  -0.000576  -0.010220  -0.005485   0.640222
 Mulliken atomic charges:
              1
     1  N   -0.318107
     2  H    0.288160
     3  C    0.224540
     4  H    0.363891
     5  C   -0.659233
     6  C   -0.399037
     7  H    0.240497
     8  H    0.171437
     9  C    0.587605
    10  O   -0.543081
    11  C   -0.140342
    12  C   -0.302575
    13  H    0.197939
    14  C   -0.235193
    15  C   -0.320086
    16  H    0.200876
    17  H    0.213085
    18  C   -0.301971
    19  H    0.211868
    20  H    0.184585
    21  H    0.273028
    22  O   -0.225277
    23  H    0.287389
 Sum of Mulliken atomic charges =   0.00000
 Mulliken charges with hydrogens summed into heavy atoms:
              1
     1  N    0.243082
     3  C    0.511929
     5  C   -0.247299
     6  C   -0.399037
     9  C    0.587605
    10  O   -0.543081
    11  C    0.057596
    12  C   -0.101699
    14  C   -0.022108
    15  C   -0.108218
    18  C   -0.117385
    22  O    0.138614
 Sum of Mulliken charges with hydrogens summed into heavy atoms =   0.00000
 Electronic spatial extent (au):  <R**2>=           2287.9220
 Charge=              0.0000 electrons
 Dipole moment (field-independent basis, Debye):
    X=              5.6730    Y=             -3.9858    Z=             -4.8629  Tot=              8.4686
 Quadrupole moment (field-independent basis, Debye-Ang):
   XX=            -83.0548   YY=            -79.2335   ZZ=            -64.8052
   XY=             11.8815   XZ=             15.2553   YZ=             -8.1064
 Traceless Quadrupole moment (field-independent basis, Debye-Ang):
   XX=             -7.3570   YY=             -3.5356   ZZ=             10.8926
   XY=             11.8815   XZ=             15.2553   YZ=             -8.1064
 Octapole moment (field-independent basis, Debye-Ang**2):
  XXX=             85.0875  YYY=            -21.7454  ZZZ=             36.1664  XYY=             34.1839
  XXY=            -18.6726  XXZ=             -8.4408  XZZ=             -8.5476  YZZ=             -7.2656
  YYZ=             14.4861  XYZ=              3.8715
 Hexadecapole moment (field-independent basis, Debye-Ang**3):
 XXXX=          -2230.1476 YYYY=           -466.7424 ZZZZ=           -418.2964 XXXY=            146.0491
 XXXZ=            118.5205 YYYX=             57.8409 YYYZ=            -56.1625 ZZZX=             30.3889
 ZZZY=            -38.3926 XXYY=           -523.4823 XXZZ=           -397.3017 YYZZ=           -148.1795
 XXYZ=            -69.4546 YYXZ=             -7.1976 ZZXY=             23.9443
 N-N= 6.854532596727D+02 E-N=-2.664451094793D+03  KE= 5.528514165282D+02
 No NMR shielding tensors so no spin-rotation constants.
 Leave Link  601 at Tue Apr 19 18:21:28 2016, MaxMem=   33554432 cpu:       1.0
 (Enter c:\G09w01\l701.exe)
 Compute integral first derivatives.
 ... and contract with generalized density number  0.
 D1PCM: C-PCM CHGder 1st derivatives, ID1Alg=3 FixD1E=F DoIter=F DoCFld=F I1PDM=0.
 GePol: Maximum number of non-zero 1st derivatives   =     203
 Leave Link  701 at Tue Apr 19 18:21:50 2016, MaxMem=   33554432 cpu:      22.0
 (Enter c:\G09w01\l702.exe)
 L702 exits ... SP integral derivatives will be done elsewhere.
 Leave Link  702 at Tue Apr 19 18:21:50 2016, MaxMem=   33554432 cpu:       0.0
 (Enter c:\G09w01\l703.exe)
 Compute integral first derivatives, UseDBF=F ICtDFT=           0.
 Integral derivatives from FoFDir, PRISM(SPDF).
 Calling FoFJK, ICntrl=      2127 FMM=F ISym2X=0 I1Cent= 0 IOpClX= 0 NMat=1 NMatS=1 NMatT=0.
 FoFCou: FMM=F IPFlag=           0 FMFlag=      100000 FMFlg1=         800
         NFxFlg=           0 DoJE=F BraDBF=F KetDBF=F FulRan=T
         Omega=  0.000000  0.000000  1.000000  0.000000  0.000000 ICntrl=    2127 IOpCl=  0
         NMat0=    1 NMatS0=    1 NMatT0=    0 NMatD0=    1 NMtDS0=    0 NMtDT0=    0
         I1Cent=           0 NGrid=           0.
 Symmetry not used in FoFCou.
 Leave Link  703 at Tue Apr 19 18:27:34 2016, MaxMem=   33554432 cpu:     344.0
 (Enter c:\G09w01\l716.exe)
 Dipole        = 2.23192999D+00-1.56813616D+00-1.91322122D+00
 -------------------------------------------------------------------
 Center     Atomic                   Forces (Hartrees/Bohr)
 Number     Number              X              Y              Z
 -------------------------------------------------------------------
      1        7          -0.061253382   -0.052040352   -0.002640268
      2        1           0.002594589   -0.000686720    0.001762142
      3        6           0.056298703   -0.104498963    0.001175567
      4        1           0.005425768   -0.002121822    0.001360398
      5        6           0.006058841   -0.005849922   -0.005820948
      6        6          -0.106969102    0.116474168    0.134422187
      7        1          -0.002622725    0.002901520    0.000957755
      8        1          -0.000226963   -0.000035271    0.001629482
      9        6           0.001572987    0.001861959    0.000795100
     10        8           0.077441638   -0.055361737   -0.016494510
     11        6          -0.000368628   -0.000104217   -0.000350563
     12        6          -0.000376497   -0.000711673    0.000431935
     13        1           0.000414153    0.000181284   -0.000328423
     14        6           0.000264512    0.000058247    0.000109009
     15        6          -0.000308324   -0.000150814   -0.000180479
     16        1           0.000160091    0.000075706    0.000053233
     17        1          -0.000177501   -0.000117290    0.000046049
     18        6          -0.000468618   -0.000007836   -0.000376976
     19        1          -0.000172109   -0.000027034   -0.000130832
     20        1          -0.000120489   -0.000017616   -0.000044934
     21        1          -0.002896581   -0.000563276    0.003989765
     22        8          -0.005524191   -0.014256892   -0.026193487
     23        1           0.031253829    0.114998551   -0.094171201
 -------------------------------------------------------------------
 Cartesian Forces:  Max     0.134422187 RMS     0.037525451
 Leave Link  716 at Tue Apr 19 18:27:34 2016, MaxMem=   33554432 cpu:       0.0
 (Enter c:\G09w01\l103.exe)

 GradGradGradGradGradGradGradGradGradGradGradGradGradGradGradGradGradGrad
 Berny optimization.
 Internal  Forces:  Max     0.111802709 RMS     0.018676417
 Search for a local minimum.
 Step number   1 out of a maximum of  124
 All quantities printed in internal units (Hartrees-Bohrs-Radians)
 RMS Force = .18676D-01 SwitMx=.10000D-02 MixMth= 1
 Mixed Optimization -- RFO/linear search
 Second derivative matrix not updated -- first step.
 ITU=  0
     Eigenvalues ---    0.00555   0.00556   0.01289   0.01451   0.02074
     Eigenvalues ---    0.02093   0.02097   0.02119   0.02131   0.02144
     Eigenvalues ---    0.02155   0.02159   0.02170   0.02350   0.02697
     Eigenvalues ---    0.02867   0.03668   0.04249   0.05434   0.07181
     Eigenvalues ---    0.07593   0.10096   0.13343   0.16000   0.16000
     Eigenvalues ---    0.16000   0.16000   0.16000   0.16000   0.16000
     Eigenvalues ---    0.16000   0.20519   0.21999   0.22000   0.22000
     Eigenvalues ---    0.23471   0.23716   0.24997   0.25000   0.25000
     Eigenvalues ---    0.30758   0.30769   0.33652   0.33973   0.34055
     Eigenvalues ---    0.35354   0.35392   0.35481   0.35497   0.35513
     Eigenvalues ---    0.41810   0.41853   0.44910   0.45355   0.45507
     Eigenvalues ---    0.45836   0.46377   0.46760   0.50057   0.50972
     Eigenvalues ---    0.51035   0.53637   0.56943
 RFO step:  Lambda=-8.93215344D-02 EMin= 5.54670273D-03
 Linear search not attempted -- first point.
 Maximum step size (   0.300) exceeded in Quadratic search.
    -- Step size scaled by   0.699
 Iteration  1 RMS(Cart)=  0.03711158 RMS(Int)=  0.00234563
 Iteration  2 RMS(Cart)=  0.00215150 RMS(Int)=  0.00096581
 Iteration  3 RMS(Cart)=  0.00001998 RMS(Int)=  0.00096574
 Iteration  4 RMS(Cart)=  0.00000009 RMS(Int)=  0.00096574
 Variable       Old X    -DE/DX   Delta X   Delta X   Delta X     New X
                                 (Linear)    (Quad)   (Total)
    R1        1.92080  -0.00141   0.00000  -0.00183  -0.00183   1.91897
    R2        2.70310   0.01941   0.00000   0.04183   0.03840   2.74151
    R3        1.91566   0.00283   0.00000   0.00365   0.00365   1.91931
    R4        2.82077   0.05746   0.00000   0.15051   0.15501   2.97577
    R5        2.86457   0.00470   0.00000   0.00828   0.00828   2.87285
    R6        2.53445   0.09810   0.00000   0.10413   0.10413   2.63859
    R7        1.85193   0.11180   0.00000   0.13569   0.13368   1.98561
    R8        1.83064   0.00550   0.00000   0.00615   0.00615   1.83679
    R9        2.07238  -0.00190   0.00000  -0.00309  -0.00309   2.06929
   R10        2.07375  -0.00159   0.00000  -0.00259  -0.00259   2.07116
   R11        2.86477   0.00076   0.00000   0.00134   0.00134   2.86611
   R12        2.58897  -0.09636   0.00000  -0.11248  -0.11248   2.47649
   R13        2.58835  -0.02109   0.00000  -0.02460  -0.02460   2.56375
   R14        2.65115   0.00019   0.00000   0.00026   0.00026   2.65142
   R15        2.64692  -0.00020   0.00000  -0.00024  -0.00024   2.64669
   R16        2.05043   0.00008   0.00000   0.00013   0.00013   2.05057
   R17        2.63087  -0.00041   0.00000  -0.00050  -0.00050   2.63038
   R18        2.64176  -0.00071   0.00000  -0.00091  -0.00091   2.64085
   R19        2.05105  -0.00008   0.00000  -0.00012  -0.00012   2.05092
   R20        2.04900  -0.00018   0.00000  -0.00029  -0.00029   2.04872
   R21        2.64060  -0.00036   0.00000  -0.00048  -0.00048   2.64012
   R22        2.63159   0.00012   0.00000   0.00012   0.00012   2.63171
   R23        2.04876  -0.00018   0.00000  -0.00028  -0.00028   2.04849
   R24        2.04851  -0.00013   0.00000  -0.00020  -0.00020   2.04831
    A1        1.94950  -0.00319   0.00000  -0.00775  -0.00774   1.94175
    A2        1.88738   0.00284   0.00000   0.01016   0.01016   1.89754
    A3        1.94796   0.00058   0.00000   0.00283   0.00283   1.95079
    A4        1.97578   0.01040   0.00000   0.01507   0.01584   1.99162
    A5        2.09727  -0.01265   0.00000  -0.03085  -0.03335   2.06391
    A6        1.28946  -0.00074   0.00000   0.03816   0.03988   1.32934
    A7        2.20581   0.00130   0.00000   0.00864   0.00761   2.21342
    A8        2.14227  -0.01926   0.00000  -0.08340  -0.08430   2.05797
    A9        1.37271   0.01985   0.00000   0.08465   0.08859   1.46130
   A10        1.90510  -0.00383   0.00000  -0.01323  -0.01323   1.89187
   A11        1.86549   0.00051   0.00000   0.00236   0.00236   1.86784
   A12        2.04700   0.00125   0.00000   0.00258   0.00258   2.04958
   A13        1.84055   0.00076   0.00000   0.00263   0.00262   1.84318
   A14        1.90960   0.00173   0.00000   0.00520   0.00520   1.91480
   A15        1.88464  -0.00043   0.00000   0.00071   0.00070   1.88534
   A16        2.10603   0.00408   0.00000   0.00844   0.00839   2.11442
   A17        2.24942  -0.02607   0.00000  -0.05371  -0.05376   2.19567
   A18        1.92771   0.02201   0.00000   0.04538   0.04533   1.97304
   A19        2.10377   0.00029   0.00000   0.00054   0.00054   2.10431
   A20        2.11257  -0.00109   0.00000  -0.00229  -0.00229   2.11028
   A21        2.06674   0.00080   0.00000   0.00173   0.00173   2.06847
   A22        2.08317   0.00074   0.00000   0.00191   0.00191   2.08508
   A23        2.10888  -0.00049   0.00000  -0.00102  -0.00102   2.10786
   A24        2.09114  -0.00025   0.00000  -0.00088  -0.00088   2.09025
   A25        2.10960  -0.00060   0.00000  -0.00131  -0.00131   2.10829
   A26        2.08521   0.00046   0.00000   0.00112   0.00112   2.08632
   A27        2.08837   0.00013   0.00000   0.00019   0.00019   2.08856
   A28        2.09071  -0.00004   0.00000  -0.00017  -0.00017   2.09054
   A29        2.09814  -0.00015   0.00000  -0.00033  -0.00033   2.09781
   A30        2.09433   0.00020   0.00000   0.00051   0.00051   2.09484
   A31        2.09558   0.00006   0.00000   0.00011   0.00011   2.09570
   A32        2.08950  -0.00016   0.00000  -0.00042  -0.00042   2.08908
   A33        2.09809   0.00010   0.00000   0.00031   0.00031   2.09840
   A34        2.08741   0.00038   0.00000   0.00082   0.00082   2.08823
   A35        2.09731  -0.00022   0.00000  -0.00048  -0.00048   2.09683
   A36        2.09846  -0.00017   0.00000  -0.00034  -0.00034   2.09812
   A37        1.92304   0.00422   0.00000   0.01184   0.01184   1.93488
    D1       -1.01626   0.00419   0.00000   0.00084   0.00128  -1.01498
    D2        2.21903   0.01428   0.00000   0.07708   0.07567   2.29470
    D3        1.06510  -0.01803   0.00000  -0.07903  -0.07806   0.98703
    D4       -3.13158   0.00238   0.00000  -0.00876  -0.00832  -3.13990
    D5        0.10371   0.01247   0.00000   0.06749   0.06608   0.16979
    D6       -1.05022  -0.01984   0.00000  -0.08863  -0.08766  -1.13788
    D7       -1.29662   0.00323   0.00000   0.03436   0.03399  -1.26263
    D8        0.68597   0.00253   0.00000   0.03224   0.03187   0.71783
    D9        2.80312   0.00321   0.00000   0.03676   0.03639   2.83951
   D10        1.74433  -0.00845   0.00000  -0.05004  -0.05051   1.69382
   D11       -2.55627  -0.00915   0.00000  -0.05216  -0.05264  -2.60891
   D12       -0.43912  -0.00847   0.00000  -0.04764  -0.04811  -0.48723
   D13       -2.78384   0.00506   0.00000   0.00897   0.00981  -2.77403
   D14       -0.80125   0.00437   0.00000   0.00685   0.00769  -0.79357
   D15        1.31590   0.00505   0.00000   0.01137   0.01221   1.32811
   D16       -0.16036  -0.01076   0.00000  -0.07311  -0.07042  -0.23078
   D17        2.97345  -0.00737   0.00000  -0.05273  -0.05010   2.92335
   D18        3.08825   0.00039   0.00000   0.01405   0.01450   3.10275
   D19       -0.06113   0.00379   0.00000   0.03443   0.03482  -0.02631
   D20        0.95017   0.00963   0.00000   0.05430   0.05124   1.00141
   D21       -2.19921   0.01303   0.00000   0.07468   0.07156  -2.12765
   D22       -1.23940  -0.00162   0.00000  -0.00788  -0.00789  -1.24728
   D23        1.91795  -0.00140   0.00000  -0.00637  -0.00637   1.91158
   D24        2.86259   0.00113   0.00000   0.00371   0.00372   2.86631
   D25       -0.26325   0.00135   0.00000   0.00523   0.00524  -0.25801
   D26        0.86775  -0.00043   0.00000  -0.00245  -0.00245   0.86530
   D27       -2.25809  -0.00021   0.00000  -0.00093  -0.00093  -2.25902
   D28        0.00715  -0.00191   0.00000  -0.01166  -0.01175  -0.00460
   D29       -3.14159   0.00117   0.00000   0.00697   0.00706  -3.13453
   D30        0.00955   0.00003   0.00000   0.00021   0.00021   0.00976
   D31       -3.13172   0.00017   0.00000   0.00110   0.00110  -3.13062
   D32        3.13580  -0.00020   0.00000  -0.00131  -0.00131   3.13449
   D33       -0.00548  -0.00006   0.00000  -0.00041  -0.00041  -0.00589
   D34        3.13343  -0.00018   0.00000  -0.00121  -0.00121   3.13222
   D35       -0.00192  -0.00015   0.00000  -0.00103  -0.00103  -0.00294
   D36        0.00726   0.00004   0.00000   0.00029   0.00029   0.00755
   D37       -3.12808   0.00007   0.00000   0.00047   0.00047  -3.12762
   D38        3.13904  -0.00002   0.00000  -0.00010  -0.00010   3.13894
   D39        0.00053   0.00004   0.00000   0.00025   0.00025   0.00078
   D40       -0.00224   0.00013   0.00000   0.00080   0.00080  -0.00144
   D41       -3.14074   0.00018   0.00000   0.00114   0.00114  -3.13960
   D42       -0.00410   0.00000   0.00000   0.00000   0.00000  -0.00410
   D43       -3.14073   0.00001   0.00000   0.00008   0.00008  -3.14065
   D44        3.13123  -0.00002   0.00000  -0.00017  -0.00017   3.13106
   D45       -0.00539  -0.00001   0.00000  -0.00010  -0.00010  -0.00549
   D46        0.00275   0.00001   0.00000   0.00005   0.00005   0.00280
   D47        3.14110  -0.00002   0.00000  -0.00016  -0.00016   3.14095
   D48       -3.13574   0.00006   0.00000   0.00039   0.00039  -3.13535
   D49        0.00261   0.00003   0.00000   0.00019   0.00019   0.00279
   D50       -0.00099  -0.00003   0.00000  -0.00017  -0.00017  -0.00116
   D51       -3.13933   0.00000   0.00000   0.00003   0.00003  -3.13930
   D52        3.13561  -0.00004   0.00000  -0.00025  -0.00025   3.13537
   D53       -0.00274  -0.00001   0.00000  -0.00004  -0.00004  -0.00278
         Item               Value     Threshold  Converged?
 Maximum Force            0.111803     0.000450     NO 
 RMS     Force            0.018676     0.000300     NO 
 Maximum Displacement     0.225380     0.001800     NO 
 RMS     Displacement     0.037263     0.001200     NO 
 Predicted change in Energy=-4.702048D-02
 GradGradGradGradGradGradGradGradGradGradGradGradGradGradGradGradGradGrad

 Leave Link  103 at Tue Apr 19 18:27:34 2016, MaxMem=   33554432 cpu:       0.0
 (Enter c:\G09w01\l202.exe)
                          Input orientation:                          
 ---------------------------------------------------------------------
 Center     Atomic      Atomic             Coordinates (Angstroms)
 Number     Number       Type             X           Y           Z
 ---------------------------------------------------------------------
      1          7           0       -3.098729   -0.720449   -1.317220
      2          1           0       -2.978345   -0.718711   -2.325532
      3          6           0       -1.885410   -0.300229   -0.641994
      4          1           0       -0.216910    0.469758    1.096375
      5          6           0       -0.669930   -1.156606   -0.958814
      6          6           0       -1.986399    0.673604    0.353519
      7          1           0       -0.788564   -2.123481   -0.458665
      8          1           0       -0.701858   -1.374176   -2.032540
      9          6           0        0.694988   -0.578589   -0.637544
     10          8           0       -3.080131    1.380035    0.502254
     11          6           0        1.222071    0.473664   -1.401450
     12          6           0        1.465721   -1.094169    0.412091
     13          1           0        0.640885    0.880403   -2.222581
     14          6           0        2.479771    0.998645   -1.118485
     15          6           0        2.727805   -0.567102    0.698947
     16          1           0        1.079663   -1.916867    1.005392
     17          1           0        2.872475    1.810075   -1.720741
     18          6           0        3.236786    0.480239   -0.064899
     19          1           0        3.309540   -0.980370    1.514959
     20          1           0        4.216318    0.889336    0.154272
     21          1           0       -3.886589   -0.124229   -1.081957
     22          8           0       -1.014058    1.007368    1.238807
     23          1           0       -2.104524    0.500336   -1.286307
 ---------------------------------------------------------------------
                    Distance matrix (angstroms):
                    1          2          3          4          5
     1  N    0.000000
     2  H    1.015475   0.000000
     3  C    1.450744   2.050350   0.000000
     4  H    3.942957   4.554935   2.529565   0.000000
     5  C    2.493541   2.718170   1.520246   2.659716   0.000000
     6  C    2.443774   3.178021   1.396279   1.929891   2.608634
     7  H    2.835926   3.202142   2.135633   3.077308   1.095021
     8  H    2.585349   2.387021   2.118437   3.664065   1.096013
     9  C    3.856731   4.045036   2.595373   2.221950   1.516681
    10  O    2.779004   3.522992   2.357954   3.062616   3.791877
    11  C    4.483560   4.463091   3.291219   2.882674   2.536410
    12  C    4.895344   5.233094   3.601599   2.396948   2.538560
    13  H    4.167387   3.958104   3.205357   3.452522   2.732169
    14  C    5.840756   5.847846   4.579184   3.529506   3.819845
    15  C    6.167410   6.459923   4.811559   3.147122   3.826263
    16  H    4.927972   5.384986   3.757534   2.717602   2.738098
    17  H    6.497819   6.402548   5.315501   4.390545   4.682986
    18  C    6.568768   6.721295   5.213355   3.643719   4.329062
    19  H    7.011042   7.372607   5.665911   3.835875   4.689008
    20  H    7.633256   7.778073   6.267391   4.551605   5.412971
    21  H    1.015653   1.650695   2.056516   4.308653   3.380511
    22  O    3.723503   4.420666   2.450811   0.971986   3.103344
    23  H    1.574712   1.824728   1.050740   3.039933   2.216025
                    6          7          8          9         10
     6  C    0.000000
     7  H    3.149307   0.000000
     8  H    3.396575   1.745296   0.000000
     9  C    3.120902   2.149329   2.128416   0.000000
    10  O    1.310502   4.295261   4.434753   4.403052   0.000000
    11  C    3.662537   3.417112   2.741221   1.403069   4.791089
    12  C    3.878864   2.626690   3.279180   1.400566   5.176349
    13  H    3.685333   3.765374   2.631007   2.154977   4.638999
    14  C    4.713716   4.567827   4.072903   2.429901   5.803857
    15  C    4.886962   4.015872   4.458136   2.432834   6.128797
    16  H    4.066475   2.382525   3.563336   2.153649   5.331660
    17  H    5.403959   5.519864   4.797138   3.408882   6.368685
    18  C    5.243485   4.810183   4.777383   2.812432   6.405836
    19  H    5.668470   4.690027   5.369465   3.410363   6.886580
    20  H    6.209665   5.873806   5.839014   3.896349   7.321204
    21  H    2.511543   3.739419   3.550842   4.625451   2.328714
    22  O    1.356680   3.568539   4.058439   2.992790   2.224870
    23  H    1.653180   3.049780   2.457261   3.069567   2.219150
                   11         12         13         14         15
    11  C    0.000000
    12  C    2.409646   0.000000
    13  H    1.085113   3.394228   0.000000
    14  C    1.391935   2.784031   2.148141   0.000000
    15  C    2.786054   1.397477   3.871154   2.411669   0.000000
    16  H    3.395263   1.085302   4.293839   3.869286   2.152242
    17  H    2.147504   3.868146   2.469034   1.084134   3.395112
    18  C    2.417744   2.417220   3.399180   1.397090   1.392640
    19  H    3.870036   2.151496   4.955139   3.397065   1.084012
    20  H    3.399789   3.400962   4.293394   2.155796   2.152569
    21  H    5.153441   5.640938   4.775806   6.464728   6.864252
    22  O    3.500867   3.353986   3.838771   4.214706   4.095357
    23  H    3.328694   4.263056   2.925461   4.614350   5.332172
                   16         17         18         19         20
    16  H    0.000000
    17  H    4.953390   0.000000
    18  C    3.397768   2.154761   0.000000
    19  H    2.471647   4.295039   2.152818   0.000000
    20  H    4.293924   2.483817   1.083918   2.483850   0.000000
    21  H    5.677521   7.059357   7.220960   7.698131   8.259096
    22  O    3.604068   4.950596   4.477409   4.766641   5.342937
    23  H    4.608015   5.164752   5.479218   6.273091   6.494584
                   21         22         23
    21  H    0.000000
    22  O    3.862368   0.000000
    23  H    1.899368   2.796855   0.000000
 Symmetry turned off by external request.
 Stoichiometry    C9H11NO2
 Framework group  C1[X(C9H11NO2)]
 Deg. of freedom    63
 Full point group                 C1      NOp   1
 Rotational constants (GHZ):      1.8791844      0.5598309      0.5187732
 Leave Link  202 at Tue Apr 19 18:27:34 2016, MaxMem=   33554432 cpu:       0.0
 (Enter c:\G09w01\l301.exe)
 Standard basis: 6-311++G(d,p) (5D, 7F)
 Ernie: Thresh=  0.10000D-02 Tol=  0.10000D-05 Strict=F.
 Integral buffers will be    262144 words long.
 Raffenetti 2 integral format.
 Two-electron integral symmetry is turned off.
   341 basis functions,   531 primitive gaussians,   353 cartesian basis functions
    44 alpha electrons       44 beta electrons
       nuclear repulsion energy       683.4596011601 Hartrees.
 IExCor=  402 DFT=T Ex+Corr=B3LYP ExCW=0 ScaHFX=  0.200000
 ScaDFX=  0.800000  0.720000  1.000000  0.810000 ScalE2=  1.000000  1.000000
 IRadAn=      0 IRanWt=     -1 IRanGd=            0 ICorTp=0
 NAtoms=   23 NActive=   23 NUniq=   23 SFac= 1.00D+00 NAtFMM=   50 NAOKFM=F Big=F
 ------------------------------------------------------------------------------
 Polarizable Continuum Model (PCM)
 =================================
 Model                : C-PCM.
 Atomic radii         : UFF (Universal Force Field).
 Polarization charges : Total charges.
 Charge compensation  : None.
 Solution method      : Matrix inversion.
 Cavity type          : Scaled VdW (van der Waals Surface) (Alpha=1.100).
 Cavity algorithm     : GePol (No added spheres)
                        Default sphere list used, NSphG=   23.
                        Lebedev-Laikov grids with approx.  5.0 points / Ang**2.
                        Smoothing algorithm: Karplus/York (Gamma=1.0000).
                        Polarization charges: spherical gaussians, with
                                              point-specific exponents (IZeta= 3).
                        Self-potential: point-specific (ISelfS= 7).
                        Self-field    : sphere-specific E.n sum rule (ISelfD= 2).
 1st derivatives      : Analytical E(r).r(x)/FMM algorithm (CHGder, D1EAlg=3).
                        Cavity 1st derivative terms included.
 Solvent              : Water, Eps=  78.355300 Eps(inf)=   1.777849
 ------------------------------------------------------------------------------
 GePol: Number of generator spheres                  =      23
 GePol: Total number of spheres                      =      23
 GePol: Number of exposed spheres                    =      23 (100.00%)
 GePol: Number of points                             =    1774
 GePol: Average weight of points                     =       0.13
 GePol: Minimum weight of points                     =   0.52D-08
 GePol: Maximum weight of points                     =    0.20577
[...]
 .00037536,0.00036071,-0.00194238,0.00100132,0.00559141,0.00025493,0.00
 008382,0.00008254,-0.00084380,-0.00012714,0.00004589,0.00074116,0.0002
 3586,0.00015132,-0.02534457,-0.00882045,0.00220769,-0.00007698,-0.0000
 9267,-0.00004493,-0.10129159,-0.11647050,0.00278577,0.00066573,-0.0030
 6376,-0.00242633,0.01075438,0.00729301,0.00283216,0.16725402,0.4070507
 9,-0.00000486,-0.00011603,-0.00019625,-0.00003689,0.00002168,-0.000006
 78,-0.00030610,0.00032339,0.00002074,0.00053373,-0.00096591,-0.0000754
 1,0.00022553,0.00519608,-0.00094839,0.00049626,0.00007621,0.00011894,0
 .00125890,0.00072753,0.00026194,0.00015353,0.00010292,-0.00016753,0.01
 840338,-0.01383239,0.03896640,-0.00029787,-0.00013919,-0.00000593,-0.0
 2229760,0.02617761,-0.11495684,-0.02997990,-0.00238938,-0.02256552,-0.
 02442844,-0.00909868,-0.00041743,0.08743742,-0.24608205,0.52428416,-0.
 00015603,0.00006490,0.00027681,0.00007575,-0.00000672,0.00002661,-0.00
 060576,-0.00002072,-0.00004949,-0.00169085,0.00168343,-0.00079148,0.00
 267517,-0.00097213,-0.00350307,-0.00081250,-0.00047879,-0.00078662,-0.
 00010864,-0.00014132,0.00028799,-0.00132882,-0.00016810,0.00016419,-0.
 02779241,0.02886010,-0.06015487,0.00053582,0.00026176,0.00011936,-0.04
 109446,-0.02905291,0.01508582,-0.28726907,-0.09845676,-0.02265423,-0.0
 0066634,-0.00027811,0.00065411,0.05626969,0.00804882,0.02249710,0.5982
 9015,-0.00013283,0.00013530,0.00015982,-0.00001305,0.00002437,-0.00002
 075,-0.00100615,-0.00022661,-0.00032242,-0.00071538,0.00124185,-0.0008
 2017,-0.00112938,0.00310429,0.00477606,-0.00051697,-0.00039696,-0.0004
 9808,0.00003890,0.00003811,-0.00014087,0.00097570,0.00008856,0.0006415
 9,0.00312802,0.03265370,-0.03189106,0.00034265,0.00016926,0.00004578,-
 0.02873829,-0.02603700,0.00848080,-0.06191137,-0.11697507,0.02616891,-
 0.00018525,-0.00091475,-0.00045202,0.03320925,-0.00791450,0.04272765,0
 .12860266,0.38500334,-0.00061444,0.00021679,0.00006678,0.00001247,0.00
 001793,0.00001593,-0.00040536,-0.00084345,-0.00067635,-0.00010011,0.00
 013133,0.00006967,-0.00268460,0.00547119,0.00036077,-0.00016812,-0.000
 19560,-0.00029293,-0.00005468,-0.00012104,0.00011355,0.00047218,-0.000
 06362,-0.00007319,-0.02625004,-0.01583646,0.00797486,0.00001495,0.0000
 2539,0.00005473,0.01413459,0.00819704,-0.00613321,-0.06908954,0.003317
 19,-0.11381351,0.00055106,-0.00048569,-0.00007430,-0.01121863,0.025853
 11,-0.03417682,0.14041100,-0.23826190,0.54370072,0.00003953,-0.0000107
 9,0.00001035,-0.00000801,0.00000421,-0.00000925,-0.00014398,-0.0000346
 0,-0.00018471,-0.00005388,0.00025961,-0.00012321,0.00036319,0.00235940
 ,0.00023702,-0.00024724,0.00005567,0.00006256,-0.00006440,-0.00029523,
 0.00000095,0.00022322,-0.00010048,0.00021545,0.00842885,0.01094119,-0.
 01060491,0.00014677,0.00001483,-0.00007797,-0.00033833,-0.00041748,-0.
 00429283,-0.09864681,-0.08020560,0.06298010,0.00047151,0.00052854,-0.0
 0059910,-0.00087591,0.00041117,-0.00031329,-0.00716447,-0.02019206,0.0
 1905586,0.10156171,0.00017500,-0.00010286,-0.00004869,0.00000493,-0.00
 001104,-0.00000043,0.00025441,0.00030103,0.00013412,-0.00004222,-0.000
 56902,0.00056174,0.00076135,-0.00174977,-0.00262651,0.00031867,0.00013
 211,0.00032721,0.00043284,0.00039862,-0.00006879,-0.00040910,0.0002050
 4,-0.00028047,-0.00574126,-0.00439279,0.00546184,-0.00013115,-0.000054
 19,-0.00002436,0.00009526,0.00397404,0.00351946,-0.07983048,-0.1741915
 0,0.12429590,-0.00035834,-0.00012520,0.00039035,0.00054107,-0.00040926
 ,-0.00060961,-0.00264657,-0.00330115,0.00697296,0.08888069,0.17797397,
 0.00002513,-0.00003965,-0.00000443,0.00000774,-0.00000182,-0.00000229,
 0.00002208,0.00002556,0.00030153,0.00021463,-0.00006659,-0.00004498,0.
 00269051,-0.00105858,-0.00065294,-0.00006901,0.00009242,0.00008465,-0.
 00079388,-0.00058488,0.00030197,-0.00031608,-0.00009491,0.00004413,0.0
 1056702,0.01655047,-0.01124985,-0.00001746,-0.00002481,-0.00002427,-0.
 00475698,0.00340348,-0.00083089,0.06237678,0.12405739,-0.15540842,0.00
 054298,0.00089578,-0.00054976,-0.00043683,-0.00073823,-0.00047620,-0.0
 0359005,-0.00461083,0.00686376,-0.06513161,-0.13715776,0.15937270,-0.0
 0014219,0.00004036,-0.00000105,0.00000808,0.00000054,0.00000775,0.0001
 1093,-0.00011524,0.00003847,0.00011601,-0.00008270,-0.00012139,0.00000
 529,-0.00082836,0.00110675,0.00014059,-0.00002917,-0.00016389,-0.00047
 855,-0.00015249,-0.00000794,0.00003924,0.00003277,-0.00004375,-0.00336
 570,-0.00296766,-0.00352233,-0.00012146,0.00000253,0.00009037,-0.00761
 474,-0.02005217,0.01919691,-0.00081807,0.00045747,-0.00045328,0.000454
 55,0.00176940,0.00092755,-0.10110301,-0.08104873,0.06535949,-0.0001834
 9,-0.00055314,-0.00416491,-0.00007260,0.00023594,0.00033489,0.10226217
 ,-0.00011707,0.00002661,-0.00001745,0.00000158,0.00000233,0.00000484,0
 .00009382,-0.00014839,0.00003497,0.00005894,-0.00007690,-0.00011516,0.
 00014029,-0.00003358,0.00044351,0.00012256,-0.00000692,-0.00008908,-0.
 00008241,-0.00011942,-0.00006447,-0.00005143,-0.00001231,-0.00005198,-
 0.00358373,0.00451766,0.00197492,-0.00008793,0.00000305,0.00005687,-0.
 00264510,-0.00296303,0.00720669,0.00034209,-0.00031493,-0.00073128,0.0
 0139543,-0.00199786,-0.00215307,-0.08133009,-0.17223131,0.12422575,-0.
 00008874,0.00431311,0.00376405,0.00024278,-0.00062324,-0.00039999,0.08
 983812,0.17443485,0.00001862,0.00000053,-0.00001715,-0.00000578,0.0000
 0034,-0.00000197,0.00003742,-0.00003273,-0.00001315,-0.00009069,0.0000
 3085,0.00005361,-0.00015598,-0.00009740,0.00024589,-0.00005412,0.00000
 226,0.00004482,0.00000539,-0.00007989,-0.00004442,0.00003535,0.0000084
 0,-0.00002160,-0.00295160,0.00178772,0.00322835,0.00004892,-0.00000004
 ,-0.00003099,-0.00381308,-0.00426585,0.00689485,-0.00051712,-0.0007030
 1,-0.00047191,0.00139661,-0.00196234,-0.00074424,0.06534462,0.12442203
 ,-0.15974582,-0.00473329,0.00354406,-0.00076831,0.00033530,-0.00037645
 ,-0.00031914,-0.06819072,-0.13750342,0.16316433,-0.00031970,0.00010712
 ,0.00003546,0.00002778,-0.00000128,0.00001721,0.00024656,-0.00051598,0
 .00039739,-0.00006816,-0.00030698,-0.00057846,-0.00086050,0.00052658,-
 0.00096655,0.00028644,-0.00006047,-0.00055193,0.00006696,0.00001750,0.
 00000225,-0.00032475,-0.00011974,0.00023594,0.00044209,0.00539470,-0.0
 0113753,-0.00030342,0.00002326,0.00030453,-0.02828058,0.00241769,-0.02
 755026,-0.01581393,-0.02661870,0.01929070,-0.00342259,-0.00414849,-0.0
 0195328,-0.17337228,0.03355505,-0.11794787,-0.15429160,-0.09233102,0.0
 6086116,-0.00367864,-0.00347038,-0.00276887,0.01036911,-0.00534170,0.0
 1172470,0.65226633,-0.00004065,-0.00006190,-0.00017204,-0.00001885,0.0
 0000165,-0.00000081,0.00047157,0.00015441,0.00012672,0.00072164,-0.001
 16466,-0.00006784,0.00056199,-0.00052873,0.00005256,0.00071061,0.00021
 199,0.00014898,0.00008699,0.00011575,-0.00008652,-0.00004195,-0.000039
 69,-0.00041753,0.00452924,-0.02637729,0.03039238,-0.00046539,-0.000149
 95,0.00007233,0.02799484,0.03290248,-0.01574564,-0.05202494,-0.0086090
 8,-0.01328000,-0.00466395,0.00383810,0.00193659,-0.00185539,-0.1150034
 1,0.06585294,-0.05676758,-0.18763416,0.12324580,-0.00312884,0.00439147
 ,0.00192737,0.01183737,-0.00274444,0.01659015,0.17241547,0.38232314,-0
 .00012649,0.00004863,0.00022379,0.00004375,0.00000319,0.00000838,-0.00
 034172,-0.00022731,0.00007678,-0.00053285,0.00129129,-0.00050922,-0.00
 058057,-0.00043693,-0.00179465,-0.00039645,-0.00020873,-0.00035475,-0.
 00013946,-0.00018611,0.00014024,-0.00044322,-0.00023023,0.00068963,-0.
 00106558,0.03045953,-0.04708829,0.00020784,0.00018209,0.00008399,-0.06
 129160,-0.03223518,0.00948984,0.05324817,0.00310558,0.03778179,-0.0012
 8488,0.00230691,0.00358871,-0.07074498,0.08966758,-0.23136453,0.014042
 68,0.09977955,-0.18561399,-0.00336260,0.00150103,0.00313272,-0.0113730
 3,0.00512199,-0.01041238,0.12020567,-0.20818331,0.49231780,-0.00023892
 ,0.00008563,0.00001734,0.00001804,-0.00000641,0.00001220,0.00002815,-0
 .00029298,-0.00005974,0.00015937,-0.00011832,-0.00013179,-0.00018044,0
 .00069695,-0.00097073,0.00016833,-0.00002640,-0.00017648,0.00003291,0.
 00001245,0.00008087,-0.00030158,-0.00009365,-0.00010496,-0.00318801,-0
 .00446708,-0.00101981,-0.00013856,0.00000103,0.00010380,-0.00062933,-0
 .00027210,0.00071859,-0.01051079,0.01103450,-0.02376317,-0.00009847,0.
 00040645,0.00013552,0.00072585,-0.00382314,0.00052995,-0.12912334,0.04
 262800,-0.11690195,0.00046291,0.00129374,0.00135447,0.00033047,-0.0002
 7970,0.00057217,0.01043259,-0.00542906,0.01145047,0.13208943,-0.000031
 83,0.00002698,0.00002736,0.00000626,0.00000096,0.00000548,-0.00012499,
 -0.00005649,-0.00002987,-0.00002820,-0.00001936,0.00001659,-0.00009820
 ,0.00034729,-0.00027296,-0.00002017,-0.00000463,-0.00001661,0.00001880
 ,-0.00002708,-0.00000722,-0.00000726,0.00001782,-0.00003906,-0.0041767
 4,0.00362997,0.00194226,0.00000565,0.00000585,0.00000533,-0.00033881,-
 0.00097619,-0.00042604,-0.00640438,0.00707402,-0.00894520,0.00041080,-
 0.00056406,-0.00045019,-0.00429384,0.00155005,0.00490131,0.04256808,-0
 .07956432,0.08325488,0.00169861,-0.00177635,-0.00184776,0.00058325,-0.
 00025843,0.00083424,0.01208867,-0.00268612,0.01665312,-0.04317130,0.07
 499165,-0.00009005,0.00003160,0.00001432,0.00000711,0.00000227,0.00000
 678,-0.00004772,-0.00008876,0.00000883,0.00012178,-0.00013594,-0.00009
 034,0.00021319,0.00030465,-0.00008290,0.00013051,0.00000750,-0.0000774
 9,-0.00001053,-0.00002397,-0.00000536,-0.00005954,0.00002099,-0.000045
 81,-0.00180126,0.00203970,0.00355590,-0.00009890,-0.00000253,0.0000581
 4,0.00062864,-0.00048940,-0.00006198,-0.00067640,0.00253161,-0.0002227
 3,0.00014033,-0.00046973,-0.00040773,0.00110425,0.00516774,0.00143911,
 -0.11703657,0.08315746,-0.22467607,0.00085729,-0.00205929,-0.00078921,
 -0.00056804,0.00021735,-0.00062812,-0.01138877,0.00509105,-0.01038551,
 0.12752095,-0.09317924,0.23299343,-0.00009801,0.00000821,-0.00001161,0
 .00000248,0.00000348,0.00000405,0.00003375,-0.00003530,-0.00000746,0.0
 0014713,-0.00008834,-0.00009968,-0.00016599,0.00029640,0.00024220,0.00
 014411,-0.00001045,-0.00008252,-0.00001977,-0.00001005,0.00001759,0.00
 001756,-0.00000705,0.00002823,0.00032643,0.00050565,0.00022456,-0.0001
 0369,-0.00000080,0.00005303,0.00129389,-0.00006176,-0.00379097,0.00197
 902,-0.00319589,0.00053219,-0.00065000,-0.00035364,-0.00000046,-0.0103
 1332,-0.00667244,-0.00051887,-0.00728050,-0.00256788,-0.00396892,-0.00
 049801,-0.00010874,-0.00024683,0.00017510,0.00141721,0.00093963,-0.293
 31647,-0.09372183,-0.04851655,0.00009495,0.00131313,0.00116751,0.30832
 275,0.00000045,0.00000137,0.00001275,0.00000792,-0.00000536,0.00000243
 ,0.00002965,-0.00000565,0.00003656,0.00004597,-0.00008148,0.00001317,0
 .00040702,-0.00043214,-0.00052979,0.00003755,0.00002378,0.00001634,0.0
 0003714,0.00002047,0.00001960,-0.00012494,0.00002829,-0.00015676,0.000
 37864,-0.00091975,0.00020880,-0.00003006,-0.00000425,0.00001823,-0.000
 54951,0.00348131,0.00441303,-0.00280839,0.00171362,0.00583103,0.000529
 19,0.00021890,0.00014601,0.01075149,0.00715011,0.00241347,-0.01995997,
 -0.00295223,-0.00470718,-0.00098598,-0.00024930,-0.00018835,0.00097559
 ,-0.00181611,-0.00222760,-0.09368384,-0.07971152,-0.00744484,0.0017445
 0,-0.00169039,-0.00214410,0.10326825,0.07521385,0.,-0.00001788,0.00001
 176,0.00000765,0.00000074,0.00000072,0.00003414,0.00002653,0.00006134,
 -0.00003000,0.00002725,-0.00002081,0.00032987,-0.00045841,-0.00020581,
 -0.00002380,-0.00001452,-0.00002469,-0.00008138,-0.00004894,0.00001733
 ,-0.00004543,0.00003653,-0.00006787,0.00021471,0.00017442,-0.00105708,
 -0.00000299,0.00001137,0.00001856,-0.00332872,0.00465634,-0.00133100,-
 0.00007408,0.00551679,0.00023951,-0.00116186,-0.00041414,-0.00017585,-
 0.02340861,-0.00928306,0.00008716,0.01897786,0.00699741,0.00716383,0.0
 0091932,0.00037578,0.00021230,0.00150673,-0.00194930,-0.00039196,-0.04
 851639,-0.00742547,-0.06041952,0.00060033,-0.00242215,-0.00062295,0.05
 402046,0.00426464,0.05647946,-0.28059424,0.16221138,0.05668429,-0.0015
 0219,0.00209158,-0.00076201,-0.02634413,0.01851483,0.00407126,-0.00022
 489,0.00015026,0.00007169,-0.00349159,-0.00375734,-0.00178175,-0.00203
 443,0.00047845,-0.00011374,0.00008290,0.00000646,-0.00011865,0.0002662
 4,-0.00030157,0.00000965,-0.00017336,0.00144795,-0.00017994,0.00172959
 ,0.00033441,0.00157873,-0.00008100,0.00000575,-0.00010793,-0.00032008,
 -0.00020250,0.00009582,0.00001946,-0.00000363,0.00004198,0.00004569,-0
 .00005007,0.00001190,-0.00002976,-0.00005135,-0.00012465,0.00000234,0.
 00004057,0.00001877,-0.00002133,-0.00001188,0.00000491,-0.00005784,0.0
 0002629,-0.00002634,-0.00003784,-0.00002040,-0.00001837,-0.00001214,0.
 00000058,0.00000433,0.31126543,0.20364574,-0.15487137,-0.07015712,-0.0
 0198292,-0.00335990,0.00405301,-0.01921643,0.00457157,0.00477401,-0.00
 001260,0.00003881,0.00006109,0.00041821,-0.00024020,-0.00082901,0.0001
 1713,0.00108390,-0.00165891,-0.00035173,0.00017778,-0.00011322,-0.0002
 8714,0.00012367,0.00021336,-0.00031305,0.00028045,-0.00010670,-0.00058
 270,-0.00161667,-0.00074034,0.00003987,0.00006883,0.00000393,0.0000384
 5,0.00009141,0.00004776,0.00002166,-0.00002178,-0.00001500,0.00005036,
 0.00004724,0.00000296,-0.00001574,-0.00008865,0.00000404,-0.00001765,0
 .00001223,0.00001505,0.00001118,0.00000802,0.00000477,-0.00001682,0.00
 003107,-0.00003841,0.00001212,-0.00000457,-0.00000401,0.00000353,0.000
 00021,-0.00000079,-0.18120675,0.15322493,0.04527260,-0.05193587,-0.065
 33983,0.03301858,-0.02299123,-0.00757670,-0.01100515,0.01244146,0.0031
 9441,-0.00002043,0.00019145,0.00026550,-0.00403532,-0.00186757,-0.0018
 9198,-0.00675857,-0.00071599,-0.00022119,0.00024256,-0.00010442,0.0000
 2034,0.00009953,-0.00018229,0.00012975,-0.00048932,0.00111674,0.000351
 74,0.00276527,0.00002139,0.00043426,-0.00008852,-0.00006040,-0.0000809
 8,-0.00024362,-0.00022122,-0.00004537,0.00000522,0.00004088,0.00004230
 ,-0.00000388,-0.00007855,-0.00003202,0.00002652,-0.00004118,-0.0001248
 7,-0.00000019,0.00005553,0.00001330,-0.00002962,-0.00002169,0.00000331
 ,-0.00007571,-0.00002892,0.00001168,-0.00004329,0.00000147,-0.00001419
 ,-0.00001743,0.00000498,0.00000535,-0.06080081,0.06424134,0.07022709,0
 .00173394,-0.00085408,-0.00221999,-0.00002632,-0.00017212,-0.00029658,
 -0.00005173,-0.00286610,-0.00357778,-0.35939941,0.05423113,0.20094253,
 -0.00226750,-0.00069013,-0.00255006,-0.15428162,-0.05126286,-0.0921129
 7,0.00019403,-0.00039997,0.00014601,0.00085959,-0.00081371,-0.00004990
 ,-0.00616555,0.00396660,0.00414696,-0.11994661,-0.02454153,-0.01696657
 ,0.00203243,0.00279487,-0.00136343,-0.00042681,0.00090756,0.00353484,0
 .00002283,-0.00015989,0.00021988,-0.00115798,-0.00024678,-0.00076212,0
 .00150378,0.00094026,0.00023177,0.00005040,-0.00023659,-0.00012343,-0.
 00008290,-0.00007613,0.00004594,-0.00014802,-0.00107160,0.00075625,-0.
 00010589,0.00002457,-0.00010602,-0.00009439,-0.00006251,0.00001770,0.0
 0087420,0.00021803,0.00213669,0.63680339,0.00036687,0.00012226,-0.0044
 3456,-0.00127856,0.00015756,-0.00029311,-0.01160207,0.00954941,-0.0099
 8493,0.03740453,-0.02336421,-0.03954497,-0.00128495,0.00151811,0.00195
 537,-0.02626623,-0.08215079,-0.06870049,0.00019320,-0.00017212,0.00030
 687,-0.00000710,0.00009374,-0.00003472,0.00130333,-0.00147252,-0.00192
 906,-0.02161138,0.01304453,0.00616300,-0.00052703,-0.00039980,0.000251
 95,0.00116927,-0.00021087,-0.00056808,-0.00004382,-0.00001940,0.000029
 05,0.00081545,0.00011944,0.00042325,-0.00059768,-0.00052493,-0.0000121
 6,0.00000981,0.00014812,-0.00004581,0.00003716,0.00003057,-0.00000607,
 0.00013526,0.00053205,-0.00053904,0.00004935,-0.00000053,0.00003987,0.
 00002511,0.00003200,-0.00000182,0.00018920,0.00009175,0.00065455,0.020
 60550,0.08312440,0.00306643,-0.00312653,-0.00949889,-0.00251525,-0.001
 08527,-0.00056631,-0.02971375,-0.01604068,-0.01322723,0.16217508,-0.04
 386846,-0.14447172,-0.00134393,0.00146930,-0.00064203,-0.03498581,-0.0
 6137292,-0.18608692,0.00024034,-0.00056575,0.00030705,0.00081272,-0.00
 041250,-0.00016259,0.00200725,-0.00317213,-0.00242744,-0.00899946,0.00
 765410,0.03382591,0.00014566,-0.00051247,0.00018374,-0.00077696,0.0006
 4646,-0.00059707,-0.00008440,-0.00007109,0.00006834,-0.00018213,-0.000
 14826,0.00006941,0.00068349,0.00058250,0.00004643,0.00001924,-0.000330
 32,0.00002772,0.00006721,0.00005357,-0.00001955,0.00040039,-0.00003511
 ,0.00033345,0.00008044,0.00000141,0.00003785,0.00003000,-0.00001031,0.
 00001850,0.00080624,0.00035197,0.00058207,-0.09110355,0.12036976,0.321
 88016,-0.01964372,-0.02952206,0.00576302,0.00111323,0.00192973,0.00082
 865,-0.06003228,-0.05370225,0.03398646,0.00024325,-0.00006963,-0.00008
 822,0.00276179,0.02155609,-0.01281948,-0.00249147,-0.00652820,0.007211
 39,-0.00341276,0.00343996,0.00054692,0.00100671,-0.00095799,0.00026545
 ,0.00128366,0.00049450,-0.00033206,-0.00002962,0.00150916,0.00036850,-
 0.00012589,0.00025947,-0.00044635,-0.00020054,-0.00007801,-0.00030322,
 -0.00094014,0.00014044,0.00078509,-0.00032675,-0.00029807,-0.00001340,
 0.00024768,0.00017868,0.00000092,0.00004184,-0.00005964,0.00009605,-0.
 00000750,0.00004311,0.00000281,0.00012063,-0.00012598,0.00027147,0.000
 01018,-0.00000171,0.00001061,0.00001513,-0.00000876,0.00004016,0.00063
 896,-0.00057275,0.00004487,0.00008014,0.00091478,-0.00082924,0.0796474
 8,-0.01357265,-0.01086588,-0.00083976,-0.00006891,0.00135162,-0.000133
 49,-0.05054725,-0.20160571,0.09611306,0.00025350,-0.00017975,0.0003622
 5,-0.00141841,-0.02116421,0.01378038,0.00112852,0.00868269,-0.00225889
 ,0.00312150,-0.00237417,-0.00092950,-0.00081426,0.00101039,-0.00032697
 ,-0.00181021,0.00038040,-0.00049342,0.00208231,-0.00226727,-0.00059857
 ,-0.00026681,0.00018372,0.00034930,0.00060377,0.00014708,0.00062445,0.
 00012093,0.00008927,-0.00040633,0.00036060,0.00032389,0.00006048,-0.00
 043792,-0.00024154,0.00005542,-0.00001781,0.00001903,-0.00010758,0.000
 00801,0.00001066,0.00002945,-0.00006590,0.00020881,-0.00039040,0.00001
 541,-0.00001609,-0.00001483,-0.00000678,-0.00001574,-0.00005132,0.0001
 0777,0.00035127,-0.00052046,-0.00023452,-0.00024876,-0.00037727,0.0614
 5912,0.22622029,-0.01064722,-0.01636106,0.00820467,0.00028596,-0.00020
 868,0.00185790,0.03439172,0.10029829,-0.11391460,-0.00010098,0.0003566
 3,-0.00071136,-0.00077865,-0.00102970,0.00171042,0.00941383,0.03095289
 ,-0.01665682,0.00023538,-0.00059993,0.00095098,-0.00050584,-0.00000115
 ,0.00064208,0.00014013,0.00044603,0.00026686,0.00279814,-0.00554264,-0
 .00270281,-0.00005232,-0.00014037,-0.00003256,-0.00009045,0.00005147,0
 .00000674,0.00061700,0.00000324,-0.00018242,-0.00001786,-0.00007429,-0
 .00011241,0.00004614,-0.00000231,-0.00000749,0.00000622,-0.00001322,-0
 .00000237,0.00000383,-0.00000762,-0.00000442,-0.00003977,0.00000633,0.
 00006404,-0.00000518,-0.00000714,-0.00000396,0.00000186,0.00000786,0.0
 0000171,0.00063461,-0.00010977,0.00004605,-0.00094616,-0.00409885,0.00
 031911,-0.03539039,-0.10392601,0.12026068||-0.00000677,0.00001109,-0.0
 0001511,-0.00000023,0.00000839,-0.00000147,0.00001409,0.00001366,0.000
 00265,-0.00000389,0.00000193,0.00000068,-0.00001138,0.00000676,0.00000
 927,-0.00001687,-0.00000051,-0.00001576,-0.00000423,0.00000173,-0.0000
 0287,-0.00000015,0.00000172,-0.00000360,0.00000406,0.00001388,-0.00001
 058,0.00000436,0.00000690,-0.00000071,-0.00001021,-0.00001298,0.000005
 56,0.00000709,-0.00000901,0.00000518,0.00000556,0.00000116,0.00000082,
 0.00001714,-0.00000714,0.00001042,-0.00001375,-0.00001520,0.00000632,-
 0.00000815,-0.00000195,-0.00000012,0.00000504,-0.00000602,0.00000479,-
 0.00000037,-0.00000067,-0.00000455,-0.00000333,-0.00000998,0.00000278,
 0.00000243,-0.00001239,0.00000540,0.00000139,0.00000885,-0.00000351,0.
 00001909,0.00000261,0.00000702,-0.00000092,-0.00000282,-0.00000261|||@


 THERE IS SOMETHING FASCINATING ABOUT SCIENCE.
 ONE GETS SUCH WHOLESALE CONJECTURE OUT OF SUCH TRIFLING INVESTMENTS.

                                                       -- MARK TWAIN
 Job cpu time:  0 days  2 hours  0 minutes 13.0 seconds.
 File lengths (MBytes):  RWF=    286 Int=      0 D2E=      0 Chk=     14 Scr=      1
 Normal termination of Gaussian 09 at Wed Apr 20 02:06:35 2016.
