 Entering Link 1 = c:\G09w04\l1.exe PID=      6584.
  
 Copyright (c) 1988,1990,1992,1993,1995,1998,2003,2009,2010,
            Gaussian, Inc.  All Rights Reserved.
  
 This is part of the Gaussian(R) 09 program.  It is based on
 the Gaussian(R) 03 system (copyright 2003, Gaussian, Inc.),
 the Gaussian(R) 98 system (copyright 1998, Gaussian, Inc.),
 the Gaussian(R) 94 system (copyright 1995, Gaussian, Inc.),
 the Gaussian 92(TM) system (copyright 1992, Gaussian, Inc.),
 the Gaussian 90(TM) system (copyright 1990, Gaussian, Inc.),
 the Gaussian 88(TM) system (copyright 1988, Gaussian, Inc.),
 the Gaussian 86(TM) system (copyright 1986, Carnegie Mellon
 University), and the Gaussian 82(TM) system (copyright 1983,
 Carnegie Mellon University). Gaussian is a federally registered
 trademark of Gaussian, Inc.
  
 This software contains proprietary and confidential information,
 including trade secrets, belonging to Gaussian, Inc.
  
 This software is provided under written license and may be
 used, copied, transmitted, or stored only in accord with that
 written license.
  
 The following legend is applicable only to US Government
 contracts under FAR:
  
                    RESTRICTED RIGHTS LEGEND
  
 Use, reproduction and disclosure by the US Government is
 subject to restrictions as set forth in subparagraphs (a)
 and (c) of the Commercial Computer Software - Restricted
 Rights clause in FAR 52.227-19.
  
 Gaussian, Inc.
 340 Quinnipiac St., Bldg. 40, Wallingford CT 06492
  
  
 ---------------------------------------------------------------
 Warning -- This program may not be used in any manner that
 competes with the business of Gaussian, Inc. or will provide
 assistance to any competitor of Gaussian, Inc.  The licensee
 of this program is prohibited from giving any competitor of
 Gaussian, Inc. access to this program.  By using this program,
 the user acknowledges that Gaussian, Inc. is engaged in the
 business of creating and licensing software in the field of
 computational chemistry and represents and warrants to the
 licensee that it is not a competitor of Gaussian, Inc. and that
 it will not use this program in any manner prohibited above.
 ---------------------------------------------------------------
  

 Cite this work as:
 Gaussian 09, Revision B.01,
 M. J. Frisch, G. W. Trucks, H. B. Schlegel, G. E. Scuseria, 
 M. A. Robb, J. R. Cheeseman, G. Scalmani, V. Barone, B. Mennucci, 
 G. A. Petersson, H. Nakatsuji, M. Caricato, X. Li, H. P. Hratchian, 
 A. F. Izmaylov, J. Bloino, G. Zheng, J. L. Sonnenberg, M. Hada, 
 M. Ehara, K. Toyota, R. Fukuda, J. Hasegawa, M. Ishida, T. Nakajima, 
 Y. Honda, O. Kitao, H. Nakai, T. Vreven, J. A. Montgomery, Jr., 
 J. E. Peralta, F. Ogliaro, M. Bearpark, J. J. Heyd, E. Brothers, 
 K. N. Kudin, V. N. Staroverov, T. Keith, R. Kobayashi, J. Normand, 
 K. Raghavachari, A. Rendell, J. C. Burant, S. S. Iyengar, J. Tomasi, 
 M. Cossi, N. Rega, J. M. Millam, M. Klene, J. E. Knox, J. B. Cross, 
 V. Bakken, C. Adamo, J. Jaramillo, R. Gomperts, R. E. Stratmann, 
 O. Yazyev, A. J. Austin, R. Cammi, C. Pomelli, J. W. Ochterski, 
 R. L. Martin, K. Morokuma, V. G. Zakrzewski, G. A. Voth, 
 P. Salvador, J. J. Dannenberg, S. Dapprich, A. D. Daniels, 
 O. Farkas, J. B. Foresman, J. V. Ortiz, J. Cioslowski, 
 and D. J. Fox, Gaussian, Inc., Wallingford CT, 2010.
 
 ******************************************
 Gaussian 09:  IA32W-G09RevB.01 12-Aug-2010
                18-Apr-2016 
 ******************************************
 %chk=Phe-S-opt-freq-cpcm-w-pa2-6-311++gdp.chk
 -----------------------------------------------------------------
 #p opt freq rb3lyp/6-311++g(d,p) scrf=(cpcm,solvent=water) nosymm
 -----------------------------------------------------------------
 1/14=-1,18=20,19=15,26=3,38=1/1,3;
 2/9=110,12=2,15=1,17=6,18=5,40=1/2;
 3/5=4,6=6,7=1111,11=2,16=1,25=1,30=1,70=2101,71=1,72=1,74=-5,116=1/1,2,3;
 4//1;
 5/5=2,38=5,53=1/2;
 6/7=2,8=2,9=2,10=2,28=1/1;
 7/30=1/1,2,3,16;
 1/14=-1,18=20,19=15/3(2);
 2/9=110,15=1/2;
 99//99;
 2/9=110,15=1/2;
 3/5=4,6=6,7=1111,11=2,16=1,25=1,30=1,70=2105,71=1,72=1,74=-5,116=1/1,2,3;
 4/5=5,16=3/1;
 5/5=2,38=5,53=1/2;
 7/30=1/1,2,3,16;
 1/14=-1,18=20,19=15/3(-5);
 2/9=110,15=1/2;
 6/7=2,8=2,9=2,10=2,19=2,28=1/1;
 99/9=1/99;
 Leave Link    1 at Mon Apr 18 09:25:43 2016, MaxMem=          0 cpu:       1.0
 (Enter c:\G09w04\l101.exe)
 ------------------------------------
 Phe-S-opt-freq-cpcm-w-pa2-6-311++gdp
 ------------------------------------
 Symbolic Z-matrix:
 Charge =  0 Multiplicity = 1
 N                    -3.01625  -1.3186   -0.6235 
 H                    -3.17417  -1.10458  -1.60842 
 C                    -1.79989  -0.74299  -0.10001 
 H                    -1.10595  -0.17132   1.30594 
 C                    -0.59546  -1.22841  -0.9333 
 C                    -1.80936   0.64137   0.31287 
 H                    -0.59818  -2.31968  -0.86415 
 H                    -0.7892   -0.98527  -1.99003 
 C                     0.77382  -0.70341  -0.56654 
 O                    -2.55866   1.61167  -0.15751 
 C                     1.29865   0.43323  -1.19223 
 C                     1.5524   -1.34904   0.40217 
 H                     0.71575   0.93909  -1.95579 
 C                     2.56117   0.92087  -0.85237 
 C                     2.81568  -0.86797   0.74383 
 H                     1.16537  -2.23781   0.89077 
 H                     2.95052   1.80228  -1.35006 
 C                     3.32369   0.27177   0.11856 
 H                     3.405    -1.38465   1.49348 
 H                     4.30685   0.64608   0.38114 
 H                    -3.83627  -1.03121  -0.10229 
 O                    -1.06988   0.80656   1.35933 
 H                    -2.5683    2.3691    0.45063 
 
 NAtoms=     23 NQM=     23 NQMF=      0 NMic=      0 NMicF=      0 NTot=     23.
                    Isotopes and Nuclear Properties:
 (Nuclear quadrupole moments (NQMom) in fm**2, nuclear magnetic moments (NMagM)
  in nuclear magnetons)

  Atom         1           2           3           4           5           6           7           8           9          10
 IAtWgt=          14           1          12           1          12          12           1           1          12          16
 AtmWgt=  14.0030740   1.0078250  12.0000000   1.0078250  12.0000000  12.0000000   1.0078250   1.0078250  12.0000000  15.9949146
 NucSpn=           2           1           0           1           0           0           1           1           0           0
 AtZEff=   0.0000000   0.0000000   0.0000000   0.0000000   0.0000000   0.0000000   0.0000000   0.0000000   0.0000000   0.0000000
 NQMom=    2.0440000   0.0000000   0.0000000   0.0000000   0.0000000   0.0000000   0.0000000   0.0000000   0.0000000   0.0000000
 NMagM=    0.4037610   2.7928460   0.0000000   2.7928460   0.0000000   0.0000000   2.7928460   2.7928460   0.0000000   0.0000000

  Atom        11          12          13          14          15          16          17          18          19          20
 IAtWgt=          12          12           1          12          12           1           1          12           1           1
 AtmWgt=  12.0000000  12.0000000   1.0078250  12.0000000  12.0000000   1.0078250   1.0078250  12.0000000   1.0078250   1.0078250
 NucSpn=           0           0           1           0           0           1           1           0           1           1
 AtZEff=   0.0000000   0.0000000   0.0000000   0.0000000   0.0000000   0.0000000   0.0000000   0.0000000   0.0000000   0.0000000
 NQMom=    0.0000000   0.0000000   0.0000000   0.0000000   0.0000000   0.0000000   0.0000000   0.0000000   0.0000000   0.0000000
 NMagM=    0.0000000   0.0000000   2.7928460   0.0000000   0.0000000   2.7928460   2.7928460   0.0000000   2.7928460   2.7928460

  Atom        21          22          23
 IAtWgt=           1          16           1
 AtmWgt=   1.0078250  15.9949146   1.0078250
 NucSpn=           1           0           1
 AtZEff=   0.0000000   0.0000000   0.0000000
 NQMom=    0.0000000   0.0000000   0.0000000
 NMagM=    2.7928460   0.0000000   2.7928460
 Leave Link  101 at Mon Apr 18 09:25:43 2016, MaxMem=   33554432 cpu:       0.0
 (Enter c:\G09w04\l103.exe)

 GradGradGradGradGradGradGradGradGradGradGradGradGradGradGradGradGradGrad
 Berny optimization.
 Initialization pass.
                           ----------------------------
                           !    Initial Parameters    !
                           ! (Angstroms and Degrees)  !
 --------------------------                            --------------------------
 ! Name  Definition              Value          Derivative Info.                !
 --------------------------------------------------------------------------------
 ! R1    R(1,2)                  1.0202         estimate D2E/DX2                !
 ! R2    R(1,3)                  1.4439         estimate D2E/DX2                !
 ! R3    R(1,21)                 1.0133         estimate D2E/DX2                !
 ! R4    R(3,5)                  1.5429         estimate D2E/DX2                !
 ! R5    R(3,6)                  1.4446         estimate D2E/DX2                !
 ! R6    R(4,6)                  1.4634         estimate D2E/DX2                !
 ! R7    R(4,22)                 0.98           estimate D2E/DX2                !
 ! R8    R(5,7)                  1.0935         estimate D2E/DX2                !
 ! R9    R(5,8)                  1.1015         estimate D2E/DX2                !
 ! R10   R(5,9)                  1.5116         estimate D2E/DX2                !
 ! R11   R(6,10)                 1.3131         estimate D2E/DX2                !
 ! R12   R(6,22)                 1.292          estimate D2E/DX2                !
 ! R13   R(9,11)                 1.3996         estimate D2E/DX2                !
 ! R14   R(9,12)                 1.4005         estimate D2E/DX2                !
 ! R15   R(10,23)                0.9714         estimate D2E/DX2                !
 ! R16   R(11,13)                1.0857         estimate D2E/DX2                !
 ! R17   R(11,14)                1.3954         estimate D2E/DX2                !
 ! R18   R(12,15)                1.3943         estimate D2E/DX2                !
 ! R19   R(12,16)                1.0856         estimate D2E/DX2                !
 ! R20   R(14,17)                1.0845         estimate D2E/DX2                !
 ! R21   R(14,18)                1.3948         estimate D2E/DX2                !
 ! R22   R(15,18)                1.3957         estimate D2E/DX2                !
 ! R23   R(15,19)                1.0845         estimate D2E/DX2                !
 ! R24   R(18,20)                1.0843         estimate D2E/DX2                !
 ! A1    A(2,1,3)              113.3771         estimate D2E/DX2                !
 ! A2    A(2,1,21)             108.1699         estimate D2E/DX2                !
 ! A3    A(3,1,21)             112.4696         estimate D2E/DX2                !
 ! A4    A(1,3,5)              109.6557         estimate D2E/DX2                !
 ! A5    A(1,3,6)              118.6922         estimate D2E/DX2                !
 ! A6    A(5,3,6)              117.4483         estimate D2E/DX2                !
 ! A7    A(3,5,7)              106.1337         estimate D2E/DX2                !
 ! A8    A(3,5,8)              108.142          estimate D2E/DX2                !
 ! A9    A(3,5,9)              117.8265         estimate D2E/DX2                !
 ! A10   A(7,5,8)              106.2917         estimate D2E/DX2                !
 ! A11   A(7,5,9)              109.4821         estimate D2E/DX2                !
 ! A12   A(8,5,9)              108.386          estimate D2E/DX2                !
 ! A13   A(3,6,10)             127.5509         estimate D2E/DX2                !
 ! A14   A(3,6,22)             110.5036         estimate D2E/DX2                !
 ! A15   A(10,6,22)            121.4856         estimate D2E/DX2                !
 ! A16   A(5,9,11)             120.881          estimate D2E/DX2                !
 ! A17   A(5,9,12)             120.7497         estimate D2E/DX2                !
 ! A18   A(11,9,12)            118.3679         estimate D2E/DX2                !
 ! A19   A(6,10,23)            110.9513         estimate D2E/DX2                !
 ! A20   A(9,11,13)            119.438          estimate D2E/DX2                !
 ! A21   A(9,11,14)            120.943          estimate D2E/DX2                !
 ! A22   A(13,11,14)           119.6185         estimate D2E/DX2                !
 ! A23   A(9,12,15)            120.939          estimate D2E/DX2                !
 ! A24   A(9,12,16)            119.3762         estimate D2E/DX2                !
 ! A25   A(15,12,16)           119.6846         estimate D2E/DX2                !
 ! A26   A(11,14,17)           119.805          estimate D2E/DX2                !
 ! A27   A(11,14,18)           120.1013         estimate D2E/DX2                !
 ! A28   A(17,14,18)           120.0925         estimate D2E/DX2                !
 ! A29   A(12,15,18)           120.1163         estimate D2E/DX2                !
 ! A30   A(12,15,19)           119.823          estimate D2E/DX2                !
 ! A31   A(18,15,19)           120.0599         estimate D2E/DX2                !
 ! A32   A(14,18,15)           119.53           estimate D2E/DX2                !
 ! A33   A(14,18,20)           120.2402         estimate D2E/DX2                !
 ! A34   A(15,18,20)           120.2286         estimate D2E/DX2                !
 ! A35   A(4,22,6)              78.885          estimate D2E/DX2                !
 ! D1    D(2,1,3,5)            -57.2191         estimate D2E/DX2                !
 ! D2    D(2,1,3,6)             81.6728         estimate D2E/DX2                !
 ! D3    D(21,1,3,5)           179.6597         estimate D2E/DX2                !
 ! D4    D(21,1,3,6)           -41.4484         estimate D2E/DX2                !
 ! D5    D(1,3,5,7)            -58.6628         estimate D2E/DX2                !
 ! D6    D(1,3,5,8)             55.046          estimate D2E/DX2                !
 ! D7    D(1,3,5,9)            178.2941         estimate D2E/DX2                !
 ! D8    D(6,3,5,7)            161.8723         estimate D2E/DX2                !
 ! D9    D(6,3,5,8)            -84.4189         estimate D2E/DX2                !
 ! D10   D(6,3,5,9)             38.8292         estimate D2E/DX2                !
 ! D11   D(1,3,6,10)           -28.9411         estimate D2E/DX2                !
 ! D12   D(1,3,6,22)           143.2827         estimate D2E/DX2                !
 ! D13   D(5,3,6,10)           106.815          estimate D2E/DX2                !
 ! D14   D(5,3,6,22)           -80.9613         estimate D2E/DX2                !
 ! D15   D(3,5,9,11)           -92.9503         estimate D2E/DX2                !
 ! D16   D(3,5,9,12)            87.4942         estimate D2E/DX2                !
 ! D17   D(7,5,9,11)           145.7157         estimate D2E/DX2                !
 ! D18   D(7,5,9,12)           -33.8397         estimate D2E/DX2                !
 ! D19   D(8,5,9,11)            30.1747         estimate D2E/DX2                !
 ! D20   D(8,5,9,12)          -149.3807         estimate D2E/DX2                !
 ! D21   D(3,6,10,23)          163.0536         estimate D2E/DX2                !
 ! D22   D(22,6,10,23)          -8.3998         estimate D2E/DX2                !
 ! D23   D(3,6,22,4)           -10.3945         estimate D2E/DX2                !
 ! D24   D(10,6,22,4)          162.379          estimate D2E/DX2                !
 ! D25   D(5,9,11,13)           -0.4262         estimate D2E/DX2                !
 ! D26   D(5,9,11,14)          179.8439         estimate D2E/DX2                !
 ! D27   D(12,9,11,13)         179.1396         estimate D2E/DX2                !
 ! D28   D(12,9,11,14)          -0.5903         estimate D2E/DX2                !
 ! D29   D(5,9,12,15)         -179.9779         estimate D2E/DX2                !
 ! D30   D(5,9,12,16)            0.1652         estimate D2E/DX2                !
 ! D31   D(11,9,12,15)           0.4557         estimate D2E/DX2                !
 ! D32   D(11,9,12,16)        -179.4012         estimate D2E/DX2                !
 ! D33   D(9,11,14,17)         179.9074         estimate D2E/DX2                !
 ! D34   D(9,11,14,18)           0.3091         estimate D2E/DX2                !
 ! D35   D(13,11,14,17)          0.1779         estimate D2E/DX2                !
 ! D36   D(13,11,14,18)       -179.4203         estimate D2E/DX2                !
 ! D37   D(9,12,15,18)          -0.0394         estimate D2E/DX2                !
 ! D38   D(9,12,15,19)        -179.7355         estimate D2E/DX2                !
 ! D39   D(16,12,15,18)        179.817          estimate D2E/DX2                !
 ! D40   D(16,12,15,19)          0.1209         estimate D2E/DX2                !
 ! D41   D(11,14,18,15)          0.1194         estimate D2E/DX2                !
 ! D42   D(11,14,18,20)        179.7196         estimate D2E/DX2                !
 ! D43   D(17,14,18,15)       -179.4777         estimate D2E/DX2                !
 ! D44   D(17,14,18,20)          0.1225         estimate D2E/DX2                !
 ! D45   D(12,15,18,14)         -0.2526         estimate D2E/DX2                !
 ! D46   D(12,15,18,20)       -179.8528         estimate D2E/DX2                !
 ! D47   D(19,15,18,14)        179.4428         estimate D2E/DX2                !
 ! D48   D(19,15,18,20)         -0.1574         estimate D2E/DX2                !
 --------------------------------------------------------------------------------
 Trust Radius=3.00D-01 FncErr=1.00D-07 GrdErr=1.00D-06
 Number of steps in this run=    117 maximum allowed number of steps=    138.
 GradGradGradGradGradGradGradGradGradGradGradGradGradGradGradGradGradGrad

 Leave Link  103 at Mon Apr 18 09:25:43 2016, MaxMem=   33554432 cpu:       0.0
 (Enter c:\G09w04\l202.exe)
                          Input orientation:                          
 ---------------------------------------------------------------------
 Center     Atomic      Atomic             Coordinates (Angstroms)
 Number     Number       Type             X           Y           Z
 ---------------------------------------------------------------------
      1          7           0       -3.016251   -1.318596   -0.623503
      2          1           0       -3.174168   -1.104581   -1.608420
      3          6           0       -1.799894   -0.742986   -0.100013
      4          1           0       -1.105947   -0.171317    1.305944
      5          6           0       -0.595465   -1.228409   -0.933304
      6          6           0       -1.809362    0.641368    0.312871
      7          1           0       -0.598185   -2.319680   -0.864146
      8          1           0       -0.789199   -0.985272   -1.990028
      9          6           0        0.773816   -0.703414   -0.566544
     10          8           0       -2.558664    1.611671   -0.157511
     11          6           0        1.298646    0.433228   -1.192230
     12          6           0        1.552402   -1.349042    0.402171
     13          1           0        0.715750    0.939090   -1.955786
     14          6           0        2.561168    0.920866   -0.852371
     15          6           0        2.815680   -0.867966    0.743826
     16          1           0        1.165369   -2.237808    0.890772
     17          1           0        2.950516    1.802281   -1.350064
     18          6           0        3.323692    0.271772    0.118561
     19          1           0        3.405001   -1.384649    1.493477
     20          1           0        4.306845    0.646085    0.381136
     21          1           0       -3.836273   -1.031213   -0.102291
     22          8           0       -1.069876    0.806563    1.359333
     23          1           0       -2.568302    2.369097    0.450626
 ---------------------------------------------------------------------
                    Distance matrix (angstroms):
                    1          2          3          4          5
     1  N    0.000000
     2  H    1.020197   0.000000
     3  C    1.443916   2.072359   0.000000
     4  H    2.947588   3.693513   1.668857   0.000000
     5  C    2.442195   2.668487   1.542938   2.528293   0.000000
     6  C    2.484922   2.932984   1.444645   1.463367   2.553931
     7  H    2.628140   2.943824   2.124610   3.095574   1.093464
     8  H    2.634057   2.418251   2.156934   3.409734   1.101505
     9  C    3.840091   4.102806   2.615951   2.706076   1.511643
    10  O    3.002166   3.140383   2.474560   2.726010   3.538652
    11  C    4.691553   4.748067   3.489608   3.519718   2.532930
    12  C    4.682470   5.142247   3.443455   3.044777   2.532070
    13  H    4.560697   4.407802   3.549893   3.897495   2.731814
    14  C    6.014580   6.129284   4.727928   4.393054   3.819721
    15  C    6.007002   6.439513   4.693741   4.022494   3.818193
    16  H    4.541357   5.134369   3.465391   3.098650   2.728860
    17  H    6.772745   6.784420   5.532396   5.234918   4.683242
    18  C    6.578359   6.862871   5.227680   4.607376   4.326286
    19  H    6.761542   7.279125   5.481047   4.675040   4.681603
    20  H    7.648334   7.936543   6.281185   5.551733   5.410557
    21  H    1.013256   1.646873   2.056677   3.190176   3.351463
    22  O    3.498044   4.109510   2.250271   0.980000   3.101993
    23  H    3.866974   4.083281   3.252494   3.053482   4.330057
                    6          7          8          9         10
     6  C    0.000000
     7  H    3.408830   0.000000
     8  H    2.998339   1.756343   0.000000
     9  C    3.042140   2.140857   2.132784   0.000000
    10  O    1.313088   4.449532   3.637752   4.078278   0.000000
    11  C    3.459532   3.359183   2.647210   1.399602   4.163918
    12  C    3.907834   2.677820   3.367201   1.400514   5.097051
    13  H    3.407585   3.679359   2.443197   2.152019   3.795780
    14  C    4.531825   4.525791   4.019028   2.431997   5.212746
    15  C    4.884140   4.043207   4.525801   2.431739   5.987034
    16  H    4.180030   2.489290   3.699756   2.152080   5.457638
    17  H    5.173926   5.460765   4.708022   3.410342   5.639998
    18  C    5.150010   4.802339   4.789800   2.814645   6.039342
    19  H    5.717356   4.739005   5.466774   3.410411   6.875245
    20  H    6.116590   5.865646   5.852641   3.898915   6.953971
    21  H    2.660499   3.567322   3.584735   4.644987   2.936013
    22  O    1.291980   3.865197   3.808894   3.064022   2.272775
    23  H    1.892092   5.253058   4.513734   4.652388   0.971400
                   11         12         13         14         15
    11  C    0.000000
    12  C    2.404785   0.000000
    13  H    1.085671   3.390501   0.000000
    14  C    1.395441   2.782798   2.150215   0.000000
    15  C    2.782591   1.394286   3.868212   2.410921   0.000000
    16  H    3.389852   1.085555   4.289258   3.868336   2.149788
    17  H    2.151254   3.867284   2.471068   1.084520   3.395994
    18  C    2.417654   2.417631   3.398469   1.394803   1.395720
    19  H    3.867096   2.150428   4.952701   3.395653   1.084545
    20  H    3.401478   3.401166   4.294534   2.155095   2.155799
    21  H    5.449766   5.421560   5.295135   6.730563   6.707536
    22  O    3.501392   3.526916   3.767763   4.253138   4.275563
    23  H    4.625997   5.550415   4.315175   5.486951   6.289023
                   16         17         18         19         20
    16  H    0.000000
    17  H    4.952819   0.000000
    18  C    3.398920   2.153736   0.000000
    19  H    2.471252   4.295207   2.154237   0.000000
    20  H    4.294815   2.484647   1.084272   2.484855   0.000000
    21  H    5.240083   7.459633   7.280910   7.423439   8.328109
    22  O    3.805794   4.949327   4.596624   4.984368   5.467335
    23  H    5.946226   5.832762   6.262957   7.131514   7.088106
                   21         22         23
    21  H    0.000000
    22  O    3.628597   0.000000
    23  H    3.670909   2.347880   0.000000
 Symmetry turned off by external request.
 Stoichiometry    C9H11NO2
 Framework group  C1[X(C9H11NO2)]
 Deg. of freedom    63
 Full point group                 C1      NOp   1
 Rotational constants (GHZ):      1.7949208      0.5805420      0.5298272
 Leave Link  202 at Mon Apr 18 09:25:43 2016, MaxMem=   33554432 cpu:       0.0
 (Enter c:\G09w04\l301.exe)
 Standard basis: 6-311++G(d,p) (5D, 7F)
 Ernie: Thresh=  0.10000D-02 Tol=  0.10000D-05 Strict=F.
 Integral buffers will be    262144 words long.
 Raffenetti 2 integral format.
 Two-electron integral symmetry is turned off.
   341 basis functions,   531 primitive gaussians,   353 cartesian basis functions
    44 alpha electrons       44 beta electrons
       nuclear repulsion energy       683.3944767662 Hartrees.
 IExCor=  402 DFT=T Ex+Corr=B3LYP ExCW=0 ScaHFX=  0.200000
 ScaDFX=  0.800000  0.720000  1.000000  0.810000 ScalE2=  1.000000  1.000000
 IRadAn=      0 IRanWt=     -1 IRanGd=            0 ICorTp=0
 NAtoms=   23 NActive=   23 NUniq=   23 SFac= 1.00D+00 NAtFMM=   50 NAOKFM=F Big=F
 ------------------------------------------------------------------------------
 Polarizable Continuum Model (PCM)
 =================================
 Model                : C-PCM.
 Atomic radii         : UFF (Universal Force Field).
 Polarization charges : Total charges.
 Charge compensation  : None.
 Solution method      : Matrix inversion.
 Cavity type          : Scaled VdW (van der Waals Surface) (Alpha=1.100).
 Cavity algorithm     : GePol (No added spheres)
                        Default sphere list used, NSphG=   23.
                        Lebedev-Laikov grids with approx.  5.0 points / Ang**2.
                        Smoothing algorithm: Karplus/York (Gamma=1.0000).
                        Polarization charges: spherical gaussians, with
                                              point-specific exponents (IZeta= 3).
                        Self-potential: point-specific (ISelfS= 7).
                        Self-field    : sphere-specific E.n sum rule (ISelfD= 2).
 1st derivatives      : Analytical E(r).r(x)/FMM algorithm (CHGder, D1EAlg=3).
                        Cavity 1st derivative terms included.
 Solvent              : Water, Eps=  78.355300 Eps(inf)=   1.777849
 ------------------------------------------------------------------------------
 GePol: Number of generator spheres                  =      23
 GePol: Total number of spheres                      =      23
 GePol: Number of exposed spheres                    =      23 (100.00%)
 GePol: Number of points                             =    1797
 GePol: Average weight of points                     =       0.13
 GePol: Minimum weight of points                     =   0.37D-11
 GePol: Maximum weight of points                     =    0.20577
 GePol: Number of points with low weight             =     103
 GePol: Fraction of low-weight points (<1% of avg)   =       5.73%
 GePol: Cavity surface area                          =    239.390 Ang**2
 GePol: Cavity volume                                =    243.252 Ang**3
 Leave Link  301 at Mon Apr 18 09:25:43 2016, MaxMem=   33554432 cpu:       0.0
 (Enter c:\G09w04\l302.exe)
 NPDir=0 NMtPBC=     1 NCelOv=     1 NCel=       1 NClECP=     1 NCelD=      1
         NCelK=      1 NCelE2=     1 NClLst=     1 CellRange=     0.0.
 One-electron integrals computed using PRISM.
 NBasis=   341 RedAO= T  NBF=   341
 NBsUse=   340 1.00D-06 NBFU=   340
 Precomputing XC quadrature grid using
 IXCGrd= 2 IRadAn=           0 IRanWt=          -1 IRanGd=           0 AccXCQ= 0.00D+00.
 NRdTot=    1494 NPtTot=      190342 NUsed=      197308 NTot=      197324
 NSgBfM=   352   352   352   352   352 NAtAll=    23    23.
 Leave Link  302 at Mon Apr 18 09:25:45 2016, MaxMem=   33554432 cpu:       2.0
 (Enter c:\G09w04\l303.exe)
 DipDrv:  MaxL=1.
 Leave Link  303 at Mon Apr 18 09:25:45 2016, MaxMem=   33554432 cpu:       0.0
 (Enter c:\G09w04\l401.exe)
 Harris functional with IExCor=  402 diagonalized for initial guess.
 ExpMin= 3.60D-02 ExpMax= 8.59D+03 ExpMxC= 1.30D+03 IAcc=3 IRadAn=         0 AccDes= 0.00D+00
 HarFok:  IExCor=  402 AccDes= 0.00D+00 IRadAn=         0 IDoV= 1
 ScaDFX=  1.000000  1.000000  1.000000  1.000000
 FoFCou: FMM=F IPFlag=           0 FMFlag=      100000 FMFlg1=           0
         NFxFlg=           0 DoJE=T BraDBF=F KetDBF=T FulRan=T
         Omega=  0.000000  0.000000  1.000000  0.000000  0.000000 ICntrl=     500 IOpCl=  0
         NMat0=    1 NMatS0=    1 NMatT0=    0 NMatD0=    1 NMtDS0=    0 NMtDT0=    0
         I1Cent=           4 NGrid=           0.
 Symmetry not used in FoFCou.
 Harris En= -554.860060288107    
 Leave Link  401 at Mon Apr 18 09:25:58 2016, MaxMem=   33554432 cpu:      13.0
 (Enter c:\G09w04\l502.exe)
 Closed shell SCF:
 Requested convergence on RMS density matrix=1.00D-08 within 128 cycles.
 Requested convergence on MAX density matrix=1.00D-06.
 Requested convergence on             energy=1.00D-06.
 No special actions if energy rises.
 Using DIIS extrapolation, IDIIS=  1040.
 Two-electron integral symmetry not used.
       197111 words used for storage of precomputed grid.
 IEnd=      593156 IEndB=      593156 NGot=    33554432 MDV=    33102879
 LenX=    33102879 LenY=    32977829
 Fock matrices will be formed incrementally for  20 cycles.

 Cycle   1  Pass 1  IDiag  1:
 FoFCou: FMM=F IPFlag=           0 FMFlag=      100000 FMFlg1=           0
         NFxFlg=           0 DoJE=F BraDBF=F KetDBF=F FulRan=T
         Omega=  0.000000  0.000000  1.000000  0.000000  0.000000 ICntrl=       0 IOpCl=  0
         NMat0=    1 NMatS0=    1 NMatT0=    0 NMatD0=    1 NMtDS0=    0 NMtDT0=    0
         I1Cent=           0 NGrid=           0.
 Symmetry not used in FoFCou.
 E= -554.526417122311    
 DIIS: error= 2.25D-02 at cycle   1 NSaved=   1.
 NSaved= 1 IEnMin= 1 EnMin= -554.526417122311     IErMin= 1 ErrMin= 2.25D-02
 ErrMax= 2.25D-02 EMaxC= 1.00D-01 BMatC= 3.67D-01 BMatP= 3.67D-01
 IDIUse=3 WtCom= 7.75D-01 WtEn= 2.25D-01
 Coeff-Com:  0.100D+01
 Coeff-En:   0.100D+01
 Coeff:      0.100D+01
 Gap=     0.179 Goal=   None    Shift=    0.000
 GapD=    0.179 DampG=1.000 DampE=0.500 DampFc=0.5000 IDamp=-1.
 Damping current iteration by 5.00D-01
 RMSDP=2.27D-02 MaxDP=2.77D+00              OVMax= 3.43D-01

 Cycle   2  Pass 1  IDiag  1:
 RMSU=  6.85D-03    CP:  8.43D-01
 E= -554.643294625255     Delta-E=       -0.116877502944 Rises=F Damp=T
 DIIS: error= 4.75D-03 at cycle   2 NSaved=   2.
 NSaved= 2 IEnMin= 2 EnMin= -554.643294625255     IErMin= 2 ErrMin= 4.75D-03
 ErrMax= 4.75D-03 EMaxC= 1.00D-01 BMatC= 2.90D-02 BMatP= 3.67D-01
 IDIUse=3 WtCom= 9.52D-01 WtEn= 4.75D-02
 Coeff-Com:  0.118D+00 0.882D+00
 Coeff-En:   0.244D+00 0.756D+00
 Coeff:      0.124D+00 0.876D+00
 Gap=     0.167 Goal=   None    Shift=    0.000
 RMSDP=7.03D-03 MaxDP=7.52D-01 DE=-1.17D-01 OVMax= 2.91D-01

 Cycle   3  Pass 1  IDiag  1:
 RMSU=  3.02D-03    CP:  7.28D-01  6.36D-01
 E= -554.825846403368     Delta-E=       -0.182551778113 Rises=F Damp=F
 DIIS: error= 5.45D-03 at cycle   3 NSaved=   3.
 NSaved= 3 IEnMin= 3 EnMin= -554.825846403368     IErMin= 2 ErrMin= 4.75D-03
 ErrMax= 5.45D-03 EMaxC= 1.00D-01 BMatC= 2.23D-02 BMatP= 2.90D-02
 IDIUse=3 WtCom= 9.45D-01 WtEn= 5.45D-02
 Coeff-Com:  0.266D-02 0.462D+00 0.535D+00
 Coeff-En:   0.000D+00 0.000D+00 0.100D+01
 Coeff:      0.251D-02 0.437D+00 0.560D+00
 Gap=     0.145 Goal=   None    Shift=    0.000
 RMSDP=2.91D-03 MaxDP=2.62D-01 DE=-1.83D-01 OVMax= 1.04D-01

 Cycle   4  Pass 1  IDiag  1:
 RMSU=  1.37D-03    CP:  7.42D-01  8.54D-01  9.73D-01
 E= -554.843105307945     Delta-E=       -0.017258904576 Rises=F Damp=F
 DIIS: error= 2.95D-03 at cycle   4 NSaved=   4.
 NSaved= 4 IEnMin= 4 EnMin= -554.843105307945     IErMin= 4 ErrMin= 2.95D-03
 ErrMax= 2.95D-03 EMaxC= 1.00D-01 BMatC= 4.39D-03 BMatP= 2.23D-02
 IDIUse=3 WtCom= 9.71D-01 WtEn= 2.95D-02
 Coeff-Com: -0.217D-01 0.130D+00 0.334D+00 0.558D+00
 Coeff-En:   0.000D+00 0.000D+00 0.162D+00 0.838D+00
 Coeff:     -0.211D-01 0.126D+00 0.329D+00 0.566D+00
 Gap=     0.153 Goal=   None    Shift=    0.000
 RMSDP=1.19D-03 MaxDP=1.58D-01 DE=-1.73D-02 OVMax= 3.81D-02

 Cycle   5  Pass 1  IDiag  1:
 RMSU=  4.62D-04    CP:  7.19D-01  8.48D-01  9.94D-01  7.48D-01
 E= -554.846776505598     Delta-E=       -0.003671197653 Rises=F Damp=F
 DIIS: error= 7.53D-04 at cycle   5 NSaved=   5.
 NSaved= 5 IEnMin= 5 EnMin= -554.846776505598     IErMin= 5 ErrMin= 7.53D-04
 ErrMax= 7.53D-04 EMaxC= 1.00D-01 BMatC= 3.62D-04 BMatP= 4.39D-03
 IDIUse=3 WtCom= 9.92D-01 WtEn= 7.53D-03
 Coeff-Com: -0.117D-01 0.384D-01 0.140D+00 0.323D+00 0.510D+00
 Coeff-En:   0.000D+00 0.000D+00 0.000D+00 0.000D+00 0.100D+01
 Coeff:     -0.116D-01 0.381D-01 0.139D+00 0.320D+00 0.514D+00
 Gap=     0.153 Goal=   None    Shift=    0.000
 RMSDP=3.34D-04 MaxDP=2.78D-02 DE=-3.67D-03 OVMax= 7.61D-03

 Cycle   6  Pass 1  IDiag  1:
 RMSU=  1.73D-04    CP:  7.16D-01  8.64D-01  1.00D+00  7.83D-01  8.90D-01
 E= -554.847058526989     Delta-E=       -0.000282021391 Rises=F Damp=F
 DIIS: error= 2.57D-04 at cycle   6 NSaved=   6.
 NSaved= 6 IEnMin= 6 EnMin= -554.847058526989     IErMin= 6 ErrMin= 2.57D-04
 ErrMax= 2.57D-04 EMaxC= 1.00D-01 BMatC= 3.01D-05 BMatP= 3.62D-04
 IDIUse=3 WtCom= 9.97D-01 WtEn= 2.57D-03
 Coeff-Com: -0.369D-02 0.542D-02 0.311D-01 0.991D-01 0.277D+00 0.591D+00
 Coeff-En:   0.000D+00 0.000D+00 0.000D+00 0.000D+00 0.787D-02 0.992D+00
 Coeff:     -0.368D-02 0.541D-02 0.310D-01 0.989D-01 0.277D+00 0.592D+00
 Gap=     0.153 Goal=   None    Shift=    0.000
 RMSDP=1.27D-04 MaxDP=1.43D-02 DE=-2.82D-04 OVMax= 1.02D-03

 Cycle   7  Pass 1  IDiag  1:
 RMSU=  4.93D-05    CP:  7.18D-01  8.62D-01  1.01D+00  8.08D-01  8.48D-01
                    CP:  8.52D-01
 E= -554.847082443946     Delta-E=       -0.000023916957 Rises=F Damp=F
 DIIS: error= 4.18D-05 at cycle   7 NSaved=   7.
 NSaved= 7 IEnMin= 7 EnMin= -554.847082443946     IErMin= 7 ErrMin= 4.18D-05
 ErrMax= 4.18D-05 EMaxC= 1.00D-01 BMatC= 1.00D-06 BMatP= 3.01D-05
 IDIUse=1 WtCom= 1.00D+00 WtEn= 0.00D+00
 Coeff-Com: -0.105D-02 0.812D-03 0.770D-02 0.302D-01 0.103D+00 0.251D+00
 Coeff-Com:  0.609D+00
 Coeff:     -0.105D-02 0.812D-03 0.770D-02 0.302D-01 0.103D+00 0.251D+00
 Coeff:      0.609D+00
 Gap=     0.153 Goal=   None    Shift=    0.000
 RMSDP=1.51D-05 MaxDP=1.06D-03 DE=-2.39D-05 OVMax= 3.47D-04

 Cycle   8  Pass 1  IDiag  1:
 RMSU=  7.75D-06    CP:  7.17D-01  8.62D-01  1.01D+00  8.08D-01  8.57D-01
                    CP:  8.68D-01  1.04D+00
 E= -554.847082960578     Delta-E=       -0.000000516632 Rises=F Damp=F
 DIIS: error= 3.21D-05 at cycle   8 NSaved=   8.
 NSaved= 8 IEnMin= 8 EnMin= -554.847082960578     IErMin= 8 ErrMin= 3.21D-05
 ErrMax= 3.21D-05 EMaxC= 1.00D-01 BMatC= 3.74D-07 BMatP= 1.00D-06
 IDIUse=1 WtCom= 1.00D+00 WtEn= 0.00D+00
 Coeff-Com:  0.814D-04-0.561D-03-0.128D-02-0.401D-04 0.122D-01 0.406D-01
 Coeff-Com:  0.388D+00 0.561D+00
 Coeff:      0.814D-04-0.561D-03-0.128D-02-0.401D-04 0.122D-01 0.406D-01
 Coeff:      0.388D+00 0.561D+00
 Gap=     0.153 Goal=   None    Shift=    0.000
 RMSDP=1.19D-05 MaxDP=1.04D-03 DE=-5.17D-07 OVMax= 1.68D-04

 Cycle   9  Pass 1  IDiag  1:
 RMSU=  3.74D-06    CP:  7.17D-01  8.63D-01  1.01D+00  8.11D-01  8.64D-01
                    CP:  8.78D-01  1.09D+00  9.66D-01
 E= -554.847083240724     Delta-E=       -0.000000280146 Rises=F Damp=F
 DIIS: error= 3.09D-06 at cycle   9 NSaved=   9.
 NSaved= 9 IEnMin= 9 EnMin= -554.847083240724     IErMin= 9 ErrMin= 3.09D-06
 ErrMax= 3.09D-06 EMaxC= 1.00D-01 BMatC= 7.42D-09 BMatP= 3.74D-07
 IDIUse=1 WtCom= 1.00D+00 WtEn= 0.00D+00
 Coeff-Com:  0.736D-04-0.223D-03-0.882D-03-0.141D-02-0.523D-03 0.100D-02
 Coeff-Com:  0.107D+00 0.206D+00 0.689D+00
 Coeff:      0.736D-04-0.223D-03-0.882D-03-0.141D-02-0.523D-03 0.100D-02
 Coeff:      0.107D+00 0.206D+00 0.689D+00
 Gap=     0.153 Goal=   None    Shift=    0.000
 RMSDP=3.71D-06 MaxDP=3.06D-04 DE=-2.80D-07 OVMax= 4.86D-05

 Cycle  10  Pass 1  IDiag  1:
 RMSU=  9.71D-07    CP:  7.17D-01  8.63D-01  1.01D+00  8.11D-01  8.64D-01
                    CP:  8.85D-01  1.12D+00  1.05D+00  1.01D+00
 E= -554.847083246554     Delta-E=       -0.000000005830 Rises=F Damp=F
 DIIS: error= 1.63D-06 at cycle  10 NSaved=  10.
 NSaved=10 IEnMin=10 EnMin= -554.847083246554     IErMin=10 ErrMin= 1.63D-06
 ErrMax= 1.63D-06 EMaxC= 1.00D-01 BMatC= 1.72D-09 BMatP= 7.42D-09
 IDIUse=1 WtCom= 1.00D+00 WtEn= 0.00D+00
 Coeff-Com:  0.320D-04-0.608D-04-0.400D-03-0.806D-03-0.169D-02-0.411D-02
 Coeff-Com:  0.178D-01 0.548D-01 0.367D+00 0.568D+00
 Coeff:      0.320D-04-0.608D-04-0.400D-03-0.806D-03-0.169D-02-0.411D-02
 Coeff:      0.178D-01 0.548D-01 0.367D+00 0.568D+00
 Gap=     0.153 Goal=   None    Shift=    0.000
 RMSDP=9.69D-07 MaxDP=7.60D-05 DE=-5.83D-09 OVMax= 1.31D-05

 Cycle  11  Pass 1  IDiag  1:
 RMSU=  3.15D-07    CP:  7.17D-01  8.63D-01  1.01D+00  8.11D-01  8.64D-01
                    CP:  8.87D-01  1.12D+00  1.08D+00  1.07D+00  1.12D+00
 E= -554.847083248185     Delta-E=       -0.000000001631 Rises=F Damp=F
 DIIS: error= 3.58D-07 at cycle  11 NSaved=  11.
 NSaved=11 IEnMin=11 EnMin= -554.847083248185     IErMin=11 ErrMin= 3.58D-07
 ErrMax= 3.58D-07 EMaxC= 1.00D-01 BMatC= 9.80D-11 BMatP= 1.72D-09
 IDIUse=1 WtCom= 1.00D+00 WtEn= 0.00D+00
 Coeff-Com:  0.176D-05 0.178D-05-0.699D-04-0.133D-03-0.598D-03-0.167D-02
 Coeff-Com: -0.561D-02-0.343D-02 0.456D-01 0.186D+00 0.780D+00
 Coeff:      0.176D-05 0.178D-05-0.699D-04-0.133D-03-0.598D-03-0.167D-02
 Coeff:     -0.561D-02-0.343D-02 0.456D-01 0.186D+00 0.780D+00
 Gap=     0.153 Goal=   None    Shift=    0.000
 RMSDP=5.68D-07 MaxDP=5.17D-05 DE=-1.63D-09 OVMax= 8.26D-06

 Cycle  12  Pass 1  IDiag  1:
 RMSU=  8.01D-08    CP:  7.17D-01  8.63D-01  1.01D+00  8.11D-01  8.64D-01
                    CP:  8.88D-01  1.13D+00  1.10D+00  1.10D+00  1.20D+00
                    CP:  1.04D+00
 E= -554.847083248288     Delta-E=       -0.000000000103 Rises=F Damp=F
 DIIS: error= 1.84D-07 at cycle  12 NSaved=  12.
 NSaved=12 IEnMin=12 EnMin= -554.847083248288     IErMin=12 ErrMin= 1.84D-07
 ErrMax= 1.84D-07 EMaxC= 1.00D-01 BMatC= 2.06D-11 BMatP= 9.80D-11
 IDIUse=1 WtCom= 1.00D+00 WtEn= 0.00D+00
 Coeff-Com: -0.181D-05 0.646D-05-0.676D-05 0.255D-05-0.171D-03-0.489D-03
 Coeff-Com: -0.365D-02-0.515D-02-0.737D-02 0.352D-01 0.400D+00 0.582D+00
 Coeff:     -0.181D-05 0.646D-05-0.676D-05 0.255D-05-0.171D-03-0.489D-03
 Coeff:     -0.365D-02-0.515D-02-0.737D-02 0.352D-01 0.400D+00 0.582D+00
 Gap=     0.153 Goal=   None    Shift=    0.000
 RMSDP=1.61D-07 MaxDP=1.10D-05 DE=-1.03D-10 OVMax= 2.21D-06

 Cycle  13  Pass 1  IDiag  1:
 RMSU=  3.42D-08    CP:  7.17D-01  8.63D-01  1.01D+00  8.11D-01  8.64D-01
                    CP:  8.88D-01  1.13D+00  1.11D+00  1.11D+00  1.22D+00
                    CP:  1.13D+00  1.01D+00
 E= -554.847083248292     Delta-E=       -0.000000000004 Rises=F Damp=F
 DIIS: error= 4.62D-08 at cycle  13 NSaved=  13.
 NSaved=13 IEnMin=13 EnMin= -554.847083248292     IErMin=13 ErrMin= 4.62D-08
 ErrMax= 4.62D-08 EMaxC= 1.00D-01 BMatC= 1.59D-12 BMatP= 2.06D-11
 IDIUse=1 WtCom= 1.00D+00 WtEn= 0.00D+00
 Coeff-Com: -0.829D-06 0.201D-05 0.370D-05 0.171D-04-0.299D-06 0.940D-05
 Coeff-Com: -0.639D-03-0.141D-02-0.924D-02-0.182D-01 0.552D-01 0.220D+00
 Coeff-Com:  0.754D+00
 Coeff:     -0.829D-06 0.201D-05 0.370D-05 0.171D-04-0.299D-06 0.940D-05
 Coeff:     -0.639D-03-0.141D-02-0.924D-02-0.182D-01 0.552D-01 0.220D+00
 Coeff:      0.754D+00
 Gap=     0.153 Goal=   None    Shift=    0.000
 RMSDP=5.54D-08 MaxDP=4.83D-06 DE=-4.32D-12 OVMax= 8.26D-07

 Cycle  14  Pass 1  IDiag  1:
 RMSU=  1.08D-08    CP:  7.17D-01  8.63D-01  1.01D+00  8.11D-01  8.64D-01
                    CP:  8.88D-01  1.13D+00  1.11D+00  1.11D+00  1.24D+00
                    CP:  1.15D+00  1.07D+00  8.91D-01
 E= -554.847083248301     Delta-E=       -0.000000000009 Rises=F Damp=F
 DIIS: error= 2.51D-08 at cycle  14 NSaved=  14.
 NSaved=14 IEnMin=14 EnMin= -554.847083248301     IErMin=14 ErrMin= 2.51D-08
 ErrMax= 2.51D-08 EMaxC= 1.00D-01 BMatC= 2.33D-13 BMatP= 1.59D-12
 IDIUse=1 WtCom= 1.00D+00 WtEn= 0.00D+00
 Coeff-Com: -0.302D-06 0.624D-06 0.225D-05 0.914D-05 0.101D-04 0.365D-04
 Coeff-Com: -0.921D-04-0.375D-03-0.426D-02-0.133D-01 0.205D-02 0.700D-01
 Coeff-Com:  0.390D+00 0.556D+00
 Coeff:     -0.302D-06 0.624D-06 0.225D-05 0.914D-05 0.101D-04 0.365D-04
 Coeff:     -0.921D-04-0.375D-03-0.426D-02-0.133D-01 0.205D-02 0.700D-01
 Coeff:      0.390D+00 0.556D+00
 Gap=     0.153 Goal=   None    Shift=    0.000
 RMSDP=1.23D-08 MaxDP=8.51D-07 DE=-8.87D-12 OVMax= 2.44D-07

 Cycle  15  Pass 1  IDiag  1:
 RMSU=  2.80D-09    CP:  7.17D-01  8.63D-01  1.01D+00  8.11D-01  8.64D-01
                    CP:  8.88D-01  1.13D+00  1.11D+00  1.11D+00  1.24D+00
                    CP:  1.16D+00  1.08D+00  9.44D-01  9.18D-01
 E= -554.847083248283     Delta-E=        0.000000000018 Rises=F Damp=F
 DIIS: error= 1.29D-08 at cycle  15 NSaved=  15.
 NSaved=15 IEnMin=14 EnMin= -554.847083248301     IErMin=15 ErrMin= 1.29D-08
 ErrMax= 1.29D-08 EMaxC= 1.00D-01 BMatC= 4.28D-14 BMatP= 2.33D-13
 IDIUse=1 WtCom= 1.00D+00 WtEn= 0.00D+00
 Coeff-Com:  0.332D-08-0.325D-07 0.201D-06 0.159D-05 0.415D-05 0.173D-04
 Coeff-Com:  0.849D-04 0.107D-03-0.381D-03-0.409D-02-0.742D-02-0.472D-02
 Coeff-Com:  0.709D-01 0.326D+00 0.619D+00
 Coeff:      0.332D-08-0.325D-07 0.201D-06 0.159D-05 0.415D-05 0.173D-04
 Coeff:      0.849D-04 0.107D-03-0.381D-03-0.409D-02-0.742D-02-0.472D-02
 Coeff:      0.709D-01 0.326D+00 0.619D+00
 Gap=     0.153 Goal=   None    Shift=    0.000
 RMSDP=3.30D-09 MaxDP=1.96D-07 DE= 1.77D-11 OVMax= 8.02D-08

 Error on total polarization charges =  0.01736
 SCF Done:  E(RB3LYP) =  -554.847083248     A.U. after   15 cycles
             Convg  =    0.3305D-08             -V/T =  2.0037
 KE= 5.527991624860D+02 PE=-2.661461409180D+03 EE= 8.704206866791D+02
 Leave Link  502 at Mon Apr 18 09:42:38 2016, MaxMem=   33554432 cpu:    1000.0
 (Enter c:\G09w04\l601.exe)
 Copying SCF densities to generalized density rwf, IOpCl= 0 IROHF=0.

 **********************************************************************

            Population analysis using the SCF density.

 **********************************************************************

 Alpha  occ. eigenvalues --  -19.20390 -19.17820 -14.30217 -10.32291 -10.18795
 Alpha  occ. eigenvalues --  -10.18178 -10.18156 -10.17941 -10.17927 -10.17803
 Alpha  occ. eigenvalues --  -10.17746 -10.17743  -1.16851  -1.09554  -0.89088
 Alpha  occ. eigenvalues --   -0.86427  -0.78370  -0.75202  -0.72644  -0.68724
 Alpha  occ. eigenvalues --   -0.63403  -0.61206  -0.59419  -0.56700  -0.53489
 Alpha  occ. eigenvalues --   -0.50685  -0.50206  -0.47788  -0.46964  -0.45664
 Alpha  occ. eigenvalues --   -0.43606  -0.43398  -0.42614  -0.40765  -0.40226
 Alpha  occ. eigenvalues --   -0.38380  -0.37428  -0.36198  -0.34585  -0.34537
 Alpha  occ. eigenvalues --   -0.27550  -0.26286  -0.25401  -0.18977
 Alpha virt. eigenvalues --   -0.03689  -0.02132  -0.01979  -0.00998   0.00014
 Alpha virt. eigenvalues --    0.00783   0.01145   0.02298   0.02905   0.03752
 Alpha virt. eigenvalues --    0.04295   0.04704   0.05409   0.06175   0.06874
 Alpha virt. eigenvalues --    0.07581   0.08136   0.08792   0.08941   0.09826
 Alpha virt. eigenvalues --    0.10452   0.10719   0.11301   0.11399   0.11710
 Alpha virt. eigenvalues --    0.12171   0.12444   0.12706   0.12911   0.13069
 Alpha virt. eigenvalues --    0.13431   0.13879   0.14260   0.15392   0.15736
 Alpha virt. eigenvalues --    0.16210   0.16674   0.17082   0.17445   0.17713
 Alpha virt. eigenvalues --    0.18254   0.18427   0.18771   0.19289   0.19905
 Alpha virt. eigenvalues --    0.20559   0.21298   0.21594   0.22066   0.22917
 Alpha virt. eigenvalues --    0.23764   0.24295   0.24708   0.25531   0.25790
 Alpha virt. eigenvalues --    0.26012   0.27323   0.27641   0.27794   0.27892
 Alpha virt. eigenvalues --    0.28460   0.28679   0.29555   0.29774   0.29995
 Alpha virt. eigenvalues --    0.30233   0.31000   0.31428   0.31612   0.32299
 Alpha virt. eigenvalues --    0.33816   0.34114   0.35118   0.35271   0.36274
 Alpha virt. eigenvalues --    0.36629   0.36749   0.38074   0.38477   0.40072
 Alpha virt. eigenvalues --    0.41160   0.45255   0.46871   0.49597   0.50967
 Alpha virt. eigenvalues --    0.52786   0.53451   0.54248   0.54714   0.55823
 Alpha virt. eigenvalues --    0.56070   0.56541   0.57147   0.57160   0.57789
 Alpha virt. eigenvalues --    0.58440   0.60144   0.61000   0.61850   0.63550
 Alpha virt. eigenvalues --    0.64032   0.65589   0.67604   0.68295   0.69916
 Alpha virt. eigenvalues --    0.71117   0.71290   0.71846   0.72051   0.72937
 Alpha virt. eigenvalues --    0.73986   0.75187   0.75581   0.76560   0.77483
 Alpha virt. eigenvalues --    0.78560   0.79640   0.82731   0.84252   0.85080
 Alpha virt. eigenvalues --    0.85908   0.87062   0.87701   0.88444   0.89586
 Alpha virt. eigenvalues --    0.91159   0.91581   0.93637   0.95210   0.96102
 Alpha virt. eigenvalues --    0.99461   1.02096   1.02344   1.04446   1.06177
 Alpha virt. eigenvalues --    1.08190   1.08312   1.09479   1.11119   1.11835
 Alpha virt. eigenvalues --    1.13094   1.14803   1.15705   1.17416   1.18261
 Alpha virt. eigenvalues --    1.23148   1.23536   1.26613   1.28212   1.31187
 Alpha virt. eigenvalues --    1.35338   1.40467   1.43060   1.43448   1.45017
 Alpha virt. eigenvalues --    1.48706   1.49466   1.51267   1.52622   1.53118
 Alpha virt. eigenvalues --    1.53700   1.55863   1.56644   1.57395   1.59005
 Alpha virt. eigenvalues --    1.60805   1.62000   1.63739   1.64036   1.64651
 Alpha virt. eigenvalues --    1.66021   1.67412   1.69170   1.71539   1.73191
 Alpha virt. eigenvalues --    1.74075   1.74978   1.77017   1.78016   1.79113
 Alpha virt. eigenvalues --    1.81495   1.83163   1.84792   1.86531   1.87377
 Alpha virt. eigenvalues --    1.92255   1.92706   1.93188   1.94142   1.95224
 Alpha virt. eigenvalues --    1.95648   1.96783   1.96923   2.01666   2.02240
 Alpha virt. eigenvalues --    2.02716   2.07760   2.08294   2.09905   2.12107
 Alpha virt. eigenvalues --    2.16468   2.19761   2.21172   2.22586   2.24909
 Alpha virt. eigenvalues --    2.29934   2.33047   2.33306   2.39028   2.42575
 Alpha virt. eigenvalues --    2.43838   2.45922   2.46855   2.53412   2.55211
 Alpha virt. eigenvalues --    2.55917   2.57293   2.63020   2.63934   2.65637
 Alpha virt. eigenvalues --    2.66968   2.67996   2.69442   2.71031   2.71279
 Alpha virt. eigenvalues --    2.71860   2.74139   2.74951   2.77965   2.78512
 Alpha virt. eigenvalues --    2.80584   2.82505   2.83609   2.85514   2.86487
 Alpha virt. eigenvalues --    2.89227   2.91106   2.93622   2.94688   2.95675
 Alpha virt. eigenvalues --    2.99330   2.99823   3.01452   3.01971   3.07073
 Alpha virt. eigenvalues --    3.09754   3.12364   3.14394   3.17887   3.18936
 Alpha virt. eigenvalues --    3.22029   3.25105   3.26938   3.32232   3.33506
 Alpha virt. eigenvalues --    3.37761   3.38433   3.49099   3.50451   3.55134
 Alpha virt. eigenvalues --    3.62027   3.63109   3.70200   3.76675   3.82265
 Alpha virt. eigenvalues --    3.85281   3.90655   4.00027   4.04041   4.08334
 Alpha virt. eigenvalues --    4.13944   4.14932   4.15932   4.18554   4.37214
 Alpha virt. eigenvalues --    4.73906   4.84240   4.85642   4.99585   5.05212
 Alpha virt. eigenvalues --    5.34183   5.46110   5.60199   5.85395  23.63099
 Alpha virt. eigenvalues --   23.72872  23.85928  23.91315  23.97113  23.99140
 Alpha virt. eigenvalues --   24.09023  24.09492  24.18876  35.62029  49.86502
 Alpha virt. eigenvalues --   49.93852
          Condensed to atoms (all electrons):
              1          2          3          4          5          6
     1  N    6.766484   0.349915  -0.426776   0.028639   0.222878   0.169669
     2  H    0.349915   0.502329  -0.012591   0.001673  -0.042678  -0.029590
     3  C   -0.426776  -0.012591  11.379847  -0.083650  -2.570974  -2.052372
     4  H    0.028639   0.001673  -0.083650   0.469253   0.146051   0.017475
     5  C    0.222878  -0.042678  -2.570974   0.146051  11.686010   0.695582
     6  C    0.169669  -0.029590  -2.052372   0.017475   0.695582   7.223642
     7  H    0.018363  -0.024240  -0.094152  -0.011958   0.491797   0.048944
     8  H   -0.016233   0.035519  -0.197194   0.020203   0.405184  -0.109003
     9  C   -0.088936   0.025671  -0.019611   0.063703  -2.107401  -0.374963
    10  O   -0.011155   0.005497  -0.206982   0.024047  -0.013488   0.376103
    11  C    0.074387   0.006982  -0.228354   0.001674  -0.165396   0.120552
    12  C   -0.107111  -0.001876   1.142169  -0.055294  -1.968950  -0.339834
    13  H   -0.000603   0.001807   0.014641  -0.000932  -0.004613  -0.010285
    14  C   -0.000813   0.003077   0.102946  -0.002384  -0.312541  -0.061729
    15  C    0.001608  -0.001543   0.046975  -0.030762  -0.184635   0.087684
    16  H   -0.004079   0.000884   0.052402  -0.003108  -0.069620  -0.013484
    17  H   -0.000236  -0.000066   0.005212   0.000034  -0.007896  -0.006432
    18  C   -0.000547   0.000309  -0.007861   0.002074   0.151457   0.059253
    19  H    0.000103  -0.000011  -0.000758   0.000161   0.002553  -0.002423
    20  H   -0.000024   0.000011  -0.001309   0.000008  -0.003098   0.002005
    21  H    0.411491  -0.054512  -0.102971  -0.003723   0.010536   0.022576
    22  O    0.000579  -0.010529  -0.324061   0.172798  -0.155060   0.525784
    23  H   -0.004493  -0.000923   0.029723  -0.005134  -0.003788  -0.019672
              7          8          9         10         11         12
     1  N    0.018363  -0.016233  -0.088936  -0.011155   0.074387  -0.107111
     2  H   -0.024240   0.035519   0.025671   0.005497   0.006982  -0.001876
     3  C   -0.094152  -0.197194  -0.019611  -0.206982  -0.228354   1.142169
     4  H   -0.011958   0.020203   0.063703   0.024047   0.001674  -0.055294
     5  C    0.491797   0.405184  -2.107401  -0.013488  -0.165396  -1.968950
     6  C    0.048944  -0.109003  -0.374963   0.376103   0.120552  -0.339834
     7  H    0.671223  -0.142835  -0.186726  -0.006168   0.028005  -0.043108
     8  H   -0.142835   0.798997   0.131245   0.018589   0.035608  -0.051021
     9  C   -0.186726   0.131245   9.290498   0.054599  -0.505992   0.068856
    10  O   -0.006168   0.018589   0.054599   7.793256  -0.027992   0.001442
    11  C    0.028005   0.035608  -0.505992  -0.027992   9.032654  -2.758137
    12  C   -0.043108  -0.051021   0.068856   0.001442  -2.758137   9.653457
    13  H    0.002226  -0.006691  -0.040566  -0.003192   0.411986  -0.004141
    14  C   -0.035491   0.056036  -0.665497   0.007405   0.390296   0.519791
    15  C    0.061733  -0.071229  -0.616756  -0.003377   0.692082  -0.084228
    16  H   -0.014290   0.007435  -0.024954   0.000513  -0.020750   0.470772
    17  H   -0.000099   0.001840   0.011696  -0.000040  -0.057949   0.009792
    18  C   -0.006783  -0.001258   0.073192   0.000971  -0.641863  -0.113235
    19  H    0.000728   0.000390   0.021332   0.000035   0.023031  -0.080336
    20  H   -0.000358  -0.000048   0.037622  -0.000013  -0.019854   0.005939
    21  H    0.007062  -0.007860  -0.001594   0.001078   0.000249   0.001085
    22  O    0.014966  -0.021742  -0.027094  -0.117503  -0.029580   0.025751
    23  H    0.001251  -0.003808  -0.003257   0.262391   0.006007  -0.000411
             13         14         15         16         17         18
     1  N   -0.000603  -0.000813   0.001608  -0.004079  -0.000236  -0.000547
     2  H    0.001807   0.003077  -0.001543   0.000884  -0.000066   0.000309
     3  C    0.014641   0.102946   0.046975   0.052402   0.005212  -0.007861
     4  H   -0.000932  -0.002384  -0.030762  -0.003108   0.000034   0.002074
     5  C   -0.004613  -0.312541  -0.184635  -0.069620  -0.007896   0.151457
     6  C   -0.010285  -0.061729   0.087684  -0.013484  -0.006432   0.059253
     7  H    0.002226  -0.035491   0.061733  -0.014290  -0.000099  -0.006783
     8  H   -0.006691   0.056036  -0.071229   0.007435   0.001840  -0.001258
     9  C   -0.040566  -0.665497  -0.616756  -0.024954   0.011696   0.073192
    10  O   -0.003192   0.007405  -0.003377   0.000513  -0.000040   0.000971
    11  C    0.411986   0.390296   0.692082  -0.020750  -0.057949  -0.641863
    12  C   -0.004141   0.519791  -0.084228   0.470772   0.009792  -0.113235
    13  H    0.511079  -0.067766   0.014074  -0.001973  -0.014675   0.006583
    14  C   -0.067766   5.813949  -0.032876   0.014938   0.420102   0.346431
    15  C    0.014074  -0.032876   5.886639  -0.091941   0.005563   0.297777
    16  H   -0.001973   0.014938  -0.091941   0.517355   0.000780   0.013785
    17  H   -0.014675   0.420102   0.005563   0.000780   0.504722  -0.057328
    18  C    0.006583   0.346431   0.297777   0.013785  -0.057328   5.743250
    19  H    0.000630   0.006438   0.418519  -0.013574  -0.000107  -0.064260
    20  H   -0.000069  -0.076959  -0.087792   0.000501  -0.013263   0.479424
    21  H   -0.000092   0.000081   0.000827  -0.000346   0.000009  -0.000206
    22  O   -0.001808   0.006121   0.018128  -0.000964   0.000399   0.003828
    23  H    0.000420  -0.000886   0.000802   0.000022  -0.000071   0.000196
             19         20         21         22         23
     1  N    0.000103  -0.000024   0.411491   0.000579  -0.004493
     2  H   -0.000011   0.000011  -0.054512  -0.010529  -0.000923
     3  C   -0.000758  -0.001309  -0.102971  -0.324061   0.029723
     4  H    0.000161   0.000008  -0.003723   0.172798  -0.005134
     5  C    0.002553  -0.003098   0.010536  -0.155060  -0.003788
     6  C   -0.002423   0.002005   0.022576   0.525784  -0.019672
     7  H    0.000728  -0.000358   0.007062   0.014966   0.001251
     8  H    0.000390  -0.000048  -0.007860  -0.021742  -0.003808
     9  C    0.021332   0.037622  -0.001594  -0.027094  -0.003257
    10  O    0.000035  -0.000013   0.001078  -0.117503   0.262391
    11  C    0.023031  -0.019854   0.000249  -0.029580   0.006007
    12  C   -0.080336   0.005939   0.001085   0.025751  -0.000411
    13  H    0.000630  -0.000069  -0.000092  -0.001808   0.000420
    14  C    0.006438  -0.076959   0.000081   0.006121  -0.000886
    15  C    0.418519  -0.087792   0.000827   0.018128   0.000802
    16  H   -0.013574   0.000501  -0.000346  -0.000964   0.000022
    17  H   -0.000107  -0.013263   0.000009   0.000399  -0.000071
    18  C   -0.064260   0.479424  -0.000206   0.003828   0.000196
    19  H    0.503575  -0.013493   0.000014  -0.000329  -0.000010
    20  H   -0.013493   0.516896  -0.000005  -0.000179   0.000013
    21  H    0.000014  -0.000005   0.439417   0.009556   0.001364
    22  O   -0.000329  -0.000179   0.009556   7.935449   0.006307
    23  H   -0.000010   0.000013   0.001364   0.006307   0.412404
 Mulliken atomic charges:
              1
     1  N   -0.383108
     2  H    0.244889
     3  C   -0.444298
     4  H    0.249150
     5  C   -0.201908
     6  C   -0.329482
     7  H    0.219911
     8  H    0.117875
     9  C    0.884933
    10  O   -0.156017
    11  C   -0.367645
    12  C   -0.291372
    13  H    0.193961
    14  C   -0.430670
    15  C   -0.327273
    16  H    0.179697
    17  H    0.198012
    18  C   -0.285188
    19  H    0.197791
    20  H    0.174043
    21  H    0.265965
    22  O   -0.030816
    23  H    0.321551
 Sum of Mulliken atomic charges =   0.00000
 Mulliken charges with hydrogens summed into heavy atoms:
              1
     1  N    0.127745
     3  C   -0.444298
     5  C    0.135878
     6  C   -0.329482
     9  C    0.884933
    10  O    0.165534
    11  C   -0.173684
    12  C   -0.111675
    14  C   -0.232658
    15  C   -0.129482
    18  C   -0.111145
    22  O    0.218334
 Sum of Mulliken charges with hydrogens summed into heavy atoms =   0.00000
 Electronic spatial extent (au):  <R**2>=           2248.3883
 Charge=              0.0000 electrons
 Dipole moment (field-independent basis, Debye):
    X=             -1.2461    Y=              3.4125    Z=              0.1556  Tot=              3.6363
 Quadrupole moment (field-independent basis, Debye-Ang):
   XX=            -64.4221   YY=            -70.2170   ZZ=            -71.4235
   XY=             -8.2572   XZ=              0.2878   YZ=             -2.0009
 Traceless Quadrupole moment (field-independent basis, Debye-Ang):
   XX=              4.2654   YY=             -1.5295   ZZ=             -2.7360
   XY=             -8.2572   XZ=              0.2878   YZ=             -2.0009
 Octapole moment (field-independent basis, Debye-Ang**2):
  XXX=            -31.1615  YYY=             66.8616  ZZZ=             24.5249  XYY=             -4.3025
  XXY=             44.4035  XXZ=             27.6377  XZZ=            -12.4583  YZZ=              9.5985
  YYZ=             17.8827  XYZ=            -14.9615
 Hexadecapole moment (field-independent basis, Debye-Ang**3):
 XXXX=          -1918.4566 YYYY=           -531.7367 ZZZZ=           -364.5704 XXXY=            -18.1622
 XXXZ=              4.6545 YYYX=            -89.1065 YYYZ=            -17.6192 ZZZX=              3.2206
 ZZZY=            -23.7763 XXYY=           -445.6012 XXZZ=           -399.4617 YYZZ=           -151.2857
 XXYZ=             -7.9652 YYXZ=            -27.7322 ZZXY=              3.9038
 N-N= 6.833944767662D+02 E-N=-2.661461410412D+03  KE= 5.527991624860D+02
 No NMR shielding tensors so no spin-rotation constants.
 Leave Link  601 at Mon Apr 18 09:42:38 2016, MaxMem=   33554432 cpu:       0.0
 (Enter c:\G09w04\l701.exe)
 Compute integral first derivatives.
 ... and contract with generalized density number  0.
 D1PCM: C-PCM CHGder 1st derivatives, ID1Alg=3 FixD1E=F DoIter=F DoCFld=F I1PDM=0.
 GePol: Maximum number of non-zero 1st derivatives   =     192
 Leave Link  701 at Mon Apr 18 09:42:54 2016, MaxMem=   33554432 cpu:      16.0
 (Enter c:\G09w04\l702.exe)
 L702 exits ... SP integral derivatives will be done elsewhere.
 Leave Link  702 at Mon Apr 18 09:42:54 2016, MaxMem=   33554432 cpu:       0.0
 (Enter c:\G09w04\l703.exe)
 Compute integral first derivatives, UseDBF=F ICtDFT=           0.
 Integral derivatives from FoFDir, PRISM(SPDF).
 Calling FoFJK, ICntrl=      2127 FMM=F ISym2X=0 I1Cent= 0 IOpClX= 0 NMat=1 NMatS=1 NMatT=0.
 FoFCou: FMM=F IPFlag=           0 FMFlag=      100000 FMFlg1=         800
         NFxFlg=           0 DoJE=F BraDBF=F KetDBF=F FulRan=T
         Omega=  0.000000  0.000000  1.000000  0.000000  0.000000 ICntrl=    2127 IOpCl=  0
         NMat0=    1 NMatS0=    1 NMatT0=    0 NMatD0=    1 NMtDS0=    0 NMtDT0=    0
         I1Cent=           0 NGrid=           0.
 Symmetry not used in FoFCou.
 Leave Link  703 at Mon Apr 18 09:46:50 2016, MaxMem=   33554432 cpu:     236.0
 (Enter c:\G09w04\l716.exe)
 Dipole        =-4.90256687D-01 1.34259276D+00 6.12183192D-02
 -------------------------------------------------------------------
 Center     Atomic                   Forces (Hartrees/Bohr)
 Number     Number              X              Y              Z
 -------------------------------------------------------------------
      1        7           0.000854332    0.003834063   -0.004597226
      2        1          -0.001832279   -0.000804513   -0.001409610
      3        6          -0.014189757    0.016104851   -0.020366305
      4        1           0.030731684   -0.042000986    0.047016172
      5        6           0.000307406   -0.004592778    0.008948883
      6        6          -0.027618549   -0.019170524   -0.051239069
      7        1           0.001487961   -0.000916162   -0.001051954
      8        1          -0.000968579    0.000662876    0.000137955
      9        6          -0.000182637   -0.000319428   -0.000145759
     10        8          -0.004030712    0.005184724    0.004662561
     11        6          -0.000087652    0.000119507   -0.000039034
     12        6           0.000094438    0.000133130    0.000289409
     13        1          -0.000056793   -0.000056698    0.000002073
     14        6           0.000105792    0.000055999    0.000084821
     15        6           0.000032326   -0.000024827    0.000062437
     16        1          -0.000055763    0.000023378   -0.000030973
     17        1           0.000017246    0.000020857    0.000008880
     18        6           0.000042236    0.000062990   -0.000031752
     19        1           0.000020031   -0.000007849    0.000003324
     20        1           0.000009047    0.000004874    0.000005151
     21        1           0.000209358    0.000336892    0.000078755
     22        8           0.017708240    0.041113686    0.017053919
     23        1          -0.002597378    0.000235937    0.000557342
 -------------------------------------------------------------------
 Cartesian Forces:  Max     0.051239069 RMS     0.013224315
 Leave Link  716 at Mon Apr 18 09:46:50 2016, MaxMem=   33554432 cpu:       0.0
 (Enter c:\G09w04\l103.exe)

 GradGradGradGradGradGradGradGradGradGradGradGradGradGradGradGradGradGrad
 Berny optimization.
 Internal  Forces:  Max     0.057756455 RMS     0.009312918
 Search for a local minimum.
 Step number   1 out of a maximum of  117
 All quantities printed in internal units (Hartrees-Bohrs-Radians)
 RMS Force = .93129D-02 SwitMx=.10000D-02 MixMth= 1
 Mixed Optimization -- RFO/linear search
 Second derivative matrix not updated -- first step.
 ITU=  0
     Eigenvalues ---    0.00230   0.00612   0.01111   0.01486   0.01498
     Eigenvalues ---    0.02038   0.02096   0.02119   0.02125   0.02141
     Eigenvalues ---    0.02150   0.02153   0.02154   0.02157   0.02293
     Eigenvalues ---    0.02841   0.03121   0.04159   0.04825   0.06175
     Eigenvalues ---    0.10704   0.13349   0.13716   0.15999   0.16000
     Eigenvalues ---    0.16000   0.16000   0.16000   0.16000   0.16000
     Eigenvalues ---    0.16000   0.19873   0.21800   0.22000   0.22000
     Eigenvalues ---    0.22065   0.23473   0.24876   0.24942   0.24999
     Eigenvalues ---    0.28260   0.31186   0.33516   0.34415   0.35318
     Eigenvalues ---    0.35331   0.35451   0.35454   0.35483   0.38955
     Eigenvalues ---    0.39053   0.41915   0.41987   0.44307   0.45432
     Eigenvalues ---    0.45777   0.46040   0.46410   0.46513   0.48293
     Eigenvalues ---    0.53092   0.63456   0.63686
 RFO step:  Lambda=-4.07314212D-02 EMin= 2.30000000D-03
 Linear search not attempted -- first point.
 Maximum step size (   0.300) exceeded in Quadratic search.
    -- Step size scaled by   0.741
 Iteration  1 RMS(Cart)=  0.06598744 RMS(Int)=  0.00605489
 Iteration  2 RMS(Cart)=  0.01382350 RMS(Int)=  0.00039736
 Iteration  3 RMS(Cart)=  0.00026723 RMS(Int)=  0.00020573
 Iteration  4 RMS(Cart)=  0.00000015 RMS(Int)=  0.00020573
 Variable       Old X    -DE/DX   Delta X   Delta X   Delta X     New X
                                 (Linear)    (Quad)   (Total)
    R1        1.92789   0.00147   0.00000   0.00226   0.00226   1.93015
    R2        2.72861   0.00145   0.00000   0.00249   0.00249   2.73110
    R3        1.91478  -0.00003   0.00000  -0.00005  -0.00005   1.91473
    R4        2.91573  -0.00232   0.00000  -0.00532  -0.00532   2.91041
    R5        2.72998  -0.00896   0.00000  -0.01542  -0.01542   2.71456
    R6        2.76536   0.05776   0.00000   0.22101   0.22061   2.98597
    R7        1.85193   0.00937   0.00000   0.01839   0.01862   1.87055
    R8        2.06635   0.00084   0.00000   0.00162   0.00162   2.06797
    R9        2.08154   0.00018   0.00000   0.00036   0.00036   2.08191
   R10        2.85659  -0.00001   0.00000  -0.00002  -0.00002   2.85657
   R11        2.48138   0.00592   0.00000   0.00647   0.00647   2.48785
   R12        2.44149   0.03597   0.00000   0.04293   0.04324   2.48473
   R13        2.64486   0.00009   0.00000   0.00014   0.00014   2.64500
   R14        2.64659   0.00018   0.00000   0.00027   0.00027   2.64686
   R15        1.83568   0.00056   0.00000   0.00073   0.00073   1.83641
   R16        2.05162   0.00000   0.00000   0.00001   0.00001   2.05163
   R17        2.63700   0.00018   0.00000   0.00026   0.00026   2.63726
   R18        2.63482   0.00009   0.00000   0.00014   0.00014   2.63496
   R19        2.05140  -0.00001   0.00000  -0.00003  -0.00003   2.05138
   R20        2.04944   0.00002   0.00000   0.00004   0.00004   2.04948
   R21        2.63580   0.00001   0.00000   0.00001   0.00001   2.63581
   R22        2.63753   0.00008   0.00000   0.00011   0.00011   2.63764
   R23        2.04949   0.00002   0.00000   0.00003   0.00003   2.04952
   R24        2.04898   0.00001   0.00000   0.00002   0.00002   2.04900
    A1        1.97880   0.00328   0.00000   0.01276   0.01276   1.99156
    A2        1.88792  -0.00082   0.00000  -0.00192  -0.00192   1.88600
    A3        1.96296  -0.00116   0.00000  -0.00364  -0.00365   1.95932
    A4        1.91385   0.00129   0.00000   0.00646   0.00647   1.92032
    A5        2.07157  -0.00556   0.00000  -0.01462  -0.01475   2.05682
    A6        2.04986   0.00532   0.00000   0.01861   0.01864   2.06850
    A7        1.85238   0.00224   0.00000   0.01094   0.01095   1.86333
    A8        1.88743  -0.00108   0.00000  -0.00660  -0.00660   1.88083
    A9        2.05646  -0.00106   0.00000  -0.00306  -0.00307   2.05339
   A10        1.85514  -0.00017   0.00000  -0.00018  -0.00016   1.85498
   A11        1.91082  -0.00083   0.00000  -0.00223  -0.00223   1.90859
   A12        1.89169   0.00095   0.00000   0.00140   0.00137   1.89307
   A13        2.22618  -0.02138   0.00000  -0.05348  -0.05368   2.17251
   A14        1.92865   0.05012   0.00000   0.12909   0.12897   2.05763
   A15        2.12032  -0.02838   0.00000  -0.07132  -0.07155   2.04878
   A16        2.10977  -0.00017   0.00000  -0.00042  -0.00042   2.10935
   A17        2.10748   0.00025   0.00000   0.00064   0.00064   2.10812
   A18        2.06591  -0.00008   0.00000  -0.00020  -0.00020   2.06571
   A19        1.93647   0.00247   0.00000   0.00910   0.00910   1.94557
   A20        2.08459  -0.00010   0.00000  -0.00034  -0.00034   2.08424
   A21        2.11085   0.00003   0.00000   0.00008   0.00008   2.11093
   A22        2.08774   0.00007   0.00000   0.00027   0.00027   2.08800
   A23        2.11078   0.00005   0.00000   0.00013   0.00013   2.11092
   A24        2.08351  -0.00009   0.00000  -0.00032  -0.00032   2.08319
   A25        2.08889   0.00004   0.00000   0.00018   0.00018   2.08907
   A26        2.09099   0.00001   0.00000   0.00005   0.00005   2.09104
   A27        2.09616   0.00002   0.00000   0.00003   0.00003   2.09620
   A28        2.09601  -0.00002   0.00000  -0.00008  -0.00008   2.09593
   A29        2.09643   0.00000   0.00000  -0.00002  -0.00002   2.09641
   A30        2.09131   0.00001   0.00000   0.00004   0.00004   2.09135
   A31        2.09544  -0.00001   0.00000  -0.00003  -0.00003   2.09542
   A32        2.08619   0.00000   0.00000  -0.00002  -0.00002   2.08617
   A33        2.09859   0.00000   0.00000   0.00001   0.00001   2.09860
   A34        2.09839   0.00000   0.00000   0.00001   0.00001   2.09840
   A35        1.37680   0.01618   0.00000   0.11186   0.11249   1.48929
    D1       -0.99866  -0.00150   0.00000  -0.00653  -0.00647  -1.00513
    D2        1.42546   0.00230   0.00000   0.01479   0.01474   1.44020
    D3        3.13565  -0.00203   0.00000  -0.01100  -0.01095   3.12471
    D4       -0.72341   0.00176   0.00000   0.01032   0.01026  -0.71315
    D5       -1.02386  -0.00073   0.00000   0.00398   0.00406  -1.01979
    D6        0.96073  -0.00033   0.00000   0.00604   0.00611   0.96684
    D7        3.11182  -0.00073   0.00000   0.00009   0.00018   3.11200
    D8        2.82520   0.00052   0.00000  -0.00181  -0.00188   2.82332
    D9       -1.47339   0.00092   0.00000   0.00025   0.00016  -1.47323
   D10        0.67770   0.00051   0.00000  -0.00570  -0.00577   0.67193
   D11       -0.50512   0.00593   0.00000   0.07856   0.07817  -0.42695
   D12        2.50075   0.00761   0.00000   0.11130   0.11178   2.61254
   D13        1.86427   0.00792   0.00000   0.09519   0.09470   1.95897
   D14       -1.41304   0.00960   0.00000   0.12793   0.12832  -1.28472
   D15       -1.62229   0.00101   0.00000   0.00701   0.00701  -1.61528
   D16        1.52706   0.00089   0.00000   0.00529   0.00529   1.53235
   D17        2.54322  -0.00054   0.00000  -0.00364  -0.00364   2.53958
   D18       -0.59061  -0.00067   0.00000  -0.00536  -0.00536  -0.59597
   D19        0.52665  -0.00042   0.00000  -0.00300  -0.00300   0.52365
   D20       -2.60719  -0.00055   0.00000  -0.00472  -0.00472  -2.61190
   D21        2.84582   0.00172   0.00000   0.00441   0.00325   2.84908
   D22       -0.14660  -0.00555   0.00000  -0.04544  -0.04428  -0.19089
   D23       -0.18142  -0.00275   0.00000  -0.03505  -0.03536  -0.21678
   D24        2.83405  -0.00107   0.00000  -0.00432  -0.00401   2.83004
   D25       -0.00744  -0.00008   0.00000  -0.00106  -0.00106  -0.00850
   D26        3.13887  -0.00009   0.00000  -0.00120  -0.00119   3.13767
   D27        3.12658   0.00005   0.00000   0.00062   0.00062   3.12719
   D28       -0.01030   0.00003   0.00000   0.00048   0.00048  -0.00982
   D29       -3.14121   0.00007   0.00000   0.00100   0.00100  -3.14021
   D30        0.00288   0.00008   0.00000   0.00102   0.00102   0.00390
   D31        0.00795  -0.00005   0.00000  -0.00068  -0.00068   0.00728
   D32       -3.13114  -0.00005   0.00000  -0.00065  -0.00065  -3.13179
   D33        3.13998   0.00000   0.00000  -0.00001  -0.00001   3.13997
   D34        0.00539   0.00000   0.00000  -0.00001  -0.00001   0.00538
   D35        0.00311  -0.00001   0.00000  -0.00014  -0.00014   0.00296
   D36       -3.13148  -0.00001   0.00000  -0.00014  -0.00014  -3.13162
   D37       -0.00069   0.00003   0.00000   0.00040   0.00040  -0.00029
   D38       -3.13698   0.00002   0.00000   0.00027   0.00027  -3.13670
   D39        3.13840   0.00003   0.00000   0.00037   0.00037   3.13877
   D40        0.00211   0.00002   0.00000   0.00025   0.00025   0.00236
   D41        0.00208  -0.00002   0.00000  -0.00028  -0.00028   0.00181
   D42        3.13670  -0.00001   0.00000  -0.00007  -0.00007   3.13663
   D43       -3.13248  -0.00002   0.00000  -0.00028  -0.00028  -3.13276
   D44        0.00214  -0.00001   0.00000  -0.00007  -0.00007   0.00207
   D45       -0.00441   0.00001   0.00000   0.00009   0.00009  -0.00432
   D46       -3.13902  -0.00001   0.00000  -0.00012  -0.00012  -3.13914
   D47        3.13187   0.00002   0.00000   0.00021   0.00021   3.13208
   D48       -0.00275   0.00000   0.00000   0.00000   0.00000  -0.00274
         Item               Value     Threshold  Converged?
 Maximum Force            0.057756     0.000450     NO 
 RMS     Force            0.009313     0.000300     NO 
 Maximum Displacement     0.423377     0.001800     NO 
 RMS     Displacement     0.078131     0.001200     NO 
 Predicted change in Energy=-2.178410D-02
 GradGradGradGradGradGradGradGradGradGradGradGradGradGradGradGradGradGrad

 Leave Link  103 at Mon Apr 18 09:46:51 2016, MaxMem=   33554432 cpu:       1.0
 (Enter c:\G09w04\l202.exe)
                          Input orientation:                          
 ---------------------------------------------------------------------
 Center     Atomic      Atomic             Coordinates (Angstroms)
 Number     Number       Type             X           Y           Z
 ---------------------------------------------------------------------
      1          7           0       -3.020319   -1.311752   -0.645084
      2          1           0       -3.192137   -1.095569   -1.628437
      3          6           0       -1.797137   -0.747412   -0.121583
      4          1           0       -0.881906    0.000659    1.419666
      5          6           0       -0.594212   -1.235085   -0.950509
      6          6           0       -1.821510    0.621989    0.311589
      7          1           0       -0.595007   -2.328001   -0.895026
      8          1           0       -0.786545   -0.979180   -2.004671
      9          6           0        0.774327   -0.715343   -0.573676
     10          8           0       -2.672935    1.526492   -0.124474
     11          6           0        1.302217    0.426931   -1.186562
     12          6           0        1.548576   -1.369719    0.392849
     13          1           0        0.722443    0.939870   -1.947775
     14          6           0        2.563521    0.911100   -0.836794
     15          6           0        2.810662   -0.892286    0.744179
     16          1           0        1.158821   -2.262472    0.871895
     17          1           0        2.955257    1.796972   -1.324645
     18          6           0        3.321768    0.252886    0.131355
     19          1           0        3.396602   -1.415897    1.491692
     20          1           0        4.303916    0.624466    0.401508
     21          1           0       -3.833771   -1.024646   -0.113575
     22          8           0       -1.013618    0.972813    1.287855
     23          1           0       -2.701708    2.300267    0.462730
 ---------------------------------------------------------------------
                    Distance matrix (angstroms):
                    1          2          3          4          5
     1  N    0.000000
     2  H    1.021391   0.000000
     3  C    1.445236   2.082750   0.000000
     4  H    3.249373   3.978670   1.942345   0.000000
     5  C    2.446458   2.688544   1.540121   2.688413   0.000000
     6  C    2.468141   2.931267   1.436485   1.580108   2.558882
     7  H    2.641471   2.966793   2.131101   3.295871   1.094323
     8  H    2.636062   2.437616   2.149659   3.563041   1.101698
     9  C    3.841893   4.121884   2.611100   2.688714   1.511633
    10  O    2.906430   3.067030   2.436733   2.814306   3.553833
    11  C    4.690473   4.765761   3.481273   3.427029   2.532679
    12  C    4.685666   5.160922   3.441759   2.973135   2.532642
    13  H    4.557968   4.423678   3.539800   3.846520   2.731035
    14  C    6.013077   6.146627   4.719908   4.217995   3.819728
    15  C    6.008855   6.457881   4.690665   3.858587   3.818722
    16  H    4.546460   5.152102   3.467000   3.096188   2.729432
    17  H    6.770042   6.800701   5.523268   5.047950   4.683169
    18  C    6.578223   6.880854   5.221854   4.403889   4.326590
    19  H    6.764135   7.297212   5.479457   4.507488   4.682268
    20  H    7.647791   7.954244   6.275230   5.321515   5.410872
    21  H    1.013231   1.646673   2.055432   3.480745   3.352535
    22  O    3.603102   4.186754   2.357879   0.989852   3.171906
    23  H    3.791497   4.018110   3.232340   3.084738   4.351725
                    6          7          8          9         10
     6  C    0.000000
     7  H    3.415065   0.000000
     8  H    2.999992   1.757076   0.000000
     9  C    3.051315   2.139862   2.133935   0.000000
    10  O    1.316511   4.446194   3.656774   4.136571   0.000000
    11  C    3.469896   3.357693   2.647523   1.399674   4.258979
    12  C    3.915480   2.678036   3.369483   1.400658   5.145563
    13  H    3.417232   3.677354   2.441933   2.151875   3.898352
    14  C    4.542122   4.524540   4.019955   2.432234   5.320393
    15  C    4.892563   4.043124   4.528093   2.432018   6.055978
    16  H    4.185263   2.490425   3.702150   2.152004   5.480086
    17  H    5.184144   5.459335   4.708560   3.410591   5.761086
    18  C    5.159654   4.801621   4.791537   2.814959   6.133839
    19  H    5.724886   4.739336   5.469369   3.410696   6.936060
    20  H    6.126086   5.864939   5.854415   3.899239   7.054555
    21  H    2.634647   3.577568   3.586628   4.641329   2.802849
    22  O    1.314862   3.979394   3.834393   3.084139   2.248237
    23  H    1.901108   5.263322   4.528873   4.717082   0.971785
                   11         12         13         14         15
    11  C    0.000000
    12  C    2.404825   0.000000
    13  H    1.085675   3.390460   0.000000
    14  C    1.395580   2.782853   2.150506   0.000000
    15  C    2.782714   1.394358   3.868341   2.410965   0.000000
    16  H    3.389793   1.085542   4.289051   3.868379   2.149954
    17  H    2.151422   3.867359   2.471512   1.084539   3.396033
    18  C    2.417805   2.417734   3.398708   1.394810   1.395780
    19  H    3.867235   2.150532   4.952847   3.395701   1.084561
    20  H    3.401643   3.401286   4.294829   2.155115   2.155868
    21  H    5.443965   5.417122   5.289868   6.722761   6.700877
    22  O    3.432757   3.585154   3.672097   4.160993   4.289439
    23  H    4.718154   5.615924   4.402957   5.598321   6.376350
                   16         17         18         19         20
    16  H    0.000000
    17  H    4.952883   0.000000
    18  C    3.399083   2.153710   0.000000
    19  H    2.471538   4.295237   2.154288   0.000000
    20  H    4.295032   2.484603   1.084282   2.484915   0.000000
    21  H    5.237303   7.451115   7.272814   7.416755   8.319064
    22  O    3.919130   4.822484   4.544376   5.019713   5.402140
    23  H    5.990801   5.953929   6.370546   7.215125   7.203529
                   21         22         23
    21  H    0.000000
    22  O    3.729225   0.000000
    23  H    3.559318   2.300569   0.000000
 Symmetry turned off by external request.
 Stoichiometry    C9H11NO2
 Framework group  C1[X(C9H11NO2)]
 Deg. of freedom    63
 Full point group                 C1      NOp   1
 Rotational constants (GHZ):      1.8082426      0.5778179      0.5236609
 Leave Link  202 at Mon Apr 18 09:46:51 2016, MaxMem=   33554432 cpu:       0.0
 (Enter c:\G09w04\l301.exe)
 Standard basis: 6-311++G(d,p) (5D, 7F)
 Ernie: Thresh=  0.10000D-02 Tol=  0.10000D-05 Strict=F.
 Integral buffers will be    262144 words long.
 Raffenetti 2 integral format.
 Two-electron integral symmetry is turned off.
   341 basis functions,   531 primitive gaussians,   353 cartesian basis functions
    44 alpha electrons       44 beta electrons
       nuclear repulsion energy       681.7477679438 Hartrees.
 IExCor=  402 DFT=T Ex+Corr=B3LYP ExCW=0 ScaHFX=  0.200000
 ScaDFX=  0.800000  0.720000  1.000000  0.810000 ScalE2=  1.000000  1.000000
 IRadAn=      0 IRanWt=     -1 IRanGd=            0 ICorTp=0
 NAtoms=   23 NActive=   23 NUniq=   23 SFac= 1.00D+00 NAtFMM=   50 NAOKFM=F Big=F
 ------------------------------------------------------------------------------
 Polarizable Continuum Model (PCM)
 =================================
 Model                : C-PCM.
 Atomic radii         : UFF (Universal Force Field).
 Polarization charges : Total charges.
 Charge compensation  : None.
 Solution method      : Matrix inversion.
 Cavity type          : Scaled VdW (van der Waals Surface) (Alpha=1.100).
 Cavity algorithm     : GePol (No added spheres)
                        Default sphere list used, NSphG=   23.
                        Lebedev-Laikov grids with approx.  5.0 points / Ang**2.
                        Smoothing algorithm: Karplus/York (Gamma=1.0000).
                        Polarization charges: spherical gaussians, with
                                              point-specific exponents (IZeta= 3).
                        Self-potential: point-specific (ISelfS= 7).
                        Self-field    : sphere-specific E.n sum rule (ISelfD= 2).
 1st derivatives      : Analytical E(r).r(x)/FMM algorithm (CHGder, D1EAlg=3).
                        Cavity 1st derivative terms included.
 Solvent              : Water, Eps=  78.355300 Eps(inf)=   1.777849
 ------------------------------------------------------------------------------
 GePol: Number of generator spheres                  =      23
 GePol: Total number of spheres                      =      23
 GePol: Number of exposed spheres                    =      23 (100.00%)
 GePol: Number of points                             =    1797
 GePol: Average weight of points                     =       0.13
 GePol: Minimum weight of points                     =   0.12D-07
 GePol: Maximum weight of points                     =    0.20577
 GePol: Number of points with low weight             =     109
[...]
 02924,-0.00020229,-0.00037991,-0.00042814,0.00027544,-0.00052217,0.000
 32747,-0.00166035,-0.00013163,0.00537187,-0.00005576,0.00007402,-0.000
 17576,-0.00078073,-0.00022802,0.00006795,0.00056413,0.00020202,0.00015
 405,-0.02736282,-0.01229957,0.00041674,-0.00011874,-0.00000826,0.00008
 260,-0.10905252,-0.13010680,-0.00131090,0.00093786,-0.00239150,-0.0017
 2660,0.01206830,0.00824876,0.00338637,0.16375482,0.47799318,-0.0000236
 5,0.00003864,-0.00016459,-0.00005260,0.00002241,0.00000467,-0.00051006
 ,0.00006320,-0.00051866,0.00050919,-0.00091894,-0.00029612,-0.00048405
 ,0.00518804,0.00033274,0.00016021,0.00023330,0.00015770,0.00119129,0.0
 0081907,0.00039085,0.00018198,0.00007349,0.00000712,0.01743340,-0.0181
 9179,0.03722385,0.00001629,-0.00025924,-0.00005230,-0.03391040,0.02514
 076,-0.11107079,-0.02942206,-0.00241485,-0.02254185,-0.02195653,-0.009
 67451,-0.00072791,0.11857784,-0.24592990,0.46974945,0.00001741,-0.0000
 2280,0.00020942,0.00010081,-0.00002854,-0.00000638,-0.00064722,-0.0000
 3406,0.00098800,-0.00227062,0.00201007,0.00007850,0.00280091,-0.000252
 88,-0.00404916,-0.00069638,-0.00100390,-0.00105075,-0.00008477,-0.0002
 7784,0.00030875,-0.00138162,-0.00017694,0.00012191,-0.03036143,0.03068
 234,-0.05538088,0.00010847,0.00040034,0.00019956,-0.03653790,-0.031484
 00,0.01144604,-0.27547756,-0.10445125,-0.03298435,-0.00058992,-0.00032
 326,0.00070211,0.05321265,0.01011676,0.01965252,0.58307259,0.00001599,
 0.00006931,0.00022902,0.00001541,0.00000291,-0.00004226,-0.00117548,-0
 .00029594,0.00012822,-0.00106112,0.00183765,-0.00023066,-0.00078799,0.
 00201348,0.00487874,-0.00035183,-0.00065632,-0.00057938,0.00001431,0.0
 0011351,-0.00016268,0.00087089,0.00024782,0.00063038,0.00212467,0.0393
 2236,-0.03314237,0.00016111,0.00029417,0.00004400,-0.03046372,-0.03165
 531,0.00710799,-0.06388857,-0.12942675,0.02373212,-0.00024134,-0.00083
 413,-0.00047412,0.03854350,-0.01255374,0.04587375,0.12112562,0.4496782
 8,-0.00051851,0.00026697,0.00011836,-0.00000541,0.00000441,0.00005382,
 -0.00049040,-0.00075602,-0.00104157,-0.00016462,0.00026121,-0.00007136
 ,-0.00312448,0.00510248,0.00147362,-0.00011585,-0.00016768,-0.00026812
 ,0.00002764,-0.00003942,0.00005766,0.00044510,-0.00002206,-0.00002510,
 -0.02495876,-0.01478952,0.00403009,0.00001048,0.00006887,0.00006346,0.
 01104083,0.00722079,-0.00486647,-0.07345140,-0.00101439,-0.10974312,0.
 00055877,-0.00051759,-0.00021871,-0.01020134,0.02720738,-0.02730176,0.
 16693441,-0.24041823,0.49086237,0.00002576,0.00002430,0.00000284,-0.00
 001187,0.00000785,-0.00000221,-0.00016405,-0.00007242,-0.00024848,-0.0
 0009492,0.00033287,-0.00012252,0.00006046,0.00222613,0.00084953,-0.000
 05420,0.00012379,0.00008712,-0.00002180,-0.00014329,-0.00018677,0.0002
 5012,-0.00011299,0.00020432,0.00823886,0.01285889,-0.00958447,0.000154
 32,-0.00012015,-0.00004791,-0.00035325,-0.00016241,-0.00460715,-0.0876
 0544,-0.07856533,0.04607503,0.00045924,0.00065874,-0.00054571,-0.00093
 552,0.00041357,-0.00024687,-0.00558966,-0.02206846,0.01662207,0.089113
 59,0.00013286,-0.00009871,-0.00008247,0.00000010,0.00000098,-0.0000106
 0,0.00023954,0.00025490,0.00022716,0.00004273,-0.00068836,0.00047976,0
 .00065189,-0.00108310,-0.00276947,0.00009973,0.00008529,0.00027967,0.0
 0048809,0.00035445,0.00013117,-0.00038759,0.00020386,-0.00023181,-0.00
 595432,-0.00640333,0.00526186,-0.00000987,-0.00003733,-0.00007071,0.00
 031509,0.00326725,0.00365455,-0.07830426,-0.20954870,0.12309831,-0.000
 33103,-0.00026058,0.00038805,0.00055883,-0.00023740,-0.00058517,-0.002
 22720,-0.00508261,0.00682956,0.08705240,0.21750137,0.00004298,-0.00005
 709,-0.00004687,0.00000085,0.00000223,-0.00000828,0.00012820,-0.000082
 55,0.00024437,0.00028681,-0.00025516,0.00000768,0.00264099,-0.00083713
 ,-0.00100699,0.00011916,0.00012272,0.00024055,-0.00067982,-0.00070345,
 0.00017921,-0.00030739,-0.00015374,0.00005066,0.00888274,0.01763633,-0
 .00882483,0.00001599,-0.00006079,-0.00006866,-0.00498466,0.00360292,0.
 00000184,0.04559961,0.12265512,-0.12996663,0.00047219,0.00093178,-0.00
 045679,-0.00038767,-0.00075733,-0.00063700,-0.00328412,-0.00584475,0.0
 0676401,-0.04682023,-0.13572156,0.13139447,-0.00011701,0.00005207,0.00
 002382,0.00001218,-0.00000854,0.00000647,0.00011677,-0.00012570,0.0000
 1507,0.00009359,-0.00005369,-0.00012004,0.00002935,-0.00091728,0.00091
 567,0.00002883,-0.00012678,-0.00012768,-0.00046285,-0.00019535,-0.0000
 1773,0.00005048,0.00004524,-0.00003287,-0.00302572,-0.00305349,-0.0038
 1595,-0.00012051,0.00011069,0.00005804,-0.00584218,-0.02212067,0.01674
 757,-0.00091324,0.00044936,-0.00037727,0.00032518,0.00179318,0.0011995
 8,-0.09009400,-0.07989935,0.04861733,-0.00021010,-0.00030907,-0.004462
 01,-0.00009573,0.00022250,0.00038508,0.09000987,-0.00012005,0.00004170
 ,-0.00000058,0.00000674,-0.00000299,0.00000490,0.00012500,-0.00016026,
 -0.00003148,0.00006699,-0.00007601,-0.00012936,0.00018561,-0.00015231,
 0.00046924,0.00007909,-0.00005974,-0.00003161,-0.00011400,-0.00011541,
 -0.00006481,-0.00003911,-0.00000403,-0.00005774,-0.00372617,0.00379669
 ,0.00180498,-0.00007259,0.00006937,0.00002938,-0.00237355,-0.00479215,
 0.00734409,0.00033540,-0.00013022,-0.00070010,0.00131908,-0.00136605,-
 0.00221153,-0.08001585,-0.20797983,0.12388099,0.00021201,0.00349046,0.
 00394895,0.00023678,-0.00051722,-0.00040391,0.08849097,0.21410698,-0.0
 0000093,0.00000478,-0.00002386,-0.00000783,0.00000195,0.00000212,0.000
 05710,-0.00003071,-0.00006123,-0.00009528,0.00002047,0.00004028,-0.000
 10516,-0.00016030,0.00026719,-0.00000190,0.00006687,0.00003757,0.00001
 580,-0.00006899,-0.00005542,0.00003017,0.00001068,-0.00002761,-0.00341
 695,0.00177536,0.00369079,0.00005062,-0.00004527,-0.00001126,-0.003599
 26,-0.00540354,0.00708601,-0.00039579,-0.00071592,-0.00057185,0.001636
 05,-0.00193808,-0.00125024,0.04863137,0.12404137,-0.13486883,-0.004979
 26,0.00365289,0.00006870,0.00038213,-0.00037405,-0.00041036,-0.0498198
 9,-0.13716029,0.13561285,-0.00025778,0.00014331,0.00015797,0.00006082,
 -0.00003050,-0.00000169,0.00024559,-0.00058832,0.00021201,-0.00033860,
 -0.00008753,-0.00049805,-0.00094654,0.00075387,-0.00073412,0.00002733,
 -0.00051901,-0.00041092,0.00005315,-0.00000484,-0.00003966,-0.00028762
 ,-0.00018116,0.00021695,0.00005896,0.00733303,-0.00283917,-0.00024501,
 0.00038910,0.00013129,-0.03111002,0.00071436,-0.02602481,-0.01031163,-
 0.02868556,0.01751360,-0.00281211,-0.00431558,-0.00246206,-0.17672571,
 0.04280133,-0.11793871,-0.14435025,-0.09368975,0.04370449,-0.00331980,
 -0.00360617,-0.00316709,0.00987039,-0.00558604,0.00993984,0.63216460,-
 0.00012127,0.00004963,-0.00016927,-0.00002727,0.00000280,0.00001689,0.
 00066385,0.00007811,-0.00044953,0.00060897,-0.00142039,-0.00055121,0.0
 0042815,-0.00060334,0.00018689,0.00045001,0.00035734,0.00035871,0.0000
 1479,0.00019160,-0.00008938,0.00003768,-0.00006144,-0.00043793,0.00679
 241,-0.03218322,0.03236195,-0.00016030,-0.00012908,-0.00002731,0.02923
 093,0.04029409,-0.01469592,-0.05721294,-0.01255108,-0.01665509,-0.0048
 2066,0.00277261,0.00182011,0.00280021,-0.12815290,0.06810555,-0.053485
 62,-0.21984542,0.12412270,-0.00319526,0.00360051,0.00179445,0.01400459
 ,-0.00464518,0.01769650,0.17180409,0.44537092,-0.00005269,-0.00003392,
 0.00018849,0.00006851,-0.00000844,-0.00002951,-0.00026828,-0.00034019,
 0.00078356,-0.00058262,0.00143111,-0.00001302,-0.00047778,-0.00006279,
 -0.00176622,-0.00019922,-0.00057354,-0.00038148,-0.00010197,-0.0002681
 2,0.00003243,-0.00044299,-0.00025637,0.00053270,-0.00258869,0.03192523
 ,-0.04108476,-0.00012683,0.00041275,0.00004802,-0.05537338,-0.03372369
 ,0.00517989,0.04742726,0.00169501,0.03545791,-0.00178461,0.00222881,0.
 00415359,-0.07646505,0.09425773,-0.21170232,0.00252504,0.09877857,-0.1
 6267158,-0.00372617,0.00133352,0.00358830,-0.01043772,0.00497347,-0.00
 816705,0.14823965,-0.20657652,0.44505570,-0.00020378,0.00009275,0.0000
 5066,0.00002638,-0.00001368,0.00001420,0.00006716,-0.00026168,-0.00015
 896,0.00016680,-0.00010320,-0.00014042,-0.00022236,0.00072692,-0.00090
 859,0.00006081,-0.00011868,-0.00008462,0.00002828,0.00000911,0.0000768
 0,-0.00033004,-0.00010526,-0.00012283,-0.00264836,-0.00472168,-0.00148
 878,-0.00012073,0.00012018,0.00005063,-0.00058015,-0.00033610,0.000702
 60,-0.01097689,0.01234251,-0.02187540,-0.00014372,0.00040807,0.0001997
 4,0.00124096,-0.00378434,-0.00017803,-0.13711016,0.05237740,-0.1181889
 0,0.00032143,0.00120602,0.00160607,0.00030921,-0.00029477,0.00047928,0
 .00992087,-0.00559577,0.00960725,0.14037114,-0.00003317,0.00000253,0.0
 0001772,0.00000367,0.00000117,0.00000864,-0.00009295,-0.00004203,0.000
 01644,-0.00004987,-0.00000579,0.00000573,-0.00014140,0.00038699,-0.000
 31120,-0.00002363,-0.00003725,-0.00006496,0.00002441,-0.00002047,-0.00
 000034,-0.00002416,0.00000391,-0.00004126,-0.00437445,0.00266350,0.001
 84437,-0.00001573,0.00001979,0.00001358,-0.00036696,-0.00093270,-0.000
 46204,-0.00742781,0.00795577,-0.00949693,0.00040578,-0.00041444,-0.000
 44793,-0.00430923,0.00004140,0.00485940,0.05226636,-0.09111649,0.08866
 802,0.00170929,-0.00115197,-0.00179896,0.00068093,-0.00035027,0.000893
 66,0.01427025,-0.00446925,0.01767767,-0.05377386,0.08851470,-0.0000875
 0,0.00001514,0.00001984,0.00000787,0.00000116,0.00000772,-0.00003579,-
 0.00007924,0.00001770,0.00011235,-0.00013770,-0.00011847,0.00018640,0.
 00038522,-0.00008796,0.00005507,-0.00009184,-0.00006484,-0.00001428,-0
 .00002905,-0.00000786,-0.00005021,0.00001579,-0.00004564,-0.00232646,0
 .00182445,0.00396544,-0.00009248,0.00007609,0.00003231,0.00062477,-0.0
 0055703,-0.00016309,-0.00142411,0.00313809,-0.00068513,0.00020979,-0.0
 0046535,-0.00050952,0.00038357,0.00516424,0.00249317,-0.11829356,0.088
 52322,-0.20454713,0.00113350,-0.00203886,-0.00121874,-0.00053059,0.000
 22432,-0.00052212,-0.01058567,0.00504458,-0.00814687,0.12936393,-0.098
 95079,0.21067601,-0.00008947,0.00002117,-0.00000213,0.00000387,0.00000
 030,0.00000263,0.00001680,-0.00005343,-0.00002101,0.00015987,-0.000078
 64,-0.00011108,-0.00020938,0.00026121,0.00029036,0.00006749,-0.0000698
 5,-0.00003583,-0.00002467,-0.00000695,0.00000699,0.00001986,-0.0000105
 7,0.00003726,0.00029344,0.00056725,0.00024746,-0.00008533,0.00006467,0
 .00002641,0.00123917,0.00027063,-0.00409991,0.00234988,-0.00309771,-0.
 00016047,-0.00064097,-0.00041959,-0.00005653,-0.01084350,-0.00777278,-
 0.00123712,-0.00576385,-0.00221343,-0.00373049,-0.00041001,-0.00010811
 ,-0.00025257,0.00006403,0.00138811,0.00120089,-0.28174792,-0.10118891,
 -0.05578927,-0.00007021,0.00124195,0.00144239,0.29576111,-0.00000498,-
 0.00000604,0.00000630,0.00000761,-0.00000270,-0.00000135,0.00005610,-0
 .00000590,0.00005343,0.00007058,-0.00010255,-0.00000757,0.00037779,-0.
 00027444,-0.00051057,0.00002653,-0.00002806,0.00001084,0.00003070,0.00
 001272,0.00003184,-0.00011362,0.00003601,-0.00014979,0.00043082,-0.000
 90163,0.00021529,-0.00003465,0.00002700,0.00000396,-0.00023139,0.00250
 773,0.00454324,-0.00260197,0.00018598,0.00590917,0.00055206,0.00025947
 ,0.00019164,0.01195503,0.00803005,0.00294918,-0.02202720,-0.00469047,-
 0.00592692,-0.00110416,-0.00032510,-0.00022437,0.00088227,-0.00121879,
 -0.00225512,-0.10112783,-0.08959075,-0.01205574,0.00174183,-0.00104797
 ,-0.00213853,0.11115910,0.08708757,0.00001605,-0.00001285,0.00000577,0
 .00000874,-0.00000100,-0.00000445,0.00005918,-0.00000996,0.00010769,-0
 .00003903,0.00002106,-0.00000641,0.00039707,-0.00043267,-0.00029613,-0
 .00000367,-0.00005395,-0.00002163,-0.00007532,-0.00007252,0.00002798,-
 0.00004418,0.00005374,-0.00007830,0.00022633,0.00019645,-0.00105785,-0
 .00001450,0.00003015,0.00000358,-0.00361352,0.00487441,-0.00033992,-0.
 00074770,0.00553224,0.00143505,-0.00108268,-0.00044777,-0.00017704,-0.
 02153675,-0.00990252,-0.00051024,0.01658989,0.00691367,0.00715573,0.00
 077517,0.00039580,0.00024512,0.00171780,-0.00194130,-0.00083953,-0.055
 80170,-0.01206936,-0.06124336,0.00093034,-0.00243559,-0.00112372,0.062
 21659,0.00936451,0.05670659,-0.26812638,0.16756797,0.05873730,-0.00291
 257,0.00268753,-0.00020138,-0.02588859,0.01872959,0.00614960,-0.000184
 43,0.00018249,-0.00004505,-0.00317271,-0.00259672,-0.00279382,-0.00135
 593,0.00112761,0.00022599,0.00001503,0.00014035,-0.00011724,0.00026817
 ,-0.00035254,-0.00018133,-0.00016323,0.00129750,0.00001999,0.00082304,
 0.00083074,0.00176362,-0.00007975,-0.00001928,-0.00005556,-0.00030002,
 -0.00021763,0.00000702,-0.00000350,0.00000514,0.00003393,0.00002609,-0
 .00003599,-0.00000807,-0.00000337,-0.00002832,-0.00011411,-0.00000730,
 0.00003258,0.00002437,-0.00001652,-0.00001200,0.00000212,-0.00005164,0
 .00000196,-0.00000888,-0.00003316,-0.00001434,-0.00001521,-0.00001127,
 0.00000120,0.00000536,0.29987056,0.21124677,-0.16340362,-0.07159985,-0
 .00433880,-0.00152044,0.00403512,-0.01442172,0.00265682,0.00272295,0.0
 0002894,0.00002577,0.00000490,-0.00047898,0.00099614,-0.00105193,-0.00
 215358,0.00213273,-0.00064004,-0.00036662,0.00012974,-0.00004150,-0.00
 010343,-0.00010934,-0.00004425,-0.00027930,0.00014509,-0.00018752,-0.0
 0040319,-0.00145838,-0.00026741,0.00004699,0.00003497,0.00005320,-0.00
 001439,0.00004796,-0.00001802,-0.00000430,-0.00001526,-0.00001196,0.00
 002791,0.00003818,-0.00001080,0.00001042,-0.00005597,-0.00000143,-0.00
 001565,0.00000421,0.00001396,0.00001241,0.00000959,0.00000445,-0.00001
 215,0.00001844,-0.00001319,0.00000957,0.00000003,-0.00000078,0.0000051
 2,0.00000173,0.00000123,-0.18956410,0.16068620,0.05100510,-0.05497803,
 -0.07641488,0.03117550,-0.02373849,-0.00694659,-0.01235794,0.01441860,
 0.00585892,0.00008554,-0.00003169,0.00015448,-0.00328773,-0.00198379,-
 0.00168847,-0.00397134,0.00088997,0.00086571,0.00040671,-0.00022583,-0
 .00001170,0.00006200,-0.00003337,0.00039411,-0.00052133,0.00077515,0.0
 0066744,0.00144596,-0.00142553,-0.00082012,-0.00005997,0.00000634,-0.0
 0010419,-0.00014271,-0.00014366,-0.00000719,-0.00000116,0.00002404,0.0
 0004943,-0.00001779,-0.00006990,-0.00004271,0.00005389,-0.00001089,-0.
 00009610,-0.00000648,0.00004120,0.00000824,-0.00002215,-0.00002291,-0.
 00000175,-0.00005432,-0.00004770,0.00002593,-0.00002990,0.00000155,-0.
 00001084,-0.00001408,0.00000187,0.00000524,-0.06458272,0.06647848,0.07
 889646,-0.00589041,-0.00490007,-0.00693617,-0.00150887,0.00250409,-0.0
 0138478,0.00483287,-0.00083579,-0.00668730,-0.33152812,0.22538010,0.05
 310147,-0.00377622,-0.00183757,0.00322941,-0.16248161,-0.03291640,-0.1
 0178655,0.00224267,-0.00217206,-0.00020221,0.00083212,0.00004669,-0.00
 079341,-0.00647352,0.00264149,0.00313415,-0.06434851,-0.00002027,-0.03
 320834,0.00096292,0.00303246,-0.00048256,-0.00069282,0.00105832,0.0040
 9953,-0.00004976,-0.00027695,0.00011318,-0.00062194,0.00013081,-0.0004
 1431,0.00187393,0.00110141,0.00021709,0.00003642,-0.00013584,-0.000345
 65,-0.00000756,-0.00009462,-0.00000302,0.00010609,-0.00108246,0.000588
 32,-0.00007479,0.00004879,-0.00006523,-0.00008117,-0.00004871,0.000017
 43,0.00053947,0.00010203,0.00013305,0.56169187,0.00282631,0.00122431,-
 0.00931417,-0.00289755,0.00008805,-0.00177648,-0.02339769,-0.00080646,
 -0.01592388,0.19599506,-0.16510511,-0.05894284,-0.00195679,0.00028566,
 0.00456697,-0.01066063,-0.09651178,-0.07132578,0.00094643,-0.00121819,
 0.00026720,-0.00004376,0.00009127,-0.00018462,0.00257852,-0.00210711,-
 0.00281326,0.02732963,0.00676713,0.01802541,-0.00105916,-0.00097870,0.
 00062128,0.00165318,-0.00009190,-0.00179541,-0.00005453,-0.00004484,-0
 .00008019,0.00121098,0.00022237,0.00072222,-0.00100395,-0.00083613,-0.
 00003810,-0.00010395,0.00016299,0.00013382,0.00007848,0.00006000,-0.00
 002476,0.00025229,0.00091320,-0.00076183,0.00008465,0.00000134,0.00008
 562,0.00004874,0.00004867,-0.00000146,0.00004348,-0.00039746,-0.000152
 65,-0.19011845,0.25652873,-0.01057258,-0.01461491,-0.00389107,-0.00041
 826,0.00171017,0.00008498,-0.02158998,0.00033941,-0.01321819,0.0231424
 0,-0.04259935,-0.03446756,-0.00212052,0.00307863,0.00122891,-0.0784924
 8,-0.08523761,-0.15779929,0.00129894,-0.00147770,0.00018014,0.00070669
 ,-0.00012760,-0.00059734,0.00199625,-0.00265467,-0.00324682,-0.0070662
 5,0.00327236,0.00249094,0.00047595,-0.00101901,-0.00010039,-0.00029597
 ,0.00033197,-0.00033331,-0.00025600,-0.00002366,0.00009067,-0.00018141
 ,-0.00015620,0.00005173,0.00023348,0.00042938,0.00020157,0.00000221,-0
 .00022754,-0.00007605,0.00008368,0.00008136,0.00000263,0.00047200,0.00
 024228,0.00019837,0.00010533,0.00000308,0.00004556,0.00004451,-0.00000
 757,0.00000899,0.00125308,0.00052539,-0.00072677,0.09053626,0.13688061
 ,0.20908375,0.00064142,-0.00132715,-0.00009422,0.00028481,-0.00031580,
 0.00010255,-0.00611084,0.00082862,-0.00150764,-0.00028382,0.00020892,-
 0.00040126,0.00092680,0.00162629,-0.00102275,-0.01054653,0.01806590,0.
 04210197,-0.00051457,0.00045002,0.00024246,0.00005235,-0.00005978,0.00
 002579,0.00045888,-0.00007323,-0.00008667,-0.03131418,0.01637807,-0.00
 660725,-0.00005660,-0.00016549,0.00000028,0.00006239,-0.00006927,-0.00
 017722,0.00000762,0.00001680,-0.00001610,0.00001440,-0.00000602,0.0000
 4242,-0.00011195,-0.00007122,-0.00003460,0.00000334,0.00002202,0.00002
 417,-0.00000445,0.00000300,-0.00000010,-0.00000316,0.00005281,-0.00002
 988,0.00000130,-0.00000387,0.00000142,0.00000223,0.00000288,-0.0000009
 1,0.00076802,0.00066607,0.00070188,0.00441694,-0.00175130,0.00064266,0
 .04130558,0.00165764,0.00024447,0.00023133,0.00012695,-0.00043687,0.00
 021119,0.00130264,-0.00021805,0.00016107,-0.00028256,-0.00056414,0.000
 22231,0.00021082,-0.00014540,-0.00135026,0.00546475,-0.01474810,-0.026
 68612,-0.00038357,0.00038419,0.00001431,0.00014497,-0.00020766,0.00008
 011,-0.00003691,0.00017165,0.00008789,0.02773807,-0.04640196,-0.115764
 57,-0.00006219,0.00002049,-0.00000015,0.00001118,-0.00000104,0.0000751
 0,0.00002579,0.00001351,-0.00001691,0.00003818,-0.00000631,0.00001517,
 -0.00002448,-0.00002067,-0.00001000,0.00001947,-0.00000141,0.00000745,
 -0.00001277,-0.00000434,0.00000804,-0.00002719,0.00000280,-0.00003950,
 -0.00001001,-0.00000250,-0.00000874,-0.00000830,-0.00000253,-0.0000023
 1,0.00019279,0.00003287,0.00022722,-0.00160700,0.00170395,0.00125117,-
 0.03447826,0.06018703,0.00043835,0.00115245,0.00016921,0.00013373,-0.0
 0014714,-0.00009839,-0.00069505,0.00135318,0.00037589,-0.00064616,0.00
 005282,-0.00066313,-0.00041887,-0.00054635,0.00110233,0.00319797,-0.00
 418843,-0.00419121,0.00017505,-0.00000099,-0.00017742,-0.00028273,0.00
 014398,0.00010917,0.00009201,0.00021816,0.00008241,0.03493965,-0.14121
 209,-0.46676272,-0.00008174,0.00002060,-0.00000014,0.00001089,0.000006
 41,0.00007377,0.00000686,-0.00000043,-0.00000531,0.00005183,-0.0000036
 1,0.00002378,-0.00001507,-0.00001659,0.00000163,0.00001107,-0.00000841
 ,-0.00000327,-0.00000621,-0.00000608,0.00000295,-0.00002985,0.00001861
 ,-0.00003872,-0.00001038,0.00000018,-0.00000582,-0.00000502,-0.0000037
 6,-0.00000319,-0.00009901,0.00004901,-0.00005465,-0.00286035,0.0018322
 8,0.00078855,-0.03390700,0.14128620,0.46927428||-0.00000372,-0.0000032
 0,-0.00000723,0.00000353,0.00000763,-0.00001006,0.00001796,0.00000625,
 0.00000252,-0.00000791,0.00000194,-0.00000151,-0.00000618,0.00000349,-
 0.00000164,-0.00003608,0.00000529,-0.00002000,-0.00000230,0.00000099,-
 0.00000379,0.00000355,-0.00000017,-0.00000273,-0.00000176,0.00000527,-
 0.00000157,0.00001547,-0.00000421,-0.00000644,0.00000245,-0.00000496,0
 .00000368,0.00000277,-0.00000519,0.00000699,0.00000576,-0.00000026,0.0
 0000232,0.00000784,-0.00000385,0.00000913,-0.00000721,-0.00000689,0.00
 000697,-0.00000734,-0.00000171,0.00000273,0.00000640,-0.00000491,0.000
 00787,-0.00000049,-0.00000350,0.00000526,-0.00000631,-0.00000604,0.000
 00860,0.00000043,-0.00000763,0.00001183,-0.00000047,0.00001155,-0.0000
 1210,0.00001647,0.00000374,0.00000934,-0.00000288,0.00000637,-0.000010
 17|||@


 ONE THORN OF EXPERIENCE IS WORTH A WHOLE WILDERNESS OF
 WARNING....  LOWELL - AMONG MY BOOKS
 Job cpu time:  0 days  1 hours 43 minutes 43.0 seconds.
 File lengths (MBytes):  RWF=    287 Int=      0 D2E=      0 Chk=     14 Scr=      1
 Normal termination of Gaussian 09 at Mon Apr 18 18:25:31 2016.
