 Entering Link 1 = c:\G03W04\l1.exe PID=      4288.
  
 Copyright (c) 1988,1990,1992,1993,1995,1998,2003,2004,2007, Gaussian, Inc.
                  All Rights Reserved.
  
 This is the Gaussian(R) 03 program.  It is based on the
 the Gaussian(R) 98 system (copyright 1998, Gaussian, Inc.),
 the Gaussian(R) 94 system (copyright 1995, Gaussian, Inc.),
 the Gaussian 92(TM) system (copyright 1992, Gaussian, Inc.),
 the Gaussian 90(TM) system (copyright 1990, Gaussian, Inc.),
 the Gaussian 88(TM) system (copyright 1988, Gaussian, Inc.),
 the Gaussian 86(TM) system (copyright 1986, Carnegie Mellon
 University), and the Gaussian 82(TM) system (copyright 1983,
 Carnegie Mellon University). Gaussian is a federally registered
 trademark of Gaussian, Inc.
  
 This software contains proprietary and confidential information,
 including trade secrets, belonging to Gaussian, Inc.
  
 This software is provided under written license and may be
 used, copied, transmitted, or stored only in accord with that
 written license.
  
 The following legend is applicable only to US Government
 contracts under FAR:
  
                    RESTRICTED RIGHTS LEGEND
  
 Use, reproduction and disclosure by the US Government is
 subject to restrictions as set forth in subparagraphs (a)
 and (c) of the Commercial Computer Software - Restricted
 Rights clause in FAR 52.227-19.
  
 Gaussian, Inc.
 340 Quinnipiac St., Bldg. 40, Wallingford CT 06492
  
  
 ---------------------------------------------------------------
 Warning -- This program may not be used in any manner that
 competes with the business of Gaussian, Inc. or will provide
 assistance to any competitor of Gaussian, Inc.  The licensee
 of this program is prohibited from giving any competitor of
 Gaussian, Inc. access to this program.  By using this program,
 the user acknowledges that Gaussian, Inc. is engaged in the
 business of creating and licensing software in the field of
 computational chemistry and represents and warrants to the
 licensee that it is not a competitor of Gaussian, Inc. and that
 it will not use this program in any manner prohibited above.
 ---------------------------------------------------------------
  

 Cite this work as:
 Gaussian 03, Revision E.01,
 M. J. Frisch, G. W. Trucks, H. B. Schlegel, G. E. Scuseria, 
 M. A. Robb, J. R. Cheeseman, J. A. Montgomery, Jr., T. Vreven, 
 K. N. Kudin, J. C. Burant, J. M. Millam, S. S. Iyengar, J. Tomasi, 
 V. Barone, B. Mennucci, M. Cossi, G. Scalmani, N. Rega, 
 G. A. Petersson, H. Nakatsuji, M. Hada, M. Ehara, K. Toyota, 
 R. Fukuda, J. Hasegawa, M. Ishida, T. Nakajima, Y. Honda, O. Kitao, 
 H. Nakai, M. Klene, X. Li, J. E. Knox, H. P. Hratchian, J. B. Cross, 
 V. Bakken, C. Adamo, J. Jaramillo, R. Gomperts, R. E. Stratmann, 
 O. Yazyev, A. J. Austin, R. Cammi, C. Pomelli, J. W. Ochterski, 
 P. Y. Ayala, K. Morokuma, G. A. Voth, P. Salvador, J. J. Dannenberg, 
 V. G. Zakrzewski, S. Dapprich, A. D. Daniels, M. C. Strain, 
 O. Farkas, D. K. Malick, A. D. Rabuck, K. Raghavachari, 
 J. B. Foresman, J. V. Ortiz, Q. Cui, A. G. Baboul, S. Clifford, 
 J. Cioslowski, B. B. Stefanov, G. Liu, A. Liashenko, P. Piskorz, 
 I. Komaromi, R. L. Martin, D. J. Fox, T. Keith, M. A. Al-Laham, 
 C. Y. Peng, A. Nanayakkara, M. Challacombe, P. M. W. Gill, 
 B. Johnson, W. Chen, M. W. Wong, C. Gonzalez, and J. A. Pople, 
 Gaussian, Inc., Wallingford CT, 2004.
 
 ******************************************
 Gaussian 03:  IA32W-G03RevE.01 11-Sep-2007
                01-Apr-2016 
 ******************************************
 %chk=E:\YangJ\Amiano\Asp\ts1\r\Asp-R-opt-freq-ts1-6-31g.chk
 -----------------------------------------------
 # opt=(calcfc,ts) freq rb3lyp/6-31g iop(1/11=1)
 -----------------------------------------------
 1/5=1,10=4,11=1,14=-1,18=20,26=3,38=1/1,3;
 2/9=110,17=6,18=5,40=1/2;
 3/5=1,6=6,11=2,16=1,25=1,30=1,74=-5/1,2,3;
 4/7=1/1;
 5/5=2,38=5/2;
 8/6=4,10=90,11=11/1;
 11/6=1,8=1,9=11,15=111,16=1/1,2,10;
 10/6=1,7=6/2;
 6/7=2,8=2,9=2,10=2,28=1/1;
 7/10=1,18=20,25=1/1,2,3,16;
 1/5=1,10=4,11=1,14=-1,18=20/3(3);
 2/9=110/2;
 6/7=2,8=2,9=2,10=2,19=2,28=1/1;
 99//99;
 2/9=110/2;
 3/5=1,6=6,11=2,16=1,25=1,30=1,74=-5/1,2,3;
 4/5=5,7=1,16=3/1;
 5/5=2,38=5/2;
 7//1,2,3,16;
 1/5=1,11=1,14=-1,18=20/3(-5);
 2/9=110/2;
 6/7=2,8=2,9=2,10=2,19=2,28=1/1;
 99/9=1/99;
 -------------------------
 Asp-R-opt-freq--ts1-6-31g
 -------------------------
 Symbolic Z-matrix:
 Charge =  0 Multiplicity = 1
 C                     0.        0.        0. 
 H                     0.        0.        1.09185 
 C                     1.48803   0.       -0.48946 
 H                     1.96116  -0.95477  -0.25568 
 H                     1.50198   0.14742  -1.573 
 C                     2.32589   1.0673    0.17241 
 O                     3.26377   0.87147   0.9009 
 C                    -0.61465  -1.33705  -0.39772 
 O                    -0.72785  -2.29287   0.32276 
 O                    -0.98798  -1.34703  -1.70131 
 H                    -1.03167  -2.44992  -0.9221 
 N                    -0.84671   1.08882  -0.46508 
 H                    -0.96299   1.05422  -1.47258 
 H                    -0.43709   1.98516  -0.22722 
 O                     1.89782   2.3247   -0.13216 
 H                     2.47834   2.9438    0.33737 
 

 GradGradGradGradGradGradGradGradGradGradGradGradGradGradGradGradGradGrad
 Berny optimization.
 Initialization pass.
                           ----------------------------
                           !    Initial Parameters    !
                           ! (Angstroms and Degrees)  !
 --------------------------                            --------------------------
 ! Name  Definition              Value          Derivative Info.                !
 --------------------------------------------------------------------------------
 ! R1    R(1,2)                  1.0918         calculate D2E/DX2 analytically  !
 ! R2    R(1,3)                  1.5665         calculate D2E/DX2 analytically  !
 ! R3    R(1,8)                  1.5244         calculate D2E/DX2 analytically  !
 ! R4    R(1,12)                 1.4556         calculate D2E/DX2 analytically  !
 ! R5    R(3,4)                  1.0909         calculate D2E/DX2 analytically  !
 ! R6    R(3,5)                  1.0936         calculate D2E/DX2 analytically  !
 ! R7    R(3,6)                  1.5097         calculate D2E/DX2 analytically  !
 ! R8    R(6,7)                  1.2036         calculate D2E/DX2 analytically  !
 ! R9    R(6,15)                 1.3627         calculate D2E/DX2 analytically  !
 ! R10   R(8,9)                  1.2023         calculate D2E/DX2 analytically  !
 ! R11   R(8,10)                 1.356          calculate D2E/DX2 analytically  !
 ! R12   R(8,11)                 1.299          calculate D2E/DX2 analytically  !
 ! R13   R(12,13)                1.0148         calculate D2E/DX2 analytically  !
 ! R14   R(12,14)                1.0138         calculate D2E/DX2 analytically  !
 ! R15   R(15,16)                0.9699         calculate D2E/DX2 analytically  !
 ! A1    A(2,1,3)              108.2076         calculate D2E/DX2 analytically  !
 ! A2    A(2,1,8)              105.124          calculate D2E/DX2 analytically  !
 ! A3    A(2,1,12)             108.6336         calculate D2E/DX2 analytically  !
 ! A4    A(3,1,8)              107.548          calculate D2E/DX2 analytically  !
 ! A5    A(3,1,12)             116.9192         calculate D2E/DX2 analytically  !
 ! A6    A(8,1,12)             109.7671         calculate D2E/DX2 analytically  !
 ! A7    A(1,3,4)              110.1832         calculate D2E/DX2 analytically  !
 ! A8    A(1,3,5)              108.7658         calculate D2E/DX2 analytically  !
 ! A9    A(1,3,6)              112.9677         calculate D2E/DX2 analytically  !
 ! A10   A(4,3,5)              108.9516         calculate D2E/DX2 analytically  !
 ! A11   A(4,3,6)              106.5045         calculate D2E/DX2 analytically  !
 ! A12   A(5,3,6)              109.3895         calculate D2E/DX2 analytically  !
 ! A13   A(3,6,7)              125.6462         calculate D2E/DX2 analytically  !
 ! A14   A(3,6,15)             112.3334         calculate D2E/DX2 analytically  !
 ! A15   A(7,6,15)             122.0173         calculate D2E/DX2 analytically  !
 ! A16   A(1,8,9)              125.3754         calculate D2E/DX2 analytically  !
 ! A17   A(1,8,10)             111.6097         calculate D2E/DX2 analytically  !
 ! A18   A(1,8,11)             170.4781         calculate D2E/DX2 analytically  !
 ! A19   A(9,8,10)             122.9773         calculate D2E/DX2 analytically  !
 ! A20   A(9,8,11)              62.0037         calculate D2E/DX2 analytically  !
 ! A21   A(10,8,11)             61.134          calculate D2E/DX2 analytically  !
 ! A22   A(1,12,13)            111.0001         calculate D2E/DX2 analytically  !
 ! A23   A(1,12,14)            110.5704         calculate D2E/DX2 analytically  !
 ! A24   A(13,12,14)           108.0227         calculate D2E/DX2 analytically  !
 ! A25   A(6,15,16)            107.0233         calculate D2E/DX2 analytically  !
 ! D1    D(2,1,3,4)             68.8221         calculate D2E/DX2 analytically  !
 ! D2    D(2,1,3,5)           -171.815          calculate D2E/DX2 analytically  !
 ! D3    D(2,1,3,6)            -50.1594         calculate D2E/DX2 analytically  !
 ! D4    D(8,1,3,4)            -44.2618         calculate D2E/DX2 analytically  !
 ! D5    D(8,1,3,5)             75.1011         calculate D2E/DX2 analytically  !
 ! D6    D(8,1,3,6)           -163.2434         calculate D2E/DX2 analytically  !
 ! D7    D(12,1,3,4)          -168.2048         calculate D2E/DX2 analytically  !
 ! D8    D(12,1,3,5)           -48.8419         calculate D2E/DX2 analytically  !
 ! D9    D(12,1,3,6)            72.8136         calculate D2E/DX2 analytically  !
 ! D10   D(2,1,8,9)            -17.5973         calculate D2E/DX2 analytically  !
 ! D11   D(2,1,8,10)           164.5884         calculate D2E/DX2 analytically  !
 ! D12   D(2,1,8,11)          -156.4306         calculate D2E/DX2 analytically  !
 ! D13   D(3,1,8,9)             97.5491         calculate D2E/DX2 analytically  !
 ! D14   D(3,1,8,10)           -80.2652         calculate D2E/DX2 analytically  !
 ! D15   D(3,1,8,11)           -41.2842         calculate D2E/DX2 analytically  !
 ! D16   D(12,1,8,9)          -134.266          calculate D2E/DX2 analytically  !
 ! D17   D(12,1,8,10)           47.9197         calculate D2E/DX2 analytically  !
 ! D18   D(12,1,8,11)           86.9007         calculate D2E/DX2 analytically  !
 ! D19   D(2,1,12,13)         -173.1476         calculate D2E/DX2 analytically  !
 ! D20   D(2,1,12,14)           66.9825         calculate D2E/DX2 analytically  !
 ! D21   D(3,1,12,13)           64.099          calculate D2E/DX2 analytically  !
 ! D22   D(3,1,12,14)          -55.7709         calculate D2E/DX2 analytically  !
 ! D23   D(8,1,12,13)          -58.7064         calculate D2E/DX2 analytically  !
 ! D24   D(8,1,12,14)         -178.5763         calculate D2E/DX2 analytically  !
 ! D25   D(1,3,6,7)            115.6332         calculate D2E/DX2 analytically  !
 ! D26   D(1,3,6,15)           -63.7376         calculate D2E/DX2 analytically  !
 ! D27   D(4,3,6,7)             -5.4584         calculate D2E/DX2 analytically  !
 ! D28   D(4,3,6,15)           175.1708         calculate D2E/DX2 analytically  !
 ! D29   D(5,3,6,7)           -123.0635         calculate D2E/DX2 analytically  !
 ! D30   D(5,3,6,15)            57.5657         calculate D2E/DX2 analytically  !
 ! D31   D(3,6,15,16)          179.3534         calculate D2E/DX2 analytically  !
 ! D32   D(7,6,15,16)           -0.0435         calculate D2E/DX2 analytically  !
 --------------------------------------------------------------------------------
 Trust Radius=3.00D-01 FncErr=1.00D-07 GrdErr=1.00D-06
 Number of steps in this run=  82 maximum allowed number of steps= 100.
 Search for a saddle point of order  1.
 GradGradGradGradGradGradGradGradGradGradGradGradGradGradGradGradGradGrad

                          Input orientation:                          
 ---------------------------------------------------------------------
 Center     Atomic     Atomic              Coordinates (Angstroms)
 Number     Number      Type              X           Y           Z
 ---------------------------------------------------------------------
    1          6             0        0.000000    0.000000    0.000000
    2          1             0        0.000000    0.000000    1.091846
    3          6             0        1.488029    0.000000   -0.489457
    4          1             0        1.961156   -0.954774   -0.255677
    5          1             0        1.501981    0.147422   -1.573003
    6          6             0        2.325893    1.067302    0.172407
    7          8             0        3.263767    0.871468    0.900898
    8          6             0       -0.614646   -1.337048   -0.397717
    9          8             0       -0.727850   -2.292867    0.322755
   10          8             0       -0.987979   -1.347026   -1.701314
   11          1             0       -1.031669   -2.449921   -0.922102
   12          7             0       -0.846710    1.088823   -0.465085
   13          1             0       -0.962988    1.054218   -1.472576
   14          1             0       -0.437089    1.985157   -0.227220
   15          8             0        1.897821    2.324700   -0.132156
   16          1             0        2.478344    2.943804    0.337367
 ---------------------------------------------------------------------
                    Distance matrix (angstroms):
                    1          2          3          4          5
     1  C    0.000000
     2  H    1.091846   0.000000
     3  C    1.566460   2.171347   0.000000
     4  H    2.196155   2.563893   1.090915   0.000000
     5  H    2.179913   3.062532   1.093619   1.777928   0.000000
     6  C    2.564885   2.719242   1.509706   2.098829   2.138099
     7  O    3.496176   3.383503   2.417806   2.523811   3.122230
     8  C    1.524358   2.093869   2.493463   2.607885   2.839905
     9  O    2.427174   2.525570   3.290448   3.058730   3.810650
    10  O    2.384334   3.254585   3.068174   3.307737   2.906843
    11  H    2.813667   3.335032   3.540928   3.411244   3.686359
    12  N    1.455595   2.080021   2.576264   3.479117   2.762258
    13  H    2.051146   2.935129   2.843481   3.750668   2.628390
    14  H    2.045366   2.423186   2.777714   3.794151   2.991387
    15  O    3.003900   3.241008   2.387430   3.282410   2.640695
    16  H    3.862899   3.921404   3.214085   3.977197   3.524564
                    6          7          8          9         10
     6  C    0.000000
     7  O    1.203602   0.000000
     8  C    3.840926   4.648229   0.000000
     9  O    4.542982   5.126429   1.202283   0.000000
    10  O    4.507943   5.456240   1.356038   2.249252   0.000000
    11  H    4.984178   5.727628   1.298989   1.290984   1.351095
    12  N    3.236088   4.336955   2.437876   3.474283   2.735247
    13  H    3.677346   4.851003   2.644772   3.805454   2.412243
    14  H    2.938746   4.026076   3.331313   4.323020   3.685088
    15  O    1.362737   2.246083   4.448754   5.331324   4.926628
    16  H    1.889898   2.286708   5.332226   6.140246   5.880717
                   11         12         13         14         15
    11  H    0.000000
    12  N    3.572923   0.000000
    13  H    3.547778   1.014769   0.000000
    14  H    4.528388   1.013797   1.641380   0.000000
    15  O    5.657113   3.028314   3.405155   2.361383   0.000000
    16  H    6.557341   3.891127   4.323100   3.120499   0.969922
                   16
    16  H    0.000000
 Stoichiometry    C4H7NO4
 Framework group  C1[X(C4H7NO4)]
 Deg. of freedom    42
 Full point group                 C1
 Largest Abelian subgroup         C1      NOp   1
 Largest concise Abelian subgroup C1      NOp   1
                         Standard orientation:                         
 ---------------------------------------------------------------------
 Center     Atomic     Atomic              Coordinates (Angstroms)
 Number     Number      Type              X           Y           Z
 ---------------------------------------------------------------------
    1          6             0        0.464917    0.213944   -0.439939
    2          1             0        0.245966   -0.206681   -1.423434
    3          6             0       -0.518784   -0.427460    0.596755
    4          1             0       -0.282682   -1.483346    0.736243
    5          1             0       -0.408447    0.090568    1.553559
    6          6             0       -1.961523   -0.365103    0.156494
    7          8             0       -2.660882   -1.312830   -0.091231
    8          6             0        1.869530   -0.272988   -0.102854
    9          8             0        2.435004   -1.190104   -0.636353
   10          8             0        2.408921    0.430107    0.923574
   11          1             0        3.008657   -0.656538    0.389741
   12          7             0        0.458783    1.665858   -0.543210
   13          1             0        0.768079    2.093400    0.323566
   14          1             0       -0.475314    2.004721   -0.744254
   15          8             0       -2.414908    0.915405    0.047893
   16          1             0       -3.337666    0.865887   -0.246749
 ---------------------------------------------------------------------
 Rotational constants (GHZ):      3.1616849      0.9190776      0.7956913
 Standard basis: 6-31G (6D, 7F)
 There are    95 symmetry adapted basis functions of A   symmetry.
 Integral buffers will be    262144 words long.
 Raffenetti 2 integral format.
 Two-electron integral symmetry is turned on.
    95 basis functions,   226 primitive gaussians,    95 cartesian basis functions
    35 alpha electrons       35 beta electrons
       nuclear repulsion energy       464.3025574842 Hartrees.
 NAtoms=   16 NActive=   16 NUniq=   16 SFac= 7.50D-01 NAtFMM=   80 NAOKFM=F Big=F
 One-electron integrals computed using PRISM.
 NBasis=    95 RedAO= T  NBF=    95
 NBsUse=    95 1.00D-06 NBFU=    95
 Harris functional with IExCor=  402 diagonalized for initial guess.
 ExpMin= 1.61D-01 ExpMax= 5.48D+03 ExpMxC= 8.25D+02 IAcc=1 IRadAn=         1 AccDes= 1.00D-06
 HarFok:  IExCor= 402 AccDes= 1.00D-06 IRadAn=         1 IDoV=1
 ScaDFX=  1.000000  1.000000  1.000000  1.000000
 Initial guess orbital symmetries:
       Occupied  (A) (A) (A) (A) (A) (A) (A) (A) (A) (A) (A) (A)
                 (A) (A) (A) (A) (A) (A) (A) (A) (A) (A) (A) (A)
                 (A) (A) (A) (A) (A) (A) (A) (A) (A) (A) (A)
       Virtual   (A) (A) (A) (A) (A) (A) (A) (A) (A) (A) (A) (A)
                 (A) (A) (A) (A) (A) (A) (A) (A) (A) (A) (A) (A)
                 (A) (A) (A) (A) (A) (A) (A) (A) (A) (A) (A) (A)
                 (A) (A) (A) (A) (A) (A) (A) (A) (A) (A) (A) (A)
                 (A) (A) (A) (A) (A) (A) (A) (A) (A) (A) (A) (A)
 The electronic state of the initial guess is 1-A.
 Requested convergence on RMS density matrix=1.00D-08 within 128 cycles.
 Requested convergence on MAX density matrix=1.00D-06.
 Requested convergence on             energy=1.00D-06.
 No special actions if energy rises.
 Integral accuracy reduced to 1.0D-05 until final iterations.
 Initial convergence to 1.0D-05 achieved.  Increase integral accuracy.
 SCF Done:  E(RB+HF-LYP) =  -512.010085542     A.U. after   16 cycles
             Convg  =    0.4910D-08             -V/T =  2.0044
             S**2   =   0.0000
 Range of M.O.s used for correlation:     1    95
 NBasis=    95 NAE=    35 NBE=    35 NFC=     0 NFV=     0
 NROrb=     95 NOA=    35 NOB=    35 NVA=    60 NVB=    60
 Symmetrizing basis deriv contribution to polar:
 IMax=3 JMax=2 DiffMx= 0.00D+00
 G2DrvN: will do   17 centers at a time, making    1 passes doing MaxLOS=1.
 FoFDir/FoFCou used for L=0 through L=1.
 DoAtom=TTTTTTTTTTTTTTTT
          Differentiating once with respect to electric field.
                with respect to dipole field.
          Differentiating once with respect to nuclear coordinates.
 Integrals replicated using symmetry in FoFDir.
 MinBra= 0 MaxBra= 1 Meth= 1.
 IRaf=       0 NMat=  51 IRICut=      51 DoRegI=T DoRafI=T ISym2E= 2 JSym2E=2.
          There are  51 degrees of freedom in the 1st order CPHF.
    48 vectors were produced by pass  0.
 AX will form  48 AO Fock derivatives at one time.
    48 vectors were produced by pass  1.
    48 vectors were produced by pass  2.
    48 vectors were produced by pass  3.
    17 vectors were produced by pass  4.
     3 vectors were produced by pass  5.
 Inv2:  IOpt= 1 Iter= 1 AM= 2.76D-15 Conv= 1.00D-12.
 Inverted reduced A of dimension  212 with in-core refinement.
 Isotropic polarizability for W=    0.000000       57.37 Bohr**3.
 End of Minotr Frequency-dependent properties file   721 does not exist.

 **********************************************************************

            Population analysis using the SCF density.

 **********************************************************************

 Orbital symmetries:
       Occupied  (A) (A) (A) (A) (A) (A) (A) (A) (A) (A) (A) (A)
                 (A) (A) (A) (A) (A) (A) (A) (A) (A) (A) (A) (A)
                 (A) (A) (A) (A) (A) (A) (A) (A) (A) (A) (A)
       Virtual   (A) (A) (A) (A) (A) (A) (A) (A) (A) (A) (A) (A)
                 (A) (A) (A) (A) (A) (A) (A) (A) (A) (A) (A) (A)
                 (A) (A) (A) (A) (A) (A) (A) (A) (A) (A) (A) (A)
                 (A) (A) (A) (A) (A) (A) (A) (A) (A) (A) (A) (A)
                 (A) (A) (A) (A) (A) (A) (A) (A) (A) (A) (A) (A)
 The electronic state is 1-A.
 Alpha  occ. eigenvalues --  -19.22987 -19.21719 -19.19469 -19.16741 -14.32294
 Alpha  occ. eigenvalues --  -10.36875 -10.35032 -10.25719 -10.22204  -1.22160
 Alpha  occ. eigenvalues --   -1.15323  -1.06164  -1.04695  -0.91768  -0.80057
 Alpha  occ. eigenvalues --   -0.72315  -0.63742  -0.57600  -0.56933  -0.53533
 Alpha  occ. eigenvalues --   -0.52215  -0.50143  -0.49135  -0.47978  -0.46840
 Alpha  occ. eigenvalues --   -0.45467  -0.42878  -0.41434  -0.39448  -0.35755
 Alpha  occ. eigenvalues --   -0.34462  -0.34259  -0.33648  -0.29922  -0.24385
 Alpha virt. eigenvalues --   -0.04394  -0.01599   0.02802   0.05057   0.10459
 Alpha virt. eigenvalues --    0.11481   0.12651   0.13058   0.16845   0.17708
 Alpha virt. eigenvalues --    0.18922   0.20896   0.24101   0.26823   0.29714
 Alpha virt. eigenvalues --    0.33023   0.35871   0.52218   0.53096   0.53904
 Alpha virt. eigenvalues --    0.54469   0.57429   0.59426   0.61791   0.62613
 Alpha virt. eigenvalues --    0.67258   0.67908   0.70233   0.73826   0.75835
 Alpha virt. eigenvalues --    0.77971   0.79054   0.80229   0.82111   0.85068
 Alpha virt. eigenvalues --    0.88887   0.90606   0.91691   0.93702   0.95072
 Alpha virt. eigenvalues --    0.96382   0.96767   0.99723   1.01981   1.03376
 Alpha virt. eigenvalues --    1.05584   1.06011   1.08989   1.11564   1.13489
 Alpha virt. eigenvalues --    1.17708   1.26950   1.32516   1.39862   1.55912
 Alpha virt. eigenvalues --    1.68966   1.76411   1.87032   1.90990   1.93748
          Condensed to atoms (all electrons):
              1          2          3          4          5          6
     1  C    5.349428   0.379074   0.209136  -0.023075  -0.026480  -0.019979
     2  H    0.379074   0.584687  -0.063161   0.001655   0.005239  -0.003027
     3  C    0.209136  -0.063161   5.609007   0.330903   0.341586   0.212594
     4  H   -0.023075   0.001655   0.330903   0.555635  -0.022940  -0.033974
     5  H   -0.026480   0.005239   0.341586  -0.022940   0.535143  -0.021855
     6  C   -0.019979  -0.003027   0.212594  -0.033974  -0.021855   4.752027
     7  O   -0.000153   0.000799  -0.102421   0.003004   0.001817   0.544999
     8  C    0.128344  -0.044298  -0.038724   0.000734  -0.006781   0.000240
     9  O   -0.092202   0.003383   0.000276   0.001350   0.000094  -0.000137
    10  O   -0.127523   0.004099   0.001834  -0.000541   0.004037   0.000036
    11  H    0.042398  -0.001591  -0.002449  -0.000126  -0.000240   0.000043
    12  N    0.309548  -0.045665  -0.074844   0.004958  -0.002193  -0.008539
    13  H   -0.040354   0.006110  -0.002770   0.000036   0.004326  -0.000159
    14  H   -0.043885  -0.004675  -0.002613  -0.000003  -0.000499   0.001258
    15  O    0.007949   0.000067  -0.140226   0.004067   0.002595   0.136843
    16  H   -0.000258  -0.000074   0.011795  -0.000266  -0.000322  -0.011690
              7          8          9         10         11         12
     1  C   -0.000153   0.128344  -0.092202  -0.127523   0.042398   0.309548
     2  H    0.000799  -0.044298   0.003383   0.004099  -0.001591  -0.045665
     3  C   -0.102421  -0.038724   0.000276   0.001834  -0.002449  -0.074844
     4  H    0.003004   0.000734   0.001350  -0.000541  -0.000126   0.004958
     5  H    0.001817  -0.006781   0.000094   0.004037  -0.000240  -0.002193
     6  C    0.544999   0.000240  -0.000137   0.000036   0.000043  -0.008539
     7  O    8.037206  -0.000200   0.000001   0.000000   0.000000  -0.000050
     8  C   -0.000200   5.076855   0.239698   0.255957  -0.021362  -0.046038
     9  O    0.000001   0.239698   8.338869  -0.160412   0.063486   0.001036
    10  O    0.000000   0.255957  -0.160412   8.450527   0.078685  -0.001928
    11  H    0.000000  -0.021362   0.063486   0.078685   0.460416  -0.001121
    12  N   -0.000050  -0.046038   0.001036  -0.001928  -0.001121   6.875994
    13  H    0.000001  -0.012119   0.000216   0.011543  -0.000266   0.318739
    14  H    0.000059   0.007215  -0.000088   0.000109   0.000049   0.322736
    15  O   -0.120097  -0.000002   0.000000   0.000001   0.000000  -0.004287
    16  H    0.007389   0.000018   0.000000   0.000000   0.000000   0.000331
             13         14         15         16
     1  C   -0.040354  -0.043885   0.007949  -0.000258
     2  H    0.006110  -0.004675   0.000067  -0.000074
     3  C   -0.002770  -0.002613  -0.140226   0.011795
     4  H    0.000036  -0.000003   0.004067  -0.000266
     5  H    0.004326  -0.000499   0.002595  -0.000322
     6  C   -0.000159   0.001258   0.136843  -0.011690
     7  O    0.000001   0.000059  -0.120097   0.007389
     8  C   -0.012119   0.007215  -0.000002   0.000018
     9  O    0.000216  -0.000088   0.000000   0.000000
    10  O    0.011543   0.000109   0.000001   0.000000
    11  H   -0.000266   0.000049   0.000000   0.000000
    12  N    0.318739   0.322736  -0.004287   0.000331
    13  H    0.450878  -0.033165   0.000262  -0.000012
    14  H   -0.033165   0.436935   0.014372   0.000059
    15  O    0.000262   0.014372   8.420445   0.224983
    16  H   -0.000012   0.000059   0.224983   0.381321
 Mulliken atomic charges:
              1
     1  C   -0.051966
     2  H    0.177376
     3  C   -0.289924
     4  H    0.178583
     5  H    0.186472
     6  C    0.451320
     7  O   -0.372354
     8  C    0.460463
     9  O   -0.395569
    10  O   -0.516424
    11  H    0.382079
    12  N   -0.648678
    13  H    0.296732
    14  H    0.302135
    15  O   -0.546972
    16  H    0.386726
 Sum of Mulliken charges=   0.00000
 Atomic charges with hydrogens summed into heavy atoms:
              1
     1  C    0.125410
     2  H    0.000000
     3  C    0.075131
     4  H    0.000000
     5  H    0.000000
     6  C    0.451320
     7  O   -0.372354
     8  C    0.460463
     9  O   -0.013490
    10  O   -0.516424
    11  H    0.000000
    12  N   -0.049810
    13  H    0.000000
    14  H    0.000000
    15  O   -0.160246
    16  H    0.000000
 Sum of Mulliken charges=   0.00000
 APT atomic charges:
              1
     1  C    0.337183
     2  H   -0.020692
     3  C   -0.157544
     4  H    0.008700
     5  H    0.034165
     6  C    1.063623
     7  O   -0.686738
     8  C    0.883049
     9  O   -0.649352
    10  O   -0.675042
    11  H    0.380970
    12  N   -0.527342
    13  H    0.192499
    14  H    0.210217
    15  O   -0.675959
    16  H    0.282263
 Sum of APT charges=   0.00000
 APT Atomic charges with hydrogens summed into heavy atoms:
              1
     1  C    0.316491
     2  H    0.000000
     3  C   -0.114679
     4  H    0.000000
     5  H    0.000000
     6  C    1.063623
     7  O   -0.686738
     8  C    0.883049
     9  O   -0.268382
    10  O   -0.675042
    11  H    0.000000
    12  N   -0.124627
    13  H    0.000000
    14  H    0.000000
    15  O   -0.393696
    16  H    0.000000
 Sum of APT charges=   0.00000
 Electronic spatial extent (au):  <R**2>=  1392.5158
 Charge=     0.0000 electrons
 Dipole moment (field-independent basis, Debye):
    X=    -1.7611    Y=     0.9087    Z=     0.7294  Tot=     2.1117
 Quadrupole moment (field-independent basis, Debye-Ang):
   XX=   -53.2216   YY=   -57.5690   ZZ=   -53.8586
   XY=    -9.4656   XZ=     1.6634   YZ=    -1.4420
 Traceless Quadrupole moment (field-independent basis, Debye-Ang):
   XX=     1.6615   YY=    -2.6860   ZZ=     1.0245
   XY=    -9.4656   XZ=     1.6634   YZ=    -1.4420
 Octapole moment (field-independent basis, Debye-Ang**2):
  XXX=   -23.3860  YYY=     9.9047  ZZZ=    -0.0804  XYY=     0.4364
  XXY=    19.7794  XXZ=    -3.3494  XZZ=   -10.5671  YZZ=    -2.6375
  YYZ=     7.9482  XYZ=    -0.1002
 Hexadecapole moment (field-independent basis, Debye-Ang**3):
 XXXX= -1065.7168 YYYY=  -328.7221 ZZZZ=  -139.2045 XXXY=  -104.6502
 XXXZ=    15.5666 YYYX=   -20.3090 YYYZ=     8.8414 ZZZX=     0.6959
 ZZZY=     6.3031 XXYY=  -290.7416 XXZZ=  -231.0395 YYZZ=   -83.5911
 XXYZ=   -26.0192 YYXZ=    16.4628 ZZXY=    -5.0203
 N-N= 4.643025574842D+02 E-N=-2.128956455338D+03  KE= 5.097554969590D+02
  Exact polarizability:  67.977  -0.887  60.471   5.189   4.741  43.675
 Approx polarizability:  81.877   3.548 105.943   8.400  21.691  72.038
 ***** Axes restored to original set *****
 -------------------------------------------------------------------
 Center     Atomic                   Forces (Hartrees/Bohr)
 Number     Number              X              Y              Z
 -------------------------------------------------------------------
    1          6          -0.002743379   -0.009878053    0.016603259
    2          1           0.001860316    0.003692173    0.003626081
    3          6           0.002301764    0.002061707    0.000179641
    4          1           0.001169632   -0.001689375   -0.000019679
    5          1          -0.001001818   -0.000760657   -0.001534142
    6          6          -0.034295530   -0.017556319   -0.026653561
    7          8           0.038055381   -0.007161282    0.029340852
    8          6           0.044960099    0.219294409   -0.062212556
    9          8          -0.014593863   -0.100268697    0.046520904
   10          8           0.004092674   -0.049522147    0.047650070
   11          1          -0.035630679   -0.063700515   -0.048232275
   12          7           0.007983851    0.000931375   -0.004582510
   13          1          -0.005875731   -0.003585664   -0.003782185
   14          1          -0.001296343    0.004325155    0.005350878
   15          8          -0.009757545    0.009189390   -0.006185871
   16          1           0.004771171    0.014628500    0.003931093
 -------------------------------------------------------------------
 Cartesian Forces:  Max     0.219294409 RMS     0.041946546

 GradGradGradGradGradGradGradGradGradGradGradGradGradGradGradGradGradGrad
 Berny optimization.
 Internal  Forces:  Max     0.108966468 RMS     0.020591837
 Search for a saddle point.
 Step number   1 out of a maximum of  82
 All quantities printed in internal units (Hartrees-Bohrs-Radians)
 Swaping is turned off.
 Second derivative matrix not updated -- analytic derivatives used.
     Eigenvalues ---   -0.20588   0.00082   0.00124   0.00251   0.00361
     Eigenvalues ---    0.00492   0.02338   0.03120   0.03960   0.04403
     Eigenvalues ---    0.04445   0.04950   0.05133   0.05431   0.07897
     Eigenvalues ---    0.09391   0.11110   0.13909   0.14881   0.15871
     Eigenvalues ---    0.16424   0.17255   0.19086   0.19281   0.19887
     Eigenvalues ---    0.21307   0.24932   0.25297   0.27370   0.33759
     Eigenvalues ---    0.34226   0.34668   0.35129   0.36803   0.38888
     Eigenvalues ---    0.41896   0.43424   0.46002   0.46621   0.51955
     Eigenvalues ---    0.95536   0.996151000.000001000.000001000.00000
     Eigenvalues --- 1000.000001000.000001000.000001000.000001000.00000
     Eigenvalues --- 1000.000001000.000001000.000001000.000001000.00000
     Eigenvalues --- 1000.000001000.000001000.000001000.000001000.00000
     Eigenvalues --- 1000.000001000.000001000.000001000.000001000.00000
     Eigenvalues --- 1000.000001000.000001000.000001000.000001000.00000
     Eigenvalues --- 1000.000001000.00000
 Eigenvectors required to have negative eigenvalues:
                          R1        R2        R3        R4        R5
         1             -0.00784   0.00196  -0.00910   0.01162  -0.00037
                          R6        R7        R8        R9        R10
         1              0.00113   0.00008  -0.00104   0.00077  -0.05871
                          R11       R12       R13       R14       R15
         1              0.09186  -0.00477   0.00247  -0.00010   0.00005
                          A1        A2        A3        A4        A5
         1              0.00580  -0.01788   0.00709   0.00669  -0.01104
                          A6        A7        A8        A9        A10
         1              0.00813  -0.00175   0.00472  -0.00187   0.00037
                          A11       A12       A13       A14       A15
         1              0.00150  -0.00306   0.00065  -0.00142   0.00077
                          A16       A17       A18       A19       A20
         1             -0.15594   0.15067  -0.52774   0.00249   0.57703
                          A21       A22       A23       A24       A25
         1             -0.55475   0.01086   0.00513  -0.01065   0.00030
                          D1        D2        D3        D4        D5
         1             -0.00791  -0.00561  -0.00739   0.00671   0.00901
                          D6        D7        D8        D9        D10
         1              0.00723  -0.00168   0.00062  -0.00116  -0.02008
                          D11       D12       D13       D14       D15
         1              0.05944  -0.05224  -0.01899   0.06052  -0.05115
                          D16       D17       D18       D19       D20
         1             -0.02266   0.05686  -0.05482   0.00211   0.00500
                          D21       D22       D23       D24       D25
         1             -0.00342  -0.00054  -0.01093  -0.00805  -0.00161
                          D26       D27       D28       D29       D30
         1             -0.00121   0.00067   0.00107   0.00099   0.00139
                          D31       D32
         1             -0.00041  -0.00003
 RFO step:  Lambda0=8.483660862D-04 Lambda=-7.91252805D-02.
 Linear search not attempted -- option 19 set.
 Maximum step size (   0.300) exceeded in Quadratic search.
    -- Step size scaled by   0.545
 Iteration  1 RMS(Cart)=  0.03335896 RMS(Int)=  0.00280855
 Iteration  2 RMS(Cart)=  0.00190373 RMS(Int)=  0.00009329
 Iteration  3 RMS(Cart)=  0.00003751 RMS(Int)=  0.00008299
 Iteration  4 RMS(Cart)=  0.00000001 RMS(Int)=  0.00008299
 Variable       Old X    -DE/DX   Delta X   Delta X   Delta X     New X
                                 (Linear)    (Quad)   (Total)
    R1        2.06329   0.00363   0.00000   0.00227   0.00227   2.06556
    R2        2.96018   0.00147   0.00000   0.00562   0.00562   2.96580
    R3        2.88062  -0.00037   0.00000  -0.02281  -0.02281   2.85781
    R4        2.75068   0.00174   0.00000   0.00206   0.00206   2.75273
    R5        2.06153   0.00198   0.00000   0.00194   0.00194   2.06347
    R6        2.06664   0.00140   0.00000   0.00173   0.00173   2.06837
    R7        2.85293  -0.00113   0.00000  -0.00517  -0.00517   2.84776
    R8        2.27448   0.04858   0.00000   0.02407   0.02407   2.29855
    R9        2.57520   0.02405   0.00000   0.02130   0.02130   2.59650
   R10        2.27199   0.10897   0.00000   0.05970   0.05970   2.33169
   R11        2.56254  -0.04657   0.00000  -0.07139  -0.07139   2.49116
   R12        2.45473   0.08548   0.00000   0.21015   0.21015   2.66489
   R13        1.91764   0.00456   0.00000   0.00371   0.00371   1.92135
   R14        1.91580   0.00455   0.00000   0.00286   0.00286   1.91866
   R15        1.83289   0.01410   0.00000   0.01146   0.01146   1.84435
    A1        1.88858  -0.00090   0.00000  -0.00150  -0.00152   1.88706
    A2        1.83476   0.00333   0.00000   0.01283   0.01284   1.84759
    A3        1.89601  -0.00025   0.00000   0.00115   0.00119   1.89721
    A4        1.87707   0.00006   0.00000   0.00042   0.00038   1.87744
    A5        2.04062   0.00063   0.00000  -0.00053  -0.00056   2.04007
    A6        1.91580  -0.00251   0.00000  -0.01066  -0.01066   1.90514
    A7        1.92306   0.00171   0.00000   0.00321   0.00322   1.92628
    A8        1.89832  -0.00065   0.00000  -0.00258  -0.00258   1.89574
    A9        1.97166  -0.00303   0.00000  -0.00727  -0.00727   1.96439
   A10        1.90156  -0.00058   0.00000  -0.00073  -0.00074   1.90082
   A11        1.85885   0.00091   0.00000   0.00398   0.00398   1.86283
   A12        1.90921   0.00173   0.00000   0.00369   0.00367   1.91288
   A13        2.19294   0.00195   0.00000   0.00538   0.00538   2.19832
   A14        1.96059  -0.00219   0.00000  -0.00324  -0.00324   1.95735
   A15        2.12960   0.00024   0.00000  -0.00216  -0.00216   2.12745
   A16        2.18821   0.00175   0.00000   0.01890   0.01903   2.20724
   A17        1.94796   0.04307   0.00000   0.09342   0.09348   2.04144
   A18        2.97540   0.00401   0.00000   0.05508   0.05514   3.03055
   A19        2.14636  -0.04505   0.00000  -0.11298  -0.11328   2.03308
   A20        1.08217  -0.00513   0.00000  -0.06366  -0.06324   1.01893
   A21        1.06699  -0.04038   0.00000  -0.05285  -0.05250   1.01449
   A22        1.93732   0.00182   0.00000   0.00880   0.00869   1.94601
   A23        1.92982   0.00259   0.00000   0.00907   0.00896   1.93878
   A24        1.88535   0.00228   0.00000   0.01190   0.01171   1.89706
   A25        1.86791   0.01341   0.00000   0.02078   0.02078   1.88869
    D1        1.20117   0.00125   0.00000   0.00458   0.00458   1.20575
    D2       -2.99874   0.00117   0.00000   0.00402   0.00401  -2.99473
    D3       -0.87545   0.00091   0.00000   0.00209   0.00209  -0.87336
    D4       -0.77251  -0.00220   0.00000  -0.00976  -0.00976  -0.78227
    D5        1.31076  -0.00229   0.00000  -0.01032  -0.01032   1.30044
    D6       -2.84913  -0.00255   0.00000  -0.01225  -0.01225  -2.86138
    D7       -2.93573   0.00064   0.00000   0.00451   0.00452  -2.93121
    D8       -0.85245   0.00055   0.00000   0.00395   0.00395  -0.84850
    D9        1.27084   0.00029   0.00000   0.00202   0.00203   1.27287
   D10       -0.30713  -0.00314   0.00000  -0.01200  -0.01202  -0.31916
   D11        2.87261   0.00449   0.00000   0.00947   0.00945   2.88206
   D12       -2.73023  -0.00099   0.00000  -0.00039  -0.00041  -2.73064
   D13        1.70255  -0.00255   0.00000  -0.00742  -0.00742   1.69513
   D14       -1.40089   0.00508   0.00000   0.01405   0.01405  -1.38684
   D15       -0.72054  -0.00040   0.00000   0.00419   0.00419  -0.71635
   D16       -2.34338  -0.00343   0.00000  -0.01510  -0.01508  -2.35846
   D17        0.83636   0.00420   0.00000   0.00637   0.00639   0.84275
   D18        1.51670  -0.00128   0.00000  -0.00349  -0.00347   1.51324
   D19       -3.02200   0.00206   0.00000   0.01133   0.01138  -3.01062
   D20        1.16907  -0.00369   0.00000  -0.01532  -0.01537   1.15369
   D21        1.11874   0.00301   0.00000   0.01278   0.01284   1.13158
   D22       -0.97339  -0.00274   0.00000  -0.01387  -0.01391  -0.98730
   D23       -1.02462   0.00455   0.00000   0.02153   0.02157  -1.00305
   D24       -3.11674  -0.00120   0.00000  -0.00512  -0.00518  -3.12192
   D25        2.01818   0.00105   0.00000   0.00415   0.00416   2.02234
   D26       -1.11243   0.00142   0.00000   0.00613   0.00614  -1.10629
   D27       -0.09527   0.00013   0.00000   0.00186   0.00186  -0.09340
   D28        3.05731   0.00051   0.00000   0.00384   0.00384   3.06115
   D29       -2.14786  -0.00058   0.00000  -0.00139  -0.00139  -2.14926
   D30        1.00471  -0.00021   0.00000   0.00059   0.00059   1.00530
   D31        3.13031  -0.00006   0.00000   0.00004   0.00005   3.13035
   D32       -0.00076   0.00029   0.00000   0.00188   0.00188   0.00112
         Item               Value     Threshold  Converged?
 Maximum Force            0.108966     0.000450     NO 
 RMS     Force            0.020592     0.000300     NO 
 Maximum Displacement     0.152694     0.001800     NO 
 RMS     Displacement     0.034363     0.001200     NO 
 Predicted change in Energy=-3.453459D-02
 GradGradGradGradGradGradGradGradGradGradGradGradGradGradGradGradGradGrad

                          Input orientation:                          
 ---------------------------------------------------------------------
 Center     Atomic     Atomic              Coordinates (Angstroms)
 Number     Number      Type              X           Y           Z
 ---------------------------------------------------------------------
    1          6             0        0.011299    0.009716   -0.000968
    2          1             0        0.013003    0.009877    1.092077
    3          6             0        1.502125    0.004098   -0.491406
    4          1             0        1.973781   -0.953845   -0.262881
    5          1             0        1.513980    0.155678   -1.575330
    6          6             0        2.334407    1.067870    0.176915
    7          8             0        3.282284    0.874711    0.914273
    8          6             0       -0.609809   -1.306111   -0.413081
    9          8             0       -0.737797   -2.309732    0.293187
   10          8             0       -0.997383   -1.417100   -1.668184
   11          1             0       -1.112472   -2.516789   -0.932930
   12          7             0       -0.831356    1.102772   -0.466894
   13          1             0       -0.962659    1.068590   -1.474535
   14          1             0       -0.430978    2.002891   -0.221246
   15          8             0        1.895044    2.334483   -0.124000
   16          1             0        2.464588    2.974150    0.343970
 ---------------------------------------------------------------------
                    Distance matrix (angstroms):
                    1          2          3          4          5
     1  C    0.000000
     2  H    1.093047   0.000000
     3  C    1.569434   2.173693   0.000000
     4  H    2.201905   2.570861   1.091943   0.000000
     5  H    2.181277   3.064189   1.094535   1.779040   0.000000
     6  C    2.558938   2.710312   1.506970   2.100192   2.139055
     7  O    3.505028   3.386407   2.429582   2.538009   3.137202
     8  C    1.512287   2.094091   2.486574   2.611817   2.828096
     9  O    2.455099   2.565640   3.314612   3.082256   3.826239
    10  O    2.415130   3.267443   3.106791   3.319231   2.964658
    11  H    2.917986   3.428029   3.658679   3.523736   3.801711
    12  N    1.456684   2.082728   2.579306   3.484264   2.761561
    13  H    2.059419   2.942836   2.859168   3.765771   2.641459
    14  H    2.053504   2.427765   2.793752   3.811416   3.004763
    15  O    2.994691   3.228733   2.391666   3.292202   2.645517
    16  H    3.863350   3.918782   3.231934   4.004785   3.539937
                    6          7          8          9         10
     6  C    0.000000
     7  O    1.216338   0.000000
     8  C    3.827831   4.654701   0.000000
     9  O    4.567292   5.165992   1.233876   0.000000
    10  O    4.547559   5.498821   1.318263   2.170519   0.000000
    11  H    5.095342   5.850496   1.410197   1.298698   1.327840
    12  N    3.230753   4.345305   2.419648   3.497379   2.796501
    13  H    3.687537   4.874785   2.624955   3.819484   2.493464
    14  H    2.946210   4.043577   3.319378   4.354021   3.756432
    15  O    1.374009   2.265697   4.428519   5.354870   4.982471
    16  H    1.918009   2.324117   5.324066   6.178775   5.942818
                   11         12         13         14         15
    11  H    0.000000
    12  N    3.660251   0.000000
    13  H    3.629149   1.016734   0.000000
    14  H    4.625844   1.015312   1.651162   0.000000
    15  O    5.764925   3.011303   3.404834   2.351550   0.000000
    16  H    6.676544   3.875926   4.322515   3.105981   0.975986
                   16
    16  H    0.000000
 Stoichiometry    C4H7NO4
 Framework group  C1[X(C4H7NO4)]
 Deg. of freedom    42
 Full point group                 C1
 Largest Abelian subgroup         C1      NOp   1
 Largest concise Abelian subgroup C1      NOp   1
                         Standard orientation:                         
 ---------------------------------------------------------------------
 Center     Atomic     Atomic              Coordinates (Angstroms)
 Number     Number      Type              X           Y           Z
 ---------------------------------------------------------------------
    1          6             0        0.449121    0.229573   -0.434474
    2          1             0        0.226793   -0.175515   -1.425042
    3          6             0       -0.526446   -0.439675    0.596786
    4          1             0       -0.281414   -1.496478    0.721143
    5          1             0       -0.415947    0.065934    1.561233
    6          6             0       -1.965910   -0.377103    0.155213
    7          8             0       -2.673141   -1.330057   -0.111585
    8          6             0        1.850430   -0.233020   -0.103787
    9          8             0        2.462800   -1.159619   -0.641252
   10          8             0        2.457821    0.369596    0.899083
   11          1             0        3.118421   -0.645696    0.355071
   12          7             0        0.431259    1.684192   -0.509926
   13          1             0        0.752530    2.106262    0.357478
   14          1             0       -0.502277    2.027964   -0.712878
   15          8             0       -2.423447    0.915135    0.062045
   16          1             0       -3.352356    0.889095   -0.236282
 ---------------------------------------------------------------------
 Rotational constants (GHZ):      3.1854346      0.9086878      0.7866156
 Standard basis: 6-31G (6D, 7F)
 There are    95 symmetry adapted basis functions of A   symmetry.
 Integral buffers will be    262144 words long.
 Raffenetti 2 integral format.
 Two-electron integral symmetry is turned on.
    95 basis functions,   226 primitive gaussians,    95 cartesian basis functions
    35 alpha electrons       35 beta electrons
       nuclear repulsion energy       462.9121446023 Hartrees.
 NAtoms=   16 NActive=   16 NUniq=   16 SFac= 7.50D-01 NAtFMM=   80 NAOKFM=F Big=F
 One-electron integrals computed using PRISM.
 NBasis=    95 RedAO= T  NBF=    95
 NBsUse=    95 1.00D-06 NBFU=    95
 Initial guess read from the read-write file:
 Initial guess orbital symmetries:
       Occupied  (A) (A) (A) (A) (A) (A) (A) (A) (A) (A) (A) (A)
                 (A) (A) (A) (A) (A) (A) (A) (A) (A) (A) (A) (A)
                 (A) (A) (A) (A) (A) (A) (A) (A) (A) (A) (A)
       Virtual   (A) (A) (A) (A) (A) (A) (A) (A) (A) (A) (A) (A)
                 (A) (A) (A) (A) (A) (A) (A) (A) (A) (A) (A) (A)
                 (A) (A) (A) (A) (A) (A) (A) (A) (A) (A) (A) (A)
                 (A) (A) (A) (A) (A) (A) (A) (A) (A) (A) (A) (A)
                 (A) (A) (A) (A) (A) (A) (A) (A) (A) (A) (A) (A)
 Harris functional with IExCor=  402 diagonalized for initial guess.
 ExpMin= 1.61D-01 ExpMax= 5.48D+03 ExpMxC= 8.25D+02 IAcc=1 IRadAn=         1 AccDes= 1.00D-06
 HarFok:  IExCor= 402 AccDes= 1.00D-06 IRadAn=         1 IDoV=1
 ScaDFX=  1.000000  1.000000  1.000000  1.000000
 Requested convergence on RMS density matrix=1.00D-08 within 128 cycles.
 Requested convergence on MAX density matrix=1.00D-06.
 Requested convergence on             energy=1.00D-06.
 No special actions if energy rises.
 Integral accuracy reduced to 1.0D-05 until final iterations.
 Initial convergence to 1.0D-05 achieved.  Increase integral accuracy.
 SCF Done:  E(RB+HF-LYP) =  -512.044203189     A.U. after   14 cycles
             Convg  =    0.3382D-08             -V/T =  2.0048
             S**2   =   0.0000
 ***** Axes restored to original set *****
 -------------------------------------------------------------------
 Center     Atomic                   Forces (Hartrees/Bohr)
 Number     Number              X              Y              Z
 -------------------------------------------------------------------
    1          6          -0.003479699   -0.007406404    0.012360708
    2          1           0.001118917    0.002525474    0.001872050
    3          6           0.002057159    0.001316764   -0.000128864
    4          1           0.000482649   -0.000960146    0.000087571
    5          1          -0.000663568   -0.000518972   -0.000863996
    6          6          -0.017810855   -0.010153277   -0.014270519
    7          8           0.019679778   -0.003388579    0.015071762
    8          6           0.033900202    0.133880541   -0.030764094
    9          8          -0.008889063   -0.059773561    0.027720523
   10          8          -0.000233179   -0.026796005    0.019945280
   11          1          -0.024546074   -0.042803245   -0.027558375
   12          7           0.007523226    0.001778264   -0.005245254
   13          1          -0.004745856   -0.002922104   -0.001641566
   14          1          -0.001584835    0.002203288    0.004173614
   15          8          -0.005003032    0.004891735   -0.002574790
   16          1           0.002194232    0.008126227    0.001815949
 -------------------------------------------------------------------
 Cartesian Forces:  Max     0.133880541 RMS     0.025213627

 GradGradGradGradGradGradGradGradGradGradGradGradGradGradGradGradGradGrad
 Berny optimization.
 Internal  Forces:  Max     0.065407948 RMS     0.012028102
 Search for a saddle point.
 Step number   2 out of a maximum of  82
 All quantities printed in internal units (Hartrees-Bohrs-Radians)
 Swaping is turned off.
 Update second derivatives using D2CorX and points  1  2
     Eigenvalues ---   -0.20498   0.00082   0.00124   0.00251   0.00361
     Eigenvalues ---    0.00492   0.02338   0.03092   0.03961   0.04409
     Eigenvalues ---    0.04445   0.04951   0.05136   0.05431   0.07896
     Eigenvalues ---    0.09507   0.11110   0.14739   0.15239   0.15874
     Eigenvalues ---    0.16417   0.17239   0.19088   0.19320   0.19957
     Eigenvalues ---    0.21304   0.24899   0.25294   0.27370   0.33797
     Eigenvalues ---    0.34228   0.34668   0.35129   0.36803   0.38896
     Eigenvalues ---    0.43394   0.43720   0.46001   0.46625   0.51944
     Eigenvalues ---    0.95475   0.991711000.000001000.000001000.00000
     Eigenvalues --- 1000.000001000.000001000.000001000.000001000.00000
     Eigenvalues --- 1000.000001000.000001000.000001000.000001000.00000
     Eigenvalues --- 1000.000001000.000001000.000001000.000001000.00000
     Eigenvalues --- 1000.000001000.000001000.000001000.000001000.00000
     Eigenvalues --- 1000.000001000.000001000.000001000.000001000.00000
     Eigenvalues --- 1000.000001000.00000
 Eigenvectors required to have negative eigenvalues:
                          R1        R2        R3        R4        R5
         1             -0.00794   0.00211  -0.01081   0.01175  -0.00036
                          R6        R7        R8        R9        R10
         1              0.00116  -0.00005  -0.00121   0.00082  -0.06157
                          R11       R12       R13       R14       R15
         1              0.08471   0.00265   0.00253  -0.00014   0.00009
                          A1        A2        A3        A4        A5
         1              0.00578  -0.01730   0.00716   0.00663  -0.01099
                          A6        A7        A8        A9        A10
         1              0.00753  -0.00168   0.00468  -0.00214   0.00035
                          A11       A12       A13       A14       A15
         1              0.00169  -0.00298   0.00078  -0.00153   0.00074
                          A16       A17       A18       A19       A20
         1             -0.15695   0.15465  -0.52767  -0.00169   0.56838
                          A21       A22       A23       A24       A25
         1             -0.56238   0.01115   0.00543  -0.01045   0.00064
                          D1        D2        D3        D4        D5
         1             -0.00775  -0.00544  -0.00735   0.00619   0.00850
                          D6        D7        D8        D9        D10
         1              0.00660  -0.00139   0.00092  -0.00099  -0.02144
                          D11       D12       D13       D14       D15
         1              0.06095  -0.05275  -0.02012   0.06227  -0.05143
                          D16       D17       D18       D19       D20
         1             -0.02430   0.05808  -0.05562   0.00259   0.00445
                          D21       D22       D23       D24       D25
         1             -0.00301  -0.00115  -0.01002  -0.00816  -0.00147
                          D26       D27       D28       D29       D30
         1             -0.00100   0.00078   0.00124   0.00098   0.00145
                          D31       D32
         1             -0.00040   0.00004
 RFO step:  Lambda0=3.369652047D-04 Lambda=-3.32450702D-02.
 Linear search not attempted -- option 19 set.
 Maximum step size (   0.300) exceeded in Quadratic search.
    -- Step size scaled by   0.742
 Iteration  1 RMS(Cart)=  0.03016824 RMS(Int)=  0.00582462
 Iteration  2 RMS(Cart)=  0.00302545 RMS(Int)=  0.00022377
 Iteration  3 RMS(Cart)=  0.00015608 RMS(Int)=  0.00013902
 Iteration  4 RMS(Cart)=  0.00000015 RMS(Int)=  0.00013902
 Variable       Old X    -DE/DX   Delta X   Delta X   Delta X     New X
                                 (Linear)    (Quad)   (Total)
    R1        2.06556   0.00187   0.00000   0.00113   0.00113   2.06669
    R2        2.96580   0.00116   0.00000   0.00921   0.00921   2.97501
    R3        2.85781  -0.00111   0.00000  -0.02661  -0.02661   2.83120
    R4        2.75273   0.00098   0.00000  -0.00045  -0.00045   2.75228
    R5        2.06347   0.00107   0.00000   0.00152   0.00152   2.06499
    R6        2.06837   0.00077   0.00000   0.00123   0.00123   2.06961
    R7        2.84776  -0.00087   0.00000  -0.00544  -0.00544   2.84232
    R8        2.29855   0.02501   0.00000   0.01858   0.01858   2.31712
    R9        2.59650   0.01306   0.00000   0.01806   0.01806   2.61456
   R10        2.33169   0.06541   0.00000   0.05960   0.05960   2.39128
   R11        2.49116  -0.01667   0.00000  -0.02893  -0.02893   2.46222
   R12        2.66489   0.05566   0.00000   0.22024   0.22024   2.88513
   R13        1.92135   0.00234   0.00000   0.00071   0.00071   1.92205
   R14        1.91866   0.00234   0.00000   0.00002   0.00002   1.91868
   R15        1.84435   0.00748   0.00000   0.00893   0.00893   1.85328
    A1        1.88706  -0.00049   0.00000  -0.00013  -0.00015   1.88690
    A2        1.84759   0.00235   0.00000   0.01709   0.01711   1.86471
    A3        1.89721  -0.00002   0.00000   0.00292   0.00297   1.90018
    A4        1.87744   0.00011   0.00000  -0.00076  -0.00085   1.87659
    A5        2.04007   0.00012   0.00000  -0.00475  -0.00482   2.03525
    A6        1.90514  -0.00179   0.00000  -0.01190  -0.01193   1.89320
    A7        1.92628   0.00101   0.00000   0.00356   0.00357   1.92986
    A8        1.89574  -0.00052   0.00000  -0.00616  -0.00616   1.88958
    A9        1.96439  -0.00188   0.00000  -0.00693  -0.00694   1.95745
   A10        1.90082  -0.00031   0.00000   0.00029   0.00028   1.90111
   A11        1.86283   0.00070   0.00000   0.00523   0.00523   1.86806
   A12        1.91288   0.00106   0.00000   0.00444   0.00440   1.91728
   A13        2.19832   0.00131   0.00000   0.00520   0.00520   2.20352
   A14        1.95735  -0.00126   0.00000  -0.00274  -0.00274   1.95461
   A15        2.12745  -0.00005   0.00000  -0.00250  -0.00250   2.12494
   A16        2.20724  -0.00024   0.00000   0.01380   0.01402   2.22126
   A17        2.04144   0.02468   0.00000   0.08706   0.08705   2.12849
   A18        3.03055   0.00340   0.00000   0.05418   0.05435   3.08490
   A19        2.03308  -0.02458   0.00000  -0.10121  -0.10141   1.93167
   A20        1.01893  -0.00248   0.00000  -0.05678  -0.05635   0.96258
   A21        1.01449  -0.02221   0.00000  -0.04547  -0.04528   0.96921
   A22        1.94601   0.00149   0.00000   0.01519   0.01478   1.96079
   A23        1.93878   0.00186   0.00000   0.01590   0.01549   1.95427
   A24        1.89706   0.00192   0.00000   0.02626   0.02555   1.92262
   A25        1.88869   0.00787   0.00000   0.02035   0.02035   1.90904
    D1        1.20575   0.00090   0.00000   0.00567   0.00567   1.21141
    D2       -2.99473   0.00081   0.00000   0.00435   0.00433  -2.99039
    D3       -0.87336   0.00056   0.00000   0.00118   0.00118  -0.87218
    D4       -0.78227  -0.00164   0.00000  -0.01374  -0.01374  -0.79601
    D5        1.30044  -0.00173   0.00000  -0.01506  -0.01507   1.28537
    D6       -2.86138  -0.00198   0.00000  -0.01823  -0.01822  -2.87960
    D7       -2.93121   0.00056   0.00000   0.00603   0.00604  -2.92517
    D8       -0.84850   0.00047   0.00000   0.00472   0.00471  -0.84379
    D9        1.27287   0.00022   0.00000   0.00154   0.00156   1.27443
   D10       -0.31916  -0.00165   0.00000  -0.00975  -0.00978  -0.32894
   D11        2.88206   0.00208   0.00000   0.00058   0.00055   2.88261
   D12       -2.73064  -0.00049   0.00000   0.00382   0.00379  -2.72685
   D13        1.69513  -0.00102   0.00000  -0.00195  -0.00195   1.69318
   D14       -1.38684   0.00271   0.00000   0.00838   0.00838  -1.37846
   D15       -0.71635   0.00014   0.00000   0.01162   0.01162  -0.70473
   D16       -2.35846  -0.00200   0.00000  -0.01639  -0.01636  -2.37483
   D17        0.84275   0.00173   0.00000  -0.00605  -0.00603   0.83672
   D18        1.51324  -0.00083   0.00000  -0.00282  -0.00279   1.51045
   D19       -3.01062   0.00187   0.00000   0.02783   0.02800  -2.98262
   D20        1.15369  -0.00291   0.00000  -0.02733  -0.02752   1.12617
   D21        1.13158   0.00245   0.00000   0.02907   0.02928   1.16086
   D22       -0.98730  -0.00232   0.00000  -0.02609  -0.02624  -1.01353
   D23       -1.00305   0.00368   0.00000   0.04331   0.04346  -0.95958
   D24       -3.12192  -0.00109   0.00000  -0.01185  -0.01205  -3.13397
   D25        2.02234   0.00079   0.00000   0.01051   0.01051   2.03285
   D26       -1.10629   0.00113   0.00000   0.01378   0.01378  -1.09251
   D27       -0.09340   0.00021   0.00000   0.00679   0.00680  -0.08660
   D28        3.06115   0.00054   0.00000   0.01006   0.01008   3.07123
   D29       -2.14926  -0.00038   0.00000   0.00117   0.00115  -2.14811
   D30        1.00530  -0.00005   0.00000   0.00444   0.00443   1.00972
   D31        3.13035  -0.00003   0.00000   0.00123   0.00123   3.13159
   D32        0.00112   0.00028   0.00000   0.00428   0.00427   0.00539
         Item               Value     Threshold  Converged?
 Maximum Force            0.065408     0.000450     NO 
 RMS     Force            0.012028     0.000300     NO 
 Maximum Displacement     0.159547     0.001800     NO 
 RMS     Displacement     0.032810     0.001200     NO 
 Predicted change in Energy=-1.684009D-02
 GradGradGradGradGradGradGradGradGradGradGradGradGradGradGradGradGradGrad

                          Input orientation:                          
 ---------------------------------------------------------------------
 Center     Atomic     Atomic              Coordinates (Angstroms)
 Number     Number      Type              X           Y           Z
 ---------------------------------------------------------------------
    1          6             0        0.024193    0.017496    0.001115
    2          1             0        0.025549    0.020817    1.094755
    3          6             0        1.519857    0.005946   -0.490110
    4          1             0        1.990497   -0.954260   -0.265168
    5          1             0        1.526184    0.159255   -1.574497
    6          6             0        2.345454    1.069169    0.180886
    7          8             0        3.304760    0.882642    0.921446
    8          6             0       -0.601544   -1.274304   -0.428214
    9          8             0       -0.748075   -2.322542    0.265324
   10          8             0       -1.010624   -1.469919   -1.649717
   11          1             0       -1.196900   -2.583384   -0.940863
   12          7             0       -0.809511    1.113880   -0.472283
   13          1             0       -0.968950    1.072942   -1.475981
   14          1             0       -0.428552    2.019221   -0.215161
   15          8             0        1.888897    2.341827   -0.112616
   16          1             0        2.446824    3.002474    0.350051
 ---------------------------------------------------------------------
                    Distance matrix (angstroms):
                    1          2          3          4          5
     1  C    0.000000
     2  H    1.093646   0.000000
     3  C    1.574309   2.178297   0.000000
     4  H    2.209427   2.580927   1.092747   0.000000
     5  H    2.181427   3.065286   1.095189   1.780406   0.000000
     6  C    2.554718   2.704839   1.504091   2.102195   2.140214
     7  O    3.515339   3.394997   2.438640   2.551381   3.149024
     8  C    1.498205   2.095237   2.478551   2.616809   2.810033
     9  O    2.478303   2.603418   3.337073   3.106992   3.836211
    10  O    2.451224   3.290605   3.150588   3.345088   3.015835
    11  H    3.023734   3.524200   3.780024   3.642816   3.916471
    12  N    1.456443   2.085119   2.579495   3.487140   2.753481
    13  H    2.069327   2.950370   2.881768   3.786019   2.658989
    14  H    2.063651   2.432222   2.815168   3.833521   3.021301
    15  O    2.982041   3.211992   2.394792   3.301179   2.651844
    16  H    3.860180   3.912471   3.247201   4.030195   3.554625
                    6          7          8          9         10
     6  C    0.000000
     7  O    1.226168   0.000000
     8  C    3.814141   4.661889   0.000000
     9  O    4.591379   5.208567   1.265413   0.000000
    10  O    4.589264   5.546888   1.302951   2.112648   0.000000
    11  H    5.210349   5.978835   1.526744   1.313152   1.333033
    12  N    3.222179   4.350078   2.397627   3.515230   2.846545
    13  H    3.705469   4.903924   2.596607   3.822335   2.549130
    14  H    2.958811   4.064641   3.304939   4.379939   3.817180
    15  O    1.383563   2.281046   4.402079   5.371480   5.029842
    16  H    1.943338   2.357166   5.309338   6.210504   5.996276
                   11         12         13         14         15
    11  H    0.000000
    12  N    3.746919   0.000000
    13  H    3.702300   1.017107   0.000000
    14  H    4.722390   1.015324   1.666476   0.000000
    15  O    5.870761   2.986406   3.411176   2.342041   0.000000
    16  H    6.793010   3.853146   4.327240   3.090961   0.980713
                   16
    16  H    0.000000
 Stoichiometry    C4H7NO4
 Framework group  C1[X(C4H7NO4)]
 Deg. of freedom    42
 Full point group                 C1
 Largest Abelian subgroup         C1      NOp   1
 Largest concise Abelian subgroup C1      NOp   1
                         Standard orientation:                         
 ---------------------------------------------------------------------
 Center     Atomic     Atomic              Coordinates (Angstroms)
 Number     Number      Type              X           Y           Z
 ---------------------------------------------------------------------
    1          6             0        0.435005    0.237398   -0.432880
    2          1             0        0.207899   -0.151966   -1.429314
    3          6             0       -0.535137   -0.454716    0.595832
    4          1             0       -0.284874   -1.512509    0.707806
    5          1             0       -0.419153    0.042250    1.564858
    6          6             0       -1.971630   -0.386093    0.155298
    7          8             0       -2.691441   -1.339330   -0.121647
    8          6             0        1.829234   -0.200750   -0.103073
    9          8             0        2.486804   -1.136347   -0.644857
   10          8             0        2.503787    0.326982    0.878844
   11          1             0        3.230056   -0.639283    0.316847
   12          7             0        0.407235    1.692870   -0.478226
   13          1             0        0.754805    2.113195    0.380277
   14          1             0       -0.519414    2.048668   -0.691798
   15          8             0       -2.424849    0.918178    0.067457
   16          1             0       -3.359193    0.918652   -0.230538
 ---------------------------------------------------------------------
 Rotational constants (GHZ):      3.2072681      0.8988875      0.7782591
 Standard basis: 6-31G (6D, 7F)
 There are    95 symmetry adapted basis functions of A   symmetry.
 Integral buffers will be    262144 words long.
 Raffenetti 2 integral format.
 Two-electron integral symmetry is turned on.
    95 basis functions,   226 primitive gaussians,    95 cartesian basis functions
    35 alpha electrons       35 beta electrons
       nuclear repulsion energy       461.4130727410 Hartrees.
 NAtoms=   16 NActive=   16 NUniq=   16 SFac= 7.50D-01 NAtFMM=   80 NAOKFM=F Big=F
 One-electron integrals computed using PRISM.
 NBasis=    95 RedAO= T  NBF=    95
 NBsUse=    95 1.00D-06 NBFU=    95
 Initial guess read from the read-write file:
 Initial guess orbital symmetries:
       Occupied  (A) (A) (A) (A) (A) (A) (A) (A) (A) (A) (A) (A)
                 (A) (A) (A) (A) (A) (A) (A) (A) (A) (A) (A) (A)
                 (A) (A) (A) (A) (A) (A) (A) (A) (A) (A) (A)
       Virtual   (A) (A) (A) (A) (A) (A) (A) (A) (A) (A) (A) (A)
                 (A) (A) (A) (A) (A) (A) (A) (A) (A) (A) (A) (A)
                 (A) (A) (A) (A) (A) (A) (A) (A) (A) (A) (A) (A)
                 (A) (A) (A) (A) (A) (A) (A) (A) (A) (A) (A) (A)
                 (A) (A) (A) (A) (A) (A) (A) (A) (A) (A) (A) (A)
 Harris functional with IExCor=  402 diagonalized for initial guess.
 ExpMin= 1.61D-01 ExpMax= 5.48D+03 ExpMxC= 8.25D+02 IAcc=1 IRadAn=         1 AccDes= 1.00D-06
 HarFok:  IExCor= 402 AccDes= 1.00D-06 IRadAn=         1 IDoV=1
 ScaDFX=  1.000000  1.000000  1.000000  1.000000
 Requested convergence on RMS density matrix=1.00D-08 within 128 cycles.
 Requested convergence on MAX density matrix=1.00D-06.
 Requested convergence on             energy=1.00D-06.
 No special actions if energy rises.
 Integral accuracy reduced to 1.0D-05 until final iterations.
 Initial convergence to 1.0D-05 achieved.  Increase integral accuracy.
 SCF Done:  E(RB+HF-LYP) =  -512.060646475     A.U. after   14 cycles
             Convg  =    0.3353D-08             -V/T =  2.0051
             S**2   =   0.0000
 ***** Axes restored to original set *****
 -------------------------------------------------------------------
 Center     Atomic                   Forces (Hartrees/Bohr)
 Number     Number              X              Y              Z
 -------------------------------------------------------------------
    1          6          -0.001913030   -0.002253068    0.006336933
    2          1           0.000350287    0.000984019    0.000650088
    3          6           0.001251865    0.000643468   -0.000150815
    4          1          -0.000000216   -0.000326528    0.000241747
    5          1          -0.000254486   -0.000318238   -0.000280194
    6          6          -0.005734931   -0.003550337   -0.004883174
    7          8           0.006524911   -0.000977068    0.004689732
    8          6           0.016601126    0.053237683   -0.014490420
    9          8          -0.004429265   -0.029821357    0.022481398
   10          8          -0.003563640   -0.004018309   -0.003411262
   11          1          -0.008892477   -0.018709477   -0.009655980
   12          7           0.005641124    0.001993788   -0.004048048
   13          1          -0.003121401   -0.001959894   -0.000056612
   14          1          -0.001318106    0.000611164    0.002475459
   15          8          -0.001735890    0.001745636   -0.000309930
   16          1           0.000594127    0.002718519    0.000411077
 -------------------------------------------------------------------
 Cartesian Forces:  Max     0.053237683 RMS     0.010774941

 GradGradGradGradGradGradGradGradGradGradGradGradGradGradGradGradGradGrad
 Berny optimization.
 Internal  Forces:  Max     0.037536039 RMS     0.005449148
 Search for a saddle point.
 Step number   3 out of a maximum of  82
 All quantities printed in internal units (Hartrees-Bohrs-Radians)
 Swaping is turned off.
 Update second derivatives using D2CorX and points  1  2  3
     Eigenvalues ---   -0.20458   0.00082   0.00120   0.00250   0.00360
     Eigenvalues ---    0.00490   0.02335   0.02947   0.03960   0.04413
     Eigenvalues ---    0.04444   0.04947   0.05139   0.05430   0.07896
     Eigenvalues ---    0.09475   0.11106   0.14805   0.15856   0.16202
     Eigenvalues ---    0.16511   0.17336   0.19089   0.19428   0.20106
     Eigenvalues ---    0.21303   0.24726   0.25287   0.27380   0.33941
     Eigenvalues ---    0.34241   0.34670   0.35130   0.36803   0.38896
     Eigenvalues ---    0.43388   0.45580   0.46000   0.46642   0.51935
     Eigenvalues ---    0.95311   0.988771000.000001000.000001000.00000
     Eigenvalues --- 1000.000001000.000001000.000001000.000001000.00000
     Eigenvalues --- 1000.000001000.000001000.000001000.000001000.00000
     Eigenvalues --- 1000.000001000.000001000.000001000.000001000.00000
     Eigenvalues --- 1000.000001000.000001000.000001000.000001000.00000
     Eigenvalues --- 1000.000001000.000001000.000001000.000001000.00000
     Eigenvalues --- 1000.000001000.00000
 Eigenvectors required to have negative eigenvalues:
                          R1        R2        R3        R4        R5
         1              0.00805  -0.00215   0.01278  -0.01179   0.00037
                          R6        R7        R8        R9        R10
         1             -0.00116   0.00012   0.00144  -0.00067   0.06583
                          R11       R12       R13       R14       R15
         1             -0.08035  -0.00546  -0.00253   0.00020  -0.00006
                          A1        A2        A3        A4        A5
         1             -0.00584   0.01703  -0.00718  -0.00649   0.01094
                          A6        A7        A8        A9        A10
         1             -0.00730   0.00162  -0.00466   0.00235  -0.00034
                          A11       A12       A13       A14       A15
         1             -0.00183   0.00292  -0.00082   0.00159  -0.00076
                          A16       A17       A18       A19       A20
         1              0.15850  -0.15868   0.52926   0.00452  -0.55868
                          A21       A22       A23       A24       A25
         1              0.56847  -0.01104  -0.00537   0.01055  -0.00068
                          D1        D2        D3        D4        D5
         1              0.00769   0.00537   0.00736  -0.00593  -0.00826
                          D6        D7        D8        D9        D10
         1             -0.00626   0.00126  -0.00107   0.00092   0.02293
                          D11       D12       D13       D14       D15
         1             -0.06234   0.05281   0.02147  -0.06380   0.05135
                          D16       D17       D18       D19       D20
         1              0.02603  -0.05924   0.05591  -0.00289  -0.00420
                          D21       D22       D23       D24       D25
         1              0.00279   0.00148   0.00949   0.00818   0.00132
                          D26       D27       D28       D29       D30
         1              0.00083  -0.00090  -0.00139  -0.00102  -0.00152
                          D31       D32
         1              0.00038  -0.00009
 RFO step:  Lambda0=4.035838527D-05 Lambda=-6.63798130D-03.
 Linear search not attempted -- option 19 set.
 Iteration  1 RMS(Cart)=  0.02958237 RMS(Int)=  0.00619118
 Iteration  2 RMS(Cart)=  0.00166633 RMS(Int)=  0.00047463
 Iteration  3 RMS(Cart)=  0.00010842 RMS(Int)=  0.00045947
 Iteration  4 RMS(Cart)=  0.00000013 RMS(Int)=  0.00045947
 Variable       Old X    -DE/DX   Delta X   Delta X   Delta X     New X
                                 (Linear)    (Quad)   (Total)
    R1        2.06669   0.00065   0.00000   0.00023   0.00023   2.06692
    R2        2.97501   0.00070   0.00000   0.01166   0.01166   2.98667
    R3        2.83120   0.00098   0.00000  -0.00632  -0.00632   2.82488
    R4        2.75228   0.00033   0.00000  -0.00855  -0.00855   2.74373
    R5        2.06499   0.00034   0.00000   0.00080   0.00080   2.06579
    R6        2.06961   0.00023   0.00000   0.00088   0.00088   2.07049
    R7        2.84232  -0.00028   0.00000  -0.00357  -0.00357   2.83875
    R8        2.31712   0.00809   0.00000   0.00975   0.00975   2.32687
    R9        2.61456   0.00446   0.00000   0.01039   0.01039   2.62494
   R10        2.39128   0.03754   0.00000   0.05279   0.05279   2.44408
   R11        2.46222   0.00492   0.00000   0.01729   0.01729   2.47951
   R12        2.88513   0.02275   0.00000   0.13669   0.13669   3.02182
   R13        1.92205   0.00063   0.00000  -0.00529  -0.00529   1.91676
   R14        1.91868   0.00068   0.00000  -0.00551  -0.00551   1.91318
   R15        1.85328   0.00236   0.00000   0.00428   0.00428   1.85756
    A1        1.88690  -0.00015   0.00000   0.00077   0.00080   1.88770
    A2        1.86471   0.00101   0.00000   0.01519   0.01521   1.87992
    A3        1.90018   0.00010   0.00000   0.00813   0.00817   1.90835
    A4        1.87659   0.00013   0.00000  -0.00397  -0.00408   1.87251
    A5        2.03525  -0.00020   0.00000  -0.00952  -0.00961   2.02564
    A6        1.89320  -0.00075   0.00000  -0.00841  -0.00851   1.88469
    A7        1.92986   0.00031   0.00000   0.00369   0.00368   1.93354
    A8        1.88958  -0.00038   0.00000  -0.01064  -0.01064   1.87894
    A9        1.95745  -0.00049   0.00000   0.00107   0.00106   1.95852
   A10        1.90111  -0.00004   0.00000   0.00132   0.00132   1.90242
   A11        1.86806   0.00026   0.00000   0.00298   0.00296   1.87103
   A12        1.91728   0.00037   0.00000   0.00186   0.00185   1.91912
   A13        2.20352   0.00047   0.00000   0.00189   0.00189   2.20541
   A14        1.95461  -0.00036   0.00000   0.00142   0.00142   1.95602
   A15        2.12494  -0.00011   0.00000  -0.00330  -0.00330   2.12164
   A16        2.22126  -0.00307   0.00000  -0.00935  -0.00929   2.21198
   A17        2.12849   0.00432   0.00000   0.03708   0.03683   2.16532
   A18        3.08490   0.00019   0.00000   0.02677   0.02700   3.11190
   A19        1.93167  -0.00118   0.00000  -0.02641  -0.02648   1.90519
   A20        0.96258   0.00295   0.00000  -0.01140  -0.01127   0.95132
   A21        0.96921  -0.00415   0.00000  -0.01507  -0.01525   0.95397
   A22        1.96079   0.00091   0.00000   0.02632   0.02460   1.98539
   A23        1.95427   0.00105   0.00000   0.02755   0.02582   1.98009
   A24        1.92262   0.00124   0.00000   0.05346   0.05084   1.97346
   A25        1.90904   0.00281   0.00000   0.01223   0.01223   1.92127
    D1        1.21141   0.00041   0.00000  -0.00298  -0.00297   1.20844
    D2       -2.99039   0.00032   0.00000  -0.00575  -0.00576  -2.99615
    D3       -0.87218   0.00020   0.00000  -0.00995  -0.00995  -0.88213
    D4       -0.79601  -0.00075   0.00000  -0.01905  -0.01903  -0.81503
    D5        1.28537  -0.00085   0.00000  -0.02182  -0.02181   1.26356
    D6       -2.87960  -0.00096   0.00000  -0.02602  -0.02601  -2.90560
    D7       -2.92517   0.00027   0.00000   0.00164   0.00163  -2.92354
    D8       -0.84379   0.00017   0.00000  -0.00113  -0.00115  -0.84494
    D9        1.27443   0.00006   0.00000  -0.00534  -0.00535   1.26908
   D10       -0.32894   0.00063   0.00000  -0.00384  -0.00384  -0.33278
   D11        2.88261  -0.00077   0.00000  -0.02904  -0.02905   2.85357
   D12       -2.72685  -0.00002   0.00000   0.01098   0.01097  -2.71587
   D13        1.69318   0.00102   0.00000   0.00267   0.00267   1.69585
   D14       -1.37846  -0.00038   0.00000  -0.02253  -0.02254  -1.40100
   D15       -0.70473   0.00037   0.00000   0.01749   0.01748  -0.68725
   D16       -2.37483   0.00037   0.00000  -0.01713  -0.01712  -2.39194
   D17        0.83672  -0.00103   0.00000  -0.04234  -0.04232   0.79440
   D18        1.51045  -0.00028   0.00000  -0.00232  -0.00230   1.50815
   D19       -2.98262   0.00147   0.00000   0.08809   0.08868  -2.89394
   D20        1.12617  -0.00171   0.00000  -0.02475  -0.02536   1.10081
   D21        1.16086   0.00174   0.00000   0.08736   0.08799   1.24885
   D22       -1.01353  -0.00143   0.00000  -0.02549  -0.02605  -1.03958
   D23       -0.95958   0.00231   0.00000   0.10590   0.10647  -0.85311
   D24       -3.13397  -0.00087   0.00000  -0.00694  -0.00757  -3.14154
   D25        2.03285   0.00051   0.00000   0.05951   0.05951   2.09236
   D26       -1.09251   0.00070   0.00000   0.05963   0.05964  -1.03287
   D27       -0.08660   0.00025   0.00000   0.05231   0.05231  -0.03429
   D28        3.07123   0.00045   0.00000   0.05244   0.05244   3.12367
   D29       -2.14811  -0.00005   0.00000   0.04803   0.04802  -2.10008
   D30        1.00972   0.00014   0.00000   0.04816   0.04815   1.05788
   D31        3.13159   0.00003   0.00000   0.00734   0.00734   3.13892
   D32        0.00539   0.00021   0.00000   0.00741   0.00741   0.01280
         Item               Value     Threshold  Converged?
 Maximum Force            0.037536     0.000450     NO 
 RMS     Force            0.005449     0.000300     NO 
 Maximum Displacement     0.098271     0.001800     NO 
 RMS     Displacement     0.031105     0.001200     NO 
 Predicted change in Energy=-3.569131D-03
 GradGradGradGradGradGradGradGradGradGradGradGradGradGradGradGradGradGrad

                          Input orientation:                          
 ---------------------------------------------------------------------
 Center     Atomic     Atomic              Coordinates (Angstroms)
 Number     Number      Type              X           Y           Z
 ---------------------------------------------------------------------
    1          6             0        0.033515    0.024547    0.005630
    2          1             0        0.027140    0.034446    1.099331
    3          6             0        1.538021    0.001602   -0.477946
    4          1             0        2.006341   -0.957862   -0.243151
    5          1             0        1.540046    0.143153   -1.564418
    6          6             0        2.362443    1.071191    0.180016
    7          8             0        3.356763    0.896408    0.884958
    8          6             0       -0.596279   -1.255403   -0.441249
    9          8             0       -0.756646   -2.326708    0.265392
   10          8             0       -1.035942   -1.472476   -1.658290
   11          1             0       -1.246037   -2.621277   -0.960142
   12          7             0       -0.779109    1.120981   -0.489901
   13          1             0       -1.008284    1.046876   -1.475197
   14          1             0       -0.424425    2.033660   -0.232626
   15          8             0        1.866008    2.343345   -0.074273
[...]
 ! D5    D(8,1,3,5)             72.3682         -DE/DX =    0.0                 !
 ! D6    D(8,1,3,6)           -166.77           -DE/DX =    0.0                 !
 ! D7    D(12,1,3,4)          -169.275          -DE/DX =    0.0                 !
 ! D8    D(12,1,3,5)           -50.5655         -DE/DX =    0.0                 !
 ! D9    D(12,1,3,6)            70.2963         -DE/DX =    0.0                 !
 ! D10   D(2,1,8,9)            -50.7393         -DE/DX =    0.0                 !
 ! D11   D(2,1,8,10)           132.0749         -DE/DX =    0.0                 !
 ! D12   D(2,1,8,11)          -141.9768         -DE/DX =    0.0                 !
 ! D13   D(3,1,8,9)             62.9111         -DE/DX =    0.0                 !
 ! D14   D(3,1,8,10)          -114.2746         -DE/DX =    0.0                 !
 ! D15   D(3,1,8,11)           -28.3264         -DE/DX =    0.0                 !
 ! D16   D(12,1,8,9)          -170.2002         -DE/DX =    0.0                 !
 ! D17   D(12,1,8,10)           12.6141         -DE/DX =    0.0                 !
 ! D18   D(12,1,8,11)           98.5623         -DE/DX =    0.0                 !
 ! D19   D(2,1,12,13)         -144.1837         -DE/DX =    0.0                 !
 ! D20   D(2,1,12,14)           71.8377         -DE/DX =    0.0                 !
 ! D21   D(3,1,12,13)           94.1243         -DE/DX =    0.0                 !
 ! D22   D(3,1,12,14)          -49.8543         -DE/DX =    0.0                 !
 ! D23   D(8,1,12,13)          -27.4026         -DE/DX =    0.0                 !
 ! D24   D(8,1,12,14)         -171.3812         -DE/DX =    0.0                 !
 ! D25   D(1,3,6,7)            132.2904         -DE/DX =    0.0                 !
 ! D26   D(1,3,6,15)           -48.3899         -DE/DX =    0.0                 !
 ! D27   D(4,3,6,7)             10.0731         -DE/DX =    0.0                 !
 ! D28   D(4,3,6,15)          -170.6072         -DE/DX =    0.0                 !
 ! D29   D(5,3,6,7)           -107.3597         -DE/DX =    0.0                 !
 ! D30   D(5,3,6,15)            71.9601         -DE/DX =    0.0                 !
 ! D31   D(3,6,15,16)         -179.8216         -DE/DX =    0.0                 !
 ! D32   D(7,6,15,16)           -0.4673         -DE/DX =    0.0                 !
 --------------------------------------------------------------------------------
 GradGradGradGradGradGradGradGradGradGradGradGradGradGradGradGradGradGrad


 Test job not archived.
 1|1|UNPC-UNK|Freq|RB3LYP|6-31G|C4H7N1O4|PCUSER|01-Apr-2016|0||#N Geom=
 AllCheck Guess=Read SCRF=Check Test GenChk RB3LYP/6-31G Freq||Asp-R-op
 t-freq--ts1-6-31g||0,1|C,0.0169325236,0.0630771609,-0.0427610733|H,-0.
 0405433692,0.0876906614,1.0556672536|C,1.5475590887,-0.0170934141,-0.4
 135446667|H,1.9662518157,-0.9745382748,-0.0955255354|H,1.6359051976,0.
 0610905131,-1.5045396144|C,2.3795367593,1.0641641045,0.220626575|O,3.4
 459725408,0.9000776231,0.8131225858|C,-0.6038890252,-1.2299544894,-0.4
 642546307|O,-0.3021694572,-2.4067096996,0.012556255|O,-1.4986995291,-1
 .3765519305,-1.4041915806|H,-1.2395902515,-2.6236002107,-0.9499040783|
 N,-0.7192776353,1.1639265329,-0.6121102072|H,-1.2049628092,0.985343309
 3,-1.4785322969|H,-0.3020454579,2.0745388338,-0.4987833605|O,1.8264710
 007,2.3275422026,0.0631933973|H,2.4006075981,3.0022564176,0.4879485074
 ||Version=IA32W-G03RevE.01|State=1-A|HF=-512.0652007|RMSD=4.867e-009|R
 MSF=5.360e-006|ZeroPoint=0.1174548|Thermal=0.1269035|Dipole=0.1230112,
 0.9029827,-0.3818672|DipoleDeriv=0.5191581,-0.258025,-0.0457833,-0.352
 8786,0.3056668,-0.2003313,-0.0795429,-0.2286451,0.3342558,0.0192278,0.
 0306609,-0.0183729,0.0063447,0.0132126,0.0327982,0.0079251,0.0583938,-
 0.0935304,-0.2203662,0.0340049,-0.0898452,-0.1135361,-0.1957516,-0.097
 1913,-0.109889,-0.1188774,0.0136118,0.0227235,0.0450943,-0.0122848,0.0
 307229,0.0002956,0.0152487,-0.0192131,0.0364728,0.0741026,0.0668391,-0
 .0238255,-0.0193255,-0.0318513,0.0682846,0.0223861,0.0192391,0.0088058
 ,-0.0478807,1.1094522,-0.2437837,0.4315242,0.0035125,1.5080821,0.09739
 56,0.5899358,0.0502396,0.546671,-0.8950558,0.1283332,-0.2540159,-0.100
 1345,-0.6331239,-0.0705304,-0.3802232,0.0236869,-0.4984845,0.6677177,0
 .0805028,0.3664867,0.245871,1.0114024,-0.0420546,0.4652995,-0.0393031,
 0.6725166,-0.5422888,0.0447333,-0.1540826,0.0132275,-0.8216759,0.17124
 84,-0.1575347,0.1406589,-0.5688469,-0.6588916,0.0275393,-0.2750032,-0.
 0615596,-0.6203366,0.024731,-0.3267023,0.0687893,-0.664226,0.3988838,-
 0.0774577,0.091222,-0.0769612,0.3515028,-0.0934607,0.0852419,-0.106551
 5,0.4165809,-0.9142515,0.1636523,0.1734643,0.2769511,-0.5209849,0.0934
 708,0.2133908,0.0364648,-0.5058539,0.3465707,-0.0023321,-0.0306916,-0.
 0070499,0.2046468,-0.03863,-0.1051459,-0.0069964,0.148799,0.3749529,-0
 .0744435,-0.0687165,-0.0673372,0.164254,0.0202196,-0.1243474,0.07863,0
 .2655956,-0.5043227,0.213736,0.0225923,0.2528463,-1.1519525,0.0932235,
 0.0401065,0.0717391,-0.4226822,0.209651,-0.0883895,-0.117168,-0.018167
 6,0.3164775,-0.0285237,-0.1185401,-0.0735075,0.3293714|Polar=62.517319
 8,5.3786426,66.6435306,16.0273082,1.2808143,45.415953|PG=C01 [X(C4H7N1
 O4)]|NImag=1||0.38684656,0.00857921,0.53786853,0.04719286,-0.00940981,
 0.59081535,-0.04261102,-0.00194504,0.01681379,0.06307559,-0.00245666,-
 0.05143254,-0.01766914,-0.00343124,0.06017170,0.01511583,-0.01622833,-
 0.29299581,-0.01235085,0.01175342,0.32294006,-0.09862071,-0.00590332,0
 .01923722,-0.01241347,-0.00127944,0.00474187,0.41489000,-0.00821287,-0
 .08253280,0.00322228,0.00134415,0.00316953,-0.00163509,-0.03545042,0.5
 7617408,0.01958392,0.00233991,-0.07864585,0.03385692,0.00139312,-0.009
 35059,0.03755218,-0.04605521,0.55177582,-0.00994956,0.02573610,-0.0119
 9717,0.00084896,-0.00040790,0.00081957,-0.08893126,0.09260153,-0.02871
 520,0.09971620,-0.00105513,0.00035452,0.00026845,0.00031739,-0.0000000
 3,-0.00019762,0.08845297,-0.25859608,0.06995488,-0.09545557,0.28356088
 ,0.00295588,-0.00754385,0.00206173,-0.00042105,-0.00012064,-0.00022758
 ,-0.02940260,0.07327500,-0.07602193,0.03501286,-0.07507615,0.07839297,
 -0.01100867,-0.00331543,0.03540807,-0.00601592,-0.00025107,0.00096707,
 -0.04122698,-0.00122016,0.01489122,0.00126297,0.00023794,-0.01276160,0
 .05418318,0.00205712,0.00043592,-0.00104914,0.00020843,0.00050917,-0.0
 0035999,-0.00193135,-0.05185135,0.01760601,-0.00301049,-0.00030211,0.0
 2972446,0.00474744,0.05183730,0.00172982,0.00227720,-0.00970465,0.0013
 5282,0.00042965,0.00098292,0.01701956,0.01838166,-0.30608793,0.0014532
 8,-0.00086358,-0.00799055,-0.01883802,-0.01966125,0.33440088,-0.027996
 58,-0.02802764,-0.01254561,0.00170838,-0.00033460,-0.00115761,-0.10975
 604,-0.04481793,-0.02059981,0.00581314,0.01248166,0.00465283,0.0001320
 5,0.00194146,-0.00145966,0.75126356,-0.01088719,0.01361938,0.00178273,
 0.00125276,0.00086884,-0.00082466,-0.04031103,-0.14771642,-0.03510715,
 -0.01860599,-0.02661318,-0.01745961,0.00157451,0.00226767,0.00278541,-
 0.01441605,0.54679460,-0.00274504,0.01323736,0.00578241,0.00220878,0.0
 0118433,-0.00005231,-0.01696209,-0.03437805,-0.10809803,0.00550631,0.0
 0898433,0.00241749,-0.02243410,-0.03020721,-0.01628523,0.30574439,0.03
 478022,0.39677708,0.00250672,-0.00132144,-0.00255299,-0.00030060,0.000
 06369,0.00065524,-0.02323249,0.00101681,-0.02744773,0.00032945,0.00045
 333,0.00146256,-0.00284851,-0.00273109,-0.00005124,-0.52633409,0.04655
 826,-0.25592663,0.58957143,0.00003325,-0.00465636,-0.00244146,0.000074
 55,-0.00012694,0.00007648,-0.02347867,0.00911331,-0.01398750,0.0004476
 5,0.00394348,0.00095365,-0.00260883,-0.00153334,-0.00207335,0.05540596
 ,-0.11272637,0.02725757,-0.09283602,0.11174353,0.00301379,-0.00620995,
 -0.00434400,-0.00054877,-0.00004627,0.00033027,-0.03313718,-0.00083645
 ,0.00591533,0.00031514,-0.00010018,0.00017892,0.00173861,0.00149275,0.
 00073211,-0.25490074,0.02279635,-0.21201084,0.31123291,-0.04307207,0.1
 9935338,-0.09565899,-0.05414212,-0.01173910,0.00090744,0.00205417,-0.0
 0196721,-0.02797740,-0.02950981,-0.00936830,-0.00193136,-0.00062336,-0
 .00089197,0.00133245,-0.00016581,-0.00054256,-0.00553194,-0.00006122,0
 .00241728,0.00018687,0.00005588,-0.00095713,0.43884728,-0.03886278,-0.
 18261312,-0.02788302,-0.00397881,-0.00308508,-0.00244719,-0.01459483,0
 .00435458,-0.00075337,0.00331728,0.00056184,0.00074764,0.00163335,0.00
 037166,-0.00073917,0.00040027,-0.00524164,-0.00383516,0.00237460,0.001
 57017,0.00290799,0.08617065,0.76505150,-0.01150990,-0.04016610,-0.0919
 8604,-0.01853063,-0.03416354,-0.01395118,0.00224312,0.01025919,0.00313
 051,-0.00192828,0.00006323,0.00042326,0.00259218,0.00151888,-0.0004137
 3,0.00233540,-0.00404723,-0.00262125,0.00068716,0.00145639,0.00144013,
 0.22819343,0.01077185,0.44072603,0.01067339,-0.01049288,0.00569531,0.0
 0021747,-0.00018646,0.00050275,-0.00127200,0.00073131,-0.00062348,0.00
 198775,-0.00077836,0.00029083,-0.00001890,-0.00018109,0.00016716,0.000
 98736,0.00070293,0.00064624,-0.00013523,-0.00042997,0.00002055,-0.1224
 5933,0.08064335,-0.06575916,0.12643799,0.00507499,-0.02229525,0.010951
 93,0.00060205,0.00018790,0.00126204,0.00222250,-0.00303364,-0.00001393
 ,-0.00037979,-0.00046080,-0.00068534,-0.00026150,-0.00050203,0.0004585
 8,0.00096701,0.00187734,0.00200464,-0.00124577,-0.00048581,-0.00122511
 ,0.04710268,-0.34834070,0.08827728,-0.13861820,0.39861075,0.00170738,-
 0.00677710,0.00886440,0.00130188,0.00229133,0.00241341,-0.00123707,-0.
 00058324,0.00087660,0.00086531,-0.00037245,-0.00048037,-0.00050464,-0.
 00044500,0.00026463,-0.00037001,0.00038235,-0.00011408,0.00014673,-0.0
 0021286,0.00019215,-0.05990674,0.12324858,-0.15087445,0.09898965,-0.19
 655339,0.18195569,-0.00564008,-0.00063106,-0.01846411,-0.00139262,-0.0
 0251557,0.00174080,0.00119716,-0.00009059,-0.00028960,0.00056351,-0.00
 004383,0.00002548,0.00003620,0.00005044,0.00037203,0.00047568,0.001294
 42,0.00055938,-0.00035252,-0.00052499,-0.00024404,-0.23073324,-0.03128
 657,-0.16667672,-0.01119395,0.04652962,-0.07059466,0.28979007,-0.01823
 227,0.00067029,-0.02052338,-0.00214089,-0.00370091,-0.00182585,0.00032
 068,-0.00298552,-0.00170608,-0.00147727,-0.00002178,0.00004288,0.00038
 731,0.00003483,0.00010459,0.00057826,0.00044580,0.00145790,-0.00113327
 ,-0.00012264,-0.00106604,0.00410855,-0.13574299,0.01532648,0.09795518,
 0.03255061,0.10593236,-0.02770043,0.08660628,-0.01394717,0.00070860,-0
 .00220899,0.00058069,0.00032568,0.00127963,0.00193809,-0.00239409,-0.0
 0238306,0.00100912,0.00014278,0.00003830,-0.00091394,-0.00044124,0.000
 46251,-0.00043499,0.00205591,0.00141791,-0.00030801,-0.00076683,-0.000
 46313,-0.17208410,-0.02403812,-0.24976435,-0.07835746,0.05253457,-0.04
 189462,0.25941981,-0.03346487,0.33108961,0.00410129,0.00124768,-0.0073
 6567,-0.00097224,-0.00145945,-0.00125289,0.00054090,0.00082221,0.00035
 757,-0.00088761,-0.00004529,-0.00000509,0.00005937,-0.00000554,0.00003
 291,0.00016343,-0.00090622,-0.00024425,0.00004050,0.00036328,0.0000724
 2,0.03892615,-0.07954211,0.02755043,-0.00509573,0.04000757,0.02983704,
 -0.04366904,-0.04711196,0.00186609,0.00809863,0.00262268,0.00038455,0.
 00424463,0.00036307,0.00084522,0.00040037,-0.00000386,0.00018474,-0.00
 007040,0.00041441,0.00001682,-0.00008030,-0.00020251,-0.00016055,0.000
 08147,-0.00026312,0.00013040,-0.00018429,0.00024112,-0.00006088,0.0001
 8273,-0.07992415,-0.05139507,-0.07428852,-0.02172748,-0.05293020,-0.02
 093968,0.01509846,0.01936119,0.00730202,0.08279116,0.08589237,-0.00620
 161,0.00279228,0.00160845,-0.00009578,-0.00014531,-0.00079982,-0.00038
 718,-0.00116173,-0.00062646,-0.00111567,0.00003120,0.00016145,0.000369
 51,0.00021137,-0.00022295,-0.00013631,-0.00005347,0.00017420,-0.000211
 29,0.00007842,-0.00028421,0.02669094,-0.07422475,0.06399305,0.03874026
 ,0.04452247,-0.00382659,-0.00713743,-0.05833524,-0.03857029,-0.0497167
 9,0.08219594,-0.02030714,-0.10658216,0.03948259,-0.04716553,-0.0045580
 0,0.01190517,-0.01051968,-0.02405729,0.03472542,-0.01512720,-0.0076294
 2,-0.00048958,0.00048536,0.00548191,-0.00097558,-0.00182673,0.00495417
 ,0.00150949,0.00178358,-0.00202898,-0.00059088,-0.00141922,0.00403073,
 -0.00981184,0.00435516,-0.00023666,-0.00226079,-0.00056913,0.00241515,
 -0.00366643,0.00037090,-0.00129562,0.00017104,-0.00053336,0.34683776,0
 .05134502,-0.18455108,0.03040736,0.00537718,-0.00319052,0.00747517,0.0
 1811683,-0.00582605,0.00274292,0.00122108,0.00067832,0.00012936,-0.001
 64086,0.00006800,-0.00009088,0.00064232,-0.00694073,-0.00241831,0.0001
 9715,0.00208483,0.00156884,0.01773978,-0.04516390,0.01559023,-0.003278
 80,-0.00495811,-0.00228788,0.00121694,-0.00143222,0.00093022,0.0013323
 3,0.00008922,0.00159585,0.11804932,0.71228173,-0.06842906,0.05741065,-
 0.11933695,-0.02149519,0.03144631,-0.00953167,-0.00360082,-0.00054158,
 0.00562930,0.00117611,-0.00050380,0.00170870,-0.00229561,-0.00015849,0
 .00272645,-0.00016873,0.00129638,-0.00069602,0.00047671,0.00012818,-0.
 00004913,0.00550751,-0.00586000,0.00244656,-0.00153611,-0.00219249,0.0
 0058815,-0.00014916,-0.00272658,0.00107496,-0.00074192,0.00004130,-0.0
 0051528,0.32538269,0.02768960,0.49809134,-0.01084057,-0.00087983,-0.01
 503803,0.00099599,-0.00158074,0.00294339,-0.00110371,0.00142262,-0.001
 63508,-0.00055476,0.00002200,0.00068659,-0.00078233,0.00047235,0.00041
 196,-0.00055411,0.00014322,-0.00019562,0.00037628,0.00006839,0.0000458
 9,0.00294789,0.00019728,-0.00016391,-0.00099135,-0.00047059,-0.0005289
 7,-0.00177981,0.00017496,0.00050578,0.00044085,-0.00026037,0.00038822,
 -0.10795435,-0.03327910,-0.17653852,0.12559980,0.01635514,0.00324414,0
 .02973230,0.00273176,-0.00395909,0.00194240,0.00033643,-0.00158896,0.0
 0082745,0.00054911,0.00007893,-0.00025613,-0.00002821,0.00028097,-0.00
 031055,0.00005720,-0.00100353,-0.00008789,-0.00024072,0.00030267,-0.00
 008953,0.00349224,-0.00021763,0.00503526,-0.00251362,0.00061327,-0.002
 65962,-0.00063330,0.00321792,-0.00178680,0.00160912,-0.00186604,0.0017
 5878,-0.04191046,-0.08326842,-0.06283211,0.03417829,0.08322454,0.00240
 000,-0.00423033,-0.01246741,-0.00259301,0.00344141,-0.00106024,0.00171
 809,-0.00155806,0.00114324,0.00067479,-0.00014700,-0.00032219,-0.00011
 878,-0.00023034,-0.00004656,0.00012234,-0.00036906,-0.00030289,0.00006
 420,0.00003903,0.00026943,-0.00275758,0.00034866,-0.00051400,0.0005436
 8,-0.00030316,0.00082494,0.00144593,-0.00187795,-0.00030152,-0.0001731
 9,0.00049281,-0.00039484,-0.20828047,-0.06144983,-0.33341316,0.2005042
 7,0.06006259,0.34678524,0.00610629,0.02700706,0.00293931,0.00017577,-0
 .00025184,-0.00017827,0.00123912,-0.00004110,0.00012750,0.00018389,-0.
 00026387,0.00003369,-0.00037418,0.00028574,0.00045600,-0.00376654,0.00
 627882,-0.00137445,0.00226554,-0.00179408,0.00113347,-0.00345450,0.003
 13275,-0.00254150,0.00107192,0.00121630,0.00057522,0.00023211,-0.00124
 957,0.00013152,-0.00021892,0.00046588,-0.00050513,-0.10310565,-0.17477
 408,-0.05523857,-0.00549731,-0.01249388,0.00614763,0.10508931,-0.01251
 906,-0.02473769,-0.00182857,-0.00021275,-0.00002190,0.00001342,-0.0018
 3179,0.00181219,-0.00072013,-0.00076244,0.00014836,-0.00001453,0.00066
 302,-0.00023237,-0.00038012,0.00205495,0.00136868,0.00093335,-0.000018
 22,-0.00049850,-0.00028844,0.00244422,-0.00136452,0.00279618,-0.000551
 43,-0.00065084,-0.00066608,0.00010282,0.00087465,-0.00003637,0.0002746
 9,-0.00035681,0.00039473,-0.14263421,-0.38325260,-0.04246283,0.0001532
 8,0.00072408,0.00555448,0.15637048,0.40983290,0.00995805,0.01219538,0.
 00387987,0.00006800,0.00028014,-0.00023850,-0.00178769,-0.00003604,0.0
 0033851,-0.00036927,0.00010624,-0.00017702,0.00048711,-0.00047927,-0.0
 0037355,-0.00059162,0.00372278,0.00161292,0.00005949,-0.00097484,-0.00
 033989,-0.00249484,0.00163496,-0.00234451,0.00095120,0.00111291,0.0011
 7966,0.00005516,-0.00125826,0.00033994,-0.00030866,0.00059063,-0.00039
 734,-0.04375792,-0.02112633,-0.05084899,-0.01162538,-0.03137955,-0.000
 15826,0.04809013,0.03790738,0.04992631,-0.00150050,0.00351270,0.000121
 28,0.00034274,0.00022105,-0.00016031,0.00989255,-0.01693341,-0.0004989
 2,-0.00136557,-0.00367044,-0.00214366,0.00007725,-0.00048608,-0.000081
 64,-0.10510842,0.01045431,-0.02692104,-0.03636997,0.06773444,-0.027236
 81,0.00052326,0.00015075,-0.00087362,0.00001037,-0.00040798,0.00022885
 ,0.00006168,-0.00072719,0.00019465,-0.00023302,0.00019465,-0.00010538,
 -0.00475712,-0.00222816,-0.00265182,-0.00027729,-0.00130280,0.00023800
 ,-0.00116428,-0.00227544,0.00183912,0.32108701,0.00608116,-0.00410784,
 -0.00001318,-0.00036344,-0.00014988,0.00053804,0.00922796,-0.03767101,
 0.00037718,-0.00339905,-0.00244138,-0.00269754,0.00019115,-0.00134578,
 -0.00016565,0.04700353,-0.22267662,0.00760675,0.04861585,-0.01779551,0
 .02199027,0.00117276,0.00170158,0.00167493,-0.00123770,-0.00034932,-0.
 00037885,-0.00098559,0.00000751,-0.00116644,0.00061650,-0.00010746,0.0
 0029636,-0.00460667,0.00300018,-0.00080143,-0.00030871,0.00011490,0.00
 017718,-0.00272288,-0.00401578,-0.00214577,0.08222260,0.51259497,-0.00
 022615,-0.00038350,-0.00122444,-0.00023701,-0.00046701,0.00037287,0.00
 321161,-0.01638528,0.00783431,-0.00236619,-0.00238001,-0.00053368,0.00
 110512,0.00164381,0.00126503,-0.02178540,-0.01522335,-0.07230629,-0.02
 929353,0.03281748,0.01381545,-0.00015736,0.00001105,0.00024843,-0.0002
 2973,-0.00005067,0.00010835,0.00000168,-0.00001734,-0.00000301,0.00008
 789,0.00002305,-0.00004265,-0.00291878,-0.00091550,0.00230023,0.000301
 81,0.00015498,-0.00016745,0.00010217,-0.00084057,-0.00257267,0.1711917
 3,0.10947222,0.15247230,0.00017458,0.00109342,-0.00053963,-0.00000847,
 -0.00008911,0.00010030,0.00083161,0.00361224,-0.00206398,0.00054368,0.
 00046012,0.00001989,-0.00028988,-0.00027596,-0.00019569,0.01354995,0.0
 1541899,0.00793725,-0.00367440,-0.00191994,0.00087112,0.00004470,0.000
 05666,0.00002681,0.00001687,-0.00007810,0.00005917,-0.00001031,-0.0000
 8565,0.00002902,0.00000106,0.00001901,-0.00004300,-0.00151448,-0.00003
 696,0.00030249,-0.00002522,-0.00018629,0.00006410,0.00121742,-0.001258
 13,-0.00057289,-0.18121869,-0.18150747,-0.11878786,0.17036157,0.000077
 41,0.00034934,0.00020803,-0.00019917,-0.00008546,0.00005738,0.00610733
 ,-0.00300660,0.00317230,-0.00078865,-0.00090780,-0.00093892,0.00009385
 ,0.00012203,-0.00023400,-0.03367328,-0.04445419,-0.02633555,0.00000573
 ,0.00924837,0.00199513,0.00008552,-0.00044669,-0.00010449,-0.00003677,
 0.00016683,0.00002153,0.00011922,0.00023698,0.00009498,0.00000602,-0.0
 0002752,0.00004311,0.00110341,0.00038136,0.00006692,-0.00005303,0.0001
 0225,0.00004957,-0.00116575,0.00037017,-0.00015035,-0.13645898,-0.2267
 5856,-0.10745935,0.16477716,0.26470949,-0.00059858,-0.00001240,-0.0000
 9807,0.00008942,0.00006651,-0.00011146,-0.00114709,0.00042671,0.004570
 21,-0.00034073,0.00008972,0.00037050,0.00030779,0.00083465,0.00029062,
 0.00129553,0.00348239,0.00430494,0.00100640,0.00072170,-0.00473597,0.0
 0005772,0.00011006,0.00006153,-0.00004170,-0.00010032,-0.00007788,-0.0
 0006455,-0.00006262,-0.00011391,0.00000412,0.00000825,0.00005042,-0.00
 025966,0.00015920,-0.00017451,-0.00006242,-0.00011156,0.00012567,0.000
 10127,-0.00036192,0.00017350,-0.11314043,-0.13476407,-0.10156677,0.112
 79290,0.12951370,0.09693118||-0.00000066,0.00000399,-0.00000977,-0.000
 00407,0.00000038,-0.00000190,-0.00000013,-0.00000013,0.00000251,-0.000
 00025,-0.00000040,0.00000294,0.00000251,-0.00000159,0.00000150,-0.0000
 0014,0.00000025,0.00000126,-0.00000062,0.00000098,0.00000191,-0.000010
 32,0.00000345,-0.00000100,-0.00000197,-0.00001050,-0.00000501,0.000011
 60,0.00001264,0.00000404,0.00000468,-0.00000728,0.00001208,-0.00001091
 ,-0.00000119,0.00000996,0.00000608,-0.00000041,-0.00000646,0.00000428,
 -0.00000133,-0.00001010,0.00000052,0.00000059,-0.00000091,-0.00000059,
 0.00000056,-0.00000104|||@


 NO HUMAN INVESTIGATION CAN BECOME REAL SCIENCE
 WITHOUT GOING THROUGH MATHEMATICAL PEOPLE.
 -- LEONARDO DA VINCI, IN "PENSIERI" CA. 1492
 Job cpu time:  0 days  0 hours  4 minutes 53.0 seconds.
 File lengths (MBytes):  RWF=     26 Int=      0 D2E=      0 Chk=      8 Scr=      1
 Normal termination of Gaussian 03 at Fri Apr 01 11:19:42 2016.
